<LesHouchesEvents version="3.0">
<header>
<!--
#*********************************************************************
#                                                                    *
#                        MadGraph5_aMC@NLO                           *
#                                                                    *
#                           Going Beyond                             *
#                                                                    *
#                   http://madgraph.hep.uiuc.edu                     *
#                   http://madgraph.phys.ucl.ac.be                   *
#                   http://amcatnlo.cern.ch                          *
#                                                                    *
#                     The MadGraph5_aMC@NLO team                     *
#                                                                    *
#....................................................................*
#                                                                    *
# This file contains all the information necessary to reproduce      *
# the events generated:                                              *
#                                                                    *
# 1. software version                                                *
# 2. proc_card          : code generation info including model       *
# 3. param_card         : model primary parameters in the LH format  *
# 4. run_card           : running parameters (collider and cuts)     *
# 5. pythia_card        : present only if pythia has been run        *
# 6. pgs_card           : present only if pgs has been run           *
# 7. delphes_cards      : present only if delphes has been run       *
#                                                                    *
#                                                                    *
#*********************************************************************
-->
<MGVersion>
#5.2.2.3
</MGVersion>
<MG5ProcCard>
#************************************************************
#*                     MadGraph5_aMC@NLO                    *
#*                                                          *
#*                *                       *                 *
#*                  *        * *        *                   *
#*                    * * * * 5 * * * *                     *
#*                  *        * *        *                   *
#*                *                       *                 *
#*                                                          *
#*                                                          *
#*         VERSION 2.2.3                 2015-02-10         *
#*                                                          *
#*    The MadGraph5_aMC@NLO Development Team - Find us at   *
#*    https://server06.fynu.ucl.ac.be/projects/madgraph     *
#*                                                          *
#************************************************************
#*                                                          *
#*               Command File for MadGraph5_aMC@NLO         *
#*                                                          *
#*     run as ./bin/mg5_aMC  filename                       *
#*                                                          *
#************************************************************
set group_subprocesses Auto
set ignore_six_quark_processes False
set loop_optimized_output True
set gauge unitary
set complex_mass_scheme False
import model sm
define p = g u c d s u~ c~ d~ s~
define j = g u c d s u~ c~ d~ s~
define l+ = e+ mu+
define l- = e- mu-
define vl = ve vm vt
define vl~ = ve~ vm~ vt~
import model Zprime_UFO
generate p p > zph, zph > j j
add process p p > zph, zph > b b~
output Dijet_signal
</MG5ProcCard>
<MGProcCard>
#*********************************************************************
#                        MadGraph/MadEvent                           *
#                   http://madgraph.hep.uiuc.edu                     *
#                                                                    *
#                          proc_card.dat                             *
#*********************************************************************
#                                                                    *
#            This Files is generated by MADGRAPH 5                   *
#                                                                    *
# WARNING: This Files is generated for MADEVENT (compatibility issue)*
#          This files is NOT a valid MG4 proc_card.dat               *
#          Running this in MG4 will NEVER reproduce the result of MG5*
#                                                                    *
#*********************************************************************
#*********************************************************************
# Process(es) requested : mg2 input                                  *
#*********************************************************************
# Begin PROCESS # This is TAG. Do not modify this line
p p > zph , zph > j j           #Process
# Be carefull the coupling are here in MG5 convention
          
end_coup           # End the couplings input

done               # this tells MG there are no more procs
# End PROCESS  # This is TAG. Do not modify this line
#*********************************************************************
# Model information                                                  *
#*********************************************************************
# Begin MODEL  # This is TAG. Do not modify this line
Zprime_UFO
# End   MODEL  # This is TAG. Do not modify this line
#*********************************************************************
# Start multiparticle definitions                                    *
#*********************************************************************
# Begin MULTIPARTICLES # This is TAG. Do not modify this line

# End  MULTIPARTICLES # This is TAG. Do not modify this line
</MGProcCard>
<MGRunCard>
#*********************************************************************
#                       MadGraph5_aMC@NLO                            *
#                                                                    *
#                     run_card.dat MadEvent                          *
#                                                                    *
#  This file is used to set the parameters of the run.               *
#                                                                    *
#  Some notation/conventions:                                        *
#                                                                    *
#   Lines starting with a '# ' are info or comments                  *
#                                                                    *
#   mind the format:   value    = variable     ! comment             *
#*********************************************************************
#
#*******************                                                 
# Running parameters
#*******************                                                 
#                                                                    
#*********************************************************************
# Tag name for the run (one word)                                    *
#*********************************************************************
  tag_1     = run_tag ! name of the run 
#*********************************************************************
# Run to generate the grid pack                                      *
#*********************************************************************
  .false.     = gridpack  !True = setting up the grid pack
#*********************************************************************
# Number of events and rnd seed                                      *
# Warning: Do not generate more than 1M events in a single run       *
# If you want to run Pythia, avoid more than 50k events in a run.    *
#*********************************************************************
  2000 = nevents ! Number of unweighted events requested 
 1605 = iseed   ! rnd seed (0=assigned automatically=default))
#*********************************************************************
# Collider type and energy                                           *
# lpp: 0=No PDF, 1=proton, -1=antiproton, 2=photon from proton,      *
#                                         3=photon from electron     *
#*********************************************************************
        1     = lpp1    ! beam 1 type 
        1     = lpp2    ! beam 2 type
     4000     = ebeam1  ! beam 1 total energy in GeV
     4000     = ebeam2  ! beam 2 total energy in GeV
#*********************************************************************
# Beam polarization from -100 (left-handed) to 100 (right-handed)    *
#*********************************************************************
        0     = polbeam1 ! beam polarization for beam 1
        0     = polbeam2 ! beam polarization for beam 2
#*********************************************************************
# PDF CHOICE: this automatically fixes also alpha_s and its evol.    *
#*********************************************************************
 'nn23lo1'    = pdlabel     ! PDF set                                     
 230000    = lhaid     ! if pdlabel=lhapdf, this is the lhapdf number
#*********************************************************************
# Renormalization and factorization scales                           *
#*********************************************************************
 F        = fixed_ren_scale  ! if .true. use fixed ren scale
 F        = fixed_fac_scale  ! if .true. use fixed fac scale
 91.1880  = scale            ! fixed ren scale
 91.1880  = dsqrt_q2fact1    ! fixed fact scale for pdf1
 91.1880  = dsqrt_q2fact2    ! fixed fact scale for pdf2
 1        = scalefact        ! scale factor for event-by-event scales
#*********************************************************************
# Matching - Warning! ickkw > 1 is still beta
#*********************************************************************
 0        = ickkw            ! 0 no matching, 1 MLM, 2 CKKW matching
 1        = highestmult      ! for ickkw=2, highest mult group
 1        = ktscheme         ! for ickkw=1, 1 Durham kT, 2 Pythia pTE
 1        = alpsfact         ! scale factor for QCD emission vx
 F        = chcluster        ! cluster only according to channel diag
 T        = pdfwgt           ! for ickkw=1, perform pdf reweighting
 5        = asrwgtflavor     ! highest quark flavor for a_s reweight
 T        = clusinfo         ! include clustering tag in output
 3.0      = lhe_version       ! Change the way clustering information pass to shower.        
#*********************************************************************
#**********************************************************
#
#**********************************************************
# Automatic ptj and mjj cuts if xqcut > 0
# (turn off for VBF and single top processes)
#**********************************************************
   T  = auto_ptj_mjj  ! Automatic setting of ptj and mjj
#**********************************************************
#                                                                    
#**********************************
# BW cutoff (M+/-bwcutoff*Gamma)
#**********************************
  15  = bwcutoff      ! (M+/-bwcutoff*Gamma)
#**********************************************************
# Apply pt/E/eta/dr/mij cuts on decay products or not
# (note that etmiss/ptll/ptheavy/ht/sorted cuts always apply)
#**********************************************************
   T  = cut_decays    ! Cut decay products 
#*************************************************************
# Number of helicities to sum per event (0 = all helicities)
# 0 gives more stable result, but longer run time (needed for
# long decay chains e.g.).
# Use >=2 if most helicities contribute, e.g. pure QCD.
#*************************************************************
   0  = nhel          ! Number of helicities used per event
#*******************                                                 
# Standard Cuts
#*******************                                                 
#                                                                    
#*********************************************************************
# Minimum and maximum pt's (for max, -1 means no cut)                *
#*********************************************************************
 20  = ptj       ! minimum pt for the jets 
  0  = ptb       ! minimum pt for the b 
 10  = pta       ! minimum pt for the photons 
 10  = ptl       ! minimum pt for the charged leptons 
  0  = misset    ! minimum missing Et (sum of neutrino's momenta)
  0  = ptheavy   ! minimum pt for one heavy final state
 1.0 = ptonium   ! minimum pt for the quarkonium states
 -1  = ptjmax    ! maximum pt for the jets
 -1  = ptbmax    ! maximum pt for the b
 -1  = ptamax    ! maximum pt for the photons
 -1  = ptlmax    ! maximum pt for the charged leptons
 -1  = missetmax ! maximum missing Et (sum of neutrino's momenta)
#*********************************************************************
# Minimum and maximum E's (in the center of mass frame)              *
#*********************************************************************
  0  = ej     ! minimum E for the jets 
  0  = eb     ! minimum E for the b 
  0  = ea     ! minimum E for the photons 
  0  = el     ! minimum E for the charged leptons 
 -1   = ejmax ! maximum E for the jets
 -1   = ebmax ! maximum E for the b
 -1   = eamax ! maximum E for the photons
 -1   = elmax ! maximum E for the charged leptons
#*********************************************************************
# Maximum and minimum absolute rapidity (for max, -1 means no cut)   *
#*********************************************************************
   5  = etaj    ! max rap for the jets 
  -1  = etab    ! max rap for the b
 2.5  = etaa    ! max rap for the photons 
 2.5  = etal    ! max rap for the charged leptons 
 0.6  = etaonium ! max rap for the quarkonium states
   0  = etajmin ! min rap for the jets
   0  = etabmin ! min rap for the b
   0  = etaamin ! min rap for the photons
   0  = etalmin ! main rap for the charged leptons
#*********************************************************************
# Minimum and maximum DeltaR distance                                *
#*********************************************************************
 0.4 = drjj    ! min distance between jets 
 0   = drbb    ! min distance between b's 
 0.4 = drll    ! min distance between leptons 
 0.4 = draa    ! min distance between gammas 
 0   = drbj    ! min distance between b and jet 
 0.4 = draj    ! min distance between gamma and jet 
 0.4 = drjl    ! min distance between jet and lepton 
 0   = drab    ! min distance between gamma and b 
 0   = drbl    ! min distance between b and lepton 
 0.4 = dral    ! min distance between gamma and lepton 
 -1  = drjjmax ! max distance between jets
 -1  = drbbmax ! max distance between b's
 -1  = drllmax ! max distance between leptons
 -1  = draamax ! max distance between gammas
 -1  = drbjmax ! max distance between b and jet
 -1  = drajmax ! max distance between gamma and jet
 -1  = drjlmax ! max distance between jet and lepton
 -1  = drabmax ! max distance between gamma and b
 -1  = drblmax ! max distance between b and lepton
 -1  = dralmax ! maxdistance between gamma and lepton
#*********************************************************************
# Minimum and maximum invariant mass for pairs                       *
# WARNING: for four lepton final state mmll cut require to have      *
#          different lepton masses for each flavor!                  *           
#*********************************************************************
 0   = mmjj    ! min invariant mass of a jet pair 
 0   = mmbb    ! min invariant mass of a b pair 
 0   = mmaa    ! min invariant mass of gamma gamma pair
 0   = mmll    ! min invariant mass of l+l- (same flavour) lepton pair
 -1  = mmjjmax ! max invariant mass of a jet pair
 -1  = mmbbmax ! max invariant mass of a b pair
 -1  = mmaamax ! max invariant mass of gamma gamma pair
 -1  = mmllmax ! max invariant mass of l+l- (same flavour) lepton pair
#*********************************************************************
# Minimum and maximum invariant mass for all letpons                 *
#*********************************************************************
 0   = mmnl    ! min invariant mass for all letpons (l+- and vl) 
 -1  = mmnlmax ! max invariant mass for all letpons (l+- and vl) 
#*********************************************************************
# Minimum and maximum pt for 4-momenta sum of leptons                *
#*********************************************************************
 0   = ptllmin  ! Minimum pt for 4-momenta sum of leptons(l and vl)
 -1  = ptllmax  ! Maximum pt for 4-momenta sum of leptons(l and vl)
#*********************************************************************
# Inclusive cuts                                                     *
#*********************************************************************
 0  = xptj ! minimum pt for at least one jet  
 0  = xptb ! minimum pt for at least one b 
 0  = xpta ! minimum pt for at least one photon 
 0  = xptl ! minimum pt for at least one charged lepton 
#*********************************************************************
# Control the pt's of the jets sorted by pt                          *
#*********************************************************************
 0   = ptj1min ! minimum pt for the leading jet in pt
 0   = ptj2min ! minimum pt for the second jet in pt
 0   = ptj3min ! minimum pt for the third jet in pt
 0   = ptj4min ! minimum pt for the fourth jet in pt
 -1  = ptj1max ! maximum pt for the leading jet in pt 
 -1  = ptj2max ! maximum pt for the second jet in pt
 -1  = ptj3max ! maximum pt for the third jet in pt
 -1  = ptj4max ! maximum pt for the fourth jet in pt
 0   = cutuse  ! reject event if fails any (0) / all (1) jet pt cuts
#*********************************************************************
# Control the pt's of leptons sorted by pt                           *
#*********************************************************************
 0   = ptl1min ! minimum pt for the leading lepton in pt
 0   = ptl2min ! minimum pt for the second lepton in pt
 0   = ptl3min ! minimum pt for the third lepton in pt
 0   = ptl4min ! minimum pt for the fourth lepton in pt
 -1  = ptl1max ! maximum pt for the leading lepton in pt 
 -1  = ptl2max ! maximum pt for the second lepton in pt
 -1  = ptl3max ! maximum pt for the third lepton in pt
 -1  = ptl4max ! maximum pt for the fourth lepton in pt
#*********************************************************************
# Control the Ht(k)=Sum of k leading jets                            *
#*********************************************************************
 0   = htjmin ! minimum jet HT=Sum(jet pt)
 -1  = htjmax ! maximum jet HT=Sum(jet pt)
 0   = ihtmin  !inclusive Ht for all partons (including b)
 -1  = ihtmax  !inclusive Ht for all partons (including b)
 0   = ht2min ! minimum Ht for the two leading jets
 0   = ht3min ! minimum Ht for the three leading jets
 0   = ht4min ! minimum Ht for the four leading jets
 -1  = ht2max ! maximum Ht for the two leading jets
 -1  = ht3max ! maximum Ht for the three leading jets
 -1  = ht4max ! maximum Ht for the four leading jets
#***********************************************************************
# Photon-isolation cuts, according to hep-ph/9801442                   *
# When ptgmin=0, all the other parameters are ignored                  *
# When ptgmin>0, pta and draj are not going to be used                 *
#***********************************************************************
   0 = ptgmin ! Min photon transverse momentum
 0.4 = R0gamma ! Radius of isolation code
 1.0 = xn ! n parameter of eq.(3.4) in hep-ph/9801442
 1.0 = epsgamma ! epsilon_gamma parameter of eq.(3.4) in hep-ph/9801442
 .true. = isoEM ! isolate photons from EM energy (photons and leptons)
#*********************************************************************
# WBF cuts                                                           *
#*********************************************************************
 0   = xetamin ! minimum rapidity for two jets in the WBF case  
 0   = deltaeta ! minimum rapidity for two jets in the WBF case 
#*********************************************************************
# KT DURHAM CUT                                                      *
#*********************************************************************
 -1    =  ktdurham        
 0.4  =  dparameter 
#*********************************************************************
# maximal pdg code for quark to be considered as a light jet         *
# (otherwise b cuts are applied)                                     *
#*********************************************************************
 4 = maxjetflavor    ! Maximum jet pdg code
#*********************************************************************
# Jet measure cuts                                                   *
#*********************************************************************
 0   = xqcut   ! minimum kt jet measure between partons
#*********************************************************************
#
#*********************************************************************
# Store info for systematics studies                                 *
# WARNING: If use_syst is T, matched Pythia output is                *
#          meaningful ONLY if plotted taking matchscale              *
#          reweighting into account!                                 *
#*********************************************************************
   F  = use_syst      ! Enable systematics studies
#
#**************************************
# Parameter of the systematics study
#  will be used by SysCalc (if installed)
#**************************************                                  
#
0.5 1 2 = sys_scalefact  # factorization/renormalization scale factor
0.5 1 2 = sys_alpsfact  # \alpha_s emission scale factors
30 50 = sys_matchscale # variation of merging scale
# PDF sets and number of members (0 or none for all members).
CT10nlo.LHgrid = sys_pdf # matching scales
# MSTW2008nlo68cl.LHgrid 1  = sys_pdf
</MGRunCard>
<slha>
######################################################################
## PARAM_CARD AUTOMATICALY GENERATED BY MG5 FOLLOWING UFO MODEL   ####
######################################################################
##                                                                  ##
##  Width set on Auto will be computed following the information    ##
##        present in the decay.py files of the model.               ##
##        See  arXiv:1402.1178 for more details.                    ##
##                                                                  ##
######################################################################

###################################
## INFORMATION FOR CKMBLOCK
###################################
Block ckmblock 
    1 2.277360e-01 # cabi 

###################################
## INFORMATION FOR FRBLOCK
###################################
Block frblock 
    1 8.000000e-01 # gz 

###################################
## INFORMATION FOR MASS
###################################
Block mass 
    1 5.040000e-03 # MD 
    2 2.550000e-03 # MU 
    3 1.010000e-01 # MS 
    4 1.270000e+00 # MC 
    5 4.700000e+00 # MB 
    6 1.720000e+02 # MT 
   11 5.110000e-04 # Me 
   13 1.056600e-01 # MM 
   15 1.777000e+00 # MTA 
   23 9.118760e+01 # MZ 
   25 1.200000e+02 # MH 
  10030 2.000000e+03 # MZph 
  10031 3.000000e+02 # MZpl 
## Dependent parameters, given by model restrictions.
## Those values should be edited following the 
## analytical expression. MG5 ignores those values 
## but they are important for interfacing the output of MG5
## to external program such as Pythia.
  12 0.000000 # ve : 0.0 
  14 0.000000 # vm : 0.0 
  16 0.000000 # vt : 0.0 
  21 0.000000 # g : 0.0 
  22 0.000000 # a : 0.0 
  24 79.824360 # w+ : cmath.sqrt(MZ__exp__2/2. + cmath.sqrt(MZ__exp__4/4. - (aEW*cmath.pi*MZ__exp__2)/(Gf*sqrt__2))) 

###################################
## INFORMATION FOR SMINPUTS
###################################
Block sminputs 
    1 1.279000e+02 # aEWM1 
    2 1.166370e-05 # Gf 
    3 1.184000e-01 # aS 

###################################
## INFORMATION FOR YUKAWA
###################################
Block yukawa 
    1 5.040000e-03 # ymdo 
    2 2.550000e-03 # ymup 
    3 1.010000e-01 # yms 
    4 1.270000e+00 # ymc 
    5 4.700000e+00 # ymb 
    6 1.720000e+02 # ymt 
   11 5.110000e-04 # yme 
   13 1.056600e-01 # ymm 
   15 1.777000e+00 # ymtau 

###################################
## INFORMATION FOR DECAY
###################################
DECAY   6 1.508336e+00 # WT 
DECAY  23 2.495200e+00 # WZ 
DECAY  24 2.085000e+00 # WW 
DECAY  25 5.753088e-03 # WH 
## Dependent parameters, given by model restrictions.
## Those values should be edited following the 
## analytical expression. MG5 ignores those values 
## but they are important for interfacing the output of MG5
## to external program such as Pythia.
DECAY  1 0.000000 # d : 0.0 
DECAY  2 0.000000 # u : 0.0 
DECAY  3 0.000000 # s : 0.0 
DECAY  4 0.000000 # c : 0.0 
DECAY  5 0.000000 # b : 0.0 
DECAY  11 0.000000 # e- : 0.0 
DECAY  12 0.000000 # ve : 0.0 
DECAY  13 0.000000 # mu- : 0.0 
DECAY  14 0.000000 # vm : 0.0 
DECAY  15 0.000000 # ta- : 0.0 
DECAY  16 0.000000 # vt : 0.0 
DECAY  21 0.000000 # g : 0.0 
DECAY  22 0.000000 # a : 0.0 
DECAY  10030 0.308725 # zph : (gz__exp__2*MZph*(5 + cmath.sqrt(1 - (4*MT__exp__2)/MZph__exp__2)))/(144.*cmath.pi) 
DECAY  10031 0.132629 # zpl : (5*gz__exp__2*MZpl)/(144.*cmath.pi) 
#===========================================================
# QUANTUM NUMBERS OF NEW STATE(S) (NON SM PDG CODE)
#===========================================================

Block QNUMBERS 10030  # zph 
        1 0  # 3 times electric charge
        2 3  # number of spin states (2S+1)
        3 1  # colour rep (1: singlet, 3: triplet, 8: octet)
        4 0  # Particle/Antiparticle distinction (0=own anti)
Block QNUMBERS 10031  # zpl 
        1 0  # 3 times electric charge
        2 3  # number of spin states (2S+1)
        3 1  # colour rep (1: singlet, 3: triplet, 8: octet)
        4 0  # Particle/Antiparticle distinction (0=own anti)
</slha>
## END BANNER##
<MGGenerationInfo>
#  Number of Events        :         3981
#  Integrated weight (pb)  :  0.22877E-01
#  Max wgt                 :  0.80226E-05
#  Average wgt             :  0.57465E-05
</MGGenerationInfo>
</header>
<init>
     2212     2212  0.40000000000E+04  0.40000000000E+04 0 0  247000  247000 2   1
  0.22891266368E-01  0.46814175680E-04  0.80225740000E-05   0
</init>
<event>
 5   0  0.8022574E-05  0.1974493E+04  0.7818609E-02  0.8618640E-01
        2   -1    0    0  501    0  0.00000000000E+00  0.00000000000E+00  0.19887305953E+04  0.19887305953E+04  0.25500000920E-02 0.  1.
       -2   -1    0    0    0  501  0.00000000000E+00  0.00000000000E+00 -0.49008910671E+03  0.49008910671E+03  0.25500000920E-02 0. -1.
    10030    2    1    2    0    0  0.00000000000E+00  0.00000000000E+00  0.14986414886E+04  0.24788197021E+04  0.19744925434E+04 0.  0.
        1    1    3    3  502    0  0.39935934342E+03  0.34962236303E+03 -0.29572331193E+03  0.60759851806E+03  0.50400001928E-02 0. -1.
       -1    1    3    3    0  502 -0.39935934342E+03 -0.34962236303E+03  0.17943648006E+04  0.18712211840E+04  0.50400001928E-02 0.  1.
</event>
<event>
 5   0  0.8022574E-05  0.2007548E+04  0.7818609E-02  0.8603100E-01
        2   -1    0    0  501    0  0.00000000000E+00  0.00000000000E+00  0.12719859509E+04  0.12719859509E+04  0.25500000920E-02 0.  1.
       -2   -1    0    0    0  501  0.00000000000E+00  0.00000000000E+00 -0.79211744481E+03  0.79211744481E+03  0.25500000920E-02 0. -1.
    10030    2    1    2    0    0  0.00000000000E+00  0.00000000000E+00  0.47986850612E+03  0.20641033957E+04  0.20075480181E+04 0.  0.
        1    1    3    3  502    0  0.20064099219E+03  0.55063815183E+03 -0.59794850463E+03  0.83725838080E+03  0.50400001928E-02 0. -1.
       -1    1    3    3    0  502 -0.20064099219E+03 -0.55063815183E+03  0.10778170108E+04  0.12268450149E+04  0.50400001928E-02 0.  1.
</event>
<event>
 5   0  0.7935008E-05  0.2011425E+04  0.7818609E-02  0.8601298E-01
        2   -1    0    0  501    0  0.00000000000E+00  0.00000000000E+00  0.26115888605E+04  0.26115888605E+04  0.25500000920E-02 0.  1.
       -2   -1    0    0    0  501  0.00000000000E+00  0.00000000000E+00 -0.38729593561E+03  0.38729593562E+03  0.25500000920E-02 0. -1.
    10030    2    1    2    0    0  0.00000000000E+00  0.00000000000E+00  0.22242929248E+04  0.29988847961E+04  0.20114251178E+04 0.  0.
        3    1    3    3  502    0  0.53589003393E+03 -0.14681538221E+03  0.23619696303E+04  0.24264446068E+04  0.10100000352E+00 0.  1.
       -3    1    3    3    0  502 -0.53589003393E+03  0.14681538221E+03 -0.13767670547E+03  0.57244018932E+03  0.10100000352E+00 0. -1.
</event>
<event>
 5   0  0.8022574E-05  0.1852065E+04  0.7818609E-02  0.8679092E-01
       -2   -1    0    0    0  501  0.00000000000E+00  0.00000000000E+00  0.69401402067E+03  0.69401402067E+03  0.25500000920E-02 0.  1.
        2   -1    0    0  501    0  0.00000000000E+00  0.00000000000E+00 -0.12356173617E+04  0.12356173617E+04  0.25500000920E-02 0. -1.
    10030    2    1    2    0    0  0.00000000000E+00  0.00000000000E+00 -0.54160334108E+03  0.19296313824E+04  0.18520645488E+04 0.  0.
        1    1    3    3  502    0 -0.53601948989E+03  0.10650481015E+03  0.50808776150E+03  0.74619926396E+03  0.50400001928E-02 0.  1.
       -1    1    3    3    0  502  0.53601948989E+03 -0.10650481015E+03 -0.10496911026E+04  0.11834321185E+04  0.50400001928E-02 0. -1.
</event>
<event>
 5   0  0.7935008E-05  0.1991612E+04  0.7818609E-02  0.8610552E-01
       -2   -1    0    0    0  501  0.00000000000E+00  0.00000000000E+00  0.49285206009E+03  0.49285206010E+03  0.25500000920E-02 0. -1.
        2   -1    0    0  501    0  0.00000000000E+00  0.00000000000E+00 -0.20120224827E+04  0.20120224827E+04  0.25500000920E-02 0.  1.
    10030    2    1    2    0    0  0.00000000000E+00  0.00000000000E+00 -0.15191704226E+04  0.25048745428E+04  0.19916118352E+04 0.  0.
        3    1    3    3  502    0  0.21375735503E+03  0.75155966519E+03 -0.15360076257E+04  0.17233263109E+04  0.10100000352E+00 0.  1.
       -3    1    3    3    0  502 -0.21375735503E+03 -0.75155966519E+03  0.16837203169E+02  0.78154823190E+03  0.10100000352E+00 0. -1.
</event>
<event>
 5   0  0.3818907E-05  0.2055974E+04  0.7818609E-02  0.8580889E-01
        1   -1    0    0  501    0  0.00000000000E+00  0.00000000000E+00  0.14365248990E+04  0.14365248990E+04  0.50400001928E-02 0.  1.
       -1   -1    0    0    0  501  0.00000000000E+00  0.00000000000E+00 -0.73563449001E+03  0.73563449003E+03  0.50400001928E-02 0. -1.
    10030    2    1    2    0    0  0.00000000000E+00  0.00000000000E+00  0.70089040895E+03  0.21721593890E+04  0.20559739896E+04 0.  0.
        1    1    3    3  502    0  0.73274295793E+03 -0.41455818172E+02 -0.41004206570E+03  0.84069335844E+03  0.50400001928E-02 0. -1.
       -1    1    3    3    0  502 -0.73274295793E+03  0.41455818172E+02  0.11109324746E+04  0.13314660306E+04  0.50400001928E-02 0.  1.
</event>
<event>
 5   0  0.3970042E-05  0.2003303E+04  0.7818609E-02  0.8605078E-01
       -1   -1    0    0    0  501  0.00000000000E+00  0.00000000000E+00  0.16251341897E+04  0.16251341897E+04  0.50400001928E-02 0. -1.
        1   -1    0    0  501    0  0.00000000000E+00  0.00000000000E+00 -0.61736806014E+03  0.61736806016E+03  0.50400001928E-02 0.  1.
    10030    2    1    2    0    0  0.00000000000E+00  0.00000000000E+00  0.10077661296E+04  0.22425022499E+04  0.20033032144E+04 0.  0.
        3    1    3    3  502    0  0.32247545994E+03 -0.48863259375E+03  0.14136711894E+04  0.15301040735E+04  0.10100000352E+00 0. -1.
       -3    1    3    3    0  502 -0.32247545994E+03  0.48863259375E+03 -0.40590505979E+03  0.71239817638E+03  0.10100000352E+00 0.  1.
</event>
<event>
 5   0  0.8022574E-05  0.2008005E+04  0.7818609E-02  0.8602887E-01
       -2   -1    0    0    0  501  0.00000000000E+00  0.00000000000E+00  0.56073014064E+03  0.56073014065E+03  0.25500000920E-02 0.  1.
        2   -1    0    0  501    0  0.00000000000E+00  0.00000000000E+00 -0.17976932448E+04  0.17976932448E+04  0.25500000920E-02 0. -1.
    10030    2    1    2    0    0  0.00000000000E+00  0.00000000000E+00 -0.12369631042E+04  0.23584233855E+04  0.20080047669E+04 0.  0.
        1    1    3    3  502    0 -0.10540994515E+02  0.23060012069E+03 -0.17661014212E+04  0.17811237347E+04  0.50400001928E-02 0. -1.
       -1    1    3    3    0  502  0.10540994515E+02 -0.23060012069E+03  0.52913831703E+03  0.57729965079E+03  0.50400001928E-02 0.  1.
</event>
<event>
 5   0  0.3772949E-05  0.2007207E+04  0.7818609E-02  0.8603258E-01
       -1   -1    0    0    0  501  0.00000000000E+00  0.00000000000E+00  0.92220393898E+03  0.92220393899E+03  0.50400001928E-02 0. -1.
        1   -1    0    0  501    0  0.00000000000E+00  0.00000000000E+00 -0.10921884308E+04  0.10921884308E+04  0.50400001928E-02 0.  1.
    10030    2    1    2    0    0  0.00000000000E+00  0.00000000000E+00 -0.16998449184E+03  0.20143923698E+04  0.20072074861E+04 0.  0.
        2    1    3    3  502    0  0.23595607597E+03 -0.34435503639E+03  0.83094375092E+03  0.92990492959E+03  0.25500000920E-02 0. -1.
       -2    1    3    3    0  502 -0.23595607597E+03  0.34435503639E+03 -0.10009282428E+04  0.10844874402E+04  0.25500000920E-02 0.  1.
</event>
<event>
 5   0  0.8022574E-05  0.2004936E+04  0.7818609E-02  0.8604316E-01
        2   -1    0    0  501    0  0.00000000000E+00  0.00000000000E+00  0.15253111974E+04  0.15253111974E+04  0.25500000920E-02 0. -1.
       -2   -1    0    0    0  501  0.00000000000E+00  0.00000000000E+00 -0.65884384435E+03  0.65884384435E+03  0.25500000920E-02 0.  1.
    10030    2    1    2    0    0  0.00000000000E+00  0.00000000000E+00  0.86646735308E+03  0.21841550418E+04  0.20049358026E+04 0.  0.
        1    1    3    3  502    0  0.11772534614E+03 -0.99470944216E+03  0.38917382746E+03  0.10745987155E+04  0.50400001928E-02 0. -1.
       -1    1    3    3    0  502 -0.11772534614E+03  0.99470944216E+03  0.47729352562E+03  0.11095563262E+04  0.50400001928E-02 0.  1.
</event>
<event>
 5   0  0.2859625E-05  0.2000667E+04  0.7818609E-02  0.8606309E-01
        4   -1    0    0  501    0  0.00000000000E+00  0.00000000000E+00  0.12368053879E+04  0.12368060400E+04  0.12699999809E+01 0.  1.
       -4   -1    0    0    0  501  0.00000000000E+00  0.00000000000E+00 -0.80907291676E+03  0.80907391352E+03  0.12699999809E+01 0. -1.
    10030    2    1    2    0    0  0.00000000000E+00  0.00000000000E+00  0.42773247118E+03  0.20458799535E+04  0.20006673180E+04 0.  0.
        2    1    3    3  502    0 -0.89788070244E+03  0.31912415386E+03  0.52510849564E+03  0.10880114492E+04  0.25500000920E-02 0. -1.
       -2    1    3    3    0  502  0.89788070244E+03 -0.31912415386E+03 -0.97376024465E+02  0.95786850430E+03  0.25500000920E-02 0.  1.
</event>
<event>
 5   0  0.8011197E-05  0.2004424E+04  0.7818609E-02  0.8604555E-01
        2   -1    0    0  501    0  0.00000000000E+00  0.00000000000E+00  0.63516752219E+03  0.63516752220E+03  0.25500000920E-02 0.  1.
       -2   -1    0    0    0  501  0.00000000000E+00  0.00000000000E+00 -0.15813609374E+04  0.15813609374E+04  0.25500000920E-02 0. -1.
    10030    2    1    2    0    0  0.00000000000E+00  0.00000000000E+00 -0.94619341517E+03  0.22165284596E+04  0.20044242149E+04 0.  0.
        5    1    3    3  502    0 -0.71697445287E+03 -0.41540934297E+03 -0.10964777634E+04  0.13743736260E+04  0.46999998093E+01 0. -1.
       -5    1    3    3    0  502  0.71697445287E+03  0.41540934297E+03  0.15028434825E+03  0.84215483352E+03  0.46999998093E+01 0.  1.
</event>
<event>
 5   0  0.3549426E-05  0.2058782E+04  0.7818609E-02  0.8579621E-01
       -1   -1    0    0    0  501  0.00000000000E+00  0.00000000000E+00  0.63588355956E+03  0.63588355958E+03  0.50400001928E-02 0.  1.
        1   -1    0    0  501    0  0.00000000000E+00  0.00000000000E+00 -0.16664149001E+04  0.16664149001E+04  0.50400001928E-02 0. -1.
    10030    2    1    2    0    0  0.00000000000E+00  0.00000000000E+00 -0.10305313405E+04  0.23022984596E+04  0.20587820073E+04 0.  0.
        5    1    3    3  502    0  0.95435715788E+03  0.37874472583E+03 -0.59727924281E+03  0.11878593082E+04  0.46999998093E+01 0. -1.
       -5    1    3    3    0  502 -0.95435715788E+03 -0.37874472583E+03 -0.43325209769E+03  0.11144391515E+04  0.46999998093E+01 0.  1.
</event>
<event>
 5   0  0.2859625E-05  0.1996185E+04  0.7818609E-02  0.8608407E-01
        3   -1    0    0  501    0  0.00000000000E+00  0.00000000000E+00  0.48764197525E+03  0.48764198570E+03  0.10100000352E+00 0.  1.
       -3   -1    0    0    0  501  0.00000000000E+00  0.00000000000E+00 -0.20428680368E+04  0.20428680393E+04  0.10100000352E+00 0. -1.
    10030    2    1    2    0    0  0.00000000000E+00  0.00000000000E+00 -0.15552260615E+04  0.25305100250E+04  0.19961845817E+04 0.  0.
        5    1    3    3  502    0  0.36139253788E+03  0.36762178925E+03  0.30579597254E+03  0.59940271370E+03  0.46999998093E+01 0.  1.
       -5    1    3    3    0  502 -0.36139253788E+03 -0.36762178925E+03 -0.18610220341E+04  0.19311073113E+04  0.46999998093E+01 0. -1.
</event>
<event>
 5   0  0.3818907E-05  0.1983570E+04  0.7818609E-02  0.8614341E-01
       -1   -1    0    0    0  501  0.00000000000E+00  0.00000000000E+00  0.15220060127E+04  0.15220060127E+04  0.50400001928E-02 0. -1.
        1   -1    0    0  501    0  0.00000000000E+00  0.00000000000E+00 -0.64627677679E+03  0.64627677681E+03  0.50400001928E-02 0.  1.
    10030    2    1    2    0    0  0.00000000000E+00  0.00000000000E+00  0.87572923588E+03  0.21682827895E+04  0.19835696511E+04 0.  0.
        1    1    3    3  502    0  0.69814843013E+03  0.70429442245E+03  0.45314003517E+03  0.10903108527E+04  0.50400001928E-02 0.  1.
       -1    1    3    3    0  502 -0.69814843013E+03 -0.70429442245E+03  0.42258920072E+03  0.10779719368E+04  0.50400001928E-02 0. -1.
</event>
<event>
 5   0  0.3970042E-05  0.2035745E+04  0.7818609E-02  0.8590088E-01
        1   -1    0    0  501    0  0.00000000000E+00  0.00000000000E+00  0.89576200260E+03  0.89576200261E+03  0.50400001928E-02 0. -1.
       -1   -1    0    0    0  501  0.00000000000E+00  0.00000000000E+00 -0.11566296548E+04  0.11566296548E+04  0.50400001928E-02 0.  1.
    10030    2    1    2    0    0  0.00000000000E+00  0.00000000000E+00 -0.26086765216E+03  0.20523916574E+04  0.20357454613E+04 0.  0.
        3    1    3    3  502    0 -0.74988061082E+03  0.42902320853E+03 -0.67305695514E+03  0.10951655213E+04  0.10100000352E+00 0.  1.
       -3    1    3    3    0  502  0.74988061082E+03 -0.42902320853E+03  0.41218930298E+03  0.95722613610E+03  0.10100000352E+00 0. -1.
</event>
<event>
 5   0  0.3970042E-05  0.2010624E+04  0.7818609E-02  0.8601670E-01
        1   -1    0    0  501    0  0.00000000000E+00  0.00000000000E+00  0.13168278700E+04  0.13168278700E+04  0.50400001928E-02 0. -1.
       -1   -1    0    0    0  501  0.00000000000E+00  0.00000000000E+00 -0.76748992226E+03  0.76748992228E+03  0.50400001928E-02 0.  1.
    10030    2    1    2    0    0  0.00000000000E+00  0.00000000000E+00  0.54933794773E+03  0.20843177923E+04  0.20106239028E+04 0.  0.
        3    1    3    3  502    0  0.67747638266E+03 -0.39580215008E+03  0.92621008234E+03  0.12138775547E+04  0.10100000352E+00 0. -1.
       -3    1    3    3    0  502 -0.67747638266E+03  0.39580215008E+03 -0.37687213461E+03  0.87044023753E+03  0.10100000352E+00 0.  1.
</event>
<event>
 5   0  0.8022574E-05  0.1992289E+04  0.7818609E-02  0.8610234E-01
       -2   -1    0    0    0  501  0.00000000000E+00  0.00000000000E+00  0.52887604077E+03  0.52887604077E+03  0.25500000920E-02 0.  1.
        2   -1    0    0  501    0  0.00000000000E+00  0.00000000000E+00 -0.18762507164E+04  0.18762507164E+04  0.25500000920E-02 0. -1.
    10030    2    1    2    0    0  0.00000000000E+00  0.00000000000E+00 -0.13473746756E+04  0.24051267572E+04  0.19922891862E+04 0.  0.
        1    1    3    3  502    0  0.14036011886E+03 -0.90407497594E+03 -0.19801978223E+03  0.93608993118E+03  0.50400001928E-02 0.  1.
       -1    1    3    3    0  502 -0.14036011886E+03  0.90407497594E+03 -0.11493548934E+04  0.14690368260E+04  0.50400001928E-02 0. -1.
</event>
<event>
 5   0  0.3787698E-05  0.2006387E+04  0.7818609E-02  0.8603640E-01
       -1   -1    0    0    0  501  0.00000000000E+00  0.00000000000E+00  0.57764409197E+03  0.57764409199E+03  0.50400001928E-02 0. -1.
        1   -1    0    0  501    0  0.00000000000E+00  0.00000000000E+00 -0.17422438852E+04  0.17422438852E+04  0.50400001928E-02 0.  1.
    10030    2    1    2    0    0  0.00000000000E+00  0.00000000000E+00 -0.11645997933E+04  0.23198879772E+04  0.20063866897E+04 0.  0.
        4    1    3    3  502    0 -0.31146485099E+03  0.56449236080E+03  0.30638561720E+03  0.71381772052E+03  0.12699999809E+01 0. -1.
       -4    1    3    3    0  502  0.31146485099E+03 -0.56449236080E+03 -0.14709854105E+04  0.16060702567E+04  0.12699999809E+01 0.  1.
</event>
<event>
 5   0  0.3818907E-05  0.1993745E+04  0.7818609E-02  0.8609551E-01
       -1   -1    0    0    0  501  0.00000000000E+00  0.00000000000E+00  0.14474364479E+04  0.14474364479E+04  0.50400001928E-02 0. -1.
        1   -1    0    0  501    0  0.00000000000E+00  0.00000000000E+00 -0.68656215138E+03  0.68656215140E+03  0.50400001928E-02 0.  1.
    10030    2    1    2    0    0  0.00000000000E+00  0.00000000000E+00  0.76087429648E+03  0.21339985993E+04  0.19937453013E+04 0.  0.
        1    1    3    3  502    0 -0.54848787498E+03  0.66919993381E+02  0.12685268254E+04  0.13836464655E+04  0.50400001928E-02 0. -1.
       -1    1    3    3    0  502  0.54848787498E+03 -0.66919993381E+02 -0.50765252896E+03  0.75035213380E+03  0.50400001928E-02 0.  1.
</event>
<event>
 5   0  0.7843846E-05  0.1973700E+04  0.7818609E-02  0.8619016E-01
        2   -1    0    0  501    0  0.00000000000E+00  0.00000000000E+00  0.60938889900E+03  0.60938889900E+03  0.25500000920E-02 0.  1.
       -2   -1    0    0    0  501  0.00000000000E+00  0.00000000000E+00 -0.15981142897E+04  0.15981142897E+04  0.25500000920E-02 0. -1.
    10030    2    1    2    0    0  0.00000000000E+00  0.00000000000E+00 -0.98872539067E+03  0.22075031887E+04  0.19737001874E+04 0.  0.
        2    1    3    3  502    0  0.82005424826E+02 -0.86565867236E+03 -0.10163169297E+04  0.13375312812E+04  0.25500000920E-02 0. -1.
       -2    1    3    3    0  502 -0.82005424826E+02  0.86565867236E+03  0.27591538982E+02  0.86997190746E+03  0.25500000920E-02 0.  1.
</event>
<event>
 5   0  0.3970042E-05  0.1991495E+04  0.7818609E-02  0.8610607E-01
       -1   -1    0    0    0  501  0.00000000000E+00  0.00000000000E+00  0.88264708789E+03  0.88264708790E+03  0.50400001928E-02 0. -1.
        1   -1    0    0  501    0  0.00000000000E+00  0.00000000000E+00 -0.11233401570E+04  0.11233401571E+04  0.50400001928E-02 0.  1.
    10030    2    1    2    0    0  0.00000000000E+00  0.00000000000E+00 -0.24069306915E+03  0.20059872450E+04  0.19914948339E+04 0.  0.
        3    1    3    3  502    0 -0.46798006298E+03 -0.23005556199E+03 -0.97480140739E+03  0.11055173879E+04  0.10100000352E+00 0.  1.
       -3    1    3    3    0  502  0.46798006298E+03  0.23005556199E+03  0.73410833824E+03  0.90046985703E+03  0.10100000352E+00 0. -1.
</event>
<event>
 5   0  0.7935008E-05  0.1996412E+04  0.7818609E-02  0.8608300E-01
       -2   -1    0    0    0  501  0.00000000000E+00  0.00000000000E+00  0.72653295702E+03  0.72653295702E+03  0.25500000920E-02 0.  1.
        2   -1    0    0  501    0  0.00000000000E+00  0.00000000000E+00 -0.13714658823E+04  0.13714658823E+04  0.25500000920E-02 0. -1.
    10030    2    1    2    0    0  0.00000000000E+00  0.00000000000E+00 -0.64493292528E+03  0.20979988393E+04  0.19964119444E+04 0.  0.
        3    1    3    3  502    0  0.91108640267E+03 -0.17395416769E+03 -0.71012282479E+03  0.11681664787E+04  0.10100000352E+00 0. -1.
       -3    1    3    3    0  502 -0.91108640267E+03  0.17395416769E+03  0.65189899502E+02  0.92983236058E+03  0.10100000352E+00 0.  1.
</event>
<event>
 5   0  0.3818907E-05  0.1986163E+04  0.7818609E-02  0.8613118E-01
        1   -1    0    0  501    0  0.00000000000E+00  0.00000000000E+00  0.13302011838E+04  0.13302011838E+04  0.50400001928E-02 0.  1.
       -1   -1    0    0    0  501  0.00000000000E+00  0.00000000000E+00 -0.74139950097E+03  0.74139950099E+03  0.50400001928E-02 0. -1.
    10030    2    1    2    0    0  0.00000000000E+00  0.00000000000E+00  0.58880168280E+03  0.20716006848E+04  0.19861626256E+04 0.  0.
        1    1    3    3  502    0 -0.81011845780E+02 -0.55255439592E+03 -0.56210015433E+03  0.79236094245E+03  0.50400001928E-02 0. -1.
       -1    1    3    3    0  502  0.81011845780E+02  0.55255439592E+03  0.11509018371E+04  0.12792397423E+04  0.50400001928E-02 0.  1.
</event>
<event>
 5   0  0.7843846E-05  0.1993449E+04  0.7818609E-02  0.8609690E-01
       -2   -1    0    0    0  501  0.00000000000E+00  0.00000000000E+00  0.52919247284E+03  0.52919247284E+03  0.25500000920E-02 0. -1.
        2   -1    0    0  501    0  0.00000000000E+00  0.00000000000E+00 -0.18773119535E+04  0.18773119535E+04  0.25500000920E-02 0.  1.
    10030    2    1    2    0    0  0.00000000000E+00  0.00000000000E+00 -0.13481194806E+04  0.24065044263E+04  0.19934486248E+04 0.  0.
        2    1    3    3  502    0  0.52608711343E+02 -0.88095714004E+03 -0.11481392195E+03  0.88996370475E+03  0.25500000920E-02 0.  1.
       -2    1    3    3    0  502 -0.52608711343E+02  0.88095714004E+03 -0.12333055587E+04  0.15165407216E+04  0.25500000920E-02 0. -1.
</event>
<event>
 5   0  0.3772949E-05  0.2003454E+04  0.7818609E-02  0.8605008E-01
       -1   -1    0    0    0  501  0.00000000000E+00  0.00000000000E+00  0.39404668370E+03  0.39404668373E+03  0.50400001928E-02 0.  1.
        1   -1    0    0  501    0  0.00000000000E+00  0.00000000000E+00 -0.25465421530E+04  0.25465421530E+04  0.50400001928E-02 0. -1.
    10030    2    1    2    0    0  0.00000000000E+00  0.00000000000E+00 -0.21524954693E+04  0.29405888368E+04  0.20034535087E+04 0.  0.
        2    1    3    3  502    0 -0.62918487062E+03 -0.25765104271E+03  0.35277414760E+01  0.67990448314E+03  0.25500000920E-02 0.  1.
       -2    1    3    3    0  502  0.62918487062E+03  0.25765104271E+03 -0.21560232108E+04  0.22606843536E+04  0.25500000920E-02 0. -1.
</event>
<event>
 5   0  0.7935008E-05  0.2025166E+04  0.7818609E-02  0.8594944E-01
       -2   -1    0    0    0  501  0.00000000000E+00  0.00000000000E+00  0.18845707895E+04  0.18845707895E+04  0.25500000920E-02 0. -1.
        2   -1    0    0  501    0  0.00000000000E+00  0.00000000000E+00 -0.54406274128E+03  0.54406274129E+03  0.25500000920E-02 0.  1.
    10030    2    1    2    0    0  0.00000000000E+00  0.00000000000E+00  0.13405080482E+04  0.24286335308E+04  0.20251664128E+04 0.  0.
        3    1    3    3  502    0  0.33372169013E+03 -0.35727224967E+03 -0.39315043605E+03  0.62736026525E+03  0.10100000352E+00 0.  1.
       -3    1    3    3    0  502 -0.33372169013E+03  0.35727224967E+03  0.17336584842E+04  0.18012732655E+04  0.10100000352E+00 0. -1.
</event>
<event>
 5   0  0.8011197E-05  0.1944200E+04  0.7818609E-02  0.8633163E-01
        2   -1    0    0  501    0  0.00000000000E+00  0.00000000000E+00  0.44020043067E+03  0.44020043067E+03  0.25500000920E-02 0. -1.
       -2   -1    0    0    0  501  0.00000000000E+00  0.00000000000E+00 -0.21467012094E+04  0.21467012094E+04  0.25500000920E-02 0.  1.
    10030    2    1    2    0    0  0.00000000000E+00  0.00000000000E+00 -0.17065007787E+04  0.25869016400E+04  0.19442003980E+04 0.  0.
        5    1    3    3  502    0 -0.93838938484E+03 -0.10071209973E+03 -0.54336914232E+03  0.10890315328E+04  0.46999998093E+01 0. -1.
       -5    1    3    3    0  502  0.93838938484E+03  0.10071209973E+03 -0.11631316364E+04  0.14978701072E+04  0.46999998093E+01 0.  1.
</event>
<event>
 5   0  0.3772949E-05  0.1982367E+04  0.7818609E-02  0.8614909E-01
       -1   -1    0    0    0  501  0.00000000000E+00  0.00000000000E+00  0.11935883834E+04  0.11935883834E+04  0.50400001928E-02 0.  1.
        1   -1    0    0  501    0  0.00000000000E+00  0.00000000000E+00 -0.82310187678E+03  0.82310187679E+03  0.50400001928E-02 0. -1.
    10030    2    1    2    0    0  0.00000000000E+00  0.00000000000E+00  0.37048650658E+03  0.20166902602E+04  0.19823671087E+04 0.  0.
        2    1    3    3  502    0 -0.19033431121E+03  0.29249958764E+03 -0.75853800946E+03  0.83496291570E+03  0.25500000920E-02 0. -1.
       -2    1    3    3    0  502  0.19033431121E+03 -0.29249958764E+03  0.11290245160E+04  0.11817273444E+04  0.25500000920E-02 0.  1.
</event>
<event>
 5   0  0.7935008E-05  0.2002710E+04  0.7818609E-02  0.8605355E-01
        2   -1    0    0  501    0  0.00000000000E+00  0.00000000000E+00  0.98223234178E+03  0.98223234178E+03  0.25500000920E-02 0. -1.
       -2   -1    0    0    0  501  0.00000000000E+00  0.00000000000E+00 -0.10208499614E+04  0.10208499614E+04  0.25500000920E-02 0.  1.
    10030    2    1    2    0    0  0.00000000000E+00  0.00000000000E+00 -0.38617619609E+02  0.20030823032E+04  0.20027100121E+04 0.  0.
        3    1    3    3  502    0  0.85943052537E+03  0.29959085632E+03 -0.43692244812E+03  0.10095923658E+04  0.10100000352E+00 0. -1.
       -3    1    3    3    0  502 -0.85943052537E+03 -0.29959085632E+03  0.39830482851E+03  0.99348993742E+03  0.10100000352E+00 0.  1.
</event>
<event>
 5   0  0.8022574E-05  0.2019817E+04  0.7818609E-02  0.8597411E-01
        2   -1    0    0  501    0  0.00000000000E+00  0.00000000000E+00  0.11733369536E+04  0.11733369536E+04  0.25500000920E-02 0.  1.
       -2   -1    0    0    0  501  0.00000000000E+00  0.00000000000E+00 -0.86924300899E+03  0.86924300900E+03  0.25500000920E-02 0. -1.
    10030    2    1    2    0    0  0.00000000000E+00  0.00000000000E+00  0.30409394459E+03  0.20425799626E+04  0.20198167680E+04 0.  0.
        1    1    3    3  502    0 -0.45486490490E+03  0.83382490995E+03  0.49905976858E+03  0.10729523358E+04  0.50400001928E-02 0.  1.
       -1    1    3    3    0  502  0.45486490490E+03 -0.83382490995E+03 -0.19496582399E+03  0.96962762683E+03  0.50400001928E-02 0. -1.
</event>
<event>
 5   0  0.3549426E-05  0.1985161E+04  0.7818609E-02  0.8613590E-01
        1   -1    0    0  501    0  0.00000000000E+00  0.00000000000E+00  0.13230971635E+04  0.13230971636E+04  0.50400001928E-02 0. -1.
       -1   -1    0    0    0  501  0.00000000000E+00  0.00000000000E+00 -0.74462875407E+03  0.74462875409E+03  0.50400001928E-02 0.  1.
    10030    2    1    2    0    0  0.00000000000E+00  0.00000000000E+00  0.57846840947E+03  0.20677259176E+04  0.19851611445E+04 0.  0.
        5    1    3    3  502    0  0.24842219784E+03 -0.74378021936E+03 -0.34457325668E+03  0.85654855221E+03  0.46999998093E+01 0.  1.
       -5    1    3    3    0  502 -0.24842219784E+03  0.74378021936E+03  0.92304166614E+03  0.12111773654E+04  0.46999998093E+01 0. -1.
</event>
<event>
 5   0  0.7935008E-05  0.2007226E+04  0.7818609E-02  0.8603250E-01
        2   -1    0    0  501    0  0.00000000000E+00  0.00000000000E+00  0.16675074388E+04  0.16675074388E+04  0.25500000920E-02 0. -1.
       -2   -1    0    0    0  501  0.00000000000E+00  0.00000000000E+00 -0.60403861852E+03  0.60403861852E+03  0.25500000920E-02 0.  1.
    10030    2    1    2    0    0  0.00000000000E+00  0.00000000000E+00  0.10634688202E+04  0.22715460573E+04  0.20072258365E+04 0.  0.
        3    1    3    3  502    0 -0.14581977772E+03  0.95797216923E+03  0.23605321613E+03  0.99734408086E+03  0.10100000352E+00 0. -1.
       -3    1    3    3    0  502  0.14581977772E+03 -0.95797216923E+03  0.82741560411E+03  0.12742019764E+04  0.10100000352E+00 0.  1.
</event>
<event>
 5   0  0.3787698E-05  0.2001215E+04  0.7818609E-02  0.8606053E-01
       -1   -1    0    0    0  501  0.00000000000E+00  0.00000000000E+00  0.54833208823E+03  0.54833208826E+03  0.50400001928E-02 0.  1.
        1   -1    0    0  501    0  0.00000000000E+00  0.00000000000E+00 -0.18259289580E+04  0.18259289580E+04  0.50400001928E-02 0. -1.
    10030    2    1    2    0    0  0.00000000000E+00  0.00000000000E+00 -0.12775968698E+04  0.23742610463E+04  0.20012150694E+04 0.  0.
        4    1    3    3  502    0  0.72971903416E+03  0.64401475807E+03 -0.36318100424E+03  0.10388199710E+04  0.12699999809E+01 0. -1.
       -4    1    3    3    0  502 -0.72971903416E+03 -0.64401475807E+03 -0.91441586552E+03  0.13354410752E+04  0.12699999809E+01 0.  1.
</event>
<event>
 5   0  0.3818907E-05  0.1997839E+04  0.7818609E-02  0.8607632E-01
       -1   -1    0    0    0  501  0.00000000000E+00  0.00000000000E+00  0.14018565729E+04  0.14018565729E+04  0.50400001928E-02 0.  1.
        1   -1    0    0  501    0  0.00000000000E+00  0.00000000000E+00 -0.71179894791E+03  0.71179894793E+03  0.50400001928E-02 0. -1.
    10030    2    1    2    0    0  0.00000000000E+00  0.00000000000E+00  0.69005762503E+03  0.21136555209E+04  0.19978388661E+04 0.  0.
        1    1    3    3  502    0 -0.78569814064E+03  0.46745377730E+03  0.77086105193E+03  0.11958517314E+04  0.50400001928E-02 0.  1.
       -1    1    3    3    0  502  0.78569814064E+03 -0.46745377730E+03 -0.80803426908E+02  0.91780378946E+03  0.50400001928E-02 0. -1.
</event>
<event>
 5   0  0.3970042E-05  0.2010027E+04  0.7818609E-02  0.8601947E-01
       -1   -1    0    0    0  501  0.00000000000E+00  0.00000000000E+00  0.13151534091E+04  0.13151534091E+04  0.50400001928E-02 0.  1.
        1   -1    0    0  501    0  0.00000000000E+00  0.00000000000E+00 -0.76801062906E+03  0.76801062908E+03  0.50400001928E-02 0. -1.
    10030    2    1    2    0    0  0.00000000000E+00  0.00000000000E+00  0.54714278008E+03  0.20831640382E+04  0.20100266636E+04 0.  0.
        3    1    3    3  502    0 -0.12999597550E+03 -0.20665253210E+03  0.12839536961E+04  0.13069588083E+04  0.10100000352E+00 0.  1.
       -3    1    3    3    0  502  0.12999597550E+03  0.20665253210E+03 -0.73681091606E+03  0.77620522988E+03  0.10100000352E+00 0. -1.
</event>
<event>
 5   0  0.7857136E-05  0.2047057E+04  0.7818609E-02  0.8584931E-01
        2   -1    0    0  501    0  0.00000000000E+00  0.00000000000E+00  0.10727302234E+04  0.10727302234E+04  0.25500000920E-02 0. -1.
       -2   -1    0    0    0  501  0.00000000000E+00  0.00000000000E+00 -0.97658352095E+03  0.97658352096E+03  0.25500000920E-02 0.  1.
    10030    2    1    2    0    0  0.00000000000E+00  0.00000000000E+00  0.96146702438E+02  0.20493137444E+04  0.20470570667E+04 0.  0.
        4    1    3    3  502    0  0.73675278883E+03  0.51797951187E+03  0.53492376532E+03  0.10474982072E+04  0.12699999809E+01 0. -1.
       -4    1    3    3    0  502 -0.73675278883E+03 -0.51797951187E+03 -0.43877706288E+03  0.10018155371E+04  0.12699999809E+01 0.  1.
</event>
<event>
 5   0  0.7857136E-05  0.2003821E+04  0.7818609E-02  0.8604836E-01
        2   -1    0    0  501    0  0.00000000000E+00  0.00000000000E+00  0.20732053147E+04  0.20732053147E+04  0.25500000920E-02 0.  1.
       -2   -1    0    0    0  501  0.00000000000E+00  0.00000000000E+00 -0.48418956483E+03  0.48418956483E+03  0.25500000920E-02 0. -1.
    10030    2    1    2    0    0  0.00000000000E+00  0.00000000000E+00  0.15890157499E+04  0.25573948795E+04  0.20038207296E+04 0.  0.
        4    1    3    3  502    0 -0.48469345374E+03  0.87620541541E+03  0.75105706238E+03  0.12516996437E+04  0.12699999809E+01 0.  1.
       -4    1    3    3    0  502  0.48469345374E+03 -0.87620541541E+03  0.83795868748E+03  0.13056952359E+04  0.12699999809E+01 0. -1.
</event>
<event>
 5   0  0.2859625E-05  0.1990629E+04  0.7818609E-02  0.8611014E-01
        4   -1    0    0  501    0  0.00000000000E+00  0.00000000000E+00  0.15784425360E+04  0.15784430469E+04  0.12699999809E+01 0. -1.
       -4   -1    0    0    0  501  0.00000000000E+00  0.00000000000E+00 -0.62761194343E+03  0.62761322838E+03  0.12699999809E+01 0.  1.
    10030    2    1    2    0    0  0.00000000000E+00  0.00000000000E+00  0.95083059253E+03  0.22060562753E+04  0.19906294165E+04 0.  0.
        5    1    3    3  502    0 -0.33423629856E+03 -0.71781310362E+03  0.11437188513E+04  0.13910731310E+04  0.46999998093E+01 0. -1.
       -5    1    3    3    0  502  0.33423629856E+03  0.71781310362E+03 -0.19288825879E+03  0.81498314423E+03  0.46999998093E+01 0.  1.
</event>
<event>
 5   0  0.3970042E-05  0.1982572E+04  0.7818609E-02  0.8614812E-01
       -1   -1    0    0    0  501  0.00000000000E+00  0.00000000000E+00  0.64667955551E+03  0.64667955553E+03  0.50400001928E-02 0. -1.
        1   -1    0    0  501    0  0.00000000000E+00  0.00000000000E+00 -0.15195290593E+04  0.15195290593E+04  0.50400001928E-02 0.  1.
    10030    2    1    2    0    0  0.00000000000E+00  0.00000000000E+00 -0.87284950382E+03  0.21662086149E+04  0.19825724468E+04 0.  0.
        3    1    3    3  502    0  0.62462326837E+03 -0.76390659633E+02 -0.12733061903E+04  0.14203163115E+04  0.10100000352E+00 0.  1.
       -3    1    3    3    0  502 -0.62462326837E+03  0.76390659633E+02  0.40045668648E+03  0.74589230337E+03  0.10100000352E+00 0. -1.
</event>
<event>
 5   0  0.3549426E-05  0.1996049E+04  0.7818609E-02  0.8608470E-01
        1   -1    0    0  501    0  0.00000000000E+00  0.00000000000E+00  0.17143849370E+04  0.17143849370E+04  0.50400001928E-02 0.  1.
       -1   -1    0    0    0  501  0.00000000000E+00  0.00000000000E+00 -0.58099720498E+03  0.58099720500E+03  0.50400001928E-02 0. -1.
    10030    2    1    2    0    0  0.00000000000E+00  0.00000000000E+00  0.11333877321E+04  0.22953821420E+04  0.19960489540E+04 0.  0.
        5    1    3    3  502    0  0.62685884145E+03  0.68628328866E+03  0.14874286675E+03  0.94131997206E+03  0.46999998093E+01 0.  1.
       -5    1    3    3    0  502 -0.62685884145E+03 -0.68628328866E+03  0.98464486531E+03  0.13540621700E+04  0.46999998093E+01 0. -1.
</event>
<event>
 5   0  0.7843846E-05  0.2005134E+04  0.7818609E-02  0.8604224E-01
        2   -1    0    0  501    0  0.00000000000E+00  0.00000000000E+00  0.13499846629E+04  0.13499846629E+04  0.25500000920E-02 0.  1.
       -2   -1    0    0    0  501  0.00000000000E+00  0.00000000000E+00 -0.74455734919E+03  0.74455734919E+03  0.25500000920E-02 0. -1.
    10030    2    1    2    0    0  0.00000000000E+00  0.00000000000E+00  0.60542731372E+03  0.20945420121E+04  0.20051344115E+04 0.  0.
        2    1    3    3  502    0 -0.34813253240E+03 -0.84376577905E+03 -0.13051275383E+03  0.92204692339E+03  0.25500000920E-02 0. -1.
       -2    1    3    3    0  502  0.34813253240E+03  0.84376577905E+03  0.73594006754E+03  0.11724950887E+04  0.25500000920E-02 0.  1.
</event>
<event>
 5   0  0.7935008E-05  0.1947983E+04  0.7818609E-02  0.8631334E-01
       -2   -1    0    0    0  501  0.00000000000E+00  0.00000000000E+00  0.46099962702E+03  0.46099962703E+03  0.25500000920E-02 0. -1.
        2   -1    0    0  501    0  0.00000000000E+00  0.00000000000E+00 -0.20578313227E+04  0.20578313227E+04  0.25500000920E-02 0.  1.
    10030    2    1    2    0    0  0.00000000000E+00  0.00000000000E+00 -0.15968316957E+04  0.25188309497E+04  0.19479830310E+04 0.  0.
        3    1    3    3  502    0  0.67373655821E+03  0.53516035512E+03 -0.20821182059E+03  0.88525122310E+03  0.10100000352E+00 0. -1.
       -3    1    3    3    0  502 -0.67373655821E+03 -0.53516035512E+03 -0.13886198751E+04  0.16335797266E+04  0.10100000352E+00 0.  1.
</event>
<event>
 5   0  0.8022574E-05  0.1774250E+04  0.7818609E-02  0.8720114E-01
        2   -1    0    0  501    0  0.00000000000E+00  0.00000000000E+00  0.12961159287E+04  0.12961159287E+04  0.25500000920E-02 0.  1.
       -2   -1    0    0    0  501  0.00000000000E+00  0.00000000000E+00 -0.60719187635E+03  0.60719187635E+03  0.25500000920E-02 0. -1.
    10030    2    1    2    0    0  0.00000000000E+00  0.00000000000E+00  0.68892405238E+03  0.19033078051E+04  0.17742503349E+04 0.  0.
        1    1    3    3  502    0 -0.71328542120E+03 -0.52746027518E+03  0.34531262160E+03  0.95196178529E+03  0.50400001928E-02 0.  1.
       -1    1    3    3    0  502  0.71328542120E+03  0.52746027518E+03  0.34361143078E+03  0.95134601979E+03  0.50400001928E-02 0. -1.
</event>
<event>
 5   0  0.7843846E-05  0.2004123E+04  0.7818609E-02  0.8604696E-01
        2   -1    0    0  501    0  0.00000000000E+00  0.00000000000E+00  0.11844493650E+04  0.11844493650E+04  0.25500000920E-02 0. -1.
       -2   -1    0    0    0  501  0.00000000000E+00  0.00000000000E+00 -0.84775831563E+03  0.84775831563E+03  0.25500000920E-02 0.  1.
    10030    2    1    2    0    0  0.00000000000E+00  0.00000000000E+00  0.33669104935E+03  0.20322076806E+04  0.20041225498E+04 0.  0.
        2    1    3    3  502    0 -0.34080278775E+00 -0.62434624453E+03  0.96311392793E+03  0.11477790673E+04  0.25500000920E-02 0. -1.
       -2    1    3    3    0  502  0.34080278775E+00  0.62434624453E+03 -0.62642287857E+03  0.88442861329E+03  0.25500000920E-02 0.  1.
</event>
<event>
 5   0  0.7935008E-05  0.2029133E+04  0.7818609E-02  0.8593120E-01
        2   -1    0    0  501    0  0.00000000000E+00  0.00000000000E+00  0.16355076078E+04  0.16355076078E+04  0.25500000920E-02 0. -1.
       -2   -1    0    0    0  501  0.00000000000E+00  0.00000000000E+00 -0.62937348689E+03  0.62937348690E+03  0.25500000920E-02 0.  1.
    10030    2    1    2    0    0  0.00000000000E+00  0.00000000000E+00  0.10061341209E+04  0.22648810947E+04  0.20291329438E+04 0.  0.
        3    1    3    3  502    0 -0.36900347285E+03 -0.29246202730E+03  0.15061707677E+04  0.15780519611E+04  0.10100000352E+00 0. -1.
       -3    1    3    3    0  502  0.36900347285E+03  0.29246202730E+03 -0.50003664678E+03  0.68682913356E+03  0.10100000352E+00 0.  1.
</event>
<event>
 5   0  0.3970042E-05  0.1996443E+04  0.7818609E-02  0.8608285E-01
       -1   -1    0    0    0  501  0.00000000000E+00  0.00000000000E+00  0.92191096115E+03  0.92191096116E+03  0.50400001928E-02 0.  1.
        1   -1    0    0  501    0  0.00000000000E+00  0.00000000000E+00 -0.10808487148E+04  0.10808487149E+04  0.50400001928E-02 0. -1.
    10030    2    1    2    0    0  0.00000000000E+00  0.00000000000E+00 -0.15893775370E+03  0.20027596760E+04  0.19964431147E+04 0.  0.
        3    1    3    3  502    0  0.71272238284E+03  0.34203167103E+03 -0.69089493998E+03  0.10499022275E+04  0.10100000352E+00 0. -1.
       -3    1    3    3    0  502 -0.71272238284E+03 -0.34203167103E+03  0.53195718628E+03  0.95285744853E+03  0.10100000352E+00 0.  1.
</event>
<event>
 5   0  0.8011197E-05  0.2007611E+04  0.7818609E-02  0.8603070E-01
        2   -1    0    0  501    0  0.00000000000E+00  0.00000000000E+00  0.22732786174E+04  0.22732786174E+04  0.25500000920E-02 0. -1.
       -2   -1    0    0    0  501  0.00000000000E+00  0.00000000000E+00 -0.44324772154E+03  0.44324772155E+03  0.25500000920E-02 0.  1.
    10030    2    1    2    0    0  0.00000000000E+00  0.00000000000E+00  0.18300308958E+04  0.27165263389E+04  0.20076110854E+04 0.  0.
        5    1    3    3  502    0 -0.63965433550E+03  0.23628015883E+03  0.19117539426E+04  0.20297318072E+04  0.46999998093E+01 0. -1.
       -5    1    3    3    0  502  0.63965433550E+03 -0.23628015883E+03 -0.81723046738E+02  0.68679453168E+03  0.46999998093E+01 0.  1.
</event>
<event>
 5   0  0.3549426E-05  0.1977262E+04  0.7818609E-02  0.8617326E-01
       -1   -1    0    0    0  501  0.00000000000E+00  0.00000000000E+00  0.70942900006E+03  0.70942900008E+03  0.50400001928E-02 0.  1.
        1   -1    0    0  501    0  0.00000000000E+00  0.00000000000E+00 -0.13777151216E+04  0.13777151216E+04  0.50400001928E-02 0. -1.
    10030    2    1    2    0    0  0.00000000000E+00  0.00000000000E+00 -0.66828612157E+03  0.20871441217E+04  0.19772618048E+04 0.  0.
        5    1    3    3  502    0  0.64685645665E+03 -0.63143770357E+03 -0.75667841631E+03  0.11788643538E+04  0.46999998093E+01 0. -1.
       -5    1    3    3    0  502 -0.64685645665E+03  0.63143770357E+03  0.88392294737E+02  0.90827976790E+03  0.46999998093E+01 0.  1.
</event>
<event>
 5   0  0.3970042E-05  0.2013338E+04  0.7818609E-02  0.8600410E-01
       -1   -1    0    0    0  501  0.00000000000E+00  0.00000000000E+00  0.16654467808E+04  0.16654467808E+04  0.50400001928E-02 0. -1.
        1   -1    0    0  501    0  0.00000000000E+00  0.00000000000E+00 -0.60847503470E+03  0.60847503472E+03  0.50400001928E-02 0.  1.
    10030    2    1    2    0    0  0.00000000000E+00  0.00000000000E+00  0.10569717461E+04  0.22739218155E+04  0.20133383101E+04 0.  0.
        3    1    3    3  502    0 -0.63507739054E+03  0.27783447057E+02 -0.35311077110E+03  0.72717428363E+03  0.10100000352E+00 0.  1.
       -3    1    3    3    0  502  0.63507739054E+03 -0.27783447057E+02  0.14100825172E+04  0.15467475319E+04  0.10100000352E+00 0. -1.
</event>
<event>
 5   0  0.7935008E-05  0.1989562E+04  0.7818609E-02  0.8611516E-01
        2   -1    0    0  501    0  0.00000000000E+00  0.00000000000E+00  0.85538327860E+03  0.85538327860E+03  0.25500000920E-02 0.  1.
       -2   -1    0    0    0  501  0.00000000000E+00  0.00000000000E+00 -0.11568956526E+04  0.11568956526E+04  0.25500000920E-02 0. -1.
    10030    2    1    2    0    0  0.00000000000E+00  0.00000000000E+00 -0.30151237405E+03  0.20122789313E+04  0.19895619582E+04 0.  0.
        3    1    3    3  502    0  0.91643319647E+03 -0.34618991504E+03  0.24110731045E+02  0.97993805846E+03  0.10100000352E+00 0.  1.
       -3    1    3    3    0  502 -0.91643319647E+03  0.34618991504E+03 -0.32562310509E+03  0.10323408728E+04  0.10100000352E+00 0. -1.
</event>
<event>
 5   0  0.3818907E-05  0.1998091E+04  0.7818609E-02  0.8607514E-01
        1   -1    0    0  501    0  0.00000000000E+00  0.00000000000E+00  0.16392514029E+04  0.16392514029E+04  0.50400001928E-02 0.  1.
       -1   -1    0    0    0  501  0.00000000000E+00  0.00000000000E+00 -0.60887044801E+03  0.60887044803E+03  0.50400001928E-02 0. -1.
    10030    2    1    2    0    0  0.00000000000E+00  0.00000000000E+00  0.10303809549E+04  0.22481218509E+04  0.19980908249E+04 0.  0.
        1    1    3    3  502    0 -0.46388194744E+03 -0.77810155048E+03  0.41211762475E+02  0.90682241559E+03  0.50400001928E-02 0. -1.
       -1    1    3    3    0  502  0.46388194744E+03  0.77810155048E+03  0.98916919241E+03  0.13412994353E+04  0.50400001928E-02 0.  1.
</event>
<event>
 5   0  0.3970042E-05  0.2002454E+04  0.7818609E-02  0.8605474E-01
       -1   -1    0    0    0  501  0.00000000000E+00  0.00000000000E+00  0.11806149627E+04  0.11806149627E+04  0.50400001928E-02 0. -1.
        1   -1    0    0  501    0  0.00000000000E+00  0.00000000000E+00 -0.84909631815E+03  0.84909631816E+03  0.50400001928E-02 0.  1.
    10030    2    1    2    0    0  0.00000000000E+00  0.00000000000E+00  0.33151864458E+03  0.20297112809E+04  0.20024543121E+04 0.  0.
        3    1    3    3  502    0 -0.23929238355E+03  0.39946901465E+03 -0.73265727879E+03  0.86811464499E+03  0.10100000352E+00 0.  1.
       -3    1    3    3    0  502  0.23929238355E+03 -0.39946901465E+03  0.10641759234E+04  0.11615966359E+04  0.10100000352E+00 0. -1.
</event>
<event>
 5   0  0.3772949E-05  0.2018844E+04  0.7818609E-02  0.8597861E-01
        1   -1    0    0  501    0  0.00000000000E+00  0.00000000000E+00  0.81493056135E+03  0.81493056137E+03  0.50400001928E-02 0.  1.
       -1   -1    0    0    0  501  0.00000000000E+00  0.00000000000E+00 -0.12503304303E+04  0.12503304303E+04  0.50400001928E-02 0. -1.
    10030    2    1    2    0    0  0.00000000000E+00  0.00000000000E+00 -0.43539986897E+03  0.20652609917E+04  0.20188437082E+04 0.  0.
        2    1    3    3  502    0 -0.76545753504E+03  0.45255878838E+03 -0.70638374934E+03  0.11356551837E+04  0.25500000920E-02 0. -1.
       -2    1    3    3    0  502  0.76545753504E+03 -0.45255878838E+03  0.27098388037E+03  0.92960580802E+03  0.25500000920E-02 0.  1.
</event>
<event>
 5   0  0.3549426E-05  0.1853888E+04  0.7818609E-02  0.8678156E-01
       -1   -1    0    0    0  501  0.00000000000E+00  0.00000000000E+00  0.62580826983E+03  0.62580826985E+03  0.50400001928E-02 0. -1.
        1   -1    0    0  501    0  0.00000000000E+00  0.00000000000E+00 -0.13729852532E+04  0.13729852532E+04  0.50400001928E-02 0.  1.
    10030    2    1    2    0    0  0.00000000000E+00  0.00000000000E+00 -0.74717698337E+03  0.19987935231E+04  0.18538883740E+04 0.  0.
        5    1    3    3  502    0  0.79484669578E+03 -0.46702503021E+03 -0.26955953816E+03  0.96050928327E+03  0.46999998093E+01 0.  1.
       -5    1    3    3    0  502 -0.79484669578E+03  0.46702503021E+03 -0.47761744521E+03  0.10382842398E+04  0.46999998093E+01 0. -1.
</event>
<event>
 5   0  0.7857136E-05  0.2021010E+04  0.7818609E-02  0.8596860E-01
        2   -1    0    0  501    0  0.00000000000E+00  0.00000000000E+00  0.60229498176E+03  0.60229498177E+03  0.25500000920E-02 0. -1.
       -2   -1    0    0    0  501  0.00000000000E+00  0.00000000000E+00 -0.16953821800E+04  0.16953821800E+04  0.25500000920E-02 0.  1.
    10030    2    1    2    0    0  0.00000000000E+00  0.00000000000E+00 -0.10930871983E+04  0.22976771618E+04  0.20210098260E+04 0.  0.
        4    1    3    3  502    0 -0.82318067180E+03  0.51158866562E+03 -0.22144476107E+03  0.99417743704E+03  0.12699999809E+01 0. -1.
       -4    1    3    3    0  502  0.82318067180E+03 -0.51158866562E+03 -0.87164243720E+03  0.13034997248E+04  0.12699999809E+01 0.  1.
</event>
<event>
 5   0  0.8022574E-05  0.1957141E+04  0.7818609E-02  0.8626925E-01
       -2   -1    0    0    0  501  0.00000000000E+00  0.00000000000E+00  0.45072389950E+03  0.45072389951E+03  0.25500000920E-02 0. -1.
        2   -1    0    0  501    0  0.00000000000E+00  0.00000000000E+00 -0.21245836398E+04  0.21245836398E+04  0.25500000920E-02 0.  1.
    10030    2    1    2    0    0  0.00000000000E+00  0.00000000000E+00 -0.16738597403E+04  0.25753075393E+04  0.19571414082E+04 0.  0.
        1    1    3    3  502    0 -0.96500473729E+03  0.16974513089E+02 -0.62443575167E+03  0.11495400320E+04  0.50400001928E-02 0. -1.
       -1    1    3    3    0  502  0.96500473729E+03 -0.16974513089E+02 -0.10494239886E+04  0.14257675074E+04  0.50400001928E-02 0.  1.
</event>
<event>
 5   0  0.3787698E-05  0.1996001E+04  0.7818609E-02  0.8608493E-01
        1   -1    0    0  501    0  0.00000000000E+00  0.00000000000E+00  0.20707457347E+04  0.20707457347E+04  0.50400001928E-02 0.  1.
       -1   -1    0    0    0  501  0.00000000000E+00  0.00000000000E+00 -0.48098847516E+03  0.48098847519E+03  0.50400001928E-02 0. -1.
    10030    2    1    2    0    0  0.00000000000E+00  0.00000000000E+00  0.15897572595E+04  0.25517342099E+04  0.19960008351E+04 0.  0.
        4    1    3    3  502    0 -0.32312288070E+03  0.42628911401E+03 -0.28224329923E+03  0.60480881080E+03  0.12699999809E+01 0. -1.
       -4    1    3    3    0  502  0.32312288070E+03 -0.42628911401E+03  0.18720005587E+04  0.19469253991E+04  0.12699999809E+01 0.  1.
</event>
<event>
 5   0  0.7843846E-05  0.1979112E+04  0.7818609E-02  0.8616449E-01
       -2   -1    0    0    0  501  0.00000000000E+00  0.00000000000E+00  0.10958995460E+04  0.10958995460E+04  0.25500000920E-02 0.  1.
        2   -1    0    0  501    0  0.00000000000E+00  0.00000000000E+00 -0.89353150278E+03  0.89353150278E+03  0.25500000920E-02 0. -1.
    10030    2    1    2    0    0  0.00000000000E+00  0.00000000000E+00  0.20236804325E+03  0.19894310488E+04  0.19791116879E+04 0.  0.
        2    1    3    3  502    0 -0.89086298406E+03  0.13041324415E+03 -0.31153724126E+03  0.95273287091E+03  0.25500000920E-02 0. -1.
       -2    1    3    3    0  502  0.89086298406E+03 -0.13041324415E+03  0.51390528451E+03  0.10366981779E+04  0.25500000920E-02 0.  1.
</event>
<event>
 5   0  0.3549426E-05  0.1982095E+04  0.7818609E-02  0.8615038E-01
       -1   -1    0    0    0  501  0.00000000000E+00  0.00000000000E+00  0.13406052717E+04  0.13406052717E+04  0.50400001928E-02 0.  1.
        1   -1    0    0  501    0  0.00000000000E+00  0.00000000000E+00 -0.73263570897E+03  0.73263570899E+03  0.50400001928E-02 0. -1.
    10030    2    1    2    0    0  0.00000000000E+00  0.00000000000E+00  0.60796956276E+03  0.20732409807E+04  0.19820951478E+04 0.  0.
        5    1    3    3  502    0  0.17503823478E+03  0.57796347130E+03  0.11259137525E+04  0.12776478489E+04  0.46999998093E+01 0.  1.
       -5    1    3    3    0  502 -0.17503823478E+03 -0.57796347130E+03 -0.51794418970E+03  0.79559313184E+03  0.46999998093E+01 0. -1.
</event>
<event>
 5   0  0.7843846E-05  0.2106020E+04  0.7818609E-02  0.8558596E-01
       -2   -1    0    0    0  501  0.00000000000E+00  0.00000000000E+00  0.15281733551E+04  0.15281733551E+04  0.25500000920E-02 0.  1.
        2   -1    0    0  501    0  0.00000000000E+00  0.00000000000E+00 -0.72559172647E+03  0.72559172647E+03  0.25500000920E-02 0. -1.
    10030    2    1    2    0    0  0.00000000000E+00  0.00000000000E+00  0.80258162858E+03  0.22537650815E+04  0.21060198888E+04 0.  0.
        2    1    3    3  502    0 -0.46524199700E+03  0.77870217528E+03 -0.17101911632E+03  0.92307894121E+03  0.25500000920E-02 0. -1.
       -2    1    3    3    0  502  0.46524199700E+03 -0.77870217528E+03  0.97360074491E+03  0.13306861403E+04  0.25500000920E-02 0.  1.
</event>
<event>
 5   0  0.3787698E-05  0.1926277E+04  0.7818609E-02  0.8641886E-01
       -1   -1    0    0    0  501  0.00000000000E+00  0.00000000000E+00  0.77142769504E+03  0.77142769506E+03  0.50400001928E-02 0. -1.
        1   -1    0    0  501    0  0.00000000000E+00  0.00000000000E+00 -0.12024916645E+04  0.12024916646E+04  0.50400001928E-02 0.  1.
    10030    2    1    2    0    0  0.00000000000E+00  0.00000000000E+00 -0.43106396950E+03  0.19739193596E+04  0.19262765877E+04 0.  0.
        4    1    3    3  502    0 -0.80625269195E+03 -0.17248820950E+02 -0.75514210278E+03  0.11047995897E+04  0.12699999809E+01 0. -1.
       -4    1    3    3    0  502  0.80625269195E+03  0.17248820950E+02  0.32407813328E+03  0.86911976992E+03  0.12699999809E+01 0.  1.
</event>
<event>
 5   0  0.3772949E-05  0.2005449E+04  0.7818609E-02  0.8604077E-01
       -1   -1    0    0    0  501  0.00000000000E+00  0.00000000000E+00  0.42804904043E+03  0.42804904046E+03  0.50400001928E-02 0. -1.
        1   -1    0    0  501    0  0.00000000000E+00  0.00000000000E+00 -0.23489275755E+04  0.23489275755E+04  0.50400001928E-02 0.  1.
    10030    2    1    2    0    0  0.00000000000E+00  0.00000000000E+00 -0.19208785351E+04  0.27769766160E+04  0.20054487725E+04 0.  0.
        2    1    3    3  502    0  0.81644352654E+03  0.56546287473E+03 -0.11519505201E+04  0.15209596627E+04  0.25500000920E-02 0.  1.
       -2    1    3    3    0  502 -0.81644352654E+03 -0.56546287473E+03 -0.76892801495E+03  0.12560169533E+04  0.25500000920E-02 0. -1.
</event>
<event>
 5   0  0.3772949E-05  0.1997663E+04  0.7818609E-02  0.8607714E-01
        1   -1    0    0  501    0  0.00000000000E+00  0.00000000000E+00  0.10684279523E+04  0.10684279523E+04  0.50400001928E-02 0. -1.
       -1   -1    0    0    0  501  0.00000000000E+00  0.00000000000E+00 -0.93376815019E+03  0.93376815020E+03  0.50400001928E-02 0.  1.
    10030    2    1    2    0    0  0.00000000000E+00  0.00000000000E+00  0.13465980211E+03  0.20021961025E+04  0.19976626268E+04 0.  0.
        2    1    3    3  502    0  0.61502592233E+03  0.68011355210E+03 -0.32961517237E+03  0.97440109336E+03  0.25500000920E-02 0.  1.
       -2    1    3    3    0  502 -0.61502592233E+03 -0.68011355210E+03  0.46427497448E+03  0.10277950091E+04  0.25500000920E-02 0. -1.
</event>
<event>
 5   0  0.7843846E-05  0.1999501E+04  0.7818609E-02  0.8606854E-01
        2   -1    0    0  501    0  0.00000000000E+00  0.00000000000E+00  0.17930634622E+04  0.17930634622E+04  0.25500000920E-02 0.  1.
       -2   -1    0    0    0  501  0.00000000000E+00  0.00000000000E+00 -0.55742627812E+03  0.55742627812E+03  0.25500000920E-02 0. -1.
    10030    2    1    2    0    0  0.00000000000E+00  0.00000000000E+00  0.12356371841E+04  0.23504897404E+04  0.19995006298E+04 0.  0.
        2    1    3    3  502    0 -0.34704402155E+02  0.25415212535E+03 -0.51808426075E+03  0.57810812102E+03  0.25500000920E-02 0. -1.
       -2    1    3    3    0  502  0.34704402155E+02 -0.25415212535E+03  0.17537214449E+04  0.17723816193E+04  0.25500000920E-02 0.  1.
</event>
<event>
 5   0  0.3549426E-05  0.1982110E+04  0.7818609E-02  0.8615031E-01
       -1   -1    0    0    0  501  0.00000000000E+00  0.00000000000E+00  0.97429911173E+03  0.97429911175E+03  0.50400001928E-02 0.  1.
        1   -1    0    0  501    0  0.00000000000E+00  0.00000000000E+00 -0.10080992972E+04  0.10080992972E+04  0.50400001928E-02 0. -1.
    10030    2    1    2    0    0  0.00000000000E+00  0.00000000000E+00 -0.33800185475E+02  0.19823984090E+04  0.19821102389E+04 0.  0.
        5    1    3    3  502    0 -0.48792208565E+03 -0.84861009265E+03  0.13791617426E+03  0.98855956428E+03  0.46999998093E+01 0.  1.
       -5    1    3    3    0  502  0.48792208565E+03  0.84861009265E+03 -0.17171635973E+03  0.99383884469E+03  0.46999998093E+01 0. -1.
</event>
<event>
 5   0  0.8011197E-05  0.1990858E+04  0.7818609E-02  0.8610907E-01
       -2   -1    0    0    0  501  0.00000000000E+00  0.00000000000E+00  0.95446010446E+03  0.95446010447E+03  0.25500000920E-02 0. -1.
        2   -1    0    0  501    0  0.00000000000E+00  0.00000000000E+00 -0.10381568678E+04  0.10381568678E+04  0.25500000920E-02 0.  1.
    10030    2    1    2    0    0  0.00000000000E+00  0.00000000000E+00 -0.83696763373E+02  0.19926169723E+04  0.19908584204E+04 0.  0.
        5    1    3    3  502    0  0.84808095062E+02 -0.29847532605E+03 -0.98850479848E+03  0.10360713102E+04  0.46999998093E+01 0.  1.
       -5    1    3    3    0  502 -0.84808095062E+02  0.29847532605E+03  0.90480803511E+03  0.95654566208E+03  0.46999998093E+01 0. -1.
</event>
<event>
 5   0  0.8011197E-05  0.1979935E+04  0.7818609E-02  0.8616060E-01
        2   -1    0    0  501    0  0.00000000000E+00  0.00000000000E+00  0.24788515637E+04  0.24788515637E+04  0.25500000920E-02 0.  1.
       -2   -1    0    0    0  501  0.00000000000E+00  0.00000000000E+00 -0.39535867947E+03  0.39535867948E+03  0.25500000920E-02 0. -1.
    10030    2    1    2    0    0  0.00000000000E+00  0.00000000000E+00  0.20834928842E+04  0.28742102432E+04  0.19799348281E+04 0.  0.
        5    1    3    3  502    0  0.65749957199E+03 -0.89644498000E+02  0.21081765719E+04  0.22101521150E+04  0.46999998093E+01 0.  1.
       -5    1    3    3    0  502 -0.65749957199E+03  0.89644498000E+02 -0.24683687641E+02  0.66405812819E+03  0.46999998093E+01 0. -1.
</event>
<event>
 5   0  0.7857136E-05  0.1996809E+04  0.7818609E-02  0.8608114E-01
        2   -1    0    0  501    0  0.00000000000E+00  0.00000000000E+00  0.29869099223E+04  0.29869099223E+04  0.25500000920E-02 0.  1.
       -2   -1    0    0    0  501  0.00000000000E+00  0.00000000000E+00 -0.33372656587E+03  0.33372656588E+03  0.25500000920E-02 0. -1.
    10030    2    1    2    0    0  0.00000000000E+00  0.00000000000E+00  0.26531833565E+04  0.33206364882E+04  0.19968086448E+04 0.  0.
        4    1    3    3  502    0  0.81902033266E+02 -0.73165198607E+03  0.24480649090E+04  0.25563736001E+04  0.12699999809E+01 0.  1.
       -4    1    3    3    0  502 -0.81902033266E+02  0.73165198607E+03  0.20511844749E+03  0.76426288813E+03  0.12699999809E+01 0. -1.
</event>
<event>
 5   0  0.3787698E-05  0.2002984E+04  0.7818609E-02  0.8605227E-01
        1   -1    0    0  501    0  0.00000000000E+00  0.00000000000E+00  0.12246612554E+04  0.12246612554E+04  0.50400001928E-02 0.  1.
       -1   -1    0    0    0  501  0.00000000000E+00  0.00000000000E+00 -0.81899084029E+03  0.81899084031E+03  0.50400001928E-02 0. -1.
    10030    2    1    2    0    0  0.00000000000E+00  0.00000000000E+00  0.40567041512E+03  0.20436520957E+04  0.20029841244E+04 0.  0.
        4    1    3    3  502    0  0.76140268935E+03  0.59238068094E+03 -0.71578711443E+02  0.96735414990E+03  0.12699999809E+01 0. -1.
       -4    1    3    3    0  502 -0.76140268935E+03 -0.59238068094E+03  0.47724912656E+03  0.10762979458E+04  0.12699999809E+01 0.  1.
</event>
<event>
 5   0  0.3772949E-05  0.2001139E+04  0.7818609E-02  0.8606088E-01
        1   -1    0    0  501    0  0.00000000000E+00  0.00000000000E+00  0.89680584050E+03  0.89680584051E+03  0.50400001928E-02 0.  1.
       -1   -1    0    0    0  501  0.00000000000E+00  0.00000000000E+00 -0.11163390353E+04  0.11163390353E+04  0.50400001928E-02 0. -1.
    10030    2    1    2    0    0  0.00000000000E+00  0.00000000000E+00 -0.21953319477E+03  0.20131448758E+04  0.20011390425E+04 0.  0.
        2    1    3    3  502    0  0.98656123373E+03  0.12552425498E+02  0.57600809688E+02  0.98832104327E+03  0.25500000920E-02 0.  1.
       -2    1    3    3    0  502 -0.98656123373E+03 -0.12552425498E+02 -0.27713400446E+03  0.10248238325E+04  0.25500000920E-02 0. -1.
</event>
<event>
 5   0  0.7843846E-05  0.1992978E+04  0.7818609E-02  0.8609911E-01
        2   -1    0    0  501    0  0.00000000000E+00  0.00000000000E+00  0.13611760131E+04  0.13611760131E+04  0.25500000920E-02 0. -1.
       -2   -1    0    0    0  501  0.00000000000E+00  0.00000000000E+00 -0.72950913520E+03  0.72950913521E+03  0.25500000920E-02 0.  1.
    10030    2    1    2    0    0  0.00000000000E+00  0.00000000000E+00  0.63166687794E+03  0.20906851484E+04  0.19929780091E+04 0.  0.
        2    1    3    3  502    0 -0.38591797385E+03 -0.62893256566E+03  0.10183686056E+04  0.12576022708E+04  0.25500000920E-02 0. -1.
       -2    1    3    3    0  502  0.38591797385E+03  0.62893256566E+03 -0.38670172765E+03  0.83308287754E+03  0.25500000920E-02 0.  1.
</event>
<event>
 5   0  0.3772949E-05  0.1989566E+04  0.7818609E-02  0.8611514E-01
        1   -1    0    0  501    0  0.00000000000E+00  0.00000000000E+00  0.21073494465E+04  0.21073494465E+04  0.50400001928E-02 0.  1.
       -1   -1    0    0    0  501  0.00000000000E+00  0.00000000000E+00 -0.46959154204E+03  0.46959154207E+03  0.50400001928E-02 0. -1.
    10030    2    1    2    0    0  0.00000000000E+00  0.00000000000E+00  0.16377579045E+04  0.25769409886E+04  0.19895662605E+04 0.  0.
        2    1    3    3  502    0  0.31540385304E+03 -0.55383228203E+03  0.18081680138E+04  0.19172066538E+04  0.25500000920E-02 0.  1.
       -2    1    3    3    0  502 -0.31540385304E+03  0.55383228203E+03 -0.17041010936E+03  0.65973433479E+03  0.25500000920E-02 0. -1.
</event>
<event>
 5   0  0.7935008E-05  0.1980288E+04  0.7818609E-02  0.8615892E-01
        2   -1    0    0  501    0  0.00000000000E+00  0.00000000000E+00  0.16360809462E+04  0.16360809462E+04  0.25500000920E-02 0.  1.
       -2   -1    0    0    0  501  0.00000000000E+00  0.00000000000E+00 -0.59922786883E+03  0.59922786884E+03  0.25500000920E-02 0. -1.
    10030    2    1    2    0    0  0.00000000000E+00  0.00000000000E+00  0.10368530774E+04  0.22353088151E+04  0.19802881595E+04 0.  0.
        3    1    3    3  502    0 -0.15601806337E+02 -0.40372430241E+03 -0.50194808612E+03  0.64435131728E+03  0.10100000352E+00 0. -1.
       -3    1    3    3    0  502  0.15601806337E+02  0.40372430241E+03  0.15388011635E+04  0.15909574978E+04  0.10100000352E+00 0.  1.
</event>
<event>
 5   0  0.8011197E-05  0.2063991E+04  0.7818609E-02  0.8577274E-01
        2   -1    0    0  501    0  0.00000000000E+00  0.00000000000E+00  0.11351984237E+04  0.11351984237E+04  0.25500000920E-02 0.  1.
       -2   -1    0    0    0  501  0.00000000000E+00  0.00000000000E+00 -0.93817495159E+03  0.93817495159E+03  0.25500000920E-02 0. -1.
    10030    2    1    2    0    0  0.00000000000E+00  0.00000000000E+00  0.19702347208E+03  0.20733733753E+04  0.20639910137E+04 0.  0.
        5    1    3    3  502    0 -0.54227585190E+03  0.55689690855E+03  0.78041656906E+03  0.11014850782E+04  0.46999998093E+01 0.  1.
       -5    1    3    3    0  502  0.54227585190E+03 -0.55689690855E+03 -0.58339309698E+03  0.97188829703E+03  0.46999998093E+01 0. -1.
</event>
<event>
 5   0  0.3549426E-05  0.2005750E+04  0.7818609E-02  0.8603937E-01
       -1   -1    0    0    0  501  0.00000000000E+00  0.00000000000E+00  0.72931703793E+03  0.72931703795E+03  0.50400001928E-02 0. -1.
        1   -1    0    0  501    0  0.00000000000E+00  0.00000000000E+00 -0.13790416897E+04  0.13790416897E+04  0.50400001928E-02 0.  1.
    10030    2    1    2    0    0  0.00000000000E+00  0.00000000000E+00 -0.64972465181E+03  0.21083587277E+04  0.20057503338E+04 0.  0.
        5    1    3    3  502    0 -0.98830578552E+03 -0.14976889680E+03 -0.23974155824E+03  0.10279480303E+04  0.46999998093E+01 0.  1.
       -5    1    3    3    0  502  0.98830578552E+03  0.14976889680E+03 -0.40998309356E+03  0.10804106974E+04  0.46999998093E+01 0. -1.
</event>
<event>
 5   0  0.3970042E-05  0.1998604E+04  0.7818609E-02  0.8607274E-01
        1   -1    0    0  501    0  0.00000000000E+00  0.00000000000E+00  0.17279075781E+04  0.17279075781E+04  0.50400001928E-02 0. -1.
       -1   -1    0    0    0  501  0.00000000000E+00  0.00000000000E+00 -0.57792694493E+03  0.57792694495E+03  0.50400001928E-02 0.  1.
    10030    2    1    2    0    0  0.00000000000E+00  0.00000000000E+00  0.11499806331E+04  0.23058345230E+04  0.19986038605E+04 0.  0.
        3    1    3    3  502    0  0.45565253488E+03 -0.14103779486E+03  0.15880963948E+04  0.16581800450E+04  0.10100000352E+00 0. -1.
       -3    1    3    3    0  502 -0.45565253488E+03  0.14103779486E+03 -0.43811576167E+03  0.64765447806E+03  0.10100000352E+00 0.  1.
</event>
<event>
 5   0  0.7935008E-05  0.2012120E+04  0.7818609E-02  0.8600975E-01
        2   -1    0    0  501    0  0.00000000000E+00  0.00000000000E+00  0.11916360866E+04  0.11916360866E+04  0.25500000920E-02 0.  1.
       -2   -1    0    0    0  501  0.00000000000E+00  0.00000000000E+00 -0.84938370983E+03  0.84938370983E+03  0.25500000920E-02 0. -1.
    10030    2    1    2    0    0  0.00000000000E+00  0.00000000000E+00  0.34225237679E+03  0.20410197965E+04  0.20121195591E+04 0.  0.
        3    1    3    3  502    0  0.96262417025E+03 -0.18560898392E+03  0.40033696778E+03  0.10589455539E+04  0.10100000352E+00 0. -1.
       -3    1    3    3    0  502 -0.96262417025E+03  0.18560898392E+03 -0.58084590992E+02  0.98207424260E+03  0.10100000352E+00 0.  1.
</event>
<event>
 5   0  0.8022574E-05  0.1990317E+04  0.7818609E-02  0.8611161E-01
       -2   -1    0    0    0  501  0.00000000000E+00  0.00000000000E+00  0.79215494287E+03  0.79215494287E+03  0.25500000920E-02 0. -1.
        2   -1    0    0  501    0  0.00000000000E+00  0.00000000000E+00 -0.12501847164E+04  0.12501847165E+04  0.25500000920E-02 0.  1.
    10030    2    1    2    0    0  0.00000000000E+00  0.00000000000E+00 -0.45802977358E+03  0.20423396593E+04  0.19903165604E+04 0.  0.
        1    1    3    3  502    0 -0.57645756047E+03  0.77968342199E+03  0.73568156598E+00  0.96964431562E+03  0.50400001928E-02 0. -1.
       -1    1    3    3    0  502  0.57645756047E+03 -0.77968342199E+03 -0.45876545515E+03  0.10726953437E+04  0.50400001928E-02 0.  1.
</event>
<event>
 5   0  0.8022574E-05  0.1960113E+04  0.7818609E-02  0.8625500E-01
       -2   -1    0    0    0  501  0.00000000000E+00  0.00000000000E+00  0.65228449176E+03  0.65228449176E+03  0.25500000920E-02 0.  1.
        2   -1    0    0  501    0  0.00000000000E+00  0.00000000000E+00 -0.14725327922E+04  0.14725327922E+04  0.25500000920E-02 0. -1.
    10030    2    1    2    0    0  0.00000000000E+00  0.00000000000E+00 -0.82024830047E+03  0.21248172840E+04  0.19601125519E+04 0.  0.
        1    1    3    3  502    0  0.12937687102E+03  0.62667987753E+02 -0.14610416357E+04  0.14680968336E+04  0.50400001928E-02 0. -1.
       -1    1    3    3    0  502 -0.12937687102E+03 -0.62667987753E+02  0.64079333526E+03  0.65672045041E+03  0.50400001928E-02 0.  1.
</event>
<event>
 5   0  0.7843846E-05  0.1998343E+04  0.7818609E-02  0.8607396E-01
       -2   -1    0    0    0  501  0.00000000000E+00  0.00000000000E+00  0.58559473625E+03  0.58559473625E+03  0.25500000920E-02 0.  1.
        2   -1    0    0  501    0  0.00000000000E+00  0.00000000000E+00 -0.17048364675E+04  0.17048364675E+04  0.25500000920E-02 0. -1.
    10030    2    1    2    0    0  0.00000000000E+00  0.00000000000E+00 -0.11192417313E+04  0.22904312038E+04  0.19983425748E+04 0.  0.
        2    1    3    3  502    0  0.12202428061E+03 -0.50845668404E+03 -0.15354951866E+04  0.16220861853E+04  0.25500000920E-02 0. -1.
       -2    1    3    3    0  502 -0.12202428061E+03  0.50845668404E+03  0.41625345532E+03  0.66834501844E+03  0.25500000920E-02 0.  1.
</event>
<event>
 5   0  0.3818907E-05  0.2017482E+04  0.7818609E-02  0.8598490E-01
        1   -1    0    0  501    0  0.00000000000E+00  0.00000000000E+00  0.97182515940E+03  0.97182515942E+03  0.50400001928E-02 0. -1.
       -1   -1    0    0    0  501  0.00000000000E+00  0.00000000000E+00 -0.10470595446E+04  0.10470595446E+04  0.50400001928E-02 0.  1.
    10030    2    1    2    0    0  0.00000000000E+00  0.00000000000E+00 -0.75234385227E+02  0.20188847041E+04  0.20174824003E+04 0.  0.
        1    1    3    3  502    0  0.28381521632E+03 -0.26852701439E+03 -0.96826413759E+03  0.10441232086E+04  0.50400001928E-02 0.  1.
       -1    1    3    3    0  502 -0.28381521632E+03  0.26852701439E+03  0.89302975237E+03  0.97476149550E+03  0.50400001928E-02 0. -1.
</event>
<event>
 5   0  0.8022574E-05  0.1991438E+04  0.7818609E-02  0.8610634E-01
        2   -1    0    0  501    0  0.00000000000E+00  0.00000000000E+00  0.15806407606E+04  0.15806407606E+04  0.25500000920E-02 0. -1.
       -2   -1    0    0    0  501  0.00000000000E+00  0.00000000000E+00 -0.62724947551E+03  0.62724947551E+03  0.25500000920E-02 0.  1.
    10030    2    1    2    0    0  0.00000000000E+00  0.00000000000E+00  0.95339128509E+03  0.22078902361E+04  0.19914377601E+04 0.  0.
        1    1    3    3  502    0  0.28430890127E+03  0.57447935852E+03 -0.36809386320E+03  0.73915571895E+03  0.50400001928E-02 0.  1.
       -1    1    3    3    0  502 -0.28430890127E+03 -0.57447935852E+03  0.13214851483E+04  0.14687345172E+04  0.50400001928E-02 0. -1.
</event>
<event>
 5   0  0.7857136E-05  0.2006945E+04  0.7818609E-02  0.8603380E-01
       -2   -1    0    0    0  501  0.00000000000E+00  0.00000000000E+00  0.93463682556E+03  0.93463682556E+03  0.25500000920E-02 0.  1.
        2   -1    0    0  501    0  0.00000000000E+00  0.00000000000E+00 -0.10773783906E+04  0.10773783906E+04  0.25500000920E-02 0. -1.
    10030    2    1    2    0    0  0.00000000000E+00  0.00000000000E+00 -0.14274156509E+03  0.20120152162E+04  0.20069454591E+04 0.  0.
        4    1    3    3  502    0  0.55683217015E+03  0.83169637522E+03  0.74827116666E+00  0.10008911525E+04  0.12699999809E+01 0.  1.
       -4    1    3    3    0  502 -0.55683217015E+03 -0.83169637522E+03 -0.14348983625E+03  0.10111240637E+04  0.12699999809E+01 0. -1.
</event>
<event>
 5   0  0.7935008E-05  0.2015441E+04  0.7818609E-02  0.8599435E-01
        2   -1    0    0  501    0  0.00000000000E+00  0.00000000000E+00  0.95997128466E+03  0.95997128466E+03  0.25500000920E-02 0.  1.
       -2   -1    0    0    0  501  0.00000000000E+00  0.00000000000E+00 -0.10578448216E+04  0.10578448216E+04  0.25500000920E-02 0. -1.
    10030    2    1    2    0    0  0.00000000000E+00  0.00000000000E+00 -0.97873536942E+02  0.20178161063E+04  0.20154410459E+04 0.  0.
        3    1    3    3  502    0 -0.14645636326E+03  0.22974386961E+03  0.92239668629E+03  0.96179382876E+03  0.10100000352E+00 0.  1.
       -3    1    3    3    0  502  0.14645636326E+03 -0.22974386961E+03 -0.10202702232E+04  0.10560222775E+04  0.10100000352E+00 0. -1.
</event>
<event>
 5   0  0.3549426E-05  0.1913060E+04  0.7818609E-02  0.8648383E-01
        1   -1    0    0  501    0  0.00000000000E+00  0.00000000000E+00  0.19725368899E+04  0.19725368899E+04  0.50400001928E-02 0. -1.
       -1   -1    0    0    0  501  0.00000000000E+00  0.00000000000E+00 -0.46384434145E+03  0.46384434147E+03  0.50400001928E-02 0.  1.
    10030    2    1    2    0    0  0.00000000000E+00  0.00000000000E+00  0.15086925485E+04  0.24363812314E+04  0.19130604535E+04 0.  0.
        5    1    3    3  502    0  0.66980546932E+02  0.94006835813E+03  0.96249726263E+03  0.13470849944E+04  0.46999998093E+01 0. -1.
       -5    1    3    3    0  502 -0.66980546932E+02 -0.94006835813E+03  0.54619528585E+03  0.10892962370E+04  0.46999998093E+01 0.  1.
</event>
<event>
 5   0  0.3772949E-05  0.1999722E+04  0.7818609E-02  0.8606751E-01
       -1   -1    0    0    0  501  0.00000000000E+00  0.00000000000E+00  0.12385880442E+04  0.12385880442E+04  0.50400001928E-02 0.  1.
        1   -1    0    0  501    0  0.00000000000E+00  0.00000000000E+00 -0.80714639815E+03  0.80714639817E+03  0.50400001928E-02 0. -1.
    10030    2    1    2    0    0  0.00000000000E+00  0.00000000000E+00  0.43144164608E+03  0.20457344424E+04  0.19997218594E+04 0.  0.
        2    1    3    3  502    0 -0.41823251583E+03  0.23707344220E+03  0.11125913389E+04  0.12120155699E+04  0.25500000920E-02 0.  1.
       -2    1    3    3    0  502  0.41823251583E+03 -0.23707344220E+03 -0.68114969283E+03  0.83371887249E+03  0.25500000920E-02 0. -1.
</event>
<event>
 5   0  0.8022574E-05  0.1998555E+04  0.7818609E-02  0.8607297E-01
       -2   -1    0    0    0  501  0.00000000000E+00  0.00000000000E+00  0.44245869922E+03  0.44245869923E+03  0.25500000920E-02 0.  1.
        2   -1    0    0  501    0  0.00000000000E+00  0.00000000000E+00 -0.22568329910E+04  0.22568329910E+04  0.25500000920E-02 0. -1.
    10030    2    1    2    0    0  0.00000000000E+00  0.00000000000E+00 -0.18143742918E+04  0.26992916902E+04  0.19985548675E+04 0.  0.
        1    1    3    3  502    0  0.96798214444E+03  0.15447134773E+03 -0.11694463159E+04  0.15259277555E+04  0.50400001928E-02 0. -1.
       -1    1    3    3    0  502 -0.96798214444E+03 -0.15447134773E+03 -0.64492797590E+03  0.11733639347E+04  0.50400001928E-02 0.  1.
</event>
<event>
 5   0  0.7857136E-05  0.1994366E+04  0.7818609E-02  0.8609259E-01
        2   -1    0    0  501    0  0.00000000000E+00  0.00000000000E+00  0.14252677372E+04  0.14252677372E+04  0.25500000920E-02 0.  1.
       -2   -1    0    0    0  501  0.00000000000E+00  0.00000000000E+00 -0.69767520739E+03  0.69767520740E+03  0.25500000920E-02 0. -1.
    10030    2    1    2    0    0  0.00000000000E+00  0.00000000000E+00  0.72759252981E+03  0.21229429446E+04  0.19943660287E+04 0.  0.
        4    1    3    3  502    0  0.68566932592E+03  0.72403393944E+03  0.36612384851E+03  0.10622692010E+04  0.12699999809E+01 0. -1.
       -4    1    3    3    0  502 -0.68566932592E+03 -0.72403393944E+03  0.36146868130E+03  0.10606737436E+04  0.12699999809E+01 0.  1.
</event>
<event>
 5   0  0.7935008E-05  0.2004566E+04  0.7818609E-02  0.8604489E-01
       -2   -1    0    0    0  501  0.00000000000E+00  0.00000000000E+00  0.77427260085E+03  0.77427260085E+03  0.25500000920E-02 0.  1.
        2   -1    0    0  501    0  0.00000000000E+00  0.00000000000E+00 -0.12974382521E+04  0.12974382521E+04  0.25500000920E-02 0. -1.
    10030    2    1    2    0    0  0.00000000000E+00  0.00000000000E+00 -0.52316565126E+03  0.20717108530E+04  0.20045656786E+04 0.  0.
        3    1    3    3  502    0 -0.83288818148E+03  0.10736170872E+03 -0.82703047568E+03  0.11786469689E+04  0.10100000352E+00 0. -1.
       -3    1    3    3    0  502  0.83288818148E+03 -0.10736170872E+03  0.30386482441E+03  0.89306388409E+03  0.10100000352E+00 0.  1.
</event>
<event>
 5   0  0.3818907E-05  0.2005974E+04  0.7818609E-02  0.8603832E-01
        1   -1    0    0  501    0  0.00000000000E+00  0.00000000000E+00  0.93760258945E+03  0.93760258946E+03  0.50400001928E-02 0.  1.
       -1   -1    0    0    0  501  0.00000000000E+00  0.00000000000E+00 -0.10729315384E+04  0.10729315384E+04  0.50400001928E-02 0. -1.
    10030    2    1    2    0    0  0.00000000000E+00  0.00000000000E+00 -0.13532894894E+03  0.20105341279E+04  0.20059744652E+04 0.  0.
        1    1    3    3  502    0 -0.30207068156E+03  0.14898715555E+03 -0.10145550116E+04  0.10690022174E+04  0.50400001928E-02 0. -1.
       -1    1    3    3    0  502  0.30207068156E+03 -0.14898715555E+03  0.87922606266E+03  0.94153191049E+03  0.50400001928E-02 0.  1.
</event>
<event>
 5   0  0.7843846E-05  0.1800372E+04  0.7818609E-02  0.8706102E-01
        2   -1    0    0  501    0  0.00000000000E+00  0.00000000000E+00  0.11907411640E+04  0.11907411640E+04  0.25500000920E-02 0. -1.
       -2   -1    0    0    0  501  0.00000000000E+00  0.00000000000E+00 -0.68052961973E+03  0.68052961973E+03  0.25500000920E-02 0.  1.
    10030    2    1    2    0    0  0.00000000000E+00  0.00000000000E+00  0.51021154431E+03  0.18712707838E+04  0.18003717745E+04 0.  0.
        2    1    3    3  502    0  0.31353248214E+03 -0.62860404776E+03 -0.32999140069E+03  0.77610565695E+03  0.25500000920E-02 0.  1.
       -2    1    3    3    0  502 -0.31353248214E+03  0.62860404776E+03  0.84020294499E+03  0.10951651268E+04  0.25500000920E-02 0. -1.
</event>
<event>
 5   0  0.3818907E-05  0.1993092E+04  0.7818609E-02  0.8609857E-01
        1   -1    0    0  501    0  0.00000000000E+00  0.00000000000E+00  0.12568942032E+04  0.12568942032E+04  0.50400001928E-02 0. -1.
       -1   -1    0    0    0  501  0.00000000000E+00  0.00000000000E+00 -0.79012531035E+03  0.79012531037E+03  0.50400001928E-02 0.  1.
    10030    2    1    2    0    0  0.00000000000E+00  0.00000000000E+00  0.46676889284E+03  0.20470195136E+04  0.19930919923E+04 0.  0.
        1    1    3    3  502    0  0.88497086789E+03  0.46994005313E+02 -0.23471263914E+03  0.91677254352E+03  0.50400001928E-02 0. -1.
       -1    1    3    3    0  502 -0.88497086789E+03 -0.46994005313E+02  0.70148153198E+03  0.11302469700E+04  0.50400001928E-02 0.  1.
</event>
<event>
 5   0  0.3772949E-05  0.1991900E+04  0.7818609E-02  0.8610417E-01
       -1   -1    0    0    0  501  0.00000000000E+00  0.00000000000E+00  0.65746592126E+03  0.65746592128E+03  0.50400001928E-02 0.  1.
        1   -1    0    0  501    0  0.00000000000E+00  0.00000000000E+00 -0.15086958441E+04  0.15086958441E+04  0.50400001928E-02 0. -1.
    10030    2    1    2    0    0  0.00000000000E+00  0.00000000000E+00 -0.85122992280E+03  0.21661617653E+04  0.19918996993E+04 0.  0.
        2    1    3    3  502    0 -0.71053813206E+02  0.38288648120E+03  0.57123927882E+03  0.69135013960E+03  0.25500000920E-02 0.  1.
       -2    1    3    3    0  502  0.71053813206E+02 -0.38288648120E+03 -0.14224692016E+04  0.14748116257E+04  0.25500000920E-02 0. -1.
</event>
<event>
 5   0  0.8011197E-05  0.2006665E+04  0.7818609E-02  0.8603511E-01
       -2   -1    0    0    0  501  0.00000000000E+00  0.00000000000E+00  0.12304699950E+04  0.12304699950E+04  0.25500000920E-02 0. -1.
        2   -1    0    0  501    0  0.00000000000E+00  0.00000000000E+00 -0.81812359976E+03  0.81812359977E+03  0.25500000920E-02 0.  1.
    10030    2    1    2    0    0  0.00000000000E+00  0.00000000000E+00  0.41234639528E+03  0.20485935948E+04  0.20066654347E+04 0.  0.
        5    1    3    3  502    0  0.78333485592E+03 -0.47651409947E+03  0.62208623125E+03  0.11080128847E+04  0.46999998093E+01 0. -1.
       -5    1    3    3    0  502 -0.78333485592E+03  0.47651409947E+03 -0.20973983597E+03  0.94058071014E+03  0.46999998093E+01 0.  1.
</event>
<event>
 5   0  0.3818907E-05  0.1995281E+04  0.7818609E-02  0.8608830E-01
       -1   -1    0    0    0  501  0.00000000000E+00  0.00000000000E+00  0.12995744921E+04  0.12995744921E+04  0.50400001928E-02 0.  1.
        1   -1    0    0  501    0  0.00000000000E+00  0.00000000000E+00 -0.76585595415E+03  0.76585595416E+03  0.50400001928E-02 0. -1.
    10030    2    1    2    0    0  0.00000000000E+00  0.00000000000E+00  0.53371853797E+03  0.20654304463E+04  0.19952812961E+04 0.  0.
        1    1    3    3  502    0 -0.69336434039E+01 -0.28067251575E+03  0.12578363476E+04  0.12887891270E+04  0.50400001928E-02 0.  1.
       -1    1    3    3    0  502  0.69336434039E+01  0.28067251575E+03 -0.72411780965E+03  0.77664131926E+03  0.50400001928E-02 0. -1.
</event>
<event>
 5   0  0.7857136E-05  0.2011765E+04  0.7818609E-02  0.8601140E-01
       -2   -1    0    0    0  501  0.00000000000E+00  0.00000000000E+00  0.84399474267E+03  0.84399474267E+03  0.25500000920E-02 0.  1.
        2   -1    0    0  501    0  0.00000000000E+00  0.00000000000E+00 -0.11988216251E+04  0.11988216251E+04  0.25500000920E-02 0. -1.
    10030    2    1    2    0    0  0.00000000000E+00  0.00000000000E+00 -0.35482688242E+03  0.20428163678E+04  0.20117645478E+04 0.  0.
        4    1    3    3  502    0  0.62693826769E+03 -0.66383088101E+03 -0.60591563772E+03  0.10958368505E+04  0.12699999809E+01 0.  1.
       -4    1    3    3    0  502 -0.62693826769E+03  0.66383088101E+03  0.25108875531E+03  0.94697951721E+03  0.12699999809E+01 0. -1.
</event>
<event>
 5   0  0.3549426E-05  0.2001272E+04  0.7818609E-02  0.8606026E-01
       -1   -1    0    0    0  501  0.00000000000E+00  0.00000000000E+00  0.69928554471E+03  0.69928554473E+03  0.50400001928E-02 0. -1.
        1   -1    0    0  501    0  0.00000000000E+00  0.00000000000E+00 -0.14318508953E+04  0.14318508953E+04  0.50400001928E-02 0.  1.
    10030    2    1    2    0    0  0.00000000000E+00  0.00000000000E+00 -0.73256535060E+03  0.21311364400E+04  0.20012722287E+04 0.  0.
        5    1    3    3  502    0 -0.70863514537E+03 -0.39337892617E+03  0.25860030237E+03  0.85076844981E+03  0.46999998093E+01 0. -1.
       -5    1    3    3    0  502  0.70863514537E+03  0.39337892617E+03 -0.99116565297E+03  0.12803679902E+04  0.46999998093E+01 0.  1.
</event>
<event>
 5   0  0.7935008E-05  0.1999979E+04  0.7818609E-02  0.8606631E-01
        2   -1    0    0  501    0  0.00000000000E+00  0.00000000000E+00  0.24771646701E+04  0.24771646701E+04  0.25500000920E-02 0. -1.
       -2   -1    0    0    0  501  0.00000000000E+00  0.00000000000E+00 -0.40367874167E+03  0.40367874167E+03  0.25500000920E-02 0.  1.
    10030    2    1    2    0    0  0.00000000000E+00  0.00000000000E+00  0.20734859284E+04  0.28808434118E+04  0.19999787168E+04 0.  0.
        3    1    3    3  502    0 -0.76945306918E+03 -0.15128407227E+03  0.19305498837E+04  0.20837388896E+04  0.10100000352E+00 0. -1.
       -3    1    3    3    0  502  0.76945306918E+03  0.15128407227E+03  0.14293604469E+03  0.79710452217E+03  0.10100000352E+00 0.  1.
</event>
<event>
 5   0  0.7935008E-05  0.1996934E+04  0.7818609E-02  0.8608055E-01
        2   -1    0    0  501    0  0.00000000000E+00  0.00000000000E+00  0.11785665240E+04  0.11785665240E+04  0.25500000920E-02 0.  1.
       -2   -1    0    0    0  501  0.00000000000E+00  0.00000000000E+00 -0.84588914531E+03  0.84588914531E+03  0.25500000920E-02 0. -1.
    10030    2    1    2    0    0  0.00000000000E+00  0.00000000000E+00  0.33267737865E+03  0.20244556693E+04  0.19969342800E+04 0.  0.
        3    1    3    3  502    0 -0.42938227423E+03 -0.28789942285E+03 -0.69964784342E+03  0.86992087577E+03  0.10100000352E+00 0. -1.
       -3    1    3    3    0  502  0.42938227423E+03  0.28789942285E+03  0.10323252221E+04  0.11545347935E+04  0.10100000352E+00 0.  1.
</event>
<event>
 5   0  0.3970042E-05  0.2007077E+04  0.7818609E-02  0.8603319E-01
        1   -1    0    0  501    0  0.00000000000E+00  0.00000000000E+00  0.19568769388E+04  0.19568769388E+04  0.50400001928E-02 0.  1.
       -1   -1    0    0    0  501  0.00000000000E+00  0.00000000000E+00 -0.51464134329E+03  0.51464134331E+03  0.50400001928E-02 0. -1.
    10030    2    1    2    0    0  0.00000000000E+00  0.00000000000E+00  0.14422355955E+04  0.24715182821E+04  0.20070772546E+04 0.  0.
        3    1    3    3  502    0  0.66700801129E+02  0.79619249537E+03 -0.26616105354E+02  0.79942473931E+03  0.10100000352E+00 0. -1.
       -3    1    3    3    0  502 -0.66700801129E+02 -0.79619249537E+03  0.14688517008E+04  0.16720935428E+04  0.10100000352E+00 0.  1.
</event>
<event>
 5   0  0.7843846E-05  0.1993713E+04  0.7818609E-02  0.8609566E-01
        2   -1    0    0  501    0  0.00000000000E+00  0.00000000000E+00  0.92396788175E+03  0.92396788176E+03  0.25500000920E-02 0. -1.
       -2   -1    0    0    0  501  0.00000000000E+00  0.00000000000E+00 -0.10754950561E+04  0.10754950561E+04  0.25500000920E-02 0.  1.
    10030    2    1    2    0    0  0.00000000000E+00  0.00000000000E+00 -0.15152717430E+03  0.19994629378E+04  0.19937130072E+04 0.  0.
        2    1    3    3  502    0  0.18140808705E+03 -0.21049295985E+00 -0.10588017232E+04  0.10742299696E+04  0.25500000920E-02 0.  1.
       -2    1    3    3    0  502 -0.18140808705E+03  0.21049295985E+00  0.90727454895E+03  0.92523296825E+03  0.25500000920E-02 0. -1.
</event>
<event>
 5   0  0.7857136E-05  0.2009353E+04  0.7818609E-02  0.8602260E-01
       -2   -1    0    0    0  501  0.00000000000E+00  0.00000000000E+00  0.12629489638E+04  0.12629489638E+04  0.25500000920E-02 0. -1.
        2   -1    0    0  501    0  0.00000000000E+00  0.00000000000E+00 -0.79922072887E+03  0.79922072887E+03  0.25500000920E-02 0.  1.
    10030    2    1    2    0    0  0.00000000000E+00  0.00000000000E+00  0.46372823491E+03  0.20621696926E+04  0.20093531211E+04 0.  0.
        4    1    3    3  502    0 -0.29592157281E+03 -0.95166042301E+03  0.36227199966E+03  0.10604101813E+04  0.12699999809E+01 0. -1.
       -4    1    3    3    0  502  0.29592157281E+03  0.95166042301E+03  0.10145623524E+03  0.10017595113E+04  0.12699999809E+01 0.  1.
</event>
<event>
 5   0  0.7857136E-05  0.2004430E+04  0.7818609E-02  0.8604552E-01
        2   -1    0    0  501    0  0.00000000000E+00  0.00000000000E+00  0.86883959806E+03  0.86883959807E+03  0.25500000920E-02 0. -1.
       -2   -1    0    0    0  501  0.00000000000E+00  0.00000000000E+00 -0.11560646852E+04  0.11560646852E+04  0.25500000920E-02 0.  1.
    10030    2    1    2    0    0  0.00000000000E+00  0.00000000000E+00 -0.28722508712E+03  0.20249042833E+04  0.20044298705E+04 0.  0.
        4    1    3    3  502    0 -0.74557343688E+03 -0.33962286510E+02 -0.81932451236E+03  0.11082993531E+04  0.12699999809E+01 0.  1.
       -4    1    3    3    0  502  0.74557343688E+03  0.33962286510E+02  0.53209942524E+03  0.91660493013E+03  0.12699999809E+01 0. -1.
</event>
<event>
 5   0  0.3787698E-05  0.2007254E+04  0.7818609E-02  0.8603237E-01
       -1   -1    0    0    0  501  0.00000000000E+00  0.00000000000E+00  0.92512679668E+03  0.92512679669E+03  0.50400001928E-02 0. -1.
        1   -1    0    0  501    0  0.00000000000E+00  0.00000000000E+00 -0.10887886323E+04  0.10887886323E+04  0.50400001928E-02 0.  1.
    10030    2    1    2    0    0  0.00000000000E+00  0.00000000000E+00 -0.16366183564E+03  0.20139154290E+04  0.20072543832E+04 0.  0.
        4    1    3    3  502    0  0.28302323886E+03 -0.87985318491E+02  0.88021620290E+03  0.92877647836E+03  0.12699999809E+01 0. -1.
       -4    1    3    3    0  502 -0.28302323886E+03  0.87985318491E+02 -0.10438780385E+04  0.10851389507E+04  0.12699999809E+01 0.  1.
</event>
<event>
 5   0  0.3970042E-05  0.2000334E+04  0.7818609E-02  0.8606465E-01
       -1   -1    0    0    0  501  0.00000000000E+00  0.00000000000E+00  0.88877666076E+03  0.88877666077E+03  0.50400001928E-02 0. -1.
        1   -1    0    0  501    0  0.00000000000E+00  0.00000000000E+00 -0.11255173461E+04  0.11255173461E+04  0.50400001928E-02 0.  1.
    10030    2    1    2    0    0  0.00000000000E+00  0.00000000000E+00 -0.23674068531E+03  0.20142940068E+04  0.20003335207E+04 0.  0.
        3    1    3    3  502    0  0.40011294244E+03 -0.32186693619E+03  0.74589983076E+03  0.90556902501E+03  0.10100000352E+00 0. -1.
       -3    1    3    3    0  502 -0.40011294244E+03  0.32186693619E+03 -0.98264051607E+03  0.11087249818E+04  0.10100000352E+00 0.  1.
</event>
<event>
 5   0  0.3818907E-05  0.2001581E+04  0.7818609E-02  0.8605882E-01
       -1   -1    0    0    0  501  0.00000000000E+00  0.00000000000E+00  0.95867938729E+03  0.95867938731E+03  0.50400001928E-02 0. -1.
        1   -1    0    0  501    0  0.00000000000E+00  0.00000000000E+00 -0.10447510326E+04  0.10447510326E+04  0.50400001928E-02 0.  1.
    10030    2    1    2    0    0  0.00000000000E+00  0.00000000000E+00 -0.86071645281E+02  0.20034304199E+04  0.20015806552E+04 0.  0.
        1    1    3    3  502    0 -0.32189326040E+03 -0.18854784746E+03  0.88648580746E+03  0.96178097752E+03  0.50400001928E-02 0. -1.
       -1    1    3    3    0  502  0.32189326040E+03  0.18854784746E+03 -0.97255745274E+03  0.10416494424E+04  0.50400001928E-02 0.  1.
</event>
<event>
 5   0  0.3787698E-05  0.1985571E+04  0.7818609E-02  0.8613396E-01
        1   -1    0    0  501    0  0.00000000000E+00  0.00000000000E+00  0.14537435254E+04  0.14537435254E+04  0.50400001928E-02 0. -1.
       -1   -1    0    0    0  501  0.00000000000E+00  0.00000000000E+00 -0.67798989446E+03  0.67798989448E+03  0.50400001928E-02 0.  1.
    10030    2    1    2    0    0  0.00000000000E+00  0.00000000000E+00  0.77575363094E+03  0.21317334199E+04  0.19855713731E+04 0.  0.
        4    1    3    3  502    0 -0.35719051087E+03  0.17554614769E+03 -0.58859110829E+03  0.71052277703E+03  0.12699999809E+01 0.  1.
       -4    1    3    3    0  502  0.35719051087E+03 -0.17554614769E+03  0.13643447392E+04  0.14212106429E+04  0.12699999809E+01 0. -1.
</event>
<event>
 5   0  0.3818907E-05  0.2021652E+04  0.7818609E-02  0.8596564E-01
       -1   -1    0    0    0  501  0.00000000000E+00  0.00000000000E+00  0.10821105000E+04  0.10821105001E+04  0.50400001928E-02 0. -1.
        1   -1    0    0  501    0  0.00000000000E+00  0.00000000000E+00 -0.94423720175E+03  0.94423720177E+03  0.50400001928E-02 0.  1.
    10030    2    1    2    0    0  0.00000000000E+00  0.00000000000E+00  0.13787329829E+03  0.20263477018E+04  0.20216517906E+04 0.  0.
        1    1    3    3  502    0 -0.50639823174E+03 -0.45116145413E+03 -0.68232630412E+03  0.96205769688E+03  0.50400001928E-02 0.  1.
       -1    1    3    3    0  502  0.50639823174E+03  0.45116145413E+03  0.82019960241E+03  0.10642900049E+04  0.50400001928E-02 0. -1.
</event>
<event>
 5   0  0.7843846E-05  0.2001102E+04  0.7818609E-02  0.8606106E-01
        2   -1    0    0  501    0  0.00000000000E+00  0.00000000000E+00  0.75527068113E+03  0.75527068114E+03  0.25500000920E-02 0. -1.
       -2   -1    0    0    0  501  0.00000000000E+00  0.00000000000E+00 -0.13254882824E+04  0.13254882824E+04  0.25500000920E-02 0.  1.
    10030    2    1    2    0    0  0.00000000000E+00  0.00000000000E+00 -0.57021760131E+03  0.20807589636E+04  0.20011021342E+04 0.  0.
        2    1    3    3  502    0 -0.58546481820E+03 -0.73456913665E+03  0.73197057606E+02  0.94218823975E+03  0.25500000920E-02 0. -1.
       -2    1    3    3    0  502  0.58546481820E+03  0.73456913665E+03 -0.64341465891E+03  0.11385707238E+04  0.25500000920E-02 0.  1.
</event>
<event>
 5   0  0.3787698E-05  0.2041995E+04  0.7818609E-02  0.8587234E-01
       -1   -1    0    0    0  501  0.00000000000E+00  0.00000000000E+00  0.76022872013E+03  0.76022872015E+03  0.50400001928E-02 0.  1.
        1   -1    0    0  501    0  0.00000000000E+00  0.00000000000E+00 -0.13712141426E+04  0.13712141426E+04  0.50400001928E-02 0. -1.
    10030    2    1    2    0    0  0.00000000000E+00  0.00000000000E+00 -0.61098542250E+03  0.21314428628E+04  0.20419954679E+04 0.  0.
        4    1    3    3  502    0  0.19849532149E+03 -0.11593143644E+03 -0.13438516527E+04  0.13633705909E+04  0.12699999809E+01 0. -1.
       -4    1    3    3    0  502 -0.19849532149E+03  0.11593143644E+03  0.73286623022E+03  0.76807227193E+03  0.12699999809E+01 0.  1.
</event>
<event>
 5   0  0.7843846E-05  0.2211347E+04  0.7818609E-02  0.8513720E-01
       -2   -1    0    0    0  501  0.00000000000E+00  0.00000000000E+00  0.11793590485E+04  0.11793590485E+04  0.25500000920E-02 0.  1.
        2   -1    0    0  501    0  0.00000000000E+00  0.00000000000E+00 -0.10365920477E+04  0.10365920477E+04  0.25500000920E-02 0. -1.
    10030    2    1    2    0    0  0.00000000000E+00  0.00000000000E+00  0.14276700078E+03  0.22159510962E+04  0.22113472916E+04 0.  0.
        2    1    3    3  502    0  0.32936210252E+03  0.50127585783E+03 -0.85939758006E+03  0.10480081492E+04  0.25500000920E-02 0. -1.
       -2    1    3    3    0  502 -0.32936210252E+03 -0.50127585783E+03  0.10021645808E+04  0.11679429469E+04  0.25500000920E-02 0.  1.
</event>
<event>
 5   0  0.3818907E-05  0.2003361E+04  0.7818609E-02  0.8605051E-01
        1   -1    0    0  501    0  0.00000000000E+00  0.00000000000E+00  0.83243728938E+03  0.83243728939E+03  0.50400001928E-02 0. -1.
       -1   -1    0    0    0  501  0.00000000000E+00  0.00000000000E+00 -0.12053332247E+04  0.12053332247E+04  0.50400001928E-02 0.  1.
    10030    2    1    2    0    0  0.00000000000E+00  0.00000000000E+00 -0.37289593531E+03  0.20377705141E+04  0.20033614975E+04 0.  0.
        1    1    3    3  502    0 -0.48669608595E+03  0.79112890530E+03 -0.56786346694E+03  0.10886812858E+04  0.50400001928E-02 0. -1.
       -1    1    3    3    0  502  0.48669608595E+03 -0.79112890530E+03  0.19496753163E+03  0.94908922831E+03  0.50400001928E-02 0.  1.
</event>
<event>
 5   0  0.3970042E-05  0.2009792E+04  0.7818609E-02  0.8602056E-01
        1   -1    0    0  501    0  0.00000000000E+00  0.00000000000E+00  0.12505681339E+04  0.12505681339E+04  0.50400001928E-02 0.  1.
       -1   -1    0    0    0  501  0.00000000000E+00  0.00000000000E+00 -0.80748609301E+03  0.80748609302E+03  0.50400001928E-02 0. -1.
    10030    2    1    2    0    0  0.00000000000E+00  0.00000000000E+00  0.44308204086E+03  0.20580542269E+04  0.20097924037E+04 0.  0.
        3    1    3    3  502    0  0.35587693415E+03  0.44814820411E+03  0.10674102288E+04  0.12111357529E+04  0.10100000352E+00 0.  1.
       -3    1    3    3    0  502 -0.35587693415E+03 -0.44814820411E+03 -0.62432818798E+03  0.84691847401E+03  0.10100000352E+00 0. -1.
</event>
<event>
 5   0  0.7843846E-05  0.2009917E+04  0.7818609E-02  0.8601998E-01
       -2   -1    0    0    0  501  0.00000000000E+00  0.00000000000E+00  0.48505240481E+03  0.48505240482E+03  0.25500000920E-02 0.  1.
        2   -1    0    0  501    0  0.00000000000E+00  0.00000000000E+00 -0.20821283693E+04  0.20821283693E+04  0.25500000920E-02 0. -1.
    10030    2    1    2    0    0  0.00000000000E+00  0.00000000000E+00 -0.15970759645E+04  0.25671807741E+04  0.20099167870E+04 0.  0.
        2    1    3    3  502    0  0.10821392088E+03 -0.82808274097E+03 -0.15125580189E+04  0.17277913760E+04  0.25500000920E-02 0. -1.
       -2    1    3    3    0  502 -0.10821392088E+03  0.82808274097E+03 -0.84517945643E+02  0.83938939814E+03  0.25500000920E-02 0.  1.
</event>
<event>
 5   0  0.8022574E-05  0.1995380E+04  0.7818609E-02  0.8608784E-01
       -2   -1    0    0    0  501  0.00000000000E+00  0.00000000000E+00  0.10614450598E+04  0.10614450598E+04  0.25500000920E-02 0.  1.
        2   -1    0    0  501    0  0.00000000000E+00  0.00000000000E+00 -0.93776476113E+03  0.93776476114E+03  0.25500000920E-02 0. -1.
    10030    2    1    2    0    0  0.00000000000E+00  0.00000000000E+00  0.12368029864E+03  0.19992098209E+04  0.19953804379E+04 0.  0.
        1    1    3    3  502    0  0.72002663948E+03 -0.27482697469E+03  0.69663126779E+03  0.10388760036E+04  0.50400001928E-02 0.  1.
       -1    1    3    3    0  502 -0.72002663948E+03  0.27482697469E+03 -0.57295096915E+03  0.96033381731E+03  0.50400001928E-02 0. -1.
</event>
<event>
 5   0  0.8011197E-05  0.1994137E+04  0.7818609E-02  0.8609367E-01
       -2   -1    0    0    0  501  0.00000000000E+00  0.00000000000E+00  0.77291358162E+03  0.77291358163E+03  0.25500000920E-02 0. -1.
        2   -1    0    0  501    0  0.00000000000E+00  0.00000000000E+00 -0.12862308107E+04  0.12862308107E+04  0.25500000920E-02 0.  1.
    10030    2    1    2    0    0  0.00000000000E+00  0.00000000000E+00 -0.51331722912E+03  0.20591443924E+04  0.19941366681E+04 0.  0.
        5    1    3    3  502    0  0.56188821071E+03 -0.57747076274E+03  0.34979673723E+03  0.87839096678E+03  0.46999998093E+01 0. -1.
       -5    1    3    3    0  502 -0.56188821071E+03  0.57747076274E+03 -0.86311396635E+03  0.11807534256E+04  0.46999998093E+01 0.  1.
</event>
<event>
 5   0  0.3787698E-05  0.2002805E+04  0.7818609E-02  0.8605311E-01
       -1   -1    0    0    0  501  0.00000000000E+00  0.00000000000E+00  0.11597590442E+04  0.11597590442E+04  0.50400001928E-02 0.  1.
        1   -1    0    0  501    0  0.00000000000E+00  0.00000000000E+00 -0.86466801497E+03  0.86466801498E+03  0.50400001928E-02 0. -1.
    10030    2    1    2    0    0  0.00000000000E+00  0.00000000000E+00  0.29509102923E+03  0.20244270592E+04  0.20028045842E+04 0.  0.
        4    1    3    3  502    0 -0.19058956011E+03  0.97910735783E+03  0.58106684634E+02  0.99917646003E+03  0.12699999809E+01 0. -1.
       -4    1    3    3    0  502  0.19058956011E+03 -0.97910735783E+03  0.23698434460E+03  0.10252505992E+04  0.12699999809E+01 0.  1.
</event>
<event>
 5   0  0.3818907E-05  0.2060026E+04  0.7818609E-02  0.8579060E-01
        1   -1    0    0  501    0  0.00000000000E+00  0.00000000000E+00  0.49920435832E+03  0.49920435834E+03  0.50400001928E-02 0. -1.
       -1   -1    0    0    0  501  0.00000000000E+00  0.00000000000E+00 -0.21252345263E+04  0.21252345263E+04  0.50400001928E-02 0.  1.
    10030    2    1    2    0    0  0.00000000000E+00  0.00000000000E+00 -0.16260301679E+04  0.26244388846E+04  0.20600255707E+04 0.  0.
        1    1    3    3  502    0 -0.23299290015E+03  0.76886385839E+03 -0.16342050326E+04  0.18210061540E+04  0.50400001928E-02 0.  1.
       -1    1    3    3    0  502  0.23299290015E+03 -0.76886385839E+03  0.81748646172E+01  0.80343273066E+03  0.50400001928E-02 0. -1.
</event>
<event>
 5   0  0.3970042E-05  0.1983372E+04  0.7818609E-02  0.8614434E-01
        1   -1    0    0  501    0  0.00000000000E+00  0.00000000000E+00  0.91732841728E+03  0.91732841729E+03  0.50400001928E-02 0.  1.
       -1   -1    0    0    0  501  0.00000000000E+00  0.00000000000E+00 -0.10720714622E+04  0.10720714623E+04  0.50400001928E-02 0. -1.
    10030    2    1    2    0    0  0.00000000000E+00  0.00000000000E+00 -0.15474304497E+03  0.19893998796E+04  0.19833724993E+04 0.  0.
        3    1    3    3  502    0  0.46526201518E+03  0.42834045864E+03  0.68881980443E+03  0.93510268124E+03  0.10100000352E+00 0.  1.
       -3    1    3    3    0  502 -0.46526201518E+03 -0.42834045864E+03 -0.84356284940E+03  0.10542971983E+04  0.10100000352E+00 0. -1.
</event>
<event>
 5   0  0.7935008E-05  0.1993612E+04  0.7818609E-02  0.8609613E-01
        2   -1    0    0  501    0  0.00000000000E+00  0.00000000000E+00  0.67922757674E+03  0.67922757674E+03  0.25500000920E-02 0. -1.
       -2   -1    0    0    0  501  0.00000000000E+00  0.00000000000E+00 -0.14628709509E+04  0.14628709509E+04  0.25500000920E-02 0.  1.
    10030    2    1    2    0    0  0.00000000000E+00  0.00000000000E+00 -0.78364337417E+03  0.21420985277E+04  0.19936120897E+04 0.  0.
        3    1    3    3  502    0 -0.42254510201E+03 -0.20476922349E+03  0.55295671620E+03  0.72542121440E+03  0.10100000352E+00 0. -1.
       -3    1    3    3    0  502  0.42254510201E+03  0.20476922349E+03 -0.13366000904E+04  0.14166773132E+04  0.10100000352E+00 0.  1.
</event>
<event>
 5   0  0.7843846E-05  0.1997687E+04  0.7818609E-02  0.8607703E-01
        2   -1    0    0  501    0  0.00000000000E+00  0.00000000000E+00  0.80687331577E+03  0.80687331578E+03  0.25500000920E-02 0.  1.
       -2   -1    0    0    0  501  0.00000000000E+00  0.00000000000E+00 -0.12364872985E+04  0.12364872985E+04  0.25500000920E-02 0. -1.
    10030    2    1    2    0    0  0.00000000000E+00  0.00000000000E+00 -0.42961398276E+03  0.20433606143E+04  0.19976872693E+04 0.  0.
        2    1    3    3  502    0  0.15903746297E+03 -0.97923887461E+03 -0.33359534947E+03  0.10466554091E+04  0.25500000920E-02 0.  1.
       -2    1    3    3    0  502 -0.15903746297E+03  0.97923887461E+03 -0.96018633286E+02  0.99670520522E+03  0.25500000920E-02 0. -1.
</event>
<event>
 5   0  0.2859625E-05  0.1988473E+04  0.7818609E-02  0.8612029E-01
        4   -1    0    0  501    0  0.00000000000E+00  0.00000000000E+00  0.94563803485E+03  0.94563888766E+03  0.12699999809E+01 0.  1.
       -4   -1    0    0    0  501  0.00000000000E+00  0.00000000000E+00 -0.10453308278E+04  0.10453315993E+04  0.12699999809E+01 0. -1.
    10030    2    1    2    0    0  0.00000000000E+00  0.00000000000E+00 -0.99692792979E+02  0.19909704870E+04  0.19884729888E+04 0.  0.
        5    1    3    3  502    0 -0.32748510284E+03  0.47628384392E+03 -0.85980699541E+03  0.10360419644E+04  0.46999998093E+01 0. -1.
       -5    1    3    3    0  502  0.32748510284E+03 -0.47628384392E+03  0.76011420243E+03  0.95492852261E+03  0.46999998093E+01 0.  1.
</event>
<event>
 5   0  0.3772949E-05  0.2007469E+04  0.7818609E-02  0.8603137E-01
        1   -1    0    0  501    0  0.00000000000E+00  0.00000000000E+00  0.99305561521E+03  0.99305561522E+03  0.50400001928E-02 0.  1.
       -1   -1    0    0    0  501  0.00000000000E+00  0.00000000000E+00 -0.10145283618E+04  0.10145283618E+04  0.50400001928E-02 0. -1.
    10030    2    1    2    0    0  0.00000000000E+00  0.00000000000E+00 -0.21472746551E+02  0.20075839770E+04  0.20074691395E+04 0.  0.
        2    1    3    3  502    0  0.76531642613E+03  0.21198257418E+03 -0.62464219495E+03  0.10103582115E+04  0.25500000920E-02 0. -1.
       -2    1    3    3    0  502 -0.76531642613E+03 -0.21198257418E+03  0.60316944840E+03  0.99722576548E+03  0.25500000920E-02 0.  1.
</event>
<event>
 5   0  0.7857136E-05  0.1986382E+04  0.7818609E-02  0.8613014E-01
        2   -1    0    0  501    0  0.00000000000E+00  0.00000000000E+00  0.20568712837E+04  0.20568712837E+04  0.25500000920E-02 0.  1.
       -2   -1    0    0    0  501  0.00000000000E+00  0.00000000000E+00 -0.47957726836E+03  0.47957726837E+03  0.25500000920E-02 0. -1.
    10030    2    1    2    0    0  0.00000000000E+00  0.00000000000E+00  0.15772940154E+04  0.25364485521E+04  0.19863823515E+04 0.  0.
        4    1    3    3  502    0 -0.55937136010E+03  0.23640827237E+03 -0.21488583000E+03  0.64417600280E+03  0.12699999809E+01 0. -1.
       -4    1    3    3    0  502  0.55937136010E+03 -0.23640827237E+03  0.17921798454E+04  0.18922725493E+04  0.12699999809E+01 0.  1.
</event>
<event>
 5   0  0.3970042E-05  0.1994731E+04  0.7818609E-02  0.8609088E-01
        1   -1    0    0  501    0  0.00000000000E+00  0.00000000000E+00  0.23006429556E+04  0.23006429556E+04  0.50400001928E-02 0. -1.
       -1   -1    0    0    0  501  0.00000000000E+00  0.00000000000E+00 -0.43237381858E+03  0.43237381861E+03  0.50400001928E-02 0.  1.
    10030    2    1    2    0    0  0.00000000000E+00  0.00000000000E+00  0.18682691370E+04  0.27330167742E+04  0.19947308389E+04 0.  0.
        3    1    3    3  502    0 -0.34765962697E+03  0.77348089379E+03  0.16534111425E+04  0.18582002921E+04  0.10100000352E+00 0. -1.
       -3    1    3    3    0  502  0.34765962697E+03 -0.77348089379E+03  0.21485799449E+03  0.87481648206E+03  0.10100000352E+00 0.  1.
</event>
<event>
 5   0  0.8022574E-05  0.1984945E+04  0.7818609E-02  0.8613692E-01
        2   -1    0    0  501    0  0.00000000000E+00  0.00000000000E+00  0.14204577592E+04  0.14204577592E+04  0.25500000920E-02 0. -1.
       -2   -1    0    0    0  501  0.00000000000E+00  0.00000000000E+00 -0.69343949251E+03  0.69343949252E+03  0.25500000920E-02 0.  1.
    10030    2    1    2    0    0  0.00000000000E+00  0.00000000000E+00  0.72701826673E+03  0.21138972518E+04  0.19849448433E+04 0.  0.
        1    1    3    3  502    0  0.85043796521E+03  0.50400237819E+03  0.26982621848E+03  0.10247288998E+04  0.50400001928E-02 0. -1.
       -1    1    3    3    0  502 -0.85043796521E+03 -0.50400237819E+03  0.45719204825E+03  0.10891683520E+04  0.50400001928E-02 0.  1.
</event>
<event>
 5   0  0.3772949E-05  0.1973953E+04  0.7818609E-02  0.8618896E-01
        1   -1    0    0  501    0  0.00000000000E+00  0.00000000000E+00  0.10565427477E+04  0.10565427477E+04  0.50400001928E-02 0. -1.
       -1   -1    0    0    0  501  0.00000000000E+00  0.00000000000E+00 -0.92199081134E+03  0.92199081135E+03  0.50400001928E-02 0.  1.
    10030    2    1    2    0    0  0.00000000000E+00  0.00000000000E+00  0.13455193636E+03  0.19785335591E+04  0.19739530949E+04 0.  0.
        2    1    3    3  502    0  0.32820327801E+03  0.92816506000E+03  0.13754524376E+03  0.99404550418E+03  0.25500000920E-02 0. -1.
       -2    1    3    3    0  502 -0.32820327801E+03 -0.92816506000E+03 -0.29933073983E+01  0.98448805488E+03  0.25500000920E-02 0.  1.
</event>
<event>
 5   0  0.3787698E-05  0.2002645E+04  0.7818609E-02  0.8605385E-01
       -1   -1    0    0    0  501  0.00000000000E+00  0.00000000000E+00  0.91556103260E+03  0.91556103261E+03  0.50400001928E-02 0. -1.
        1   -1    0    0  501    0  0.00000000000E+00  0.00000000000E+00 -0.10951170542E+04  0.10951170542E+04  0.50400001928E-02 0.  1.
    10030    2    1    2    0    0  0.00000000000E+00  0.00000000000E+00 -0.17955602161E+03  0.20106780868E+04  0.20026447523E+04 0.  0.
        4    1    3    3  502    0  0.27977292614E+03  0.90273465933E+02  0.87125687170E+03  0.91951744857E+03  0.12699999809E+01 0. -1.
       -4    1    3    3    0  502 -0.27977292614E+03 -0.90273465933E+02 -0.10508128933E+04  0.10911606383E+04  0.12699999809E+01 0.  1.
</event>
<event>
 5   0  0.7857136E-05  0.1991680E+04  0.7818609E-02  0.8610521E-01
        2   -1    0    0  501    0  0.00000000000E+00  0.00000000000E+00  0.95126705654E+03  0.95126705654E+03  0.25500000920E-02 0.  1.
       -2   -1    0    0    0  501  0.00000000000E+00  0.00000000000E+00 -0.10425011571E+04  0.10425011571E+04  0.25500000920E-02 0. -1.
    10030    2    1    2    0    0  0.00000000000E+00  0.00000000000E+00 -0.91234100513E+02  0.19937682136E+04  0.19916797003E+04 0.  0.
        4    1    3    3  502    0  0.93769339519E+03 -0.25514180604E+03  0.17216371609E+03  0.98691853899E+03  0.12699999809E+01 0. -1.
       -4    1    3    3    0  502 -0.93769339519E+03  0.25514180604E+03 -0.26339781661E+03  0.10068496746E+04  0.12699999809E+01 0.  1.
</event>
<event>
 5   0  0.7843846E-05  0.1997531E+04  0.7818609E-02  0.8607776E-01
        2   -1    0    0  501    0  0.00000000000E+00  0.00000000000E+00  0.14812556829E+04  0.14812556829E+04  0.25500000920E-02 0. -1.
       -2   -1    0    0    0  501  0.00000000000E+00  0.00000000000E+00 -0.67343689549E+03  0.67343689549E+03  0.25500000920E-02 0.  1.
    10030    2    1    2    0    0  0.00000000000E+00  0.00000000000E+00  0.80781878743E+03  0.21546925784E+04  0.19975307042E+04 0.  0.
        2    1    3    3  502    0  0.22779411399E+03 -0.74128141352E+03  0.10828290121E+04  0.13318809863E+04  0.25500000920E-02 0. -1.
       -2    1    3    3    0  502 -0.22779411399E+03  0.74128141352E+03 -0.27501022463E+03  0.82281159207E+03  0.25500000920E-02 0.  1.
</event>
<event>
 5   0  0.3549426E-05  0.2013074E+04  0.7818609E-02  0.8600532E-01
       -1   -1    0    0    0  501  0.00000000000E+00  0.00000000000E+00  0.90410474910E+03  0.90410474912E+03  0.50400001928E-02 0. -1.
        1   -1    0    0  501    0  0.00000000000E+00  0.00000000000E+00 -0.11205744688E+04  0.11205744688E+04  0.50400001928E-02 0.  1.
    10030    2    1    2    0    0  0.00000000000E+00  0.00000000000E+00 -0.21646971973E+03  0.20246792180E+04  0.20130739669E+04 0.  0.
        5    1    3    3  502    0 -0.87211195539E+03 -0.50235799075E+03 -0.95843304453E+02  0.10110147589E+04  0.46999998093E+01 0.  1.
       -5    1    3    3    0  502  0.87211195539E+03  0.50235799075E+03 -0.12062641528E+03  0.10136644591E+04  0.46999998093E+01 0. -1.
</event>
<event>
 5   0  0.8011197E-05  0.1991103E+04  0.7818609E-02  0.8610792E-01
        2   -1    0    0  501    0  0.00000000000E+00  0.00000000000E+00  0.21965706526E+04  0.21965706526E+04  0.25500000920E-02 0.  1.
       -2   -1    0    0    0  501  0.00000000000E+00  0.00000000000E+00 -0.45121362829E+03  0.45121362829E+03  0.25500000920E-02 0. -1.
    10030    2    1    2    0    0  0.00000000000E+00  0.00000000000E+00  0.17453570243E+04  0.26477842809E+04  0.19911028240E+04 0.  0.
        5    1    3    3  502    0  0.35503489521E+02  0.74473835382E+03 -0.45964909302E+01  0.74561312431E+03  0.46999998093E+01 0. -1.
       -5    1    3    3    0  502 -0.35503489521E+02 -0.74473835382E+03  0.17499535153E+04  0.19021711566E+04  0.46999998093E+01 0.  1.
</event>
<event>
 5   0  0.7843846E-05  0.1992095E+04  0.7818609E-02  0.8610325E-01
       -2   -1    0    0    0  501  0.00000000000E+00  0.00000000000E+00  0.63590914553E+03  0.63590914554E+03  0.25500000920E-02 0.  1.
        2   -1    0    0  501    0  0.00000000000E+00  0.00000000000E+00 -0.15601452192E+04  0.15601452192E+04  0.25500000920E-02 0. -1.
    10030    2    1    2    0    0  0.00000000000E+00  0.00000000000E+00 -0.92423607371E+03  0.21960543648E+04  0.19920949910E+04 0.  0.
        2    1    3    3  502    0  0.78466016974E+03  0.61233864814E+03 -0.50424601677E+03  0.11157572529E+04  0.25500000920E-02 0. -1.
       -2    1    3    3    0  502 -0.78466016974E+03 -0.61233864814E+03 -0.41999005694E+03  0.10802971119E+04  0.25500000920E-02 0.  1.
</event>
<event>
 5   0  0.8011197E-05  0.2002662E+04  0.7818609E-02  0.8605377E-01
       -2   -1    0    0    0  501  0.00000000000E+00  0.00000000000E+00  0.11660760082E+04  0.11660760082E+04  0.25500000920E-02 0.  1.
        2   -1    0    0  501    0  0.00000000000E+00  0.00000000000E+00 -0.85986108775E+03  0.85986108775E+03  0.25500000920E-02 0. -1.
    10030    2    1    2    0    0  0.00000000000E+00  0.00000000000E+00  0.30621492044E+03  0.20259370959E+04  0.20026616138E+04 0.  0.
        5    1    3    3  502    0 -0.33190289699E+03 -0.71157094881E+03 -0.47552323818E+03  0.91795271570E+03  0.46999998093E+01 0. -1.
       -5    1    3    3    0  502  0.33190289699E+03  0.71157094881E+03  0.78173815861E+03  0.11079843802E+04  0.46999998093E+01 0.  1.
</event>
<event>
 5   0  0.3970042E-05  0.1994076E+04  0.7818609E-02  0.8609395E-01
        1   -1    0    0  501    0  0.00000000000E+00  0.00000000000E+00  0.17367290296E+04  0.17367290296E+04  0.50400001928E-02 0. -1.
       -1   -1    0    0    0  501  0.00000000000E+00  0.00000000000E+00 -0.57238923091E+03  0.57238923093E+03  0.50400001928E-02 0.  1.
    10030    2    1    2    0    0  0.00000000000E+00  0.00000000000E+00  0.11643397986E+04  0.23091182605E+04  0.19940762208E+04 0.  0.
        3    1    3    3  502    0 -0.32489231078E+03  0.29785786363E+03 -0.45344434658E+03  0.63236548465E+03  0.10100000352E+00 0.  1.
       -3    1    3    3    0  502  0.32489231078E+03 -0.29785786363E+03  0.16177841452E+04  0.16767527758E+04  0.10100000352E+00 0. -1.
</event>
<event>
 5   0  0.8022574E-05  0.2008078E+04  0.7818609E-02  0.8602853E-01
       -2   -1    0    0    0  501  0.00000000000E+00  0.00000000000E+00  0.80363605277E+03  0.80363605277E+03  0.25500000920E-02 0. -1.
        2   -1    0    0  501    0  0.00000000000E+00  0.00000000000E+00 -0.12544160981E+04  0.12544160981E+04  0.25500000920E-02 0.  1.
    10030    2    1    2    0    0  0.00000000000E+00  0.00000000000E+00 -0.45078004534E+03  0.20580521509E+04  0.20080776894E+04 0.  0.
        1    1    3    3  502    0 -0.14202406503E+03 -0.71838206532E+03  0.47861866218E+03  0.87482538294E+03  0.50400001928E-02 0. -1.
       -1    1    3    3    0  502  0.14202406503E+03  0.71838206532E+03 -0.92939870752E+03  0.11832267679E+04  0.50400001928E-02 0.  1.
</event>
<event>
 5   0  0.3970042E-05  0.2010105E+04  0.7818609E-02  0.8601911E-01
        1   -1    0    0  501    0  0.00000000000E+00  0.00000000000E+00  0.22558236051E+04  0.22558236051E+04  0.50400001928E-02 0. -1.
       -1   -1    0    0    0  501  0.00000000000E+00  0.00000000000E+00 -0.44778783031E+03  0.44778783034E+03  0.50400001928E-02 0.  1.
    10030    2    1    2    0    0  0.00000000000E+00  0.00000000000E+00  0.18080357748E+04  0.27036114354E+04  0.20101048308E+04 0.  0.
        3    1    3    3  502    0 -0.88157086982E+03  0.59456966509E+02  0.25977624358E+03  0.92097016038E+03  0.10100000352E+00 0.  1.
       -3    1    3    3    0  502  0.88157086982E+03 -0.59456966509E+02  0.15482595312E+04  0.17826412751E+04  0.10100000352E+00 0. -1.
</event>
<event>
 5   0  0.7843846E-05  0.2004103E+04  0.7818609E-02  0.8604705E-01
       -2   -1    0    0    0  501  0.00000000000E+00  0.00000000000E+00  0.87775584235E+03  0.87775584235E+03  0.25500000920E-02 0. -1.
        2   -1    0    0  501    0  0.00000000000E+00  0.00000000000E+00 -0.11439481728E+04  0.11439481728E+04  0.25500000920E-02 0.  1.
    10030    2    1    2    0    0  0.00000000000E+00  0.00000000000E+00 -0.26619233048E+03  0.20217040152E+04  0.20041029834E+04 0.  0.
        2    1    3    3  502    0  0.27338891448E+03  0.11006983791E+03  0.83304697806E+03  0.88364253827E+03  0.25500000920E-02 0. -1.
       -2    1    3    3    0  502 -0.27338891448E+03 -0.11006983791E+03 -0.10992393085E+04  0.11380614769E+04  0.25500000920E-02 0.  1.
</event>
<event>
 5   0  0.7935008E-05  0.2008620E+04  0.7818609E-02  0.8602601E-01
        2   -1    0    0  501    0  0.00000000000E+00  0.00000000000E+00  0.18760477629E+04  0.18760477629E+04  0.25500000920E-02 0. -1.
       -2   -1    0    0    0  501  0.00000000000E+00  0.00000000000E+00 -0.53764013980E+03  0.53764013981E+03  0.25500000920E-02 0.  1.
    10030    2    1    2    0    0  0.00000000000E+00  0.00000000000E+00  0.13384076231E+04  0.24136879027E+04  0.20086200054E+04 0.  0.
        3    1    3    3  502    0 -0.53447790958E+03  0.76656283432E+03  0.11113010936E+04  0.14519901327E+04  0.10100000352E+00 0. -1.
       -3    1    3    3    0  502  0.53447790958E+03 -0.76656283432E+03  0.22710652953E+03  0.96169776996E+03  0.10100000352E+00 0.  1.
</event>
<event>
 5   0  0.8022574E-05  0.1996224E+04  0.7818609E-02  0.8608388E-01
       -2   -1    0    0    0  501  0.00000000000E+00  0.00000000000E+00  0.10340534139E+04  0.10340534139E+04  0.25500000920E-02 0. -1.
        2   -1    0    0  501    0  0.00000000000E+00  0.00000000000E+00 -0.96341985597E+03  0.96341985598E+03  0.25500000920E-02 0.  1.
    10030    2    1    2    0    0  0.00000000000E+00  0.00000000000E+00  0.70633557960E+02  0.19974732699E+04  0.19962240266E+04 0.  0.
        1    1    3    3  502    0 -0.24078934532E+03  0.93310284069E+03 -0.22478274993E+03  0.98953913758E+03  0.50400001928E-02 0.  1.
       -1    1    3    3    0  502  0.24078934532E+03 -0.93310284069E+03  0.29541630789E+03  0.10079341323E+04  0.50400001928E-02 0. -1.
</event>
<event>
 5   0  0.8011197E-05  0.1988152E+04  0.7818609E-02  0.8612180E-01
        2   -1    0    0  501    0  0.00000000000E+00  0.00000000000E+00  0.13841080775E+04  0.13841080775E+04  0.25500000920E-02 0.  1.
       -2   -1    0    0    0  501  0.00000000000E+00  0.00000000000E+00 -0.71395190513E+03  0.71395190513E+03  0.25500000920E-02 0. -1.
    10030    2    1    2    0    0  0.00000000000E+00  0.00000000000E+00  0.67015617239E+03  0.20980599827E+04  0.19881515021E+04 0.  0.
        5    1    3    3  502    0  0.61574059513E+02 -0.41970046140E+03 -0.61363409121E+03  0.74599512733E+03  0.46999998093E+01 0. -1.
       -5    1    3    3    0  502 -0.61574059513E+02  0.41970046140E+03  0.12837902636E+04  0.13520648553E+04  0.46999998093E+01 0.  1.
</event>
<event>
 5   0  0.3787698E-05  0.1991924E+04  0.7818609E-02  0.8610406E-01
       -1   -1    0    0    0  501  0.00000000000E+00  0.00000000000E+00  0.49194546459E+03  0.49194546462E+03  0.50400001928E-02 0. -1.
        1   -1    0    0  501    0  0.00000000000E+00  0.00000000000E+00 -0.20163620474E+04  0.20163620474E+04  0.50400001928E-02 0.  1.
    10030    2    1    2    0    0  0.00000000000E+00  0.00000000000E+00 -0.15244165828E+04  0.25083075120E+04  0.19919238582E+04 0.  0.
        4    1    3    3  502    0 -0.27160833300E+03  0.60780934913E+03  0.17059373123E+03  0.68724604435E+03  0.12699999809E+01 0. -1.
       -4    1    3    3    0  502  0.27160833300E+03 -0.60780934913E+03 -0.16950103140E+04  0.18210614677E+04  0.12699999809E+01 0.  1.
</event>
<event>
 5   0  0.3549426E-05  0.2046807E+04  0.7818609E-02  0.8585044E-01
        1   -1    0    0  501    0  0.00000000000E+00  0.00000000000E+00  0.15279740269E+04  0.15279740269E+04  0.50400001928E-02 0. -1.
       -1   -1    0    0    0  501  0.00000000000E+00  0.00000000000E+00 -0.68545314008E+03  0.68545314010E+03  0.50400001928E-02 0.  1.
    10030    2    1    2    0    0  0.00000000000E+00  0.00000000000E+00  0.84252088678E+03  0.22134271670E+04  0.20468068739E+04 0.  0.
        5    1    3    3  502    0 -0.96917104969E+03 -0.31296588466E+03  0.52989905929E+03  0.11480658829E+04  0.46999998093E+01 0. -1.
       -5    1    3    3    0  502  0.96917104969E+03  0.31296588466E+03  0.31262182749E+03  0.10653612840E+04  0.46999998093E+01 0.  1.
</event>
<event>
 5   0  0.7857136E-05  0.1987325E+04  0.7818609E-02  0.8612569E-01
        2   -1    0    0  501    0  0.00000000000E+00  0.00000000000E+00  0.10173541564E+04  0.10173541564E+04  0.25500000920E-02 0.  1.
       -2   -1    0    0    0  501  0.00000000000E+00  0.00000000000E+00 -0.97052292844E+03  0.97052292845E+03  0.25500000920E-02 0. -1.
    10030    2    1    2    0    0  0.00000000000E+00  0.00000000000E+00  0.46831227969E+02  0.19878770849E+04  0.19873253736E+04 0.  0.
        4    1    3    3  502    0 -0.62409152220E+03  0.11272614520E+02 -0.74993977341E+03  0.97571951736E+03  0.12699999809E+01 0. -1.
       -4    1    3    3    0  502  0.62409152220E+03 -0.11272614520E+02  0.79677100138E+03  0.10121575675E+04  0.12699999809E+01 0.  1.
</event>
<event>
 5   0  0.3787698E-05  0.1998905E+04  0.7818609E-02  0.8607133E-01
       -1   -1    0    0    0  501  0.00000000000E+00  0.00000000000E+00  0.38862930771E+03  0.38862930774E+03  0.50400001928E-02 0. -1.
        1   -1    0    0  501    0  0.00000000000E+00  0.00000000000E+00 -0.25703294289E+04  0.25703294289E+04  0.50400001928E-02 0.  1.
    10030    2    1    2    0    0  0.00000000000E+00  0.00000000000E+00 -0.21817001212E+04  0.29589587366E+04  0.19989050469E+04 0.  0.
        4    1    3    3  502    0  0.56783334184E+03 -0.41450585766E+03 -0.39267024777E+02  0.70412592785E+03  0.12699999809E+01 0. -1.
       -4    1    3    3    0  502 -0.56783334184E+03  0.41450585766E+03 -0.21424330964E+04  0.22548328088E+04  0.12699999809E+01 0.  1.
</event>
<event>
 5   0  0.3818907E-05  0.1969864E+04  0.7818609E-02  0.8620841E-01
       -1   -1    0    0    0  501  0.00000000000E+00  0.00000000000E+00  0.72462396429E+03  0.72462396431E+03  0.50400001928E-02 0.  1.
        1   -1    0    0  501    0  0.00000000000E+00  0.00000000000E+00 -0.13387510816E+04  0.13387510816E+04  0.50400001928E-02 0. -1.
    10030    2    1    2    0    0  0.00000000000E+00  0.00000000000E+00 -0.61412711729E+03  0.20633750459E+04  0.19698640724E+04 0.  0.
        1    1    3    3  502    0  0.18121566265E+03 -0.50866324284E+03 -0.11698855916E+04  0.12884912528E+04  0.50400001928E-02 0. -1.
       -1    1    3    3    0  502 -0.18121566265E+03  0.50866324284E+03  0.55575847433E+03  0.77488379311E+03  0.50400001928E-02 0.  1.
</event>
<event>
 5   0  0.8022574E-05  0.2003936E+04  0.7818609E-02  0.8604782E-01
        2   -1    0    0  501    0  0.00000000000E+00  0.00000000000E+00  0.39041169733E+03  0.39041169734E+03  0.25500000920E-02 0.  1.
       -2   -1    0    0    0  501  0.00000000000E+00  0.00000000000E+00 -0.25714913930E+04  0.25714913930E+04  0.25500000920E-02 0. -1.
    10030    2    1    2    0    0  0.00000000000E+00  0.00000000000E+00 -0.21810796957E+04  0.29619030904E+04  0.20039364456E+04 0.  0.
        1    1    3    3  502    0 -0.25901846402E+03 -0.61041718958E+03  0.19705778362E+02  0.66339130818E+03  0.50400001928E-02 0.  1.
       -1    1    3    3    0  502  0.25901846402E+03  0.61041718958E+03 -0.22007854741E+04  0.22985117822E+04  0.50400001928E-02 0. -1.
</event>
<event>
 5   0  0.3549426E-05  0.1998961E+04  0.7818609E-02  0.8607107E-01
        1   -1    0    0  501    0  0.00000000000E+00  0.00000000000E+00  0.12730484488E+04  0.12730484489E+04  0.50400001928E-02 0.  1.
       -1   -1    0    0    0  501  0.00000000000E+00  0.00000000000E+00 -0.78470009700E+03  0.78470009701E+03  0.50400001928E-02 0. -1.
    10030    2    1    2    0    0  0.00000000000E+00  0.00000000000E+00  0.48834835185E+03  0.20577485459E+04  0.19989609714E+04 0.  0.
        5    1    3    3  502    0 -0.54690781388E+03  0.25411083832E+03  0.10646452817E+04  0.12235898581E+04  0.46999998093E+01 0.  1.
       -5    1    3    3    0  502  0.54690781388E+03 -0.25411083832E+03 -0.57629692984E+03  0.83415868776E+03  0.46999998093E+01 0. -1.
</event>
<event>
 5   0  0.7857136E-05  0.2013418E+04  0.7818609E-02  0.8600373E-01
       -2   -1    0    0    0  501  0.00000000000E+00  0.00000000000E+00  0.74055100661E+03  0.74055100662E+03  0.25500000920E-02 0. -1.
        2   -1    0    0  501    0  0.00000000000E+00  0.00000000000E+00 -0.13685251891E+04  0.13685251891E+04  0.25500000920E-02 0.  1.
    10030    2    1    2    0    0  0.00000000000E+00  0.00000000000E+00 -0.62797418251E+03  0.21090761957E+04  0.20134176977E+04 0.  0.
        4    1    3    3  502    0  0.96401212765E+02  0.11196886010E+03 -0.13571050159E+04  0.13651248502E+04  0.12699999809E+01 0.  1.
       -4    1    3    3    0  502 -0.96401212765E+02 -0.11196886010E+03  0.72913083340E+03  0.74395134557E+03  0.12699999809E+01 0. -1.
</event>
<event>
 5   0  0.8022574E-05  0.2015284E+04  0.7818609E-02  0.8599508E-01
       -2   -1    0    0    0  501  0.00000000000E+00  0.00000000000E+00  0.60071750678E+03  0.60071750678E+03  0.25500000920E-02 0.  1.
        2   -1    0    0  501    0  0.00000000000E+00  0.00000000000E+00 -0.16902157409E+04  0.16902157409E+04  0.25500000920E-02 0. -1.
    10030    2    1    2    0    0  0.00000000000E+00  0.00000000000E+00 -0.10894982341E+04  0.22909332477E+04  0.20152837873E+04 0.  0.
        1    1    3    3  502    0 -0.23842816749E+03 -0.11720337396E+03 -0.16496833087E+04  0.16709397479E+04  0.50400001928E-02 0. -1.
       -1    1    3    3    0  502  0.23842816749E+03  0.11720337396E+03  0.56018507463E+03  0.61999349979E+03  0.50400001928E-02 0.  1.
</event>
<event>
 5   0  0.7935008E-05  0.2001692E+04  0.7818609E-02  0.8605830E-01
        2   -1    0    0  501    0  0.00000000000E+00  0.00000000000E+00  0.30603420901E+03  0.30603420902E+03  0.25500000920E-02 0. -1.
       -2   -1    0    0    0  501  0.00000000000E+00  0.00000000000E+00 -0.32731381232E+04  0.32731381232E+04  0.25500000920E-02 0.  1.
    10030    2    1    2    0    0  0.00000000000E+00  0.00000000000E+00 -0.29671039142E+04  0.35791723322E+04  0.20016915212E+04 0.  0.
        3    1    3    3  502    0 -0.33735797178E+03  0.93836753630E+03 -0.16368285043E+04  0.19166511412E+04  0.10100000352E+00 0.  1.
       -3    1    3    3    0  502  0.33735797178E+03 -0.93836753630E+03 -0.13302754099E+04  0.16625211910E+04  0.10100000352E+00 0. -1.
</event>
<event>
 5   0  0.7843846E-05  0.1997629E+04  0.7818609E-02  0.8607730E-01
        2   -1    0    0  501    0  0.00000000000E+00  0.00000000000E+00  0.15139251728E+04  0.15139251728E+04  0.25500000920E-02 0. -1.
       -2   -1    0    0    0  501  0.00000000000E+00  0.00000000000E+00 -0.65896943478E+03  0.65896943479E+03  0.25500000920E-02 0.  1.
    10030    2    1    2    0    0  0.00000000000E+00  0.00000000000E+00  0.85495573798E+03  0.21728946076E+04  0.19976290100E+04 0.  0.
        2    1    3    3  502    0 -0.23503931236E+03 -0.35688109941E+03  0.14094715873E+04  0.14728264504E+04  0.25500000920E-02 0. -1.
       -2    1    3    3    0  502  0.23503931236E+03  0.35688109941E+03 -0.55451584936E+03  0.70006815716E+03  0.25500000920E-02 0.  1.
</event>
<event>
 5   0  0.8022574E-05  0.1998555E+04  0.7818609E-02  0.8607297E-01
        2   -1    0    0  501    0  0.00000000000E+00  0.00000000000E+00  0.70988940131E+03  0.70988940132E+03  0.25500000920E-02 0.  1.
       -2   -1    0    0    0  501  0.00000000000E+00  0.00000000000E+00 -0.14066352725E+04  0.14066352725E+04  0.25500000920E-02 0. -1.
    10030    2    1    2    0    0  0.00000000000E+00  0.00000000000E+00 -0.69674587118E+03  0.21165246738E+04  0.19985549494E+04 0.  0.
        1    1    3    3  502    0  0.32508928169E+03 -0.26012378189E+03  0.61365784957E+03  0.74156818928E+03  0.50400001928E-02 0.  1.
       -1    1    3    3    0  502 -0.32508928169E+03  0.26012378189E+03 -0.13104037208E+04  0.13749564845E+04  0.50400001928E-02 0. -1.
</event>
<event>
 5   0  0.8011197E-05  0.2004231E+04  0.7818609E-02  0.8604645E-01
        2   -1    0    0  501    0  0.00000000000E+00  0.00000000000E+00  0.17223406432E+04  0.17223406432E+04  0.25500000920E-02 0. -1.
       -2   -1    0    0    0  501  0.00000000000E+00  0.00000000000E+00 -0.58306455241E+03  0.58306455242E+03  0.25500000920E-02 0.  1.
    10030    2    1    2    0    0  0.00000000000E+00  0.00000000000E+00  0.11392760908E+04  0.23054051956E+04  0.20042313003E+04 0.  0.
        5    1    3    3  502    0 -0.24592175582E+03  0.20918575032E+03  0.16608654216E+04  0.16919610595E+04  0.46999998093E+01 0. -1.
       -5    1    3    3    0  502  0.24592175582E+03 -0.20918575032E+03 -0.52158933082E+03  0.61344413613E+03  0.46999998093E+01 0.  1.
</event>
<event>
 5   0  0.7843846E-05  0.2010289E+04  0.7818609E-02  0.8601825E-01
       -2   -1    0    0    0  501  0.00000000000E+00  0.00000000000E+00  0.45184594970E+03  0.45184594971E+03  0.25500000920E-02 0. -1.
        2   -1    0    0  501    0  0.00000000000E+00  0.00000000000E+00 -0.22359726576E+04  0.22359726576E+04  0.25500000920E-02 0.  1.
    10030    2    1    2    0    0  0.00000000000E+00  0.00000000000E+00 -0.17841267079E+04  0.26878186073E+04  0.20102887246E+04 0.  0.
        2    1    3    3  502    0 -0.17567543305E+03 -0.63604111073E+03  0.12170697500E+03  0.67098639337E+03  0.25500000920E-02 0. -1.
       -2    1    3    3    0  502  0.17567543305E+03  0.63604111073E+03 -0.19058336829E+04  0.20168322140E+04  0.25500000920E-02 0.  1.
</event>
<event>
 5   0  0.3970042E-05  0.1966758E+04  0.7818609E-02  0.8622322E-01
       -1   -1    0    0    0  501  0.00000000000E+00  0.00000000000E+00  0.15992423314E+04  0.15992423314E+04  0.50400001928E-02 0.  1.
        1   -1    0    0  501    0  0.00000000000E+00  0.00000000000E+00 -0.60468306103E+03  0.60468306106E+03  0.50400001928E-02 0. -1.
    10030    2    1    2    0    0  0.00000000000E+00  0.00000000000E+00  0.99455927039E+03  0.22039253925E+04  0.19667584990E+04 0.  0.
        3    1    3    3  502    0  0.91777469063E+03 -0.29257272474E+03  0.71893391168E+03  0.12019880039E+04  0.10100000352E+00 0.  1.
       -3    1    3    3    0  502 -0.91777469063E+03  0.29257272474E+03  0.27562535871E+03  0.10019373886E+04  0.10100000352E+00 0. -1.
</event>
<event>
 5   0  0.3818907E-05  0.2031028E+04  0.7818609E-02  0.8592250E-01
       -1   -1    0    0    0  501  0.00000000000E+00  0.00000000000E+00  0.45635029038E+03  0.45635029041E+03  0.50400001928E-02 0. -1.
        1   -1    0    0  501    0  0.00000000000E+00  0.00000000000E+00 -0.22598189533E+04  0.22598189533E+04  0.50400001928E-02 0.  1.
    10030    2    1    2    0    0  0.00000000000E+00  0.00000000000E+00 -0.18034686629E+04  0.27161692437E+04  0.20310283460E+04 0.  0.
        1    1    3    3  502    0 -0.14592635152E+03 -0.33029387160E+03 -0.21710640094E+04  0.22008878832E+04  0.50400001928E-02 0.  1.
       -1    1    3    3    0  502  0.14592635152E+03  0.33029387160E+03  0.36759534647E+03  0.51528136048E+03  0.50400001928E-02 0. -1.
</event>
<event>
 5   0  0.7843846E-05  0.1993630E+04  0.7818609E-02  0.8609604E-01
       -2   -1    0    0    0  501  0.00000000000E+00  0.00000000000E+00  0.68505244591E+03  0.68505244592E+03  0.25500000920E-02 0.  1.
        2   -1    0    0  501    0  0.00000000000E+00  0.00000000000E+00 -0.14504591729E+04  0.14504591729E+04  0.25500000920E-02 0. -1.
    10030    2    1    2    0    0  0.00000000000E+00  0.00000000000E+00 -0.76540672700E+03  0.21355116188E+04  0.19936304614E+04 0.  0.
        2    1    3    3  502    0 -0.10910687742E+03 -0.55931901905E+03  0.49336379110E+03  0.75375719310E+03  0.25500000920E-02 0.  1.
       -2    1    3    3    0  502  0.10910687742E+03  0.55931901905E+03 -0.12587705181E+04  0.13817544257E+04  0.25500000920E-02 0. -1.
</event>
<event>
 5   0  0.8011197E-05  0.1985558E+04  0.7818609E-02  0.8613403E-01
       -2   -1    0    0    0  501  0.00000000000E+00  0.00000000000E+00  0.40603779298E+03  0.40603779299E+03  0.25500000920E-02 0.  1.
        2   -1    0    0  501    0  0.00000000000E+00  0.00000000000E+00 -0.24273840342E+04  0.24273840342E+04  0.25500000920E-02 0. -1.
    10030    2    1    2    0    0  0.00000000000E+00  0.00000000000E+00 -0.20213462413E+04  0.28334218272E+04  0.19855575096E+04 0.  0.
        5    1    3    3  502    0  0.56062568079E+03  0.91690533497E+02  0.15116595718E+03  0.58786184134E+03  0.46999998093E+01 0.  1.
       -5    1    3    3    0  502 -0.56062568079E+03 -0.91690533497E+02 -0.21725121984E+04  0.22455599859E+04  0.46999998093E+01 0. -1.
</event>
<event>
 5   0  0.8011197E-05  0.1990215E+04  0.7818609E-02  0.8611209E-01
       -2   -1    0    0    0  501  0.00000000000E+00  0.00000000000E+00  0.54716001207E+03  0.54716001208E+03  0.25500000920E-02 0. -1.
        2   -1    0    0  501    0  0.00000000000E+00  0.00000000000E+00 -0.18097789058E+04  0.18097789058E+04  0.25500000920E-02 0.  1.
    10030    2    1    2    0    0  0.00000000000E+00  0.00000000000E+00 -0.12626188937E+04  0.23569389179E+04  0.19902147100E+04 0.  0.
        5    1    3    3  502    0  0.23348105893E+03 -0.96624105531E+03 -0.57728085135E+03  0.11495261864E+04  0.46999998093E+01 0.  1.
       -5    1    3    3    0  502 -0.23348105893E+03  0.96624105531E+03 -0.68533804236E+03  0.12074127315E+04  0.46999998093E+01 0. -1.
</event>
<event>
 5   0  0.3787698E-05  0.1856358E+04  0.7818609E-02  0.8676890E-01
        1   -1    0    0  501    0  0.00000000000E+00  0.00000000000E+00  0.10579559650E+04  0.10579559650E+04  0.50400001928E-02 0. -1.
       -1   -1    0    0    0  501  0.00000000000E+00  0.00000000000E+00 -0.81432119735E+03  0.81432119737E+03  0.50400001928E-02 0.  1.
    10030    2    1    2    0    0  0.00000000000E+00  0.00000000000E+00  0.24363476765E+03  0.18722771624E+04  0.18563576899E+04 0.  0.
        4    1    3    3  502    0 -0.46624563479E+02  0.78637723066E+03  0.61689485768E+03  0.10005617808E+04  0.12699999809E+01 0. -1.
       -4    1    3    3    0  502  0.46624563479E+02 -0.78637723066E+03 -0.37326009003E+03  0.87171538161E+03  0.12699999809E+01 0.  1.
</event>
<event>
 5   0  0.3549426E-05  0.2006080E+04  0.7818609E-02  0.8603783E-01
        1   -1    0    0  501    0  0.00000000000E+00  0.00000000000E+00  0.11823402926E+04  0.11823402927E+04  0.50400001928E-02 0.  1.
       -1   -1    0    0    0  501  0.00000000000E+00  0.00000000000E+00 -0.85093006844E+03  0.85093006845E+03  0.50400001928E-02 0. -1.
    10030    2    1    2    0    0  0.00000000000E+00  0.00000000000E+00  0.33141022421E+03  0.20332703611E+04  0.20060796656E+04 0.  0.
        5    1    3    3  502    0 -0.49496815506E+03  0.40305765618E+03 -0.61848577645E+03  0.88881701964E+03  0.46999998093E+01 0. -1.
       -5    1    3    3    0  502  0.49496815506E+03 -0.40305765618E+03  0.94989600066E+03  0.11444533415E+04  0.46999998093E+01 0.  1.
</event>
<event>
 5   0  0.8022574E-05  0.2042811E+04  0.7818609E-02  0.8586863E-01
       -2   -1    0    0    0  501  0.00000000000E+00  0.00000000000E+00  0.76184780541E+03  0.76184780541E+03  0.25500000920E-02 0. -1.
        2   -1    0    0  501    0  0.00000000000E+00  0.00000000000E+00 -0.13693926506E+04  0.13693926506E+04  0.25500000920E-02 0.  1.
    10030    2    1    2    0    0  0.00000000000E+00  0.00000000000E+00 -0.60754484515E+03  0.21312404560E+04  0.20428105987E+04 0.  0.
        1    1    3    3  502    0  0.16754764632E+03 -0.27643176323E+03  0.70707763012E+03  0.77746093699E+03  0.50400001928E-02 0. -1.
       -1    1    3    3    0  502 -0.16754764632E+03  0.27643176323E+03 -0.13146224753E+04  0.13537795190E+04  0.50400001928E-02 0.  1.
</event>
<event>
 5   0  0.7857136E-05  0.2006680E+04  0.7818609E-02  0.8603504E-01
       -2   -1    0    0    0  501  0.00000000000E+00  0.00000000000E+00  0.76496268164E+03  0.76496268164E+03  0.25500000920E-02 0.  1.
        2   -1    0    0  501    0  0.00000000000E+00  0.00000000000E+00 -0.13159997434E+04  0.13159997434E+04  0.25500000920E-02 0. -1.
    10030    2    1    2    0    0  0.00000000000E+00  0.00000000000E+00 -0.55103706178E+03  0.20809624251E+04  0.20066795387E+04 0.  0.
        4    1    3    3  502    0  0.42690405389E+03  0.89891186506E+03 -0.14271760919E+03  0.10053156426E+04  0.12699999809E+01 0. -1.
       -4    1    3    3    0  502 -0.42690405389E+03 -0.89891186506E+03 -0.40831945259E+03  0.10756467825E+04  0.12699999809E+01 0.  1.
</event>
<event>
 5   0  0.7843846E-05  0.1994017E+04  0.7818609E-02  0.8609423E-01
        2   -1    0    0  501    0  0.00000000000E+00  0.00000000000E+00  0.85612112118E+03  0.85612112119E+03  0.25500000920E-02 0.  1.
       -2   -1    0    0    0  501  0.00000000000E+00  0.00000000000E+00 -0.11610814058E+04  0.11610814058E+04  0.25500000920E-02 0. -1.
    10030    2    1    2    0    0  0.00000000000E+00  0.00000000000E+00 -0.30496028463E+03  0.20172025270E+04  0.19940173670E+04 0.  0.
        2    1    3    3  502    0 -0.10879727367E+03  0.12699036954E+03 -0.11467934965E+04  0.11589213625E+04  0.25500000920E-02 0. -1.
       -2    1    3    3    0  502  0.10879727367E+03 -0.12699036954E+03  0.84183321190E+03  0.85828116453E+03  0.25500000920E-02 0.  1.
</event>
<event>
 5   0  0.7843846E-05  0.1987096E+04  0.7818609E-02  0.8612678E-01
       -2   -1    0    0    0  501  0.00000000000E+00  0.00000000000E+00  0.11783380183E+04  0.11783380183E+04  0.25500000920E-02 0. -1.
        2   -1    0    0  501    0  0.00000000000E+00  0.00000000000E+00 -0.83773699278E+03  0.83773699278E+03  0.25500000920E-02 0.  1.
    10030    2    1    2    0    0  0.00000000000E+00  0.00000000000E+00  0.34060102548E+03  0.20160750110E+04  0.19870957178E+04 0.  0.
        2    1    3    3  502    0 -0.47364361133E+03  0.33539253027E+03 -0.64787866972E+03  0.86981215823E+03  0.25500000920E-02 0.  1.
       -2    1    3    3    0  502  0.47364361133E+03 -0.33539253027E+03  0.98847969520E+03  0.11462628528E+04  0.25500000920E-02 0. -1.
</event>
<event>
 5   0  0.2859625E-05  0.2005185E+04  0.7818609E-02  0.8604200E-01
       -4   -1    0    0    0  501  0.00000000000E+00  0.00000000000E+00  0.53703284962E+03  0.53703435130E+03  0.12699999809E+01 0. -1.
        4   -1    0    0  501    0  0.00000000000E+00  0.00000000000E+00 -0.18717470779E+04  0.18717475088E+04  0.12699999809E+01 0.  1.
    10030    2    1    2    0    0  0.00000000000E+00  0.00000000000E+00 -0.13347142283E+04  0.24087818601E+04  0.20051852728E+04 0.  0.
        5    1    3    3  502    0 -0.14608380082E+03  0.48227652486E+03 -0.17085518541E+04  0.17813204797E+04  0.46999998093E+01 0.  1.
       -5    1    3    3    0  502  0.14608380082E+03 -0.48227652486E+03  0.37383762585E+03  0.62746138032E+03  0.46999998093E+01 0. -1.
</event>
<event>
 5   0  0.3970042E-05  0.2031401E+04  0.7818609E-02  0.8592079E-01
        1   -1    0    0  501    0  0.00000000000E+00  0.00000000000E+00  0.22548589202E+04  0.22548589203E+04  0.50400001928E-02 0.  1.
       -1   -1    0    0    0  501  0.00000000000E+00  0.00000000000E+00 -0.45752198189E+03  0.45752198192E+03  0.50400001928E-02 0. -1.
    10030    2    1    2    0    0  0.00000000000E+00  0.00000000000E+00  0.17973369384E+04  0.27123809022E+04  0.20314010162E+04 0.  0.
        3    1    3    3  502    0 -0.57812670205E+03 -0.83334367769E+03  0.97125548966E+03  0.14042896443E+04  0.10100000352E+00 0.  1.
       -3    1    3    3    0  502  0.57812670205E+03  0.83334367769E+03  0.82608144869E+03  0.13080912578E+04  0.10100000352E+00 0. -1.
</event>
<event>
 5   0  0.8011197E-05  0.1896235E+04  0.7818609E-02  0.8656733E-01
       -2   -1    0    0    0  501  0.00000000000E+00  0.00000000000E+00  0.90356890120E+03  0.90356890120E+03  0.25500000920E-02 0. -1.
        2   -1    0    0  501    0  0.00000000000E+00  0.00000000000E+00 -0.99486246731E+03  0.99486246731E+03  0.25500000920E-02 0.  1.
    10030    2    1    2    0    0  0.00000000000E+00  0.00000000000E+00 -0.91293566109E+02  0.18984313685E+04  0.18962349922E+04 0.  0.
        5    1    3    3  502    0  0.15354377731E+03  0.84134610943E+03  0.36405298390E+03  0.92951365374E+03  0.46999998093E+01 0. -1.
       -5    1    3    3    0  502 -0.15354377731E+03 -0.84134610943E+03 -0.45534655001E+03  0.96891771478E+03  0.46999998093E+01 0.  1.
</event>
<event>
 5   0  0.8022574E-05  0.1997017E+04  0.7818609E-02  0.8608017E-01
       -2   -1    0    0    0  501  0.00000000000E+00  0.00000000000E+00  0.47784566511E+03  0.47784566512E+03  0.25500000920E-02 0.  1.
        2   -1    0    0  501    0  0.00000000000E+00  0.00000000000E+00 -0.20864870547E+04  0.20864870547E+04  0.25500000920E-02 0. -1.
    10030    2    1    2    0    0  0.00000000000E+00  0.00000000000E+00 -0.16086413896E+04  0.25643327198E+04  0.19970165692E+04 0.  0.
        1    1    3    3  502    0 -0.12798917227E+03  0.10127843655E+03 -0.20692424988E+04  0.20756693062E+04  0.50400001928E-02 0. -1.
       -1    1    3    3    0  502  0.12798917227E+03 -0.10127843655E+03  0.46060110923E+03  0.48866341358E+03  0.50400001928E-02 0.  1.
</event>
<event>
 5   0  0.3787698E-05  0.2026839E+04  0.7818609E-02  0.8594174E-01
       -1   -1    0    0    0  501  0.00000000000E+00  0.00000000000E+00  0.66006035788E+03  0.66006035790E+03  0.50400001928E-02 0. -1.
        1   -1    0    0  501    0  0.00000000000E+00  0.00000000000E+00 -0.15559469195E+04  0.15559469195E+04  0.50400001928E-02 0.  1.
    10030    2    1    2    0    0  0.00000000000E+00  0.00000000000E+00 -0.89588656158E+03  0.22160072774E+04  0.20268388002E+04 0.  0.
        4    1    3    3  502    0  0.27136395169E+03  0.22009409617E+03 -0.14880101358E+04  0.15284814630E+04  0.12699999809E+01 0.  1.
       -4    1    3    3    0  502 -0.27136395169E+03 -0.22009409617E+03  0.59212357422E+03  0.68752581442E+03  0.12699999809E+01 0. -1.
</event>
<event>
 5   0  0.3970042E-05  0.1995496E+04  0.7818609E-02  0.8608729E-01
       -1   -1    0    0    0  501  0.00000000000E+00  0.00000000000E+00  0.15598728320E+04  0.15598728320E+04  0.50400001928E-02 0. -1.
        1   -1    0    0  501    0  0.00000000000E+00  0.00000000000E+00 -0.63819356888E+03  0.63819356890E+03  0.50400001928E-02 0.  1.
    10030    2    1    2    0    0  0.00000000000E+00  0.00000000000E+00  0.92167926313E+03  0.21980664009E+04  0.19954957376E+04 0.  0.
        3    1    3    3  502    0  0.54161481480E+03  0.20879901047E+03  0.13547351150E+04  0.14738557855E+04  0.10100000352E+00 0. -1.
       -3    1    3    3    0  502 -0.54161481480E+03 -0.20879901047E+03 -0.43305585192E+03  0.72421061540E+03  0.10100000352E+00 0.  1.
</event>
<event>
 5   0  0.8011197E-05  0.1997370E+04  0.7818609E-02  0.8607851E-01
        2   -1    0    0  501    0  0.00000000000E+00  0.00000000000E+00  0.17983655081E+04  0.17983655081E+04  0.25500000920E-02 0. -1.
       -2   -1    0    0    0  501  0.00000000000E+00  0.00000000000E+00 -0.55459900005E+03  0.55459900005E+03  0.25500000920E-02 0.  1.
    10030    2    1    2    0    0  0.00000000000E+00  0.00000000000E+00  0.12437665081E+04  0.23529645082E+04  0.19973699833E+04 0.  0.
        5    1    3    3  502    0  0.44572950476E+03 -0.64495208018E+03  0.13506569620E+04  0.15617087744E+04  0.46999998093E+01 0. -1.
       -5    1    3    3    0  502 -0.44572950476E+03  0.64495208018E+03 -0.10689045387E+03  0.79125573379E+03  0.46999998093E+01 0.  1.
</event>
<event>
 5   0  0.8011197E-05  0.1999731E+04  0.7818609E-02  0.8606746E-01
        2   -1    0    0  501    0  0.00000000000E+00  0.00000000000E+00  0.73064867868E+03  0.73064867869E+03  0.25500000920E-02 0. -1.
       -2   -1    0    0    0  501  0.00000000000E+00  0.00000000000E+00 -0.13682789012E+04  0.13682789012E+04  0.25500000920E-02 0.  1.
    10030    2    1    2    0    0  0.00000000000E+00  0.00000000000E+00 -0.63763022251E+03  0.20989275799E+04  0.19997311532E+04 0.  0.
        5    1    3    3  502    0 -0.17621618531E+03  0.79046148288E+03 -0.93426996054E+03  0.12364319427E+04  0.46999998093E+01 0.  1.
       -5    1    3    3    0  502  0.17621618531E+03 -0.79046148288E+03  0.29663973804E+03  0.86249563713E+03  0.46999998093E+01 0. -1.
</event>
<event>
 5   0  0.7843846E-05  0.1984859E+04  0.7818609E-02  0.8613733E-01
       -2   -1    0    0    0  501  0.00000000000E+00  0.00000000000E+00  0.64220396467E+03  0.64220396467E+03  0.25500000920E-02 0.  1.
        2   -1    0    0  501    0  0.00000000000E+00  0.00000000000E+00 -0.15336499078E+04  0.15336499078E+04  0.25500000920E-02 0. -1.
    10030    2    1    2    0    0  0.00000000000E+00  0.00000000000E+00 -0.89144594318E+03  0.21758538725E+04  0.19848587368E+04 0.  0.
        2    1    3    3  502    0 -0.38787968597E+03  0.51157872894E+03 -0.12753514632E+04  0.14278251999E+04  0.25500000920E-02 0. -1.
       -2    1    3    3    0  502  0.38787968597E+03 -0.51157872894E+03  0.38390552007E+03  0.74802867260E+03  0.25500000920E-02 0.  1.
</event>
<event>
 5   0  0.7857136E-05  0.2000224E+04  0.7818609E-02  0.8606516E-01
        2   -1    0    0  501    0  0.00000000000E+00  0.00000000000E+00  0.16989249319E+04  0.16989249319E+04  0.25500000920E-02 0.  1.
       -2   -1    0    0    0  501  0.00000000000E+00  0.00000000000E+00 -0.58873960291E+03  0.58873960292E+03  0.25500000920E-02 0. -1.
    10030    2    1    2    0    0  0.00000000000E+00  0.00000000000E+00  0.11101853290E+04  0.22876645348E+04  0.20002243772E+04 0.  0.
        4    1    3    3  502    0 -0.26590714092E+02 -0.47421938446E+03  0.15617026923E+04  0.16323320749E+04  0.12699999809E+01 0.  1.
       -4    1    3    3    0  502  0.26590714092E+02  0.47421938446E+03 -0.45151736336E+03  0.65533245989E+03  0.12699999809E+01 0. -1.
</event>
<event>
 5   0  0.3818907E-05  0.2011893E+04  0.7818609E-02  0.8601081E-01
        1   -1    0    0  501    0  0.00000000000E+00  0.00000000000E+00  0.68495409523E+03  0.68495409525E+03  0.50400001928E-02 0.  1.
       -1   -1    0    0    0  501  0.00000000000E+00  0.00000000000E+00 -0.14773661017E+04  0.14773661017E+04  0.50400001928E-02 0. -1.
    10030    2    1    2    0    0  0.00000000000E+00  0.00000000000E+00 -0.79241200642E+03  0.21623201969E+04  0.20118926030E+04 0.  0.
        1    1    3    3  502    0  0.98998430845E+01 -0.47761567128E+03 -0.13476731534E+04  0.14298383352E+04  0.50400001928E-02 0. -1.
       -1    1    3    3    0  502 -0.98998430845E+01  0.47761567128E+03  0.55526114700E+03  0.73248186171E+03  0.50400001928E-02 0.  1.
</event>
<event>
 5   0  0.3818907E-05  0.1954642E+04  0.7818609E-02  0.8628125E-01
        1   -1    0    0  501    0  0.00000000000E+00  0.00000000000E+00  0.15342373059E+04  0.15342373059E+04  0.50400001928E-02 0.  1.
       -1   -1    0    0    0  501  0.00000000000E+00  0.00000000000E+00 -0.62256114877E+03  0.62256114880E+03  0.50400001928E-02 0. -1.
    10030    2    1    2    0    0  0.00000000000E+00  0.00000000000E+00  0.91167615709E+03  0.21567984547E+04  0.19546422073E+04 0.  0.
        1    1    3    3  502    0  0.27536997612E+03  0.27801736291E+03 -0.53234804673E+03  0.66069412038E+03  0.50400001928E-02 0. -1.
       -1    1    3    3    0  502 -0.27536997612E+03 -0.27801736291E+03  0.14440242038E+04  0.14961043343E+04  0.50400001928E-02 0.  1.
</event>
<event>
 5   0  0.3970042E-05  0.2011820E+04  0.7818609E-02  0.8601115E-01
        1   -1    0    0  501    0  0.00000000000E+00  0.00000000000E+00  0.28860566449E+04  0.28860566449E+04  0.50400001928E-02 0.  1.
       -1   -1    0    0    0  501  0.00000000000E+00  0.00000000000E+00 -0.35060103926E+03  0.35060103929E+03  0.50400001928E-02 0. -1.
    10030    2    1    2    0    0  0.00000000000E+00  0.00000000000E+00  0.25354556057E+04  0.32366576842E+04  0.20118195338E+04 0.  0.
        3    1    3    3  502    0 -0.17165948861E+03  0.12354391274E+03 -0.31442677767E+03  0.37893836850E+03  0.10100000352E+00 0. -1.
       -3    1    3    3    0  502  0.17165948861E+03 -0.12354391274E+03  0.28498823833E+04  0.28577193157E+04  0.10100000352E+00 0.  1.
</event>
<event>
 5   0  0.8022574E-05  0.1989470E+04  0.7818609E-02  0.8611559E-01
       -2   -1    0    0    0  501  0.00000000000E+00  0.00000000000E+00  0.60335696851E+03  0.60335696851E+03  0.25500000920E-02 0.  1.
        2   -1    0    0  501    0  0.00000000000E+00  0.00000000000E+00 -0.16399879026E+04  0.16399879026E+04  0.25500000920E-02 0. -1.
    10030    2    1    2    0    0  0.00000000000E+00  0.00000000000E+00 -0.10366309340E+04  0.22433448711E+04  0.19894704112E+04 0.  0.
        1    1    3    3  502    0 -0.69057147393E+03  0.14990616765E+03 -0.13077523990E+04  0.14864646504E+04  0.50400001928E-02 0. -1.
       -1    1    3    3    0  502  0.69057147393E+03 -0.14990616765E+03  0.27112146495E+03  0.75688022070E+03  0.50400001928E-02 0.  1.
</event>
<event>
 5   0  0.2859625E-05  0.2000252E+04  0.7818609E-02  0.8606503E-01
       -3   -1    0    0    0  501  0.00000000000E+00  0.00000000000E+00  0.18578734358E+04  0.18578734385E+04  0.10100000352E+00 0. -1.
        3   -1    0    0  501    0  0.00000000000E+00  0.00000000000E+00 -0.53838546493E+03  0.53838547441E+03  0.10100000352E+00 0.  1.
    10030    2    1    2    0    0  0.00000000000E+00  0.00000000000E+00  0.13194879708E+04  0.23962589129E+04  0.20002520523E+04 0.  0.
        3    1    3    3  502    0  0.49426064373E+03  0.28833104993E+03 -0.32290780659E+03  0.65703716794E+03  0.10100000352E+00 0.  1.
       -3    1    3    3    0  502 -0.49426064373E+03 -0.28833104993E+03  0.16423957774E+04  0.17392217450E+04  0.10100000352E+00 0. -1.
</event>
<event>
 5   0  0.7857136E-05  0.2000181E+04  0.7818609E-02  0.8606536E-01
        2   -1    0    0  501    0  0.00000000000E+00  0.00000000000E+00  0.86121258409E+03  0.86121258409E+03  0.25500000920E-02 0.  1.
       -2   -1    0    0    0  501  0.00000000000E+00  0.00000000000E+00 -0.11613638063E+04  0.11613638063E+04  0.25500000920E-02 0. -1.
    10030    2    1    2    0    0  0.00000000000E+00  0.00000000000E+00 -0.30015122224E+03  0.20225763904E+04  0.20001811165E+04 0.  0.
        4    1    3    3  502    0  0.84847756563E+03 -0.41444145974E+03 -0.48316262588E+03  0.10607184541E+04  0.12699999809E+01 0. -1.
       -4    1    3    3    0  502 -0.84847756563E+03  0.41444145974E+03  0.18301140363E+03  0.96185793633E+03  0.12699999809E+01 0.  1.
</event>
<event>
 5   0  0.3787698E-05  0.2075414E+04  0.7818609E-02  0.8572152E-01
       -1   -1    0    0    0  501  0.00000000000E+00  0.00000000000E+00  0.10151868646E+04  0.10151868646E+04  0.50400001928E-02 0. -1.
        1   -1    0    0  501    0  0.00000000000E+00  0.00000000000E+00 -0.10607269754E+04  0.10607269754E+04  0.50400001928E-02 0.  1.
    10030    2    1    2    0    0  0.00000000000E+00  0.00000000000E+00 -0.45540110863E+02  0.20759138400E+04  0.20754142645E+04 0.  0.
        4    1    3    3  502    0  0.45775339094E+03  0.92395905045E+03  0.93859837074E+02  0.10353983657E+04  0.12699999809E+01 0. -1.
       -4    1    3    3    0  502 -0.45775339094E+03 -0.92395905045E+03 -0.13939994794E+03  0.10405154743E+04  0.12699999809E+01 0.  1.
</event>
<event>
 5   0  0.3549426E-05  0.2022328E+04  0.7818609E-02  0.8596252E-01
       -1   -1    0    0    0  501  0.00000000000E+00  0.00000000000E+00  0.18438273567E+04  0.18438273567E+04  0.50400001928E-02 0.  1.
        1   -1    0    0  501    0  0.00000000000E+00  0.00000000000E+00 -0.55452720052E+03  0.55452720054E+03  0.50400001928E-02 0. -1.
    10030    2    1    2    0    0  0.00000000000E+00  0.00000000000E+00  0.12893001562E+04  0.23983545573E+04  0.20223277899E+04 0.  0.
        5    1    3    3  502    0  0.27837044245E+03 -0.96098970005E+03  0.47100424818E+03  0.11058292810E+04  0.46999998093E+01 0.  1.
       -5    1    3    3    0  502 -0.27837044245E+03  0.96098970005E+03  0.81829590804E+03  0.12925252763E+04  0.46999998093E+01 0. -1.
</event>
<event>
 5   0  0.8022574E-05  0.1986179E+04  0.7818609E-02  0.8613110E-01
        2   -1    0    0  501    0  0.00000000000E+00  0.00000000000E+00  0.11671757979E+04  0.11671757979E+04  0.25500000920E-02 0. -1.
       -2   -1    0    0    0  501  0.00000000000E+00  0.00000000000E+00 -0.84496857527E+03  0.84496857528E+03  0.25500000920E-02 0.  1.
    10030    2    1    2    0    0  0.00000000000E+00  0.00000000000E+00  0.32220722259E+03  0.20121443731E+04  0.19861791168E+04 0.  0.
        1    1    3    3  502    0  0.95316286600E+03 -0.17555840801E+02  0.44294774726E+03  0.10512042444E+04  0.50400001928E-02 0. -1.
       -1    1    3    3    0  502 -0.95316286600E+03  0.17555840801E+02 -0.12074052467E+03  0.96094012872E+03  0.50400001928E-02 0.  1.
</event>
<event>
 5   0  0.3970042E-05  0.2021009E+04  0.7818609E-02  0.8596861E-01
        1   -1    0    0  501    0  0.00000000000E+00  0.00000000000E+00  0.43780967937E+03  0.43780967940E+03  0.50400001928E-02 0.  1.
       -1   -1    0    0    0  501  0.00000000000E+00  0.00000000000E+00 -0.23323372482E+04  0.23323372482E+04  0.50400001928E-02 0. -1.
    10030    2    1    2    0    0  0.00000000000E+00  0.00000000000E+00 -0.18945275689E+04  0.27701469276E+04  0.20210094734E+04 0.  0.
        3    1    3    3  502    0 -0.35907747535E+03 -0.80139330173E+02 -0.22372726645E+04  0.22673217529E+04  0.10100000352E+00 0. -1.
       -3    1    3    3    0  502  0.35907747535E+03  0.80139330173E+02  0.34274509566E+03  0.50282517473E+03  0.10100000352E+00 0.  1.
</event>
<event>
 5   0  0.7843846E-05  0.1904271E+04  0.7818609E-02  0.8652733E-01
       -2   -1    0    0    0  501  0.00000000000E+00  0.00000000000E+00  0.44312351692E+03  0.44312351692E+03  0.25500000920E-02 0. -1.
        2   -1    0    0  501    0  0.00000000000E+00  0.00000000000E+00 -0.20458446623E+04  0.20458446623E+04  0.25500000920E-02 0.  1.
    10030    2    1    2    0    0  0.00000000000E+00  0.00000000000E+00 -0.16027211453E+04  0.24889681792E+04  0.19042708650E+04 0.  0.
        2    1    3    3  502    0  0.71910747413E+03 -0.19115084963E+03 -0.24896843721E+02  0.74449584250E+03  0.25500000920E-02 0. -1.
       -2    1    3    3    0  502 -0.71910747413E+03  0.19115084963E+03 -0.15778243016E+04  0.17444723367E+04  0.25500000920E-02 0.  1.
</event>
<event>
 5   0  0.7843846E-05  0.1999519E+04  0.7818609E-02  0.8606845E-01
        2   -1    0    0  501    0  0.00000000000E+00  0.00000000000E+00  0.10315288517E+04  0.10315288517E+04  0.25500000920E-02 0.  1.
       -2   -1    0    0    0  501  0.00000000000E+00  0.00000000000E+00 -0.96896879854E+03  0.96896879854E+03  0.25500000920E-02 0. -1.
    10030    2    1    2    0    0  0.00000000000E+00  0.00000000000E+00  0.62560053198E+02  0.20004976503E+04  0.19995192143E+04 0.  0.
        2    1    3    3  502    0 -0.67025122568E+02  0.18984832901E+03  0.10110367705E+04  0.10308880183E+04  0.25500000920E-02 0.  1.
       -2    1    3    3    0  502  0.67025122568E+02 -0.18984832901E+03 -0.94847671729E+03  0.96960963193E+03  0.25500000920E-02 0. -1.
</event>
<event>
 5   0  0.7857136E-05  0.2107183E+04  0.7818609E-02  0.8558086E-01
        2   -1    0    0  501    0  0.00000000000E+00  0.00000000000E+00  0.16624965052E+04  0.16624965052E+04  0.25500000920E-02 0. -1.
       -2   -1    0    0    0  501  0.00000000000E+00  0.00000000000E+00 -0.66770354067E+03  0.66770354067E+03  0.25500000920E-02 0.  1.
    10030    2    1    2    0    0  0.00000000000E+00  0.00000000000E+00  0.99479296454E+03  0.23302000459E+04  0.21071827665E+04 0.  0.
        4    1    3    3  502    0 -0.50384149034E+03  0.75181991865E+03 -0.99103513950E+02  0.91044635034E+03  0.12699999809E+01 0.  1.
       -4    1    3    3    0  502  0.50384149034E+03 -0.75181991865E+03  0.10938964785E+04  0.14197536955E+04  0.12699999809E+01 0. -1.
</event>
<event>
 5   0  0.7935008E-05  0.2005823E+04  0.7818609E-02  0.8603903E-01
        2   -1    0    0  501    0  0.00000000000E+00  0.00000000000E+00  0.15155647571E+04  0.15155647571E+04  0.25500000920E-02 0.  1.
       -2   -1    0    0    0  501  0.00000000000E+00  0.00000000000E+00 -0.66366808118E+03  0.66366808119E+03  0.25500000920E-02 0. -1.
    10030    2    1    2    0    0  0.00000000000E+00  0.00000000000E+00  0.85189667589E+03  0.21792328383E+04  0.20058234760E+04 0.  0.
        3    1    3    3  502    0 -0.92993770403E+03 -0.32258534600E+03  0.21700305398E+03  0.10079363941E+04  0.10100000352E+00 0. -1.
       -3    1    3    3    0  502  0.92993770403E+03  0.32258534600E+03  0.63489362191E+03  0.11712964442E+04  0.10100000352E+00 0.  1.
</event>
<event>
 5   0  0.8022574E-05  0.1878019E+04  0.7818609E-02  0.8665876E-01
       -2   -1    0    0    0  501  0.00000000000E+00  0.00000000000E+00  0.53024646609E+03  0.53024646609E+03  0.25500000920E-02 0. -1.
        2   -1    0    0  501    0  0.00000000000E+00  0.00000000000E+00 -0.16628847996E+04  0.16628847996E+04  0.25500000920E-02 0.  1.
    10030    2    1    2    0    0  0.00000000000E+00  0.00000000000E+00 -0.11326383335E+04  0.21931312657E+04  0.18780189440E+04 0.  0.
        1    1    3    3  502    0  0.48266447521E+03  0.99107867161E+02 -0.14997853268E+04  0.15786523973E+04  0.50400001928E-02 0.  1.
       -1    1    3    3    0  502 -0.48266447521E+03 -0.99107867161E+02  0.36714699331E+03  0.61447886838E+03  0.50400001928E-02 0. -1.
</event>
<event>
 5   0  0.8011197E-05  0.1992015E+04  0.7818609E-02  0.8610363E-01
        2   -1    0    0  501    0  0.00000000000E+00  0.00000000000E+00  0.15570262441E+04  0.15570262441E+04  0.25500000920E-02 0. -1.
       -2   -1    0    0    0  501  0.00000000000E+00  0.00000000000E+00 -0.63713180543E+03  0.63713180544E+03  0.25500000920E-02 0.  1.
    10030    2    1    2    0    0  0.00000000000E+00  0.00000000000E+00  0.91989443868E+03  0.21941580496E+04  0.19920150020E+04 0.  0.
        5    1    3    3  502    0 -0.50872673662E+03 -0.84085574622E+03  0.63812642944E+03  0.11717801451E+04  0.46999998093E+01 0. -1.
       -5    1    3    3    0  502  0.50872673662E+03  0.84085574622E+03  0.28176800924E+03  0.10223779045E+04  0.46999998093E+01 0.  1.
</event>
<event>
 5   0  0.3787698E-05  0.1993315E+04  0.7818609E-02  0.8609752E-01
        1   -1    0    0  501    0  0.00000000000E+00  0.00000000000E+00  0.80793694732E+03  0.80793694734E+03  0.50400001928E-02 0. -1.
       -1   -1    0    0    0  501  0.00000000000E+00  0.00000000000E+00 -0.12294600355E+04  0.12294600355E+04  0.50400001928E-02 0.  1.
    10030    2    1    2    0    0  0.00000000000E+00  0.00000000000E+00 -0.42152308813E+03  0.20373969828E+04  0.19933150157E+04 0.  0.
        4    1    3    3  502    0  0.67634493511E+01  0.59135802199E+03 -0.10307337682E+04  0.11883449702E+04  0.12699999809E+01 0.  1.
       -4    1    3    3    0  502 -0.67634493511E+01 -0.59135802199E+03  0.60921068009E+03  0.84905201257E+03  0.12699999809E+01 0. -1.
</event>
<event>
 5   0  0.3549426E-05  0.1996210E+04  0.7818609E-02  0.8608394E-01
        1   -1    0    0  501    0  0.00000000000E+00  0.00000000000E+00  0.11838979923E+04  0.11838979923E+04  0.50400001928E-02 0. -1.
       -1   -1    0    0    0  501  0.00000000000E+00  0.00000000000E+00 -0.84146942565E+03  0.84146942567E+03  0.50400001928E-02 0.  1.
    10030    2    1    2    0    0  0.00000000000E+00  0.00000000000E+00  0.34242856668E+03  0.20253674180E+04  0.19962103733E+04 0.  0.
        5    1    3    3  502    0  0.17345073423E+03  0.98283790067E+03  0.18306293199E+03  0.10146869583E+04  0.46999998093E+01 0.  1.
       -5    1    3    3    0  502 -0.17345073423E+03 -0.98283790067E+03  0.15936563469E+03  0.10106804597E+04  0.46999998093E+01 0. -1.
</event>
<event>
 5   0  0.7857136E-05  0.2000883E+04  0.7818609E-02  0.8606208E-01
       -2   -1    0    0    0  501  0.00000000000E+00  0.00000000000E+00  0.15641800394E+04  0.15641800394E+04  0.25500000920E-02 0.  1.
        2   -1    0    0  501    0  0.00000000000E+00  0.00000000000E+00 -0.63987716518E+03  0.63987716519E+03  0.25500000920E-02 0. -1.
    10030    2    1    2    0    0  0.00000000000E+00  0.00000000000E+00  0.92430287421E+03  0.22040572046E+04  0.20008828946E+04 0.  0.
        4    1    3    3  502    0 -0.41697997919E+02  0.83960420918E+03 -0.13533503845E+03  0.85146411353E+03  0.12699999809E+01 0.  1.
       -4    1    3    3    0  502  0.41697997919E+02 -0.83960420918E+03  0.10596379127E+04  0.13525930910E+04  0.12699999809E+01 0. -1.
</event>
<event>
 5   0  0.7843846E-05  0.1996806E+04  0.7818609E-02  0.8608115E-01
       -2   -1    0    0    0  501  0.00000000000E+00  0.00000000000E+00  0.15228094449E+04  0.15228094449E+04  0.25500000920E-02 0.  1.
        2   -1    0    0  501    0  0.00000000000E+00  0.00000000000E+00 -0.65458529180E+03  0.65458529181E+03  0.25500000920E-02 0. -1.
    10030    2    1    2    0    0  0.00000000000E+00  0.00000000000E+00  0.86822415309E+03  0.21773947367E+04  0.19968061146E+04 0.  0.
        2    1    3    3  502    0 -0.13549976472E+03 -0.89231718683E+03 -0.31364170824E+02  0.90309127964E+03  0.25500000920E-02 0.  1.
       -2    1    3    3    0  502  0.13549976472E+03  0.89231718683E+03  0.89958832392E+03  0.12743034571E+04  0.25500000920E-02 0. -1.
</event>
<event>
 5   0  0.3549426E-05  0.1999429E+04  0.7818609E-02  0.8606888E-01
       -1   -1    0    0    0  501  0.00000000000E+00  0.00000000000E+00  0.12741721261E+04  0.12741721261E+04  0.50400001928E-02 0. -1.
        1   -1    0    0  501    0  0.00000000000E+00  0.00000000000E+00 -0.78437498365E+03  0.78437498367E+03  0.50400001928E-02 0.  1.
    10030    2    1    2    0    0  0.00000000000E+00  0.00000000000E+00  0.48979714247E+03  0.20585471098E+04  0.19994286590E+04 0.  0.
        5    1    3    3  502    0 -0.88462110996E+03  0.36100353266E+03  0.54775354852E+03  0.11013328737E+04  0.46999998093E+01 0.  1.
       -5    1    3    3    0  502  0.88462110996E+03 -0.36100353266E+03 -0.57956406050E+02  0.95721423610E+03  0.46999998093E+01 0. -1.
</event>
<event>
 5   0  0.3772949E-05  0.2009078E+04  0.7818609E-02  0.8602388E-01
       -1   -1    0    0    0  501  0.00000000000E+00  0.00000000000E+00  0.56452322706E+03  0.56452322708E+03  0.50400001928E-02 0. -1.
        1   -1    0    0  501    0  0.00000000000E+00  0.00000000000E+00 -0.17875233629E+04  0.17875233629E+04  0.50400001928E-02 0.  1.
    10030    2    1    2    0    0  0.00000000000E+00  0.00000000000E+00 -0.12230001358E+04  0.23520465899E+04  0.20090778554E+04 0.  0.
        2    1    3    3  502    0 -0.97903449758E+03  0.18246571483E+03 -0.76546583153E+03  0.12560812966E+04  0.25500000920E-02 0.  1.
       -2    1    3    3    0  502  0.97903449758E+03 -0.18246571483E+03 -0.45753430427E+03  0.10959652933E+04  0.25500000920E-02 0. -1.
</event>
<event>
 5   0  0.8011197E-05  0.1996360E+04  0.7818609E-02  0.8608325E-01
       -2   -1    0    0    0  501  0.00000000000E+00  0.00000000000E+00  0.67394598689E+03  0.67394598690E+03  0.25500000920E-02 0.  1.
        2   -1    0    0  501    0  0.00000000000E+00  0.00000000000E+00 -0.14784018734E+04  0.14784018734E+04  0.25500000920E-02 0. -1.
    10030    2    1    2    0    0  0.00000000000E+00  0.00000000000E+00 -0.80445588647E+03  0.21523478603E+04  0.19963596966E+04 0.  0.
        5    1    3    3  502    0  0.69105185993E+02  0.69456433392E+03 -0.11715261908E+04  0.13637048238E+04  0.46999998093E+01 0. -1.
       -5    1    3    3    0  502 -0.69105185993E+02 -0.69456433392E+03  0.36707030432E+03  0.78864303649E+03  0.46999998093E+01 0.  1.
</event>
<event>
 5   0  0.3772949E-05  0.2000730E+04  0.7818609E-02  0.8606279E-01
       -1   -1    0    0    0  501  0.00000000000E+00  0.00000000000E+00  0.98365277865E+03  0.98365277866E+03  0.50400001928E-02 0. -1.
        1   -1    0    0  501    0  0.00000000000E+00  0.00000000000E+00 -0.10173611901E+04  0.10173611901E+04  0.50400001928E-02 0.  1.
    10030    2    1    2    0    0  0.00000000000E+00  0.00000000000E+00 -0.33708411401E+02  0.20010139687E+04  0.20007300283E+04 0.  0.
        2    1    3    3  502    0  0.79447217904E+03  0.13605109163E+03  0.57571128622E+03  0.99052482447E+03  0.25500000920E-02 0. -1.
       -2    1    3    3    0  502 -0.79447217904E+03 -0.13605109163E+03 -0.60941969762E+03  0.10104891443E+04  0.25500000920E-02 0.  1.
</event>
<event>
 5   0  0.3970042E-05  0.2008660E+04  0.7818609E-02  0.8602583E-01
        1   -1    0    0  501    0  0.00000000000E+00  0.00000000000E+00  0.13425530077E+04  0.13425530077E+04  0.50400001928E-02 0.  1.
       -1   -1    0    0    0  501  0.00000000000E+00  0.00000000000E+00 -0.75131367600E+03  0.75131367602E+03  0.50400001928E-02 0. -1.
    10030    2    1    2    0    0  0.00000000000E+00  0.00000000000E+00  0.59123933169E+03  0.20938666837E+04  0.20086596879E+04 0.  0.
        3    1    3    3  502    0  0.87128708708E+03  0.12203927161E+03  0.80056814549E+03  0.11895142444E+04  0.10100000352E+00 0.  1.
       -3    1    3    3    0  502 -0.87128708708E+03 -0.12203927161E+03 -0.20932881380E+03  0.90435243928E+03  0.10100000352E+00 0. -1.
</event>
<event>
 5   0  0.3818907E-05  0.1983904E+04  0.7818609E-02  0.8614183E-01
        1   -1    0    0  501    0  0.00000000000E+00  0.00000000000E+00  0.19007625537E+04  0.19007625538E+04  0.50400001928E-02 0.  1.
       -1   -1    0    0    0  501  0.00000000000E+00  0.00000000000E+00 -0.51767055240E+03  0.51767055243E+03  0.50400001928E-02 0. -1.
    10030    2    1    2    0    0  0.00000000000E+00  0.00000000000E+00  0.13830920013E+04  0.24184331062E+04  0.19839040312E+04 0.  0.
        1    1    3    3  502    0 -0.20800869831E+03  0.40100683418E+03  0.17680890576E+04  0.18248871240E+04  0.50400001928E-02 0.  1.
       -1    1    3    3    0  502  0.20800869831E+03 -0.40100683418E+03 -0.38499705625E+03  0.59354598220E+03  0.50400001928E-02 0. -1.
</event>
<event>
 5   0  0.8022574E-05  0.1999063E+04  0.7818609E-02  0.8607059E-01
       -2   -1    0    0    0  501  0.00000000000E+00  0.00000000000E+00  0.14854515277E+04  0.14854515278E+04  0.25500000920E-02 0. -1.
        2   -1    0    0  501    0  0.00000000000E+00  0.00000000000E+00 -0.67256514860E+03  0.67256514861E+03  0.25500000920E-02 0.  1.
    10030    2    1    2    0    0  0.00000000000E+00  0.00000000000E+00  0.81288637915E+03  0.21580166764E+04  0.19990627079E+04 0.  0.
        1    1    3    3  502    0  0.84892264334E+03 -0.52552607831E+03  0.45725626038E+03  0.10981487154E+04  0.50400001928E-02 0.  1.
       -1    1    3    3    0  502 -0.84892264334E+03  0.52552607831E+03  0.35563011877E+03  0.10598679610E+04  0.50400001928E-02 0. -1.
</event>
<event>
 5   0  0.2859625E-05  0.2005890E+04  0.7818609E-02  0.8603872E-01
        3   -1    0    0  501    0  0.00000000000E+00  0.00000000000E+00  0.73726963742E+03  0.73726964433E+03  0.10100000352E+00 0. -1.
       -3   -1    0    0    0  501  0.00000000000E+00  0.00000000000E+00 -0.13643570715E+04  0.13643570753E+04  0.10100000352E+00 0.  1.
    10030    2    1    2    0    0  0.00000000000E+00  0.00000000000E+00 -0.62708743413E+03  0.21016267196E+04  0.20058903805E+04 0.  0.
        5    1    3    3  502    0 -0.80675444222E+03 -0.56835721414E+03 -0.12613716448E+03  0.99489463119E+03  0.46999998093E+01 0. -1.
       -5    1    3    3    0  502  0.80675444222E+03  0.56835721414E+03 -0.50095026965E+03  0.11067320884E+04  0.46999998093E+01 0.  1.
</event>
<event>
 5   0  0.7935008E-05  0.2006587E+04  0.7818609E-02  0.8603547E-01
       -2   -1    0    0    0  501  0.00000000000E+00  0.00000000000E+00  0.78952615483E+03  0.78952615483E+03  0.25500000920E-02 0. -1.
        2   -1    0    0  501    0  0.00000000000E+00  0.00000000000E+00 -0.12749396105E+04  0.12749396105E+04  0.25500000920E-02 0.  1.
    10030    2    1    2    0    0  0.00000000000E+00  0.00000000000E+00 -0.48541345570E+03  0.20644657654E+04  0.20065873201E+04 0.  0.
        3    1    3    3  502    0 -0.54198536855E+03  0.33239548359E+03  0.55580051495E+03  0.84448156869E+03  0.10100000352E+00 0. -1.
       -3    1    3    3    0  502  0.54198536855E+03 -0.33239548359E+03 -0.10412139707E+04  0.12199841967E+04  0.10100000352E+00 0.  1.
</event>
<event>
 5   0  0.8011197E-05  0.2001884E+04  0.7818609E-02  0.8605740E-01
        2   -1    0    0  501    0  0.00000000000E+00  0.00000000000E+00  0.10109584254E+04  0.10109584254E+04  0.25500000920E-02 0.  1.
       -2   -1    0    0    0  501  0.00000000000E+00  0.00000000000E+00 -0.99102478320E+03  0.99102478321E+03  0.25500000920E-02 0. -1.
    10030    2    1    2    0    0  0.00000000000E+00  0.00000000000E+00  0.19933642219E+02  0.20019832086E+04  0.20018839671E+04 0.  0.
        5    1    3    3  502    0  0.18958317199E+03 -0.46482291651E+02  0.99172847208E+03  0.10107669538E+04  0.46999998093E+01 0.  1.
       -5    1    3    3    0  502 -0.18958317199E+03  0.46482291651E+02 -0.97179482986E+03  0.99121625485E+03  0.46999998093E+01 0. -1.
</event>
<event>
 5   0  0.7857136E-05  0.2004268E+04  0.7818609E-02  0.8604628E-01
        2   -1    0    0  501    0  0.00000000000E+00  0.00000000000E+00  0.11843317919E+04  0.11843317919E+04  0.25500000920E-02 0.  1.
       -2   -1    0    0    0  501  0.00000000000E+00  0.00000000000E+00 -0.84796562192E+03  0.84796562192E+03  0.25500000920E-02 0. -1.
    10030    2    1    2    0    0  0.00000000000E+00  0.00000000000E+00  0.33636616995E+03  0.20322974138E+04  0.20042680903E+04 0.  0.
        4    1    3    3  502    0  0.72887675634E+03  0.16213915563E+03 -0.50953557303E+03  0.90397928339E+03  0.12699999809E+01 0. -1.
       -4    1    3    3    0  502 -0.72887675634E+03 -0.16213915563E+03  0.84590174298E+03  0.11283181304E+04  0.12699999809E+01 0.  1.
</event>
<event>
 5   0  0.8022574E-05  0.2013173E+04  0.7818609E-02  0.8600486E-01
       -2   -1    0    0    0  501  0.00000000000E+00  0.00000000000E+00  0.89465160141E+03  0.89465160142E+03  0.25500000920E-02 0. -1.
        2   -1    0    0  501    0  0.00000000000E+00  0.00000000000E+00 -0.11325263762E+04  0.11325263762E+04  0.25500000920E-02 0.  1.
    10030    2    1    2    0    0  0.00000000000E+00  0.00000000000E+00 -0.23787477480E+03  0.20271779776E+04  0.20131731531E+04 0.  0.
        1    1    3    3  502    0  0.51011855575E+03 -0.83578723019E+03  0.11604257556E+03  0.98601577798E+03  0.50400001928E-02 0.  1.
       -1    1    3    3    0  502 -0.51011855575E+03  0.83578723019E+03 -0.35391735035E+03  0.10411621996E+04  0.50400001928E-02 0. -1.
</event>
<event>
 5   0  0.3772949E-05  0.2000756E+04  0.7818609E-02  0.8606267E-01
        1   -1    0    0  501    0  0.00000000000E+00  0.00000000000E+00  0.13469459407E+04  0.13469459407E+04  0.50400001928E-02 0.  1.
       -1   -1    0    0    0  501  0.00000000000E+00  0.00000000000E+00 -0.74298202676E+03  0.74298202678E+03  0.50400001928E-02 0. -1.
    10030    2    1    2    0    0  0.00000000000E+00  0.00000000000E+00  0.60396391395E+03  0.20899279675E+04  0.20007564819E+04 0.  0.
        2    1    3    3  502    0  0.46738362526E+03  0.19309240356E+03  0.12035995164E+04  0.13055205573E+04  0.25500000920E-02 0.  1.
       -2    1    3    3    0  502 -0.46738362526E+03 -0.19309240356E+03 -0.59963560247E+03  0.78440741024E+03  0.25500000920E-02 0. -1.
</event>
<event>
 5   0  0.3970042E-05  0.1983570E+04  0.7818609E-02  0.8614341E-01
       -1   -1    0    0    0  501  0.00000000000E+00  0.00000000000E+00  0.13793885387E+04  0.13793885387E+04  0.50400001928E-02 0.  1.
        1   -1    0    0  501    0  0.00000000000E+00  0.00000000000E+00 -0.71309678939E+03  0.71309678940E+03  0.50400001928E-02 0. -1.
    10030    2    1    2    0    0  0.00000000000E+00  0.00000000000E+00  0.66629174928E+03  0.20924853281E+04  0.19835700525E+04 0.  0.
        3    1    3    3  502    0 -0.50073228885E+03  0.50591724051E+03  0.10616842286E+04  0.12782247419E+04  0.10100000352E+00 0.  1.
       -3    1    3    3    0  502  0.50073228885E+03 -0.50591724051E+03 -0.39539247930E+03  0.81426058620E+03  0.10100000352E+00 0. -1.
</event>
<event>
 5   0  0.7935008E-05  0.1999414E+04  0.7818609E-02  0.8606895E-01
        2   -1    0    0  501    0  0.00000000000E+00  0.00000000000E+00  0.98142705481E+03  0.98142705482E+03  0.25500000920E-02 0. -1.
       -2   -1    0    0    0  501  0.00000000000E+00  0.00000000000E+00 -0.10183274551E+04  0.10183274551E+04  0.25500000920E-02 0.  1.
    10030    2    1    2    0    0  0.00000000000E+00  0.00000000000E+00 -0.36900400297E+02  0.19997545099E+04  0.19994140293E+04 0.  0.
        3    1    3    3  502    0 -0.55125539267E+03 -0.19707198429E+03  0.79205452299E+03  0.98492144485E+03  0.10100000352E+00 0. -1.
       -3    1    3    3    0  502  0.55125539267E+03  0.19707198429E+03 -0.82895492329E+03  0.10148330651E+04  0.10100000352E+00 0.  1.
</event>
<event>
 5   0  0.7935008E-05  0.2021649E+04  0.7818609E-02  0.8596566E-01
        2   -1    0    0  501    0  0.00000000000E+00  0.00000000000E+00  0.10533674913E+04  0.10533674913E+04  0.25500000920E-02 0. -1.
       -2   -1    0    0    0  501  0.00000000000E+00  0.00000000000E+00 -0.96999947963E+03  0.96999947963E+03  0.25500000920E-02 0.  1.
    10030    2    1    2    0    0  0.00000000000E+00  0.00000000000E+00  0.83368011694E+02  0.20233669710E+04  0.20216487513E+04 0.  0.
        3    1    3    3  502    0 -0.31464727042E+03 -0.58230735623E+03 -0.72295559614E+03  0.98017833382E+03  0.10100000352E+00 0.  1.
       -3    1    3    3    0  502  0.31464727042E+03  0.58230735623E+03  0.80632360783E+03  0.10431886371E+04  0.10100000352E+00 0. -1.
</event>
<event>
 5   0  0.3772949E-05  0.1995282E+04  0.7818609E-02  0.8608829E-01
       -1   -1    0    0    0  501  0.00000000000E+00  0.00000000000E+00  0.74702953238E+03  0.74702953240E+03  0.50400001928E-02 0.  1.
        1   -1    0    0  501    0  0.00000000000E+00  0.00000000000E+00 -0.13323274852E+04  0.13323274852E+04  0.50400001928E-02 0. -1.
    10030    2    1    2    0    0  0.00000000000E+00  0.00000000000E+00 -0.58529795282E+03  0.20793570176E+04  0.19952824144E+04 0.  0.
        2    1    3    3  502    0 -0.19796759482E+03 -0.77234223047E+03 -0.91756986480E+03  0.12155814026E+04  0.25500000920E-02 0. -1.
       -2    1    3    3    0  502  0.19796759482E+03  0.77234223047E+03  0.33227191198E+03  0.86377561500E+03  0.25500000920E-02 0.  1.
</event>
<event>
 5   0  0.3818907E-05  0.2022266E+04  0.7818609E-02  0.8596281E-01
       -1   -1    0    0    0  501  0.00000000000E+00  0.00000000000E+00  0.87941453560E+03  0.87941453562E+03  0.50400001928E-02 0.  1.
        1   -1    0    0  501    0  0.00000000000E+00  0.00000000000E+00 -0.11625806779E+04  0.11625806779E+04  0.50400001928E-02 0. -1.
    10030    2    1    2    0    0  0.00000000000E+00  0.00000000000E+00 -0.28316614229E+03  0.20419952135E+04  0.20222663988E+04 0.  0.
        1    1    3    3  502    0  0.92151054534E+02  0.11943902382E+03 -0.11511534822E+04  0.11609960538E+04  0.50400001928E-02 0. -1.
       -1    1    3    3    0  502 -0.92151054534E+02 -0.11943902382E+03  0.86798733989E+03  0.88099915976E+03  0.50400001928E-02 0.  1.
</event>
<event>
 5   0  0.8011197E-05  0.2016348E+04  0.7818609E-02  0.8599016E-01
        2   -1    0    0  501    0  0.00000000000E+00  0.00000000000E+00  0.12806100615E+04  0.12806100615E+04  0.25500000920E-02 0. -1.
       -2   -1    0    0    0  501  0.00000000000E+00  0.00000000000E+00 -0.79369552128E+03  0.79369552128E+03  0.25500000920E-02 0.  1.
    10030    2    1    2    0    0  0.00000000000E+00  0.00000000000E+00  0.48691454020E+03  0.20743055828E+04  0.20163476588E+04 0.  0.
        5    1    3    3  502    0  0.81373388415E+03  0.31608240239E+03 -0.27534136613E+03  0.91537198844E+03  0.46999998093E+01 0.  1.
       -5    1    3    3    0  502 -0.81373388415E+03 -0.31608240239E+03  0.76225590633E+03  0.11589335943E+04  0.46999998093E+01 0. -1.
</event>
<event>
 5   0  0.3787698E-05  0.1997820E+04  0.7818609E-02  0.8607640E-01
       -1   -1    0    0    0  501  0.00000000000E+00  0.00000000000E+00  0.18868450022E+04  0.18868450022E+04  0.50400001928E-02 0.  1.
        1   -1    0    0  501    0  0.00000000000E+00  0.00000000000E+00 -0.52883062816E+03  0.52883062818E+03  0.50400001928E-02 0. -1.
    10030    2    1    2    0    0  0.00000000000E+00  0.00000000000E+00  0.13580143740E+04  0.24156756304E+04  0.19978202400E+04 0.  0.
        4    1    3    3  502    0 -0.21101131594E+03 -0.96209864110E+03  0.47790804637E+03  0.10947864104E+04  0.12699999809E+01 0. -1.
       -4    1    3    3    0  502  0.21101131594E+03  0.96209864110E+03  0.88010632767E+03  0.13208892200E+04  0.12699999809E+01 0.  1.
</event>
<event>
 5   0  0.3818907E-05  0.2009654E+04  0.7818609E-02  0.8602120E-01
       -1   -1    0    0    0  501  0.00000000000E+00  0.00000000000E+00  0.95104909142E+03  0.95104909143E+03  0.50400001928E-02 0.  1.
        1   -1    0    0  501    0  0.00000000000E+00  0.00000000000E+00 -0.10616461399E+04  0.10616461399E+04  0.50400001928E-02 0. -1.
    10030    2    1    2    0    0  0.00000000000E+00  0.00000000000E+00 -0.11059704852E+03  0.20126952314E+04  0.20096542955E+04 0.  0.
        1    1    3    3  502    0 -0.74023026253E+03 -0.18736175883E+03  0.59886080839E+03  0.97040174057E+03  0.50400001928E-02 0.  1.
       -1    1    3    3    0  502  0.74023026253E+03  0.18736175883E+03 -0.70945785691E+03  0.10422934908E+04  0.50400001928E-02 0. -1.
</event>
<event>
 5   0  0.7857136E-05  0.2001949E+04  0.7818609E-02  0.8605710E-01
       -2   -1    0    0    0  501  0.00000000000E+00  0.00000000000E+00  0.10643627148E+04  0.10643627148E+04  0.25500000920E-02 0.  1.
        2   -1    0    0  501    0  0.00000000000E+00  0.00000000000E+00 -0.94136091041E+03  0.94136091042E+03  0.25500000920E-02 0. -1.
    10030    2    1    2    0    0  0.00000000000E+00  0.00000000000E+00  0.12300180440E+03  0.20057236252E+04  0.20019485051E+04 0.  0.
        4    1    3    3  502    0  0.18352289227E+03 -0.77163801795E+03 -0.55025839496E+03  0.96534542877E+03  0.12699999809E+01 0. -1.
       -4    1    3    3    0  502 -0.18352289227E+03  0.77163801795E+03  0.67326019936E+03  0.10403781965E+04  0.12699999809E+01 0.  1.
</event>
<event>
 5   0  0.3818907E-05  0.2004467E+04  0.7818609E-02  0.8604535E-01
        1   -1    0    0  501    0  0.00000000000E+00  0.00000000000E+00  0.68342806346E+03  0.68342806348E+03  0.50400001928E-02 0. -1.
       -1   -1    0    0    0  501  0.00000000000E+00  0.00000000000E+00 -0.14697554607E+04  0.14697554607E+04  0.50400001928E-02 0.  1.
    10030    2    1    2    0    0  0.00000000000E+00  0.00000000000E+00 -0.78632739722E+03  0.21531835242E+04  0.20044671394E+04 0.  0.
        1    1    3    3  502    0 -0.33091786971E+03 -0.90774031872E+03 -0.10699066620E+03  0.97208339426E+03  0.50400001928E-02 0.  1.
       -1    1    3    3    0  502  0.33091786971E+03  0.90774031872E+03 -0.67933673102E+03  0.11811001299E+04  0.50400001928E-02 0. -1.
</event>
<event>
 5   0  0.3818907E-05  0.1965988E+04  0.7818609E-02  0.8622690E-01
        1   -1    0    0  501    0  0.00000000000E+00  0.00000000000E+00  0.65594221356E+03  0.65594221358E+03  0.50400001928E-02 0. -1.
       -1   -1    0    0    0  501  0.00000000000E+00  0.00000000000E+00 -0.14731130270E+04  0.14731130270E+04  0.50400001928E-02 0.  1.
    10030    2    1    2    0    0  0.00000000000E+00  0.00000000000E+00 -0.81717081340E+03  0.21290552406E+04  0.19659878125E+04 0.  0.
        1    1    3    3  502    0 -0.80212059580E+02 -0.16165392228E+03  0.63784983874E+03  0.66288640196E+03  0.50400001928E-02 0. -1.
       -1    1    3    3    0  502  0.80212059580E+02  0.16165392228E+03 -0.14550206521E+04  0.14661688386E+04  0.50400001928E-02 0.  1.
</event>
<event>
 5   0  0.3818907E-05  0.1986506E+04  0.7818609E-02  0.8612956E-01
       -1   -1    0    0    0  501  0.00000000000E+00  0.00000000000E+00  0.86527051973E+03  0.86527051975E+03  0.50400001928E-02 0.  1.
        1   -1    0    0  501    0  0.00000000000E+00  0.00000000000E+00 -0.11401656333E+04  0.11401656333E+04  0.50400001928E-02 0. -1.
    10030    2    1    2    0    0  0.00000000000E+00  0.00000000000E+00 -0.27489511359E+03  0.20054361531E+04  0.19865061894E+04 0.  0.
        1    1    3    3  502    0 -0.40625690272E+03 -0.78760995744E+03  0.31535484561E+03  0.94065019786E+03  0.50400001928E-02 0.  1.
       -1    1    3    3    0  502  0.40625690272E+03  0.78760995744E+03 -0.59024995919E+03  0.10647859552E+04  0.50400001928E-02 0. -1.
</event>
<event>
 5   0  0.3549426E-05  0.1989290E+04  0.7818609E-02  0.8611644E-01
        1   -1    0    0  501    0  0.00000000000E+00  0.00000000000E+00  0.17902011135E+04  0.17902011135E+04  0.50400001928E-02 0.  1.
       -1   -1    0    0    0  501  0.00000000000E+00  0.00000000000E+00 -0.55262990633E+03  0.55262990635E+03  0.50400001928E-02 0. -1.
    10030    2    1    2    0    0  0.00000000000E+00  0.00000000000E+00  0.12375712072E+04  0.23428310199E+04  0.19892899977E+04 0.  0.
        5    1    3    3  502    0 -0.70600389116E+03 -0.55494814429E+03  0.11224428100E+04  0.14374661348E+04  0.46999998093E+01 0.  1.
       -5    1    3    3    0  502  0.70600389116E+03  0.55494814429E+03  0.11512839722E+03  0.90536488502E+03  0.46999998093E+01 0. -1.
</event>
<event>
 5   0  0.3549426E-05  0.2065418E+04  0.7818609E-02  0.8576632E-01
       -1   -1    0    0    0  501  0.00000000000E+00  0.00000000000E+00  0.62904747717E+03  0.62904747719E+03  0.50400001928E-02 0. -1.
        1   -1    0    0  501    0  0.00000000000E+00  0.00000000000E+00 -0.16954009747E+04  0.16954009747E+04  0.50400001928E-02 0.  1.
    10030    2    1    2    0    0  0.00000000000E+00  0.00000000000E+00 -0.10663534975E+04  0.23244484519E+04  0.20654178327E+04 0.  0.
        5    1    3    3  502    0 -0.42396779792E+03 -0.83321026241E+03 -0.39432473774E+02  0.93571632723E+03  0.46999998093E+01 0. -1.
       -5    1    3    3    0  502  0.42396779792E+03  0.83321026241E+03 -0.10269210237E+04  0.13887321247E+04  0.46999998093E+01 0.  1.
</event>
<event>
 5   0  0.3772949E-05  0.1993527E+04  0.7818609E-02  0.8609653E-01
       -1   -1    0    0    0  501  0.00000000000E+00  0.00000000000E+00  0.44708749254E+03  0.44708749256E+03  0.50400001928E-02 0.  1.
        1   -1    0    0  501    0  0.00000000000E+00  0.00000000000E+00 -0.22222444256E+04  0.22222444256E+04  0.50400001928E-02 0. -1.
    10030    2    1    2    0    0  0.00000000000E+00  0.00000000000E+00 -0.17751569330E+04  0.26693319181E+04  0.19935272138E+04 0.  0.
        2    1    3    3  502    0  0.88426519340E+03 -0.98957165854E+02 -0.28604088588E+03  0.93463192827E+03  0.25500000920E-02 0.  1.
       -2    1    3    3    0  502 -0.88426519340E+03  0.98957165854E+02 -0.14891160471E+04  0.17346999899E+04  0.25500000920E-02 0. -1.
</event>
<event>
 5   0  0.3772949E-05  0.1975099E+04  0.7818609E-02  0.8618352E-01
       -1   -1    0    0    0  501  0.00000000000E+00  0.00000000000E+00  0.10245856231E+04  0.10245856231E+04  0.50400001928E-02 0. -1.
        1   -1    0    0  501    0  0.00000000000E+00  0.00000000000E+00 -0.95185196891E+03  0.95185196892E+03  0.50400001928E-02 0.  1.
    10030    2    1    2    0    0  0.00000000000E+00  0.00000000000E+00  0.72733654146E+02  0.19764375920E+04  0.19750988255E+04 0.  0.
        2    1    3    3  502    0 -0.44079475879E+03  0.32085479642E+03 -0.78760251088E+03  0.95789641137E+03  0.25500000920E-02 0.  1.
       -2    1    3    3    0  502  0.44079475879E+03 -0.32085479642E+03  0.86033616502E+03  0.10185411806E+04  0.25500000920E-02 0. -1.
</event>
<event>
 5   0  0.3772949E-05  0.1999212E+04  0.7818609E-02  0.8606989E-01
       -1   -1    0    0    0  501  0.00000000000E+00  0.00000000000E+00  0.95202066648E+03  0.95202066649E+03  0.50400001928E-02 0.  1.
        1   -1    0    0  501    0  0.00000000000E+00  0.00000000000E+00 -0.10495696537E+04  0.10495696537E+04  0.50400001928E-02 0. -1.
    10030    2    1    2    0    0  0.00000000000E+00  0.00000000000E+00 -0.97548987172E+02  0.20015903202E+04  0.19992118459E+04 0.  0.
        2    1    3    3  502    0  0.59685888381E+03 -0.64309559602E+03 -0.52830101950E+03  0.10241652406E+04  0.25500000920E-02 0. -1.
       -2    1    3    3    0  502 -0.59685888381E+03  0.64309559602E+03  0.43075203233E+03  0.97742507957E+03  0.25500000920E-02 0.  1.
</event>
<event>
 5   0  0.8011197E-05  0.1999821E+04  0.7818609E-02  0.8606704E-01
        2   -1    0    0  501    0  0.00000000000E+00  0.00000000000E+00  0.15470605062E+04  0.15470605063E+04  0.25500000920E-02 0. -1.
       -2   -1    0    0    0  501  0.00000000000E+00  0.00000000000E+00 -0.64627125764E+03  0.64627125765E+03  0.25500000920E-02 0.  1.
    10030    2    1    2    0    0  0.00000000000E+00  0.00000000000E+00  0.90078924861E+03  0.21933317639E+04  0.19998207310E+04 0.  0.
        5    1    3    3  502    0  0.85832989879E+03 -0.31533575254E+03  0.67378554265E+01  0.91445849588E+03  0.46999998093E+01 0.  1.
       -5    1    3    3    0  502 -0.85832989879E+03  0.31533575254E+03  0.89405139318E+03  0.12788732680E+04  0.46999998093E+01 0. -1.
</event>
<event>
 5   0  0.3818907E-05  0.2037966E+04  0.7818609E-02  0.8589073E-01
        1   -1    0    0  501    0  0.00000000000E+00  0.00000000000E+00  0.21200774405E+04  0.21200774405E+04  0.50400001928E-02 0.  1.
       -1   -1    0    0    0  501  0.00000000000E+00  0.00000000000E+00 -0.48975892714E+03  0.48975892716E+03  0.50400001928E-02 0. -1.
    10030    2    1    2    0    0  0.00000000000E+00  0.00000000000E+00  0.16303185134E+04  0.26098363677E+04  0.20379664892E+04 0.  0.
        1    1    3    3  502    0 -0.71956298224E+03 -0.34575186004E+03  0.16261104515E+04  0.18115050192E+04  0.50400001928E-02 0.  1.
       -1    1    3    3    0  502  0.71956298224E+03  0.34575186004E+03  0.42080618635E+01  0.79833134846E+03  0.50400001928E-02 0. -1.
</event>
<event>
 5   0  0.2859625E-05  0.2066033E+04  0.7818609E-02  0.8576356E-01
        3   -1    0    0  501    0  0.00000000000E+00  0.00000000000E+00  0.12678933474E+04  0.12678933514E+04  0.10100000352E+00 0. -1.
       -3   -1    0    0    0  501  0.00000000000E+00  0.00000000000E+00 -0.84165026421E+03  0.84165027027E+03  0.10100000352E+00 0.  1.
    10030    2    1    2    0    0  0.00000000000E+00  0.00000000000E+00  0.42624308319E+03  0.21095436217E+04  0.20660327020E+04 0.  0.
        2    1    3    3  502    0  0.16902058658E+03 -0.38660014619E+03 -0.74965486560E+03  0.86023836769E+03  0.25500000920E-02 0.  1.
       -2    1    3    3    0  502 -0.16902058658E+03  0.38660014619E+03  0.11758979488E+04  0.12493052540E+04  0.25500000920E-02 0. -1.
</event>
<event>
 5   0  0.7935008E-05  0.1989366E+04  0.7818609E-02  0.8611609E-01
        2   -1    0    0  501    0  0.00000000000E+00  0.00000000000E+00  0.82532351931E+03  0.82532351932E+03  0.25500000920E-02 0.  1.
       -2   -1    0    0    0  501  0.00000000000E+00  0.00000000000E+00 -0.11987952721E+04  0.11987952721E+04  0.25500000920E-02 0. -1.
    10030    2    1    2    0    0  0.00000000000E+00  0.00000000000E+00 -0.37347175276E+03  0.20241187914E+04  0.19893656606E+04 0.  0.
        3    1    3    3  502    0 -0.92572344275E+03 -0.29977278785E+03  0.23184385961E+02  0.97332684272E+03  0.10100000352E+00 0.  1.
       -3    1    3    3    0  502  0.92572344275E+03  0.29977278785E+03 -0.39665613872E+03  0.10507919487E+04  0.10100000352E+00 0. -1.
</event>
<event>
 5   0  0.3787698E-05  0.1982710E+04  0.7818609E-02  0.8614747E-01
       -1   -1    0    0    0  501  0.00000000000E+00  0.00000000000E+00  0.63972590703E+03  0.63972590705E+03  0.50400001928E-02 0. -1.
        1   -1    0    0  501    0  0.00000000000E+00  0.00000000000E+00 -0.15362594072E+04  0.15362594072E+04  0.50400001928E-02 0.  1.
    10030    2    1    2    0    0  0.00000000000E+00  0.00000000000E+00 -0.89653350020E+03  0.21759853143E+04  0.19827102085E+04 0.  0.
        4    1    3    3  502    0  0.51400032559E+03  0.84711502277E+03 -0.48267819679E+03  0.11021706089E+04  0.12699999809E+01 0.  1.
       -4    1    3    3    0  502 -0.51400032559E+03 -0.84711502277E+03 -0.41385530341E+03  0.10738147054E+04  0.12699999809E+01 0. -1.
</event>
<event>
 5   0  0.7857136E-05  0.2006125E+04  0.7818609E-02  0.8603762E-01
       -2   -1    0    0    0  501  0.00000000000E+00  0.00000000000E+00  0.13245772343E+04  0.13245772343E+04  0.25500000920E-02 0.  1.
        2   -1    0    0  501    0  0.00000000000E+00  0.00000000000E+00 -0.75958913395E+03  0.75958913395E+03  0.25500000920E-02 0. -1.
    10030    2    1    2    0    0  0.00000000000E+00  0.00000000000E+00  0.56498810035E+03  0.20841663682E+04  0.20061250951E+04 0.  0.
        4    1    3    3  502    0 -0.16565808654E+03 -0.98878243590E+03  0.24964842426E+03  0.10331791983E+04  0.12699999809E+01 0. -1.
       -4    1    3    3    0  502  0.16565808654E+03  0.98878243590E+03  0.31533967609E+03  0.10509871699E+04  0.12699999809E+01 0.  1.
</event>
<event>
 5   0  0.8022574E-05  0.1989348E+04  0.7818609E-02  0.8611617E-01
       -2   -1    0    0    0  501  0.00000000000E+00  0.00000000000E+00  0.84266878258E+03  0.84266878258E+03  0.25500000920E-02 0.  1.
        2   -1    0    0  501    0  0.00000000000E+00  0.00000000000E+00 -0.11740982728E+04  0.11740982728E+04  0.25500000920E-02 0. -1.
    10030    2    1    2    0    0  0.00000000000E+00  0.00000000000E+00 -0.33142949020E+03  0.20167670554E+04  0.19893475937E+04 0.  0.
        1    1    3    3  502    0 -0.48454407039E+03 -0.73613536159E+03  0.30183357230E+03  0.93154802996E+03  0.50400001928E-02 0.  1.
       -1    1    3    3    0  502  0.48454407039E+03  0.73613536159E+03 -0.63326306250E+03  0.10852190254E+04  0.50400001928E-02 0. -1.
</event>
<event>
 5   0  0.3970042E-05  0.2008513E+04  0.7818609E-02  0.8602651E-01
       -1   -1    0    0    0  501  0.00000000000E+00  0.00000000000E+00  0.92419608842E+03  0.92419608843E+03  0.50400001928E-02 0.  1.
        1   -1    0    0  501    0  0.00000000000E+00  0.00000000000E+00 -0.10912519202E+04  0.10912519203E+04  0.50400001928E-02 0. -1.
    10030    2    1    2    0    0  0.00000000000E+00  0.00000000000E+00 -0.16705583183E+03  0.20154480087E+04  0.20085126399E+04 0.  0.
        3    1    3    3  502    0 -0.33482746161E+03  0.78150994054E+03  0.45279262342E+03  0.96326963319E+03  0.10100000352E+00 0.  1.
       -3    1    3    3    0  502  0.33482746161E+03 -0.78150994054E+03 -0.61984845525E+03  0.10521783755E+04  0.10100000352E+00 0. -1.
</event>
<event>
 5   0  0.7935008E-05  0.2004588E+04  0.7818609E-02  0.8604479E-01
        2   -1    0    0  501    0  0.00000000000E+00  0.00000000000E+00  0.13351243714E+04  0.13351243714E+04  0.25500000920E-02 0.  1.
       -2   -1    0    0    0  501  0.00000000000E+00  0.00000000000E+00 -0.75243397435E+03  0.75243397435E+03  0.25500000920E-02 0. -1.
    10030    2    1    2    0    0  0.00000000000E+00  0.00000000000E+00  0.58269039709E+03  0.20875583458E+04  0.20045876754E+04 0.  0.
        3    1    3    3  502    0  0.39581439832E+03 -0.87694955154E+03 -0.11416228849E+01  0.96213869445E+03  0.10100000352E+00 0. -1.
       -3    1    3    3    0  502 -0.39581439832E+03  0.87694955154E+03  0.58383201997E+03  0.11254196513E+04  0.10100000352E+00 0.  1.
</event>
<event>
 5   0  0.3787698E-05  0.2002304E+04  0.7818609E-02  0.8605544E-01
       -1   -1    0    0    0  501  0.00000000000E+00  0.00000000000E+00  0.57259735951E+03  0.57259735953E+03  0.50400001928E-02 0.  1.
        1   -1    0    0  501    0  0.00000000000E+00  0.00000000000E+00 -0.17504538559E+04  0.17504538559E+04  0.50400001928E-02 0. -1.
    10030    2    1    2    0    0  0.00000000000E+00  0.00000000000E+00 -0.11778564964E+04  0.23230512154E+04  0.20023039288E+04 0.  0.
        4    1    3    3  502    0  0.10022235489E+03  0.93999740070E+03 -0.97137559060E+03  0.13554378572E+04  0.12699999809E+01 0. -1.
       -4    1    3    3    0  502 -0.10022235489E+03 -0.93999740070E+03 -0.20648090580E+03  0.96761335827E+03  0.12699999809E+01 0.  1.
</event>
<event>
 5   0  0.7843846E-05  0.2008057E+04  0.7818609E-02  0.8602863E-01
        2   -1    0    0  501    0  0.00000000000E+00  0.00000000000E+00  0.15303030896E+04  0.15303030896E+04  0.25500000920E-02 0.  1.
       -2   -1    0    0    0  501  0.00000000000E+00  0.00000000000E+00 -0.65874092005E+03  0.65874092006E+03  0.25500000920E-02 0. -1.
    10030    2    1    2    0    0  0.00000000000E+00  0.00000000000E+00  0.87156216951E+03  0.21890440096E+04  0.20080570362E+04 0.  0.
        2    1    3    3  502    0 -0.15110382949E+03  0.99246416110E+03  0.41834626214E+03  0.10875803756E+04  0.25500000920E-02 0.  1.
       -2    1    3    3    0  502  0.15110382949E+03 -0.99246416110E+03  0.45321590737E+03  0.11014636340E+04  0.25500000920E-02 0. -1.
</event>
<event>
 5   0  0.3787698E-05  0.1995278E+04  0.7818609E-02  0.8608831E-01
        1   -1    0    0  501    0  0.00000000000E+00  0.00000000000E+00  0.13343646873E+04  0.13343646873E+04  0.50400001928E-02 0.  1.
       -1   -1    0    0    0  501  0.00000000000E+00  0.00000000000E+00 -0.74588582350E+03  0.74588582351E+03  0.50400001928E-02 0. -1.
    10030    2    1    2    0    0  0.00000000000E+00  0.00000000000E+00  0.58847886384E+03  0.20802505109E+04  0.19952781297E+04 0.  0.
        4    1    3    3  502    0 -0.24102117420E+03  0.79965425985E+03 -0.27465759902E+03  0.87919085034E+03  0.12699999809E+01 0. -1.
       -4    1    3    3    0  502  0.24102117420E+03 -0.79965425985E+03  0.86313646286E+03  0.12010596605E+04  0.12699999809E+01 0.  1.
</event>
<event>
 5   0  0.3787698E-05  0.1995065E+04  0.7818609E-02  0.8608932E-01
       -1   -1    0    0    0  501  0.00000000000E+00  0.00000000000E+00  0.85674397777E+03  0.85674397779E+03  0.50400001928E-02 0. -1.
        1   -1    0    0  501    0  0.00000000000E+00  0.00000000000E+00 -0.11614564490E+04  0.11614564490E+04  0.50400001928E-02 0.  1.
    10030    2    1    2    0    0  0.00000000000E+00  0.00000000000E+00 -0.30471247119E+03  0.20182004268E+04  0.19950647289E+04 0.  0.
        4    1    3    3  502    0  0.91890851117E+03  0.21575095442E+03 -0.47878679859E+03  0.10583854391E+04  0.12699999809E+01 0.  1.
       -4    1    3    3    0  502 -0.91890851117E+03 -0.21575095442E+03  0.17407432739E+03  0.95981498769E+03  0.12699999809E+01 0. -1.
</event>
<event>
 5   0  0.3772949E-05  0.2004803E+04  0.7818609E-02  0.8604378E-01
        1   -1    0    0  501    0  0.00000000000E+00  0.00000000000E+00  0.33138600070E+03  0.33138600074E+03  0.50400001928E-02 0.  1.
       -1   -1    0    0    0  501  0.00000000000E+00  0.00000000000E+00 -0.30321414054E+04  0.30321414054E+04  0.50400001928E-02 0. -1.
    10030    2    1    2    0    0  0.00000000000E+00  0.00000000000E+00 -0.27007554047E+04  0.33635274061E+04  0.20048034457E+04 0.  0.
        2    1    3    3  502    0 -0.29166777969E+03 -0.13713633804E+02 -0.29592111788E+04  0.29735818398E+04  0.25500000920E-02 0. -1.
       -2    1    3    3    0  502  0.29166777969E+03  0.13713633804E+02  0.25845577414E+03  0.38994556627E+03  0.25500000920E-02 0.  1.
</event>
<event>
 5   0  0.7843846E-05  0.1992021E+04  0.7818609E-02  0.8610360E-01
       -2   -1    0    0    0  501  0.00000000000E+00  0.00000000000E+00  0.14823353849E+04  0.14823353849E+04  0.25500000920E-02 0.  1.
        2   -1    0    0  501    0  0.00000000000E+00  0.00000000000E+00 -0.66923933458E+03  0.66923933459E+03  0.25500000920E-02 0. -1.
    10030    2    1    2    0    0  0.00000000000E+00  0.00000000000E+00  0.81309605036E+03  0.21515747195E+04  0.19920212315E+04 0.  0.
        2    1    3    3  502    0 -0.46922249597E+03 -0.87366567989E+03  0.50657028090E+03  0.11135865123E+04  0.25500000920E-02 0. -1.
       -2    1    3    3    0  502  0.46922249597E+03  0.87366567989E+03  0.30652576946E+03  0.10379882072E+04  0.25500000920E-02 0.  1.
</event>
<event>
 5   0  0.8022574E-05  0.1993636E+04  0.7818609E-02  0.8609602E-01
        2   -1    0    0  501    0  0.00000000000E+00  0.00000000000E+00  0.23224147626E+04  0.23224147626E+04  0.25500000920E-02 0. -1.
       -2   -1    0    0    0  501  0.00000000000E+00  0.00000000000E+00 -0.42785057393E+03  0.42785057394E+03  0.25500000920E-02 0.  1.
    10030    2    1    2    0    0  0.00000000000E+00  0.00000000000E+00  0.18945641887E+04  0.27502653366E+04  0.19936363652E+04 0.  0.
        1    1    3    3  502    0  0.61780466053E+02 -0.67484333087E+03  0.19557647467E+04  0.20698420451E+04  0.50400001928E-02 0. -1.
       -1    1    3    3    0  502 -0.61780466053E+02  0.67484333087E+03 -0.61200558041E+02  0.68042329144E+03  0.50400001928E-02 0.  1.
</event>
<event>
 5   0  0.8011197E-05  0.1964063E+04  0.7818609E-02  0.8623609E-01
        2   -1    0    0  501    0  0.00000000000E+00  0.00000000000E+00  0.10927828397E+04  0.10927828397E+04  0.25500000920E-02 0. -1.
       -2   -1    0    0    0  501  0.00000000000E+00  0.00000000000E+00 -0.88250448752E+03  0.88250448752E+03  0.25500000920E-02 0.  1.
    10030    2    1    2    0    0  0.00000000000E+00  0.00000000000E+00  0.21027835220E+03  0.19752873272E+04  0.19640628910E+04 0.  0.
        5    1    3    3  502    0 -0.85609766205E+03  0.48040654120E+03  0.79106538682E+02  0.98487237054E+03  0.46999998093E+01 0. -1.
       -5    1    3    3    0  502  0.85609766205E+03 -0.48040654120E+03  0.13117181352E+03  0.99041495670E+03  0.46999998093E+01 0.  1.
</event>
<event>
 5   0  0.8022574E-05  0.1994554E+04  0.7818609E-02  0.8609171E-01
        2   -1    0    0  501    0  0.00000000000E+00  0.00000000000E+00  0.17427923794E+04  0.17427923794E+04  0.25500000920E-02 0.  1.
       -2   -1    0    0    0  501  0.00000000000E+00  0.00000000000E+00 -0.57067135257E+03  0.57067135257E+03  0.25500000920E-02 0. -1.
    10030    2    1    2    0    0  0.00000000000E+00  0.00000000000E+00  0.11721210268E+04  0.23134637320E+04  0.19945542704E+04 0.  0.
        1    1    3    3  502    0  0.96101424771E+03 -0.21239609573E+03  0.77273147676E+03  0.12513090829E+04  0.50400001928E-02 0.  1.
       -1    1    3    3    0  502 -0.96101424771E+03  0.21239609573E+03  0.39938955007E+03  0.10621546491E+04  0.50400001928E-02 0. -1.
</event>
<event>
 5   0  0.3818907E-05  0.1996005E+04  0.7818609E-02  0.8608491E-01
       -1   -1    0    0    0  501  0.00000000000E+00  0.00000000000E+00  0.64283740772E+03  0.64283740774E+03  0.50400001928E-02 0.  1.
        1   -1    0    0  501    0  0.00000000000E+00  0.00000000000E+00 -0.15493956101E+04  0.15493956101E+04  0.50400001928E-02 0. -1.
    10030    2    1    2    0    0  0.00000000000E+00  0.00000000000E+00 -0.90655820242E+03  0.21922330179E+04  0.19960054685E+04 0.  0.
        1    1    3    3  502    0  0.69974926417E+03 -0.31559533496E+03  0.24719827322E+03  0.80644679581E+03  0.50400001928E-02 0. -1.
       -1    1    3    3    0  502 -0.69974926417E+03  0.31559533496E+03 -0.11537564756E+04  0.13857862221E+04  0.50400001928E-02 0.  1.
</event>
<event>
 5   0  0.8011197E-05  0.2018208E+04  0.7818609E-02  0.8598155E-01
        2   -1    0    0  501    0  0.00000000000E+00  0.00000000000E+00  0.80138750583E+03  0.80138750583E+03  0.25500000920E-02 0. -1.
       -2   -1    0    0    0  501  0.00000000000E+00  0.00000000000E+00 -0.12706602549E+04  0.12706602549E+04  0.25500000920E-02 0.  1.
    10030    2    1    2    0    0  0.00000000000E+00  0.00000000000E+00 -0.46927274906E+03  0.20720477607E+04  0.20182083663E+04 0.  0.
        5    1    3    3  502    0  0.21862347348E+03 -0.30091221401E+03  0.72843069542E+03  0.81791060131E+03  0.46999998093E+01 0. -1.
       -5    1    3    3    0  502 -0.21862347348E+03  0.30091221401E+03 -0.11977034445E+04  0.12541371594E+04  0.46999998093E+01 0.  1.
</event>
<event>
 5   0  0.2859625E-05  0.1979173E+04  0.7818609E-02  0.8616420E-01
        3   -1    0    0  501    0  0.00000000000E+00  0.00000000000E+00  0.20310743819E+04  0.20310743844E+04  0.10100000352E+00 0. -1.
       -3   -1    0    0    0  501  0.00000000000E+00  0.00000000000E+00 -0.48214960379E+03  0.48214961437E+03  0.10100000352E+00 0.  1.
    10030    2    1    2    0    0  0.00000000000E+00  0.00000000000E+00  0.15489247781E+04  0.25132239987E+04  0.19791732869E+04 0.  0.
        1    1    3    3  502    0  0.74793879254E+03 -0.30423013409E+03  0.47973105268E+02  0.80886947694E+03  0.50400001928E-02 0. -1.
       -1    1    3    3    0  502 -0.74793879254E+03  0.30423013409E+03  0.15009516728E+04  0.17043545218E+04  0.50400001928E-02 0.  1.
</event>
<event>
 5   0  0.7857136E-05  0.1999224E+04  0.7818609E-02  0.8606983E-01
       -2   -1    0    0    0  501  0.00000000000E+00  0.00000000000E+00  0.58900140298E+03  0.58900140299E+03  0.25500000920E-02 0.  1.
        2   -1    0    0  501    0  0.00000000000E+00  0.00000000000E+00 -0.16964720401E+04  0.16964720401E+04  0.25500000920E-02 0. -1.
    10030    2    1    2    0    0  0.00000000000E+00  0.00000000000E+00 -0.11074706371E+04  0.22854734431E+04  0.19992242613E+04 0.  0.
        4    1    3    3  502    0  0.16096582994E+03 -0.36689173183E+03  0.49319754016E+03  0.63542502927E+03  0.12699999809E+01 0.  1.
       -4    1    3    3    0  502 -0.16096582994E+03  0.36689173183E+03 -0.16006681773E+04  0.16500484138E+04  0.12699999809E+01 0. -1.
</event>
<event>
 5   0  0.7857136E-05  0.1976203E+04  0.7818609E-02  0.8617828E-01
       -2   -1    0    0    0  501  0.00000000000E+00  0.00000000000E+00  0.65177950104E+03  0.65177950105E+03  0.25500000920E-02 0.  1.
        2   -1    0    0  501    0  0.00000000000E+00  0.00000000000E+00 -0.14979676030E+04  0.14979676030E+04  0.25500000920E-02 0. -1.
    10030    2    1    2    0    0  0.00000000000E+00  0.00000000000E+00 -0.84618810191E+03  0.21497471040E+04  0.19762030026E+04 0.  0.
        4    1    3    3  502    0 -0.50170106579E+03 -0.61510888259E+03 -0.10632260897E+04  0.13268437088E+04  0.12699999809E+01 0. -1.
       -4    1    3    3    0  502  0.50170106579E+03  0.61510888259E+03  0.21703798776E+03  0.82290339523E+03  0.12699999809E+01 0.  1.
</event>
<event>
 5   0  0.3772949E-05  0.1943562E+04  0.7818609E-02  0.8633471E-01
        1   -1    0    0  501    0  0.00000000000E+00  0.00000000000E+00  0.12487445211E+04  0.12487445211E+04  0.50400001928E-02 0.  1.
       -1   -1    0    0    0  501  0.00000000000E+00  0.00000000000E+00 -0.75624652656E+03  0.75624652658E+03  0.50400001928E-02 0. -1.
    10030    2    1    2    0    0  0.00000000000E+00  0.00000000000E+00  0.49249799456E+03  0.20049910477E+04  0.19435624062E+04 0.  0.
        2    1    3    3  502    0  0.19538750926E+03  0.31049263025E+03  0.11745666322E+04  0.12305237607E+04  0.25500000920E-02 0.  1.
       -2    1    3    3    0  502 -0.19538750926E+03 -0.31049263025E+03 -0.68206863762E+03  0.77446728701E+03  0.25500000920E-02 0. -1.
</event>
<event>
 5   0  0.3818907E-05  0.2004187E+04  0.7818609E-02  0.8604666E-01
        1   -1    0    0  501    0  0.00000000000E+00  0.00000000000E+00  0.11853989957E+04  0.11853989957E+04  0.50400001928E-02 0. -1.
       -1   -1    0    0    0  501  0.00000000000E+00  0.00000000000E+00 -0.84713340952E+03  0.84713340954E+03  0.50400001928E-02 0.  1.
    10030    2    1    2    0    0  0.00000000000E+00  0.00000000000E+00  0.33826558614E+03  0.20325324052E+04  0.20041867107E+04 0.  0.
        1    1    3    3  502    0 -0.60963276310E+03  0.44280372612E+03  0.83913068843E+03  0.11277710574E+04  0.50400001928E-02 0. -1.
       -1    1    3    3    0  502  0.60963276310E+03 -0.44280372612E+03 -0.50086510229E+03  0.90476134777E+03  0.50400001928E-02 0.  1.
</event>
<event>
 5   0  0.3549426E-05  0.2061222E+04  0.7818609E-02  0.8578521E-01
        1   -1    0    0  501    0  0.00000000000E+00  0.00000000000E+00  0.13406764397E+04  0.13406764397E+04  0.50400001928E-02 0. -1.
       -1   -1    0    0    0  501  0.00000000000E+00  0.00000000000E+00 -0.79225588104E+03  0.79225588106E+03  0.50400001928E-02 0.  1.
    10030    2    1    2    0    0  0.00000000000E+00  0.00000000000E+00  0.54842055868E+03  0.21329323208E+04  0.20612217678E+04 0.  0.
        5    1    3    3  502    0  0.91471499733E+03  0.10063486147E+03  0.75436391532E+03  0.11899234885E+04  0.46999998093E+01 0. -1.
       -5    1    3    3    0  502 -0.91471499733E+03 -0.10063486147E+03 -0.20594335664E+03  0.94300883231E+03  0.46999998093E+01 0.  1.
</event>
<event>
 5   0  0.7857136E-05  0.2005504E+04  0.7818609E-02  0.8604051E-01
        2   -1    0    0  501    0  0.00000000000E+00  0.00000000000E+00  0.98413574088E+03  0.98413574088E+03  0.25500000920E-02 0.  1.
       -2   -1    0    0    0  501  0.00000000000E+00  0.00000000000E+00 -0.10217209147E+04  0.10217209147E+04  0.25500000920E-02 0. -1.
    10030    2    1    2    0    0  0.00000000000E+00  0.00000000000E+00 -0.37585173858E+02  0.20058566556E+04  0.20055044945E+04 0.  0.
        4    1    3    3  502    0 -0.49383223586E+03 -0.22752800415E+02  0.85378395120E+03  0.98657823579E+03  0.12699999809E+01 0.  1.
       -4    1    3    3    0  502  0.49383223586E+03  0.22752800415E+02 -0.89136912506E+03  0.10192784198E+04  0.12699999809E+01 0. -1.
</event>
<event>
 5   0  0.8011197E-05  0.1996258E+04  0.7818609E-02  0.8608372E-01
       -2   -1    0    0    0  501  0.00000000000E+00  0.00000000000E+00  0.95990082618E+03  0.95990082618E+03  0.25500000920E-02 0. -1.
        2   -1    0    0  501    0  0.00000000000E+00  0.00000000000E+00 -0.10378799015E+04  0.10378799015E+04  0.25500000920E-02 0.  1.
    10030    2    1    2    0    0  0.00000000000E+00  0.00000000000E+00 -0.77979075298E+02  0.19977807277E+04  0.19962582748E+04 0.  0.
        5    1    3    3  502    0 -0.64523592401E+03  0.40829352046E+03  0.60431225438E+03  0.97378046153E+03  0.46999998093E+01 0. -1.
       -5    1    3    3    0  502  0.64523592401E+03 -0.40829352046E+03 -0.68229132968E+03  0.10240002661E+04  0.46999998093E+01 0.  1.
</event>
<event>
 5   0  0.8022574E-05  0.2171561E+04  0.7818609E-02  0.8530359E-01
        2   -1    0    0  501    0  0.00000000000E+00  0.00000000000E+00  0.10200432066E+04  0.10200432066E+04  0.25500000920E-02 0.  1.
       -2   -1    0    0    0  501  0.00000000000E+00  0.00000000000E+00 -0.11557539674E+04  0.11557539674E+04  0.25500000920E-02 0. -1.
    10030    2    1    2    0    0  0.00000000000E+00  0.00000000000E+00 -0.13571076073E+03  0.21757971740E+04  0.21715607134E+04 0.  0.
        1    1    3    3  502    0 -0.84371937783E+03  0.48434715563E+03  0.41523087875E+03  0.10577671003E+04  0.50400001928E-02 0.  1.
       -1    1    3    3    0  502  0.84371937783E+03 -0.48434715563E+03 -0.55094163948E+03  0.11180300738E+04  0.50400001928E-02 0. -1.
</event>
<event>
 5   0  0.8022574E-05  0.1979651E+04  0.7818609E-02  0.8616194E-01
        2   -1    0    0  501    0  0.00000000000E+00  0.00000000000E+00  0.12413189078E+04  0.12413189078E+04  0.25500000920E-02 0.  1.
       -2   -1    0    0    0  501  0.00000000000E+00  0.00000000000E+00 -0.78928540380E+03  0.78928540380E+03  0.25500000920E-02 0. -1.
    10030    2    1    2    0    0  0.00000000000E+00  0.00000000000E+00  0.45203350398E+03  0.20306043116E+04  0.19796513788E+04 0.  0.
        1    1    3    3  502    0  0.54179804373E+03  0.81411345748E+03  0.69011579867E+02  0.98035118199E+03  0.50400001928E-02 0. -1.
       -1    1    3    3    0  502 -0.54179804373E+03 -0.81411345748E+03  0.38302192412E+03  0.10502531296E+04  0.50400001928E-02 0.  1.
</event>
<event>
 5   0  0.3549426E-05  0.1996592E+04  0.7818609E-02  0.8608216E-01
        1   -1    0    0  501    0  0.00000000000E+00  0.00000000000E+00  0.24171815110E+04  0.24171815110E+04  0.50400001928E-02 0.  1.
       -1   -1    0    0    0  501  0.00000000000E+00  0.00000000000E+00 -0.41229613672E+03  0.41229613675E+03  0.50400001928E-02 0. -1.
    10030    2    1    2    0    0  0.00000000000E+00  0.00000000000E+00  0.20048853743E+04  0.28294776477E+04  0.19965916946E+04 0.  0.
        5    1    3    3  502    0 -0.70476077487E+03 -0.69863887906E+03  0.84857556451E+03  0.13057130664E+04  0.46999998093E+01 0. -1.
       -5    1    3    3    0  502  0.70476077487E+03  0.69863887906E+03  0.11563098097E+04  0.15237645813E+04  0.46999998093E+01 0.  1.
</event>
<event>
 5   0  0.3549426E-05  0.1994230E+04  0.7818609E-02  0.8609323E-01
        1   -1    0    0  501    0  0.00000000000E+00  0.00000000000E+00  0.14250474487E+04  0.14250474487E+04  0.50400001928E-02 0. -1.
       -1   -1    0    0    0  501  0.00000000000E+00  0.00000000000E+00 -0.69768784067E+03  0.69768784069E+03  0.50400001928E-02 0.  1.
    10030    2    1    2    0    0  0.00000000000E+00  0.00000000000E+00  0.72735960805E+03  0.21227352894E+04  0.19942299540E+04 0.  0.
        5    1    3    3  502    0  0.20823007192E+03 -0.52414797869E+03  0.12389340071E+04  0.13612752956E+04  0.46999998093E+01 0.  1.
       -5    1    3    3    0  502 -0.20823007192E+03  0.52414797869E+03 -0.51157439907E+03  0.76145999382E+03  0.46999998093E+01 0. -1.
</event>
<event>
 5   0  0.7857136E-05  0.2007271E+04  0.7818609E-02  0.8603229E-01
        2   -1    0    0  501    0  0.00000000000E+00  0.00000000000E+00  0.12168081059E+04  0.12168081059E+04  0.25500000920E-02 0.  1.
       -2   -1    0    0    0  501  0.00000000000E+00  0.00000000000E+00 -0.82780881513E+03  0.82780881513E+03  0.25500000920E-02 0. -1.
    10030    2    1    2    0    0  0.00000000000E+00  0.00000000000E+00  0.38899929080E+03  0.20446169211E+04  0.20072712586E+04 0.  0.
        4    1    3    3  502    0  0.67240820837E+03  0.71403738463E+03  0.41129912549E+03  0.10635557197E+04  0.12699999809E+01 0.  1.
       -4    1    3    3    0  502 -0.67240820837E+03 -0.71403738463E+03 -0.22299834687E+02  0.98106120138E+03  0.12699999809E+01 0. -1.
</event>
<event>
 5   0  0.3787698E-05  0.1970661E+04  0.7818609E-02  0.8620462E-01
        1   -1    0    0  501    0  0.00000000000E+00  0.00000000000E+00  0.96988842789E+03  0.96988842790E+03  0.50400001928E-02 0.  1.
       -1   -1    0    0    0  501  0.00000000000E+00  0.00000000000E+00 -0.10010185923E+04  0.10010185924E+04  0.50400001928E-02 0. -1.
    10030    2    1    2    0    0  0.00000000000E+00  0.00000000000E+00 -0.31130164452E+02  0.19709070203E+04  0.19706611569E+04 0.  0.
        4    1    3    3  502    0  0.31596409430E+03  0.82842222297E+03 -0.44545361654E+03  0.99224353149E+03  0.12699999809E+01 0. -1.
       -4    1    3    3    0  502 -0.31596409430E+03 -0.82842222297E+03  0.41432345209E+03  0.97866348877E+03  0.12699999809E+01 0.  1.
</event>
<event>
 5   0  0.7857136E-05  0.1998703E+04  0.7818609E-02  0.8607227E-01
       -2   -1    0    0    0  501  0.00000000000E+00  0.00000000000E+00  0.40172886500E+03  0.40172886501E+03  0.25500000920E-02 0.  1.
        2   -1    0    0  501    0  0.00000000000E+00  0.00000000000E+00 -0.24860147599E+04  0.24860147599E+04  0.25500000920E-02 0. -1.
    10030    2    1    2    0    0  0.00000000000E+00  0.00000000000E+00 -0.20842858949E+04  0.28877436249E+04  0.19987034676E+04 0.  0.
        4    1    3    3  502    0 -0.84820808612E+03 -0.13622894146E+03 -0.30445965188E+03  0.91143435001E+03  0.12699999809E+01 0. -1.
       -4    1    3    3    0  502  0.84820808612E+03  0.13622894146E+03 -0.17798262430E+04  0.19763092749E+04  0.12699999809E+01 0.  1.
</event>
<event>
 5   0  0.3970042E-05  0.2002307E+04  0.7818609E-02  0.8605543E-01
       -1   -1    0    0    0  501  0.00000000000E+00  0.00000000000E+00  0.69963924239E+03  0.69963924240E+03  0.50400001928E-02 0.  1.
        1   -1    0    0  501    0  0.00000000000E+00  0.00000000000E+00 -0.14326072107E+04  0.14326072107E+04  0.50400001928E-02 0. -1.
    10030    2    1    2    0    0  0.00000000000E+00  0.00000000000E+00 -0.73296796827E+03  0.21322464531E+04  0.20023068931E+04 0.  0.
        3    1    3    3  502    0  0.29767015205E+03 -0.16801548309E+03  0.63557676202E+03  0.72166096790E+03  0.10100000352E+00 0.  1.
       -3    1    3    3    0  502 -0.29767015205E+03  0.16801548309E+03 -0.13685447303E+04  0.14105854852E+04  0.10100000352E+00 0. -1.
</event>
<event>
 5   0  0.3787698E-05  0.1987340E+04  0.7818609E-02  0.8612562E-01
        1   -1    0    0  501    0  0.00000000000E+00  0.00000000000E+00  0.13956542000E+04  0.13956542000E+04  0.50400001928E-02 0. -1.
       -1   -1    0    0    0  501  0.00000000000E+00  0.00000000000E+00 -0.70746781636E+03  0.70746781638E+03  0.50400001928E-02 0.  1.
    10030    2    1    2    0    0  0.00000000000E+00  0.00000000000E+00  0.68818638366E+03  0.21031220164E+04  0.19873403627E+04 0.  0.
        4    1    3    3  502    0  0.45058109065E+02  0.60110576238E+03 -0.49187860584E+03  0.77801320461E+03  0.12699999809E+01 0.  1.
       -4    1    3    3    0  502 -0.45058109065E+02 -0.60110576238E+03  0.11800649895E+04  0.13251088118E+04  0.12699999809E+01 0. -1.
</event>
<event>
 5   0  0.3772949E-05  0.1804378E+04  0.7818609E-02  0.8703975E-01
       -1   -1    0    0    0  501  0.00000000000E+00  0.00000000000E+00  0.87784446609E+03  0.87784446610E+03  0.50400001928E-02 0. -1.
        1   -1    0    0  501    0  0.00000000000E+00  0.00000000000E+00 -0.92720912550E+03  0.92720912552E+03  0.50400001928E-02 0.  1.
    10030    2    1    2    0    0  0.00000000000E+00  0.00000000000E+00 -0.49364659416E+02  0.18050535916E+04  0.18043784523E+04 0.  0.
        2    1    3    3  502    0  0.60785033733E+03 -0.69540479617E+02  0.63860986746E+03  0.88438706103E+03  0.25500000920E-02 0. -1.
       -2    1    3    3    0  502 -0.60785033733E+03  0.69540479617E+02 -0.68797452688E+03  0.92066653058E+03  0.25500000920E-02 0.  1.
</event>
<event>
 5   0  0.8022574E-05  0.1995155E+04  0.7818609E-02  0.8608889E-01
        2   -1    0    0  501    0  0.00000000000E+00  0.00000000000E+00  0.20024652017E+04  0.20024652017E+04  0.25500000920E-02 0.  1.
       -2   -1    0    0    0  501  0.00000000000E+00  0.00000000000E+00 -0.49696769427E+03  0.49696769428E+03  0.25500000920E-02 0. -1.
    10030    2    1    2    0    0  0.00000000000E+00  0.00000000000E+00  0.15054975074E+04  0.24994328960E+04  0.19951546448E+04 0.  0.
        1    1    3    3  502    0  0.12269948075E+03 -0.27997846178E+03  0.19423465362E+04  0.19662535870E+04  0.50400001928E-02 0.  1.
       -1    1    3    3    0  502 -0.12269948075E+03  0.27997846178E+03 -0.43684902874E+03  0.53317930902E+03  0.50400001928E-02 0. -1.
</event>
<event>
 5   0  0.3818907E-05  0.1994456E+04  0.7818609E-02  0.8609217E-01
        1   -1    0    0  501    0  0.00000000000E+00  0.00000000000E+00  0.24418433002E+04  0.24418433002E+04  0.50400001928E-02 0.  1.
       -1   -1    0    0    0  501  0.00000000000E+00  0.00000000000E+00 -0.40725939431E+03  0.40725939434E+03  0.50400001928E-02 0. -1.
    10030    2    1    2    0    0  0.00000000000E+00  0.00000000000E+00  0.20345839059E+04  0.28491026945E+04  0.19944559393E+04 0.  0.
        1    1    3    3  502    0 -0.33687178871E+03  0.37629050096E+03  0.22456342580E+04  0.23017276911E+04  0.50400001928E-02 0.  1.
       -1    1    3    3    0  502  0.33687178871E+03 -0.37629050096E+03 -0.21105035220E+03  0.54737500339E+03  0.50400001928E-02 0. -1.
</event>
<event>
 5   0  0.8022574E-05  0.2022143E+04  0.7818609E-02  0.8596337E-01
        2   -1    0    0  501    0  0.00000000000E+00  0.00000000000E+00  0.20268822977E+04  0.20268822977E+04  0.25500000920E-02 0.  1.
       -2   -1    0    0    0  501  0.00000000000E+00  0.00000000000E+00 -0.50435384804E+03  0.50435384805E+03  0.25500000920E-02 0. -1.
    10030    2    1    2    0    0  0.00000000000E+00  0.00000000000E+00  0.15225284496E+04  0.25312361457E+04  0.20221433049E+04 0.  0.
        1    1    3    3  502    0  0.64510404453E+03  0.77271039979E+03  0.88018328369E+03  0.13371474126E+04  0.50400001928E-02 0.  1.
       -1    1    3    3    0  502 -0.64510404453E+03 -0.77271039979E+03  0.64234516593E+03  0.11940887331E+04  0.50400001928E-02 0. -1.
</event>
<event>
 5   0  0.7843846E-05  0.1988687E+04  0.7818609E-02  0.8611928E-01
       -2   -1    0    0    0  501  0.00000000000E+00  0.00000000000E+00  0.73129759879E+03  0.73129759879E+03  0.25500000920E-02 0.  1.
        2   -1    0    0  501    0  0.00000000000E+00  0.00000000000E+00 -0.13520057778E+04  0.13520057778E+04  0.25500000920E-02 0. -1.
    10030    2    1    2    0    0  0.00000000000E+00  0.00000000000E+00 -0.62070817905E+03  0.20833033766E+04  0.19886865805E+04 0.  0.
        2    1    3    3  502    0  0.23293706551E+03 -0.68867034977E+03 -0.10210040420E+04  0.12533857271E+04  0.25500000920E-02 0. -1.
       -2    1    3    3    0  502 -0.23293706551E+03  0.68867034977E+03  0.40029586292E+03  0.82991764954E+03  0.25500000920E-02 0.  1.
</event>
<event>
 5   0  0.7857136E-05  0.2000670E+04  0.7818609E-02  0.8606307E-01
       -2   -1    0    0    0  501  0.00000000000E+00  0.00000000000E+00  0.88817264028E+03  0.88817264029E+03  0.25500000920E-02 0.  1.
        2   -1    0    0  501    0  0.00000000000E+00  0.00000000000E+00 -0.11266619036E+04  0.11266619036E+04  0.25500000920E-02 0. -1.
    10030    2    1    2    0    0  0.00000000000E+00  0.00000000000E+00 -0.23848926330E+03  0.20148345439E+04  0.20006701653E+04 0.  0.
        4    1    3    3  502    0  0.10976410958E+02  0.29261563869E+03 -0.10825333336E+04  0.11214385515E+04  0.12699999809E+01 0. -1.
       -4    1    3    3    0  502 -0.10976410958E+02 -0.29261563869E+03  0.84404407031E+03  0.89339599234E+03  0.12699999809E+01 0.  1.
</event>
<event>
 5   0  0.3772949E-05  0.1984898E+04  0.7818609E-02  0.8613714E-01
        1   -1    0    0  501    0  0.00000000000E+00  0.00000000000E+00  0.12572423821E+04  0.12572423821E+04  0.50400001928E-02 0.  1.
       -1   -1    0    0    0  501  0.00000000000E+00  0.00000000000E+00 -0.78342526622E+03  0.78342526624E+03  0.50400001928E-02 0. -1.
    10030    2    1    2    0    0  0.00000000000E+00  0.00000000000E+00  0.47381711591E+03  0.20406676484E+04  0.19848984336E+04 0.  0.
        2    1    3    3  502    0 -0.57702916490E+03 -0.60716650752E+03 -0.31034573746E+03  0.89326832574E+03  0.25500000920E-02 0. -1.
       -2    1    3    3    0  502  0.57702916490E+03  0.60716650752E+03  0.78416285336E+03  0.11473993226E+04  0.25500000920E-02 0.  1.
</event>
<event>
 5   0  0.3818907E-05  0.2002733E+04  0.7818609E-02  0.8605344E-01
        1   -1    0    0  501    0  0.00000000000E+00  0.00000000000E+00  0.11387629374E+04  0.11387629374E+04  0.50400001928E-02 0.  1.
       -1   -1    0    0    0  501  0.00000000000E+00  0.00000000000E+00 -0.88054729016E+03  0.88054729017E+03  0.50400001928E-02 0. -1.
    10030    2    1    2    0    0  0.00000000000E+00  0.00000000000E+00  0.25821564726E+03  0.20193102276E+04  0.20027327517E+04 0.  0.
        1    1    3    3  502    0  0.54294156202E+03  0.24305904494E+03  0.94130103316E+03  0.11135128532E+04  0.50400001928E-02 0.  1.
       -1    1    3    3    0  502 -0.54294156202E+03 -0.24305904494E+03 -0.68308538590E+03  0.90579737444E+03  0.50400001928E-02 0. -1.
</event>
<event>
 5   0  0.7857136E-05  0.2003973E+04  0.7818609E-02  0.8604765E-01
       -2   -1    0    0    0  501  0.00000000000E+00  0.00000000000E+00  0.52390143024E+03  0.52390143025E+03  0.25500000920E-02 0. -1.
        2   -1    0    0  501    0  0.00000000000E+00  0.00000000000E+00 -0.19163472825E+04  0.19163472825E+04  0.25500000920E-02 0.  1.
    10030    2    1    2    0    0  0.00000000000E+00  0.00000000000E+00 -0.13924458522E+04  0.24402487127E+04  0.20039731357E+04 0.  0.
        4    1    3    3  502    0  0.91108756052E+03 -0.15637952223E+03 -0.11669575749E+04  0.14887332509E+04  0.12699999809E+01 0.  1.
       -4    1    3    3    0  502 -0.91108756052E+03  0.15637952223E+03 -0.22548827732E+03  0.95151546178E+03  0.12699999809E+01 0. -1.
</event>
<event>
 5   0  0.7935008E-05  0.2007047E+04  0.7818609E-02  0.8603333E-01
       -2   -1    0    0    0  501  0.00000000000E+00  0.00000000000E+00  0.50391585161E+03  0.50391585162E+03  0.25500000920E-02 0.  1.
        2   -1    0    0  501    0  0.00000000000E+00  0.00000000000E+00 -0.19984677886E+04  0.19984677886E+04  0.25500000920E-02 0. -1.
    10030    2    1    2    0    0  0.00000000000E+00  0.00000000000E+00 -0.14945519370E+04  0.25023836402E+04  0.20070471819E+04 0.  0.
        3    1    3    3  502    0 -0.87223508568E+03 -0.48309030409E+03 -0.60572560483E+03  0.11666506783E+04  0.10100000352E+00 0.  1.
       -3    1    3    3    0  502  0.87223508568E+03  0.48309030409E+03 -0.88882633212E+03  0.13357329619E+04  0.10100000352E+00 0. -1.
</event>
<event>
 5   0  0.3772949E-05  0.1999140E+04  0.7818609E-02  0.8607023E-01
        1   -1    0    0  501    0  0.00000000000E+00  0.00000000000E+00  0.13823022314E+04  0.13823022315E+04  0.50400001928E-02 0.  1.
       -1   -1    0    0    0  501  0.00000000000E+00  0.00000000000E+00 -0.72280891097E+03  0.72280891099E+03  0.50400001928E-02 0. -1.
    10030    2    1    2    0    0  0.00000000000E+00  0.00000000000E+00  0.65949332047E+03  0.21051111424E+04  0.19991401858E+04 0.  0.
        2    1    3    3  502    0 -0.62125212942E+03  0.69208342931E+03  0.71550814271E+03  0.11734076801E+04  0.25500000920E-02 0.  1.
       -2    1    3    3    0  502  0.62125212942E+03 -0.69208342931E+03 -0.56014822239E+02  0.93170346234E+03  0.25500000920E-02 0. -1.
</event>
<event>
 5   0  0.2859625E-05  0.1993749E+04  0.7818609E-02  0.8609549E-01
        3   -1    0    0  501    0  0.00000000000E+00  0.00000000000E+00  0.57558382037E+03  0.57558382923E+03  0.10100000352E+00 0. -1.
       -3   -1    0    0    0  501  0.00000000000E+00  0.00000000000E+00 -0.17265227357E+04  0.17265227386E+04  0.10100000352E+00 0.  1.
    10030    2    1    2    0    0  0.00000000000E+00  0.00000000000E+00 -0.11509389153E+04  0.23021065678E+04  0.19937487964E+04 0.  0.
        5    1    3    3  502    0 -0.75492242444E+02  0.84766469762E+03 -0.11748959700E+04  0.14507367606E+04  0.46999998093E+01 0.  1.
       -5    1    3    3    0  502  0.75492242444E+02 -0.84766469762E+03  0.23957054668E+02  0.85136980727E+03  0.46999998093E+01 0. -1.
</event>
<event>
 5   0  0.3970042E-05  0.2032105E+04  0.7818609E-02  0.8591756E-01
       -1   -1    0    0    0  501  0.00000000000E+00  0.00000000000E+00  0.12505908718E+04  0.12505908718E+04  0.50400001928E-02 0.  1.
        1   -1    0    0  501    0  0.00000000000E+00  0.00000000000E+00 -0.82549958960E+03  0.82549958962E+03  0.50400001928E-02 0. -1.
    10030    2    1    2    0    0  0.00000000000E+00  0.00000000000E+00  0.42509128222E+03  0.20760904614E+04  0.20321045755E+04 0.  0.
        3    1    3    3  502    0 -0.75021493548E+03  0.20721458681E+03  0.87983103011E+03  0.11746756940E+04  0.10100000352E+00 0.  1.
       -3    1    3    3    0  502  0.75021493548E+03 -0.20721458681E+03 -0.45473974789E+03  0.90141476742E+03  0.10100000352E+00 0. -1.
</event>
<event>
 5   0  0.7843846E-05  0.1994348E+04  0.7818609E-02  0.8609268E-01
       -2   -1    0    0    0  501  0.00000000000E+00  0.00000000000E+00  0.49580387900E+03  0.49580387900E+03  0.25500000920E-02 0. -1.
        2   -1    0    0  501    0  0.00000000000E+00  0.00000000000E+00 -0.20055438355E+04  0.20055438355E+04  0.25500000920E-02 0.  1.
    10030    2    1    2    0    0  0.00000000000E+00  0.00000000000E+00 -0.15097399565E+04  0.25013477145E+04  0.19943484281E+04 0.  0.
        2    1    3    3  502    0  0.23340127771E+02 -0.96951277170E+03 -0.46380319372E+03  0.10749945016E+04  0.25500000920E-02 0.  1.
       -2    1    3    3    0  502 -0.23340127771E+02  0.96951277170E+03 -0.10459367628E+04  0.14263532128E+04  0.25500000920E-02 0. -1.
</event>
<event>
 5   0  0.7857136E-05  0.2001815E+04  0.7818609E-02  0.8605773E-01
        2   -1    0    0  501    0  0.00000000000E+00  0.00000000000E+00  0.32285126934E+04  0.32285126934E+04  0.25500000920E-02 0. -1.
       -2   -1    0    0    0  501  0.00000000000E+00  0.00000000000E+00 -0.31030249157E+03  0.31030249158E+03  0.25500000920E-02 0.  1.
    10030    2    1    2    0    0  0.00000000000E+00  0.00000000000E+00  0.29182102018E+04  0.35388151849E+04  0.20018147095E+04 0.  0.
        4    1    3    3  502    0  0.74404764082E+03 -0.51213769750E+03  0.22213585626E+04  0.23979840261E+04  0.12699999809E+01 0. -1.
       -4    1    3    3    0  502 -0.74404764082E+03  0.51213769750E+03  0.69685163924E+03  0.11408311589E+04  0.12699999809E+01 0.  1.
</event>
<event>
 5   0  0.3818907E-05  0.2007076E+04  0.7818609E-02  0.8603319E-01
       -1   -1    0    0    0  501  0.00000000000E+00  0.00000000000E+00  0.53873790778E+03  0.53873790781E+03  0.50400001928E-02 0.  1.
        1   -1    0    0  501    0  0.00000000000E+00  0.00000000000E+00 -0.18693479709E+04  0.18693479709E+04  0.50400001928E-02 0. -1.
    10030    2    1    2    0    0  0.00000000000E+00  0.00000000000E+00 -0.13306100632E+04  0.24080858787E+04  0.20070760970E+04 0.  0.
        1    1    3    3  502    0 -0.38499596152E+03 -0.21756597808E+03  0.41553369027E+03  0.60681553456E+03  0.50400001928E-02 0.  1.
       -1    1    3    3    0  502  0.38499596152E+03  0.21756597808E+03 -0.17461437534E+04  0.18012703442E+04  0.50400001928E-02 0. -1.
</event>
<event>
 5   0  0.3818907E-05  0.1955692E+04  0.7818609E-02  0.8627621E-01
        1   -1    0    0  501    0  0.00000000000E+00  0.00000000000E+00  0.70900590721E+03  0.70900590723E+03  0.50400001928E-02 0. -1.
       -1   -1    0    0    0  501  0.00000000000E+00  0.00000000000E+00 -0.13486242944E+04  0.13486242945E+04  0.50400001928E-02 0.  1.
    10030    2    1    2    0    0  0.00000000000E+00  0.00000000000E+00 -0.63961838724E+03  0.20576302017E+04  0.19556917870E+04 0.  0.
        1    1    3    3  502    0  0.28683132669E+03  0.59996107335E+03 -0.10740852911E+04  0.12632833064E+04  0.50400001928E-02 0.  1.
       -1    1    3    3    0  502 -0.28683132669E+03 -0.59996107335E+03  0.43446690389E+03  0.79434689532E+03  0.50400001928E-02 0. -1.
</event>
<event>
 5   0  0.7935008E-05  0.2010249E+04  0.7818609E-02  0.8601844E-01
       -2   -1    0    0    0  501  0.00000000000E+00  0.00000000000E+00  0.49035032742E+03  0.49035032743E+03  0.25500000920E-02 0. -1.
        2   -1    0    0  501    0  0.00000000000E+00  0.00000000000E+00 -0.20603133942E+04  0.20603133942E+04  0.25500000920E-02 0.  1.
    10030    2    1    2    0    0  0.00000000000E+00  0.00000000000E+00 -0.15699630668E+04  0.25506637217E+04  0.20102490865E+04 0.  0.
        3    1    3    3  502    0 -0.88981536542E+02 -0.94610865963E+03 -0.36947898607E+03  0.10195852299E+04  0.10100000352E+00 0. -1.
       -3    1    3    3    0  502  0.88981536542E+02  0.94610865963E+03 -0.12004840807E+04  0.15310784918E+04  0.10100000352E+00 0.  1.
</event>
<event>
 5   0  0.3787698E-05  0.2042329E+04  0.7818609E-02  0.8587082E-01
       -1   -1    0    0    0  501  0.00000000000E+00  0.00000000000E+00  0.88129687128E+03  0.88129687130E+03  0.50400001928E-02 0. -1.
        1   -1    0    0  501    0  0.00000000000E+00  0.00000000000E+00 -0.11832304508E+04  0.11832304508E+04  0.50400001928E-02 0.  1.
    10030    2    1    2    0    0  0.00000000000E+00  0.00000000000E+00 -0.30193357953E+03  0.20645273221E+04  0.20423293508E+04 0.  0.
        4    1    3    3  502    0  0.79003948806E+03 -0.63163907099E+03 -0.29265215454E+03  0.10529849026E+04  0.12699999809E+01 0. -1.
       -4    1    3    3    0  502 -0.79003948806E+03  0.63163907099E+03 -0.92814249870E+01  0.10115424195E+04  0.12699999809E+01 0.  1.
</event>
<event>
 5   0  0.3818907E-05  0.2003265E+04  0.7818609E-02  0.8605096E-01
        1   -1    0    0  501    0  0.00000000000E+00  0.00000000000E+00  0.24074066546E+04  0.24074066546E+04  0.50400001928E-02 0. -1.
       -1   -1    0    0    0  501  0.00000000000E+00  0.00000000000E+00 -0.41674208546E+03  0.41674208550E+03  0.50400001928E-02 0.  1.
    10030    2    1    2    0    0  0.00000000000E+00  0.00000000000E+00  0.19906645691E+04  0.28241487401E+04  0.20032650048E+04 0.  0.
        1    1    3    3  502    0 -0.65637687716E+03 -0.70161674233E+03  0.13945022387E+04  0.16934382634E+04  0.50400001928E-02 0. -1.
       -1    1    3    3    0  502  0.65637687716E+03  0.70161674233E+03  0.59616233042E+03  0.11307104767E+04  0.50400001928E-02 0.  1.
</event>
<event>
 5   0  0.3818907E-05  0.1997114E+04  0.7818609E-02  0.8607971E-01
       -1   -1    0    0    0  501  0.00000000000E+00  0.00000000000E+00  0.10289013634E+04  0.10289013635E+04  0.50400001928E-02 0. -1.
        1   -1    0    0  501    0  0.00000000000E+00  0.00000000000E+00 -0.96910715554E+03  0.96910715555E+03  0.50400001928E-02 0.  1.
    10030    2    1    2    0    0  0.00000000000E+00  0.00000000000E+00  0.59794207908E+02  0.19980085190E+04  0.19971135908E+04 0.  0.
        1    1    3    3  502    0  0.50924237079E+03 -0.51451939624E+03  0.71799719248E+03  0.10195969644E+04  0.50400001928E-02 0. -1.
       -1    1    3    3    0  502 -0.50924237079E+03  0.51451939624E+03 -0.65820298458E+03  0.97841155464E+03  0.50400001928E-02 0.  1.
</event>
<event>
 5   0  0.3970042E-05  0.1999387E+04  0.7818609E-02  0.8606907E-01
       -1   -1    0    0    0  501  0.00000000000E+00  0.00000000000E+00  0.81989644420E+03  0.81989644422E+03  0.50400001928E-02 0.  1.
        1   -1    0    0  501    0  0.00000000000E+00  0.00000000000E+00 -0.12189188329E+04  0.12189188329E+04  0.50400001928E-02 0. -1.
    10030    2    1    2    0    0  0.00000000000E+00  0.00000000000E+00 -0.39902238870E+03  0.20388152771E+04  0.19993871230E+04 0.  0.
        3    1    3    3  502    0  0.88941477914E+02  0.28014059511E+03  0.77484078096E+03  0.82871441737E+03  0.10100000352E+00 0.  1.
       -3    1    3    3    0  502 -0.88941477914E+02 -0.28014059511E+03 -0.11738631697E+04  0.12101008598E+04  0.10100000352E+00 0. -1.
</event>
<event>
 5   0  0.8011197E-05  0.1964603E+04  0.7818609E-02  0.8623351E-01
       -2   -1    0    0    0  501  0.00000000000E+00  0.00000000000E+00  0.56196418039E+03  0.56196418039E+03  0.25500000920E-02 0. -1.
        2   -1    0    0  501    0  0.00000000000E+00  0.00000000000E+00 -0.17170427164E+04  0.17170427164E+04  0.25500000920E-02 0.  1.
    10030    2    1    2    0    0  0.00000000000E+00  0.00000000000E+00 -0.11550785360E+04  0.22790068968E+04  0.19646032707E+04 0.  0.
        5    1    3    3  502    0 -0.72857314885E+03  0.10960549030E+03  0.17609218263E+03  0.75753728852E+03  0.46999998093E+01 0. -1.
       -5    1    3    3    0  502  0.72857314885E+03 -0.10960549030E+03 -0.13311707186E+04  0.15214696082E+04  0.46999998093E+01 0.  1.
</event>
<event>
 5   0  0.3787698E-05  0.1996573E+04  0.7818609E-02  0.8608225E-01
        1   -1    0    0  501    0  0.00000000000E+00  0.00000000000E+00  0.13836215797E+04  0.13836215797E+04  0.50400001928E-02 0. -1.
       -1   -1    0    0    0  501  0.00000000000E+00  0.00000000000E+00 -0.72026595353E+03  0.72026595355E+03  0.50400001928E-02 0.  1.
    10030    2    1    2    0    0  0.00000000000E+00  0.00000000000E+00  0.66335562619E+03  0.21038875333E+04  0.19965725797E+04 0.  0.
        4    1    3    3  502    0 -0.88576990947E+03 -0.17875814330E+03 -0.11542889116E+03  0.91097104681E+03  0.12699999809E+01 0.  1.
       -4    1    3    3    0  502  0.88576990947E+03  0.17875814330E+03  0.77878451735E+03  0.11929164865E+04  0.12699999809E+01 0. -1.
</event>
<event>
 5   0  0.3818907E-05  0.1990690E+04  0.7818609E-02  0.8610986E-01
       -1   -1    0    0    0  501  0.00000000000E+00  0.00000000000E+00  0.49889772189E+03  0.49889772192E+03  0.50400001928E-02 0. -1.
        1   -1    0    0  501    0  0.00000000000E+00  0.00000000000E+00 -0.19858014876E+04  0.19858014876E+04  0.50400001928E-02 0.  1.
    10030    2    1    2    0    0  0.00000000000E+00  0.00000000000E+00 -0.14869037657E+04  0.24846992095E+04  0.19906901701E+04 0.  0.
        1    1    3    3  502    0  0.43699946372E+03 -0.24832655027E+03  0.32885984032E+03  0.60065247978E+03  0.50400001928E-02 0. -1.
       -1    1    3    3    0  502 -0.43699946372E+03  0.24832655027E+03 -0.18157636060E+04  0.18840467297E+04  0.50400001928E-02 0.  1.
</event>
<event>
 5   0  0.3818907E-05  0.2001095E+04  0.7818609E-02  0.8606109E-01
        1   -1    0    0  501    0  0.00000000000E+00  0.00000000000E+00  0.12475771822E+04  0.12475771822E+04  0.50400001928E-02 0. -1.
       -1   -1    0    0    0  501  0.00000000000E+00  0.00000000000E+00 -0.80243150116E+03  0.80243150117E+03  0.50400001928E-02 0.  1.
    10030    2    1    2    0    0  0.00000000000E+00  0.00000000000E+00  0.44514568106E+03  0.20500086834E+04  0.20010949314E+04 0.  0.
        1    1    3    3  502    0  0.10371426627E+02 -0.15757906004E+03  0.12347294954E+04  0.12447873929E+04  0.50400001928E-02 0. -1.
       -1    1    3    3    0  502 -0.10371426627E+02  0.15757906004E+03 -0.78958381439E+03  0.80522129047E+03  0.50400001928E-02 0.  1.
</event>
<event>
 5   0  0.8011197E-05  0.2020115E+04  0.7818609E-02  0.8597273E-01
        2   -1    0    0  501    0  0.00000000000E+00  0.00000000000E+00  0.14768732674E+04  0.14768732674E+04  0.25500000920E-02 0. -1.
       -2   -1    0    0    0  501  0.00000000000E+00  0.00000000000E+00 -0.69079489847E+03  0.69079489847E+03  0.25500000920E-02 0.  1.
    10030    2    1    2    0    0  0.00000000000E+00  0.00000000000E+00  0.78607836897E+03  0.21676681659E+04  0.20201153619E+04 0.  0.
        5    1    3    3  502    0 -0.34947543164E+03 -0.56947446726E+03 -0.41975732803E+03  0.78908336100E+03  0.46999998093E+01 0.  1.
       -5    1    3    3    0  502  0.34947543164E+03  0.56947446726E+03  0.12058356970E+04  0.13785848049E+04  0.46999998093E+01 0. -1.
</event>
<event>
 5   0  0.7857136E-05  0.2000066E+04  0.7818609E-02  0.8606590E-01
       -2   -1    0    0    0  501  0.00000000000E+00  0.00000000000E+00  0.41620779209E+03  0.41620779210E+03  0.25500000920E-02 0.  1.
        2   -1    0    0  501    0  0.00000000000E+00  0.00000000000E+00 -0.24028055167E+04  0.24028055167E+04  0.25500000920E-02 0. -1.
    10030    2    1    2    0    0  0.00000000000E+00  0.00000000000E+00 -0.19865977246E+04  0.28190133088E+04  0.20000663778E+04 0.  0.
        4    1    3    3  502    0  0.41964936802E+03  0.14038351321E+03 -0.22573035817E+04  0.23002682878E+04  0.12699999809E+01 0. -1.
       -4    1    3    3    0  502 -0.41964936802E+03 -0.14038351321E+03  0.27070585710E+03  0.51874502102E+03  0.12699999809E+01 0.  1.
</event>
<event>
 5   0  0.3549426E-05  0.1991208E+04  0.7818609E-02  0.8610742E-01
        1   -1    0    0  501    0  0.00000000000E+00  0.00000000000E+00  0.85440673703E+03  0.85440673704E+03  0.50400001928E-02 0.  1.
       -1   -1    0    0    0  501  0.00000000000E+00  0.00000000000E+00 -0.11601355598E+04  0.11601355598E+04  0.50400001928E-02 0. -1.
    10030    2    1    2    0    0  0.00000000000E+00  0.00000000000E+00 -0.30572882279E+03  0.20145422969E+04  0.19912083148E+04 0.  0.
        5    1    3    3  502    0 -0.55207077468E+03 -0.40089274370E+03  0.58068970393E+03  0.89594628994E+03  0.46999998093E+01 0.  1.
       -5    1    3    3    0  502  0.55207077468E+03  0.40089274370E+03 -0.88641852672E+03  0.11185960069E+04  0.46999998093E+01 0. -1.
</event>
<event>
 5   0  0.7857136E-05  0.1976773E+04  0.7818609E-02  0.8617557E-01
       -2   -1    0    0    0  501  0.00000000000E+00  0.00000000000E+00  0.50483077953E+03  0.50483077954E+03  0.25500000920E-02 0. -1.
        2   -1    0    0  501    0  0.00000000000E+00  0.00000000000E+00 -0.19351203671E+04  0.19351203671E+04  0.25500000920E-02 0.  1.
    10030    2    1    2    0    0  0.00000000000E+00  0.00000000000E+00 -0.14302895875E+04  0.24399511466E+04  0.19767734553E+04 0.  0.
        4    1    3    3  502    0  0.65478426701E+03  0.70749550565E+03 -0.44580947110E+03  0.10620922861E+04  0.12699999809E+01 0.  1.
       -4    1    3    3    0  502 -0.65478426701E+03 -0.70749550565E+03 -0.98448011644E+03  0.13778588605E+04  0.12699999809E+01 0. -1.
</event>
<event>
 5   0  0.3970042E-05  0.2004396E+04  0.7818609E-02  0.8604568E-01
        1   -1    0    0  501    0  0.00000000000E+00  0.00000000000E+00  0.15658755806E+04  0.15658755806E+04  0.50400001928E-02 0.  1.
       -1   -1    0    0    0  501  0.00000000000E+00  0.00000000000E+00 -0.64143094744E+03  0.64143094746E+03  0.50400001928E-02 0. -1.
    10030    2    1    2    0    0  0.00000000000E+00  0.00000000000E+00  0.92444463314E+03  0.22073065280E+04  0.20043962256E+04 0.  0.
        3    1    3    3  502    0 -0.99346760447E+03  0.84864644945E+02  0.35088798103E+03  0.10570252005E+04  0.10100000352E+00 0.  1.
       -3    1    3    3    0  502  0.99346760447E+03 -0.84864644945E+02  0.57355665210E+03  0.11502813275E+04  0.10100000352E+00 0. -1.
</event>
<event>
 5   0  0.7843846E-05  0.1997175E+04  0.7818609E-02  0.8607943E-01
       -2   -1    0    0    0  501  0.00000000000E+00  0.00000000000E+00  0.64953135123E+03  0.64953135123E+03  0.25500000920E-02 0.  1.
        2   -1    0    0  501    0  0.00000000000E+00  0.00000000000E+00 -0.15352246478E+04  0.15352246478E+04  0.25500000920E-02 0. -1.
    10030    2    1    2    0    0  0.00000000000E+00  0.00000000000E+00 -0.88569329653E+03  0.21847559990E+04  0.19971745441E+04 0.  0.
        2    1    3    3  502    0 -0.18038372988E+03 -0.16274219596E+03 -0.15024023847E+04  0.15219186043E+04  0.25500000920E-02 0. -1.
       -2    1    3    3    0  502  0.18038372988E+03  0.16274219596E+03  0.61670908821E+03  0.66283739472E+03  0.25500000920E-02 0.  1.
</event>
<event>
 5   0  0.8022574E-05  0.1989442E+04  0.7818609E-02  0.8611573E-01
        2   -1    0    0  501    0  0.00000000000E+00  0.00000000000E+00  0.11327871148E+04  0.11327871148E+04  0.25500000920E-02 0. -1.
       -2   -1    0    0    0  501  0.00000000000E+00  0.00000000000E+00 -0.87348277279E+03  0.87348277279E+03  0.25500000920E-02 0.  1.
    10030    2    1    2    0    0  0.00000000000E+00  0.00000000000E+00  0.25930434202E+03  0.20062698876E+04  0.19894421630E+04 0.  0.
        1    1    3    3  502    0 -0.85017783693E+03  0.43936892496E+03  0.40328215254E+03  0.10385007950E+04  0.50400001928E-02 0. -1.
       -1    1    3    3    0  502  0.85017783693E+03 -0.43936892496E+03 -0.14397781053E+03  0.96776909260E+03  0.50400001928E-02 0.  1.
</event>
<event>
 5   0  0.3787698E-05  0.1975664E+04  0.7818609E-02  0.8618084E-01
        1   -1    0    0  501    0  0.00000000000E+00  0.00000000000E+00  0.19995555608E+04  0.19995555608E+04  0.50400001928E-02 0. -1.
       -1   -1    0    0    0  501  0.00000000000E+00  0.00000000000E+00 -0.48801470617E+03  0.48801470619E+03  0.50400001928E-02 0.  1.
    10030    2    1    2    0    0  0.00000000000E+00  0.00000000000E+00  0.15115408546E+04  0.24875702670E+04  0.19756644649E+04 0.  0.
        4    1    3    3  502    0  0.82012851507E+03 -0.55041343387E+03  0.77548567227E+03  0.12557648547E+04  0.12699999809E+01 0. -1.
       -4    1    3    3    0  502 -0.82012851507E+03  0.55041343387E+03  0.73605518232E+03  0.12318054123E+04  0.12699999809E+01 0.  1.
</event>
<event>
 5   0  0.8022574E-05  0.2011474E+04  0.7818609E-02  0.8601275E-01
       -2   -1    0    0    0  501  0.00000000000E+00  0.00000000000E+00  0.84597101791E+03  0.84597101791E+03  0.25500000920E-02 0. -1.
        2   -1    0    0  501    0  0.00000000000E+00  0.00000000000E+00 -0.11956753062E+04  0.11956753062E+04  0.25500000920E-02 0.  1.
    10030    2    1    2    0    0  0.00000000000E+00  0.00000000000E+00 -0.34970428834E+03  0.20416463242E+04  0.20114737442E+04 0.  0.
        1    1    3    3  502    0  0.63373786304E+02  0.18447262795E+03 -0.11762928916E+04  0.11923553808E+04  0.50400001928E-02 0.  1.
       -1    1    3    3    0  502 -0.63373786304E+02 -0.18447262795E+03  0.82658860331E+03  0.84929094332E+03  0.50400001928E-02 0. -1.
</event>
<event>
 5   0  0.3772949E-05  0.1991035E+04  0.7818609E-02  0.8610824E-01
       -1   -1    0    0    0  501  0.00000000000E+00  0.00000000000E+00  0.74223687116E+03  0.74223687118E+03  0.50400001928E-02 0. -1.
        1   -1    0    0  501    0  0.00000000000E+00  0.00000000000E+00 -0.13352271345E+04  0.13352271346E+04  0.50400001928E-02 0.  1.
    10030    2    1    2    0    0  0.00000000000E+00  0.00000000000E+00 -0.59299026338E+03  0.20774640057E+04  0.19910347166E+04 0.  0.
        2    1    3    3  502    0  0.30865844857E+02  0.95705927760E+03 -0.12389436716E+02  0.95763701858E+03  0.25500000920E-02 0. -1.
       -2    1    3    3    0  502 -0.30865844857E+02 -0.95705927760E+03 -0.58060082667E+03  0.11198269871E+04  0.25500000920E-02 0.  1.
</event>
<event>
 5   0  0.7857136E-05  0.2006688E+04  0.7818609E-02  0.8603500E-01
       -2   -1    0    0    0  501  0.00000000000E+00  0.00000000000E+00  0.11437630993E+04  0.11437630993E+04  0.25500000920E-02 0. -1.
        2   -1    0    0  501    0  0.00000000000E+00  0.00000000000E+00 -0.88016399589E+03  0.88016399589E+03  0.25500000920E-02 0.  1.
    10030    2    1    2    0    0  0.00000000000E+00  0.00000000000E+00  0.26359910344E+03  0.20239270952E+04  0.20066879178E+04 0.  0.
        4    1    3    3  502    0 -0.77820571974E+03  0.28538575823E+03  0.70203109530E+03  0.10862313036E+04  0.12699999809E+01 0. -1.
       -4    1    3    3    0  502  0.77820571974E+03 -0.28538575823E+03 -0.43843199186E+03  0.93769579162E+03  0.12699999809E+01 0.  1.
</event>
<event>
 5   0  0.7935008E-05  0.1897681E+04  0.7818609E-02  0.8656011E-01
        2   -1    0    0  501    0  0.00000000000E+00  0.00000000000E+00  0.10231387699E+04  0.10231387699E+04  0.25500000920E-02 0. -1.
       -2   -1    0    0    0  501  0.00000000000E+00  0.00000000000E+00 -0.87993803209E+03  0.87993803209E+03  0.25500000920E-02 0.  1.
    10030    2    1    2    0    0  0.00000000000E+00  0.00000000000E+00  0.14320073781E+03  0.19030768020E+04  0.18976814440E+04 0.  0.
        3    1    3    3  502    0  0.42708006785E+03 -0.80569305815E+03  0.33456721206E+03  0.97132585567E+03  0.10100000352E+00 0.  1.
       -3    1    3    3    0  502 -0.42708006785E+03  0.80569305815E+03 -0.19136647425E+03  0.93175094632E+03  0.10100000352E+00 0. -1.
</event>
<event>
 5   0  0.3772949E-05  0.1991101E+04  0.7818609E-02  0.8610793E-01
       -1   -1    0    0    0  501  0.00000000000E+00  0.00000000000E+00  0.48086961234E+03  0.48086961237E+03  0.50400001928E-02 0. -1.
        1   -1    0    0  501    0  0.00000000000E+00  0.00000000000E+00 -0.20611002600E+04  0.20611002600E+04  0.50400001928E-02 0.  1.
    10030    2    1    2    0    0  0.00000000000E+00  0.00000000000E+00 -0.15802306477E+04  0.25419698724E+04  0.19911006836E+04 0.  0.
        2    1    3    3  502    0 -0.68343761170E+03  0.66808781338E+03 -0.43426623958E+03  0.10497692424E+04  0.25500000920E-02 0. -1.
       -2    1    3    3    0  502  0.68343761170E+03 -0.66808781338E+03 -0.11459644081E+04  0.14922006300E+04  0.25500000920E-02 0.  1.
</event>
<event>
 5   0  0.3787698E-05  0.1997503E+04  0.7818609E-02  0.8607789E-01
       -1   -1    0    0    0  501  0.00000000000E+00  0.00000000000E+00  0.89764047694E+03  0.89764047695E+03  0.50400001928E-02 0. -1.
        1   -1    0    0  501    0  0.00000000000E+00  0.00000000000E+00 -0.11112520539E+04  0.11112520539E+04  0.50400001928E-02 0.  1.
    10030    2    1    2    0    0  0.00000000000E+00  0.00000000000E+00 -0.21361157696E+03  0.20088925309E+04  0.19975032653E+04 0.  0.
        4    1    3    3  502    0 -0.80605343724E+03 -0.56681467514E+03  0.56917363527E+02  0.98703709090E+03  0.12699999809E+01 0.  1.
       -4    1    3    3    0  502  0.80605343724E+03  0.56681467514E+03 -0.27052894049E+03  0.10218554400E+04  0.12699999809E+01 0. -1.
</event>
<event>
 5   0  0.3970042E-05  0.2001463E+04  0.7818609E-02  0.8605937E-01
       -1   -1    0    0    0  501  0.00000000000E+00  0.00000000000E+00  0.11246816255E+04  0.11246816255E+04  0.50400001928E-02 0. -1.
        1   -1    0    0  501    0  0.00000000000E+00  0.00000000000E+00 -0.89044185026E+03  0.89044185027E+03  0.50400001928E-02 0.  1.
    10030    2    1    2    0    0  0.00000000000E+00  0.00000000000E+00  0.23423977525E+03  0.20151234758E+04  0.20014630525E+04 0.  0.
        3    1    3    3  502    0  0.42328072552E+03 -0.75744148725E+02  0.10269244084E+04  0.11133182382E+04  0.10100000352E+00 0. -1.
       -3    1    3    3    0  502 -0.42328072552E+03  0.75744148725E+02 -0.79268463318E+03  0.90180523759E+03  0.10100000352E+00 0.  1.
</event>
<event>
 5   0  0.3970042E-05  0.1994867E+04  0.7818609E-02  0.8609024E-01
       -1   -1    0    0    0  501  0.00000000000E+00  0.00000000000E+00  0.59045423845E+03  0.59045423847E+03  0.50400001928E-02 0.  1.
        1   -1    0    0  501    0  0.00000000000E+00  0.00000000000E+00 -0.16849300185E+04  0.16849300185E+04  0.50400001928E-02 0. -1.
    10030    2    1    2    0    0  0.00000000000E+00  0.00000000000E+00 -0.10944757800E+04  0.22753842569E+04  0.19948674853E+04 0.  0.
        3    1    3    3  502    0  0.10163935451E+03 -0.41424541777E+03  0.48118343944E+03  0.64301425888E+03  0.10100000352E+00 0.  1.
       -3    1    3    3    0  502 -0.10163935451E+03  0.41424541777E+03 -0.15756592195E+04  0.16323699981E+04  0.10100000352E+00 0. -1.
</event>
<event>
 5   0  0.8022574E-05  0.1995873E+04  0.7818609E-02  0.8608552E-01
       -2   -1    0    0    0  501  0.00000000000E+00  0.00000000000E+00  0.14602545761E+04  0.14602545761E+04  0.25500000920E-02 0. -1.
        2   -1    0    0  501    0  0.00000000000E+00  0.00000000000E+00 -0.68198895137E+03  0.68198895137E+03  0.25500000920E-02 0.  1.
    10030    2    1    2    0    0  0.00000000000E+00  0.00000000000E+00  0.77826562474E+03  0.21422435275E+04  0.19958732295E+04 0.  0.
        1    1    3    3  502    0  0.81858608095E+03 -0.36677506083E+03  0.85855080847E+03  0.12416588130E+04  0.50400001928E-02 0. -1.
       -1    1    3    3    0  502 -0.81858608095E+03  0.36677506083E+03 -0.80285183728E+02  0.90058471447E+03  0.50400001928E-02 0.  1.
</event>
<event>
 5   0  0.8011197E-05  0.1998361E+04  0.7818609E-02  0.8607387E-01
        2   -1    0    0  501    0  0.00000000000E+00  0.00000000000E+00  0.14353141168E+04  0.14353141168E+04  0.25500000920E-02 0. -1.
       -2   -1    0    0    0  501  0.00000000000E+00  0.00000000000E+00 -0.69557018940E+03  0.69557018940E+03  0.25500000920E-02 0.  1.
    10030    2    1    2    0    0  0.00000000000E+00  0.00000000000E+00  0.73974392743E+03  0.21308843062E+04  0.19983610405E+04 0.  0.
        5    1    3    3  502    0 -0.67538399320E+03 -0.54740463496E+03  0.89501959119E+03  0.12477489857E+04  0.46999998093E+01 0. -1.
       -5    1    3    3    0  502  0.67538399320E+03  0.54740463496E+03 -0.15527566376E+03  0.88313532055E+03  0.46999998093E+01 0.  1.
</event>
<event>
 5   0  0.7843846E-05  0.1989419E+04  0.7818609E-02  0.8611584E-01
       -2   -1    0    0    0  501  0.00000000000E+00  0.00000000000E+00  0.68677779700E+03  0.68677779700E+03  0.25500000920E-02 0. -1.
        2   -1    0    0  501    0  0.00000000000E+00  0.00000000000E+00 -0.14407093829E+04  0.14407093829E+04  0.25500000920E-02 0.  1.
    10030    2    1    2    0    0  0.00000000000E+00  0.00000000000E+00 -0.75393158591E+03  0.21274871799E+04  0.19894192279E+04 0.  0.
        2    1    3    3  502    0 -0.86733037943E+03 -0.37838388660E+03 -0.70485691753E+03  0.11799405184E+04  0.25500000920E-02 0.  1.
       -2    1    3    3    0  502  0.86733037943E+03  0.37838388660E+03 -0.49074668385E+02  0.94754666154E+03  0.25500000920E-02 0. -1.
</event>
<event>
 5   0  0.3818907E-05  0.1994490E+04  0.7818609E-02  0.8609201E-01
        1   -1    0    0  501    0  0.00000000000E+00  0.00000000000E+00  0.19088004344E+04  0.19088004344E+04  0.50400001928E-02 0.  1.
       -1   -1    0    0    0  501  0.00000000000E+00  0.00000000000E+00 -0.52100638182E+03  0.52100638184E+03  0.50400001928E-02 0. -1.
    10030    2    1    2    0    0  0.00000000000E+00  0.00000000000E+00  0.13877940526E+04  0.24298068163E+04  0.19944896169E+04 0.  0.
        1    1    3    3  502    0 -0.49424148670E+03 -0.86344886917E+03  0.61056759070E+03  0.11673094618E+04  0.50400001928E-02 0.  1.
       -1    1    3    3    0  502  0.49424148670E+03  0.86344886917E+03  0.77722646188E+03  0.12624973544E+04  0.50400001928E-02 0. -1.
</event>
<event>
 5   0  0.7843846E-05  0.1995499E+04  0.7818609E-02  0.8608728E-01
        2   -1    0    0  501    0  0.00000000000E+00  0.00000000000E+00  0.13556763853E+04  0.13556763853E+04  0.25500000920E-02 0.  1.
       -2   -1    0    0    0  501  0.00000000000E+00  0.00000000000E+00 -0.73432262699E+03  0.73432262700E+03  0.25500000920E-02 0. -1.
    10030    2    1    2    0    0  0.00000000000E+00  0.00000000000E+00  0.62135375829E+03  0.20899990123E+04  0.19954987794E+04 0.  0.
        2    1    3    3  502    0  0.53319165948E+03  0.51827331972E+03 -0.38611313973E+03  0.83784481639E+03  0.25500000920E-02 0.  1.
       -2    1    3    3    0  502 -0.53319165948E+03 -0.51827331972E+03  0.10074668980E+04  0.12521541959E+04  0.25500000920E-02 0. -1.
</event>
<event>
 5   0  0.3818907E-05  0.1997278E+04  0.7818609E-02  0.8607894E-01
       -1   -1    0    0    0  501  0.00000000000E+00  0.00000000000E+00  0.96611850489E+03  0.96611850490E+03  0.50400001928E-02 0. -1.
        1   -1    0    0  501    0  0.00000000000E+00  0.00000000000E+00 -0.10322538587E+04  0.10322538588E+04  0.50400001928E-02 0.  1.
    10030    2    1    2    0    0  0.00000000000E+00  0.00000000000E+00 -0.66135353863E+02  0.19983723637E+04  0.19972777020E+04 0.  0.
        1    1    3    3  502    0 -0.79078872263E+03  0.79325282830E+02  0.57194567672E+03  0.97916350089E+03  0.50400001928E-02 0. -1.
       -1    1    3    3    0  502  0.79078872263E+03 -0.79325282830E+02 -0.63808103058E+03  0.10192088628E+04  0.50400001928E-02 0.  1.
</event>
<event>
 5   0  0.3549426E-05  0.1992842E+04  0.7818609E-02  0.8609975E-01
       -1   -1    0    0    0  501  0.00000000000E+00  0.00000000000E+00  0.10208060144E+04  0.10208060144E+04  0.50400001928E-02 0.  1.
        1   -1    0    0  501    0  0.00000000000E+00  0.00000000000E+00 -0.97261859914E+03  0.97261859915E+03  0.50400001928E-02 0. -1.
    10030    2    1    2    0    0  0.00000000000E+00  0.00000000000E+00  0.48187415214E+02  0.19934246135E+04  0.19928421068E+04 0.  0.
        5    1    3    3  502    0 -0.20780557922E+03  0.24952338801E+03  0.96638166122E+03  0.10194904046E+04  0.46999998093E+01 0.  1.
       -5    1    3    3    0  502  0.20780557922E+03 -0.24952338801E+03 -0.91819424600E+03  0.97393420893E+03  0.46999998093E+01 0. -1.
</event>
<event>
 5   0  0.7857136E-05  0.1991231E+04  0.7818609E-02  0.8610731E-01
        2   -1    0    0  501    0  0.00000000000E+00  0.00000000000E+00  0.72995866586E+03  0.72995866586E+03  0.25500000920E-02 0.  1.
       -2   -1    0    0    0  501  0.00000000000E+00  0.00000000000E+00 -0.13579544048E+04  0.13579544048E+04  0.25500000920E-02 0. -1.
    10030    2    1    2    0    0  0.00000000000E+00  0.00000000000E+00 -0.62799573897E+03  0.20879130707E+04  0.19912313634E+04 0.  0.
        4    1    3    3  502    0 -0.72222432152E+03 -0.63286290684E+03 -0.38314881140E+02  0.96103749795E+03  0.12699999809E+01 0.  1.
       -4    1    3    3    0  502  0.72222432152E+03  0.63286290684E+03 -0.58968085783E+03  0.11268755727E+04  0.12699999809E+01 0. -1.
</event>
<event>
 5   0  0.3970042E-05  0.2010322E+04  0.7818609E-02  0.8601810E-01
       -1   -1    0    0    0  501  0.00000000000E+00  0.00000000000E+00  0.50454229513E+03  0.50454229515E+03  0.50400001928E-02 0.  1.
        1   -1    0    0  501    0  0.00000000000E+00  0.00000000000E+00 -0.20025056669E+04  0.20025056669E+04  0.50400001928E-02 0. -1.
    10030    2    1    2    0    0  0.00000000000E+00  0.00000000000E+00 -0.14979633717E+04  0.25070479620E+04  0.20103221684E+04 0.  0.
        3    1    3    3  502    0 -0.82062337738E+03  0.57002780686E+03 -0.88556122586E+03  0.13351303768E+04  0.10100000352E+00 0. -1.
       -3    1    3    3    0  502  0.82062337738E+03 -0.57002780686E+03 -0.61240214588E+03  0.11719175852E+04  0.10100000352E+00 0.  1.
</event>
<event>
 5   0  0.2859625E-05  0.2129781E+04  0.7818609E-02  0.8548237E-01
       -3   -1    0    0    0  501  0.00000000000E+00  0.00000000000E+00  0.10275956620E+04  0.10275956670E+04  0.10100000352E+00 0. -1.
        3   -1    0    0  501    0  0.00000000000E+00  0.00000000000E+00 -0.11035384970E+04  0.11035385016E+04  0.10100000352E+00 0.  1.
    10030    2    1    2    0    0  0.00000000000E+00  0.00000000000E+00 -0.75942835024E+02  0.21311341686E+04  0.21297806296E+04 0.  0.
        2    1    3    3  502    0  0.10299263161E+04  0.14535794939E+03  0.19045908389E+03  0.10574269774E+04  0.25500000920E-02 0. -1.
       -2    1    3    3    0  502 -0.10299263161E+04 -0.14535794939E+03 -0.26640191891E+03  0.10737071912E+04  0.25500000920E-02 0.  1.
</event>
<event>
 5   0  0.3818907E-05  0.1974908E+04  0.7818609E-02  0.8618443E-01
       -1   -1    0    0    0  501  0.00000000000E+00  0.00000000000E+00  0.90530693831E+03  0.90530693833E+03  0.50400001928E-02 0.  1.
        1   -1    0    0  501    0  0.00000000000E+00  0.00000000000E+00 -0.10770545686E+04  0.10770545686E+04  0.50400001928E-02 0. -1.
    10030    2    1    2    0    0  0.00000000000E+00  0.00000000000E+00 -0.17174763032E+03  0.19823615070E+04  0.19749075664E+04 0.  0.
        1    1    3    3  502    0  0.24194217909E+03 -0.83063035691E+03  0.39192926434E+03  0.94978489992E+03  0.50400001928E-02 0. -1.
       -1    1    3    3    0  502 -0.24194217909E+03  0.83063035691E+03 -0.56367689466E+03  0.10325766071E+04  0.50400001928E-02 0.  1.
</event>
<event>
 5   0  0.3772949E-05  0.1948903E+04  0.7818609E-02  0.8630890E-01
       -1   -1    0    0    0  501  0.00000000000E+00  0.00000000000E+00  0.67993090409E+03  0.67993090410E+03  0.50400001928E-02 0.  1.
        1   -1    0    0  501    0  0.00000000000E+00  0.00000000000E+00 -0.13965473807E+04  0.13965473807E+04  0.50400001928E-02 0. -1.
    10030    2    1    2    0    0  0.00000000000E+00  0.00000000000E+00 -0.71661647662E+03  0.20764782848E+04  0.19489029973E+04 0.  0.
        2    1    3    3  502    0  0.11852630343E+03  0.92475005504E+03 -0.66031415203E+03  0.11424648477E+04  0.25500000920E-02 0. -1.
       -2    1    3    3    0  502 -0.11852630343E+03 -0.92475005504E+03 -0.56302324589E+02  0.93401343709E+03  0.25500000920E-02 0.  1.
</event>
<event>
 5   0  0.3787698E-05  0.2086348E+04  0.7818609E-02  0.8567281E-01
       -1   -1    0    0    0  501  0.00000000000E+00  0.00000000000E+00  0.69391657147E+03  0.69391657149E+03  0.50400001928E-02 0. -1.
        1   -1    0    0  501    0  0.00000000000E+00  0.00000000000E+00 -0.15682180067E+04  0.15682180068E+04  0.50400001928E-02 0.  1.
    10030    2    1    2    0    0  0.00000000000E+00  0.00000000000E+00 -0.87430143528E+03  0.22621345782E+04  0.20863484489E+04 0.  0.
        4    1    3    3  502    0  0.63803773964E+03  0.12017580798E+03 -0.13224480545E+04  0.14732293955E+04  0.12699999809E+01 0.  1.
       -4    1    3    3    0  502 -0.63803773964E+03 -0.12017580798E+03  0.44814661927E+03  0.78890518270E+03  0.12699999809E+01 0. -1.
</event>
<event>
 5   0  0.3549426E-05  0.1918566E+04  0.7818609E-02  0.8645670E-01
       -1   -1    0    0    0  501  0.00000000000E+00  0.00000000000E+00  0.80450590809E+03  0.80450590810E+03  0.50400001928E-02 0. -1.
        1   -1    0    0  501    0  0.00000000000E+00  0.00000000000E+00 -0.11438369165E+04  0.11438369165E+04  0.50400001928E-02 0.  1.
    10030    2    1    2    0    0  0.00000000000E+00  0.00000000000E+00 -0.33933100840E+03  0.19483428246E+04  0.19185656697E+04 0.  0.
        5    1    3    3  502    0  0.34891151640E+02  0.32005698647E+03 -0.10873205580E+04  0.11339938064E+04  0.46999998093E+01 0.  1.
       -5    1    3    3    0  502 -0.34891151640E+02 -0.32005698647E+03  0.74798954964E+03  0.81434901819E+03  0.46999998093E+01 0. -1.
</event>
<event>
 5   0  0.8022574E-05  0.1992426E+04  0.7818609E-02  0.8610170E-01
       -2   -1    0    0    0  501  0.00000000000E+00  0.00000000000E+00  0.50577646264E+03  0.50577646264E+03  0.25500000920E-02 0. -1.
        2   -1    0    0  501    0  0.00000000000E+00  0.00000000000E+00 -0.19622121657E+04  0.19622121657E+04  0.25500000920E-02 0.  1.
    10030    2    1    2    0    0  0.00000000000E+00  0.00000000000E+00 -0.14564357031E+04  0.24679886283E+04  0.19924263882E+04 0.  0.
        1    1    3    3  502    0 -0.15234540127E+03 -0.36123617836E+03  0.40620392510E+03  0.56453726771E+03  0.50400001928E-02 0. -1.
       -1    1    3    3    0  502  0.15234540127E+03  0.36123617836E+03 -0.18626396282E+04  0.19034513606E+04  0.50400001928E-02 0.  1.
</event>
<event>
 5   0  0.3772949E-05  0.1985623E+04  0.7818609E-02  0.8613372E-01
       -1   -1    0    0    0  501  0.00000000000E+00  0.00000000000E+00  0.57600025108E+03  0.57600025110E+03  0.50400001928E-02 0.  1.
        1   -1    0    0  501    0  0.00000000000E+00  0.00000000000E+00 -0.17112394077E+04  0.17112394077E+04  0.50400001928E-02 0. -1.
    10030    2    1    2    0    0  0.00000000000E+00  0.00000000000E+00 -0.11352391566E+04  0.22872396588E+04  0.19856226515E+04 0.  0.
        2    1    3    3  502    0 -0.12410181080E+03 -0.68755244836E+03  0.24489470887E+03  0.74033981869E+03  0.25500000920E-02 0.  1.
       -2    1    3    3    0  502  0.12410181080E+03  0.68755244836E+03 -0.13801338655E+04  0.15468998401E+04  0.25500000920E-02 0. -1.
</event>
<event>
 5   0  0.7935008E-05  0.1997360E+04  0.7818609E-02  0.8607856E-01
        2   -1    0    0  501    0  0.00000000000E+00  0.00000000000E+00  0.17390097812E+04  0.17390097812E+04  0.25500000920E-02 0. -1.
       -2   -1    0    0    0  501  0.00000000000E+00  0.00000000000E+00 -0.57352273615E+03  0.57352273616E+03  0.25500000920E-02 0.  1.
    10030    2    1    2    0    0  0.00000000000E+00  0.00000000000E+00  0.11654870451E+04  0.23125325174E+04  0.19973599054E+04 0.  0.
        3    1    3    3  502    0 -0.79398004149E+03 -0.65660513702E+02  0.12799685745E+04  0.15076588378E+04  0.10100000352E+00 0. -1.
       -3    1    3    3    0  502  0.79398004149E+03  0.65660513702E+02 -0.11448152939E+03  0.80487367960E+03  0.10100000352E+00 0.  1.
</event>
<event>
 5   0  0.3787698E-05  0.2003943E+04  0.7818609E-02  0.8604779E-01
       -1   -1    0    0    0  501  0.00000000000E+00  0.00000000000E+00  0.60156021089E+03  0.60156021091E+03  0.50400001928E-02 0. -1.
        1   -1    0    0  501    0  0.00000000000E+00  0.00000000000E+00 -0.16689055669E+04  0.16689055669E+04  0.50400001928E-02 0.  1.
    10030    2    1    2    0    0  0.00000000000E+00  0.00000000000E+00 -0.10673453560E+04  0.22704657778E+04  0.20039432974E+04 0.  0.
        4    1    3    3  502    0 -0.73459610682E+03  0.38527205567E+03  0.10310862590E+03  0.83588216794E+03  0.12699999809E+01 0. -1.
       -4    1    3    3    0  502  0.73459610682E+03 -0.38527205567E+03 -0.11704539819E+04  0.14345836098E+04  0.12699999809E+01 0.  1.
</event>
<event>
 5   0  0.8022574E-05  0.1946299E+04  0.7818609E-02  0.8632148E-01
       -2   -1    0    0    0  501  0.00000000000E+00  0.00000000000E+00  0.54299391552E+03  0.54299391552E+03  0.25500000920E-02 0. -1.
        2   -1    0    0  501    0  0.00000000000E+00  0.00000000000E+00 -0.17440702814E+04  0.17440702814E+04  0.25500000920E-02 0.  1.
    10030    2    1    2    0    0  0.00000000000E+00  0.00000000000E+00 -0.12010763659E+04  0.22870641970E+04  0.19462985907E+04 0.  0.
        1    1    3    3  502    0 -0.85521044949E+03  0.42589849259E+03 -0.81799257476E+03  0.12577306116E+04  0.50400001928E-02 0.  1.
       -1    1    3    3    0  502  0.85521044949E+03 -0.42589849259E+03 -0.38308379114E+03  0.10293335854E+04  0.50400001928E-02 0. -1.
</event>
<event>
 5   0  0.3970042E-05  0.2015448E+04  0.7818609E-02  0.8599432E-01
       -1   -1    0    0    0  501  0.00000000000E+00  0.00000000000E+00  0.13485443554E+04  0.13485443554E+04  0.50400001928E-02 0.  1.
        1   -1    0    0  501    0  0.00000000000E+00  0.00000000000E+00 -0.75303949324E+03  0.75303949326E+03  0.50400001928E-02 0. -1.
    10030    2    1    2    0    0  0.00000000000E+00  0.00000000000E+00  0.59550486217E+03  0.21015838487E+04  0.20154475017E+04 0.  0.
        3    1    3    3  502    0 -0.61039349804E+03  0.69726640183E+03  0.71058518301E+03  0.11677722253E+04  0.10100000352E+00 0. -1.
       -3    1    3    3    0  502  0.61039349804E+03 -0.69726640183E+03 -0.11508032085E+03  0.93381162341E+03  0.10100000352E+00 0.  1.
</event>
<event>
 5   0  0.7857136E-05  0.1902479E+04  0.7818609E-02  0.8653623E-01
       -2   -1    0    0    0  501  0.00000000000E+00  0.00000000000E+00  0.51388889735E+03  0.51388889736E+03  0.25500000920E-02 0.  1.
        2   -1    0    0  501    0  0.00000000000E+00  0.00000000000E+00 -0.17608023272E+04  0.17608023272E+04  0.25500000920E-02 0. -1.
    10030    2    1    2    0    0  0.00000000000E+00  0.00000000000E+00 -0.12469134298E+04  0.22746912245E+04  0.19024791892E+04 0.  0.
        4    1    3    3  502    0 -0.42132114205E+03  0.82796713352E+03 -0.86794822445E+03  0.12713680868E+04  0.12699999809E+01 0. -1.
       -4    1    3    3    0  502  0.42132114205E+03 -0.82796713352E+03 -0.37896520539E+03  0.10033231377E+04  0.12699999809E+01 0.  1.
</event>
<event>
 5   0  0.2859625E-05  0.2066950E+04  0.7818609E-02  0.8575944E-01
        3   -1    0    0  501    0  0.00000000000E+00  0.00000000000E+00  0.16715105480E+04  0.16715105510E+04  0.10100000352E+00 0. -1.
       -3   -1    0    0    0  501  0.00000000000E+00  0.00000000000E+00 -0.63898506018E+03  0.63898506816E+03  0.10100000352E+00 0.  1.
    10030    2    1    2    0    0  0.00000000000E+00  0.00000000000E+00  0.10325254878E+04  0.23104956192E+04  0.20669497148E+04 0.  0.
        5    1    3    3  502    0  0.32389925982E+03 -0.98594825308E+02 -0.57521924809E+03  0.66748104352E+03  0.46999998093E+01 0.  1.
       -5    1    3    3    0  502 -0.32389925982E+03  0.98594825308E+02  0.16077447359E+04  0.16430145757E+04  0.46999998093E+01 0. -1.
</event>
<event>
 5   0  0.7857136E-05  0.2009605E+04  0.7818609E-02  0.8602143E-01
        2   -1    0    0  501    0  0.00000000000E+00  0.00000000000E+00  0.19940910202E+04  0.19940910202E+04  0.25500000920E-02 0.  1.
       -2   -1    0    0    0  501  0.00000000000E+00  0.00000000000E+00 -0.50630984543E+03  0.50630984543E+03  0.25500000920E-02 0. -1.
    10030    2    1    2    0    0  0.00000000000E+00  0.00000000000E+00  0.14877811747E+04  0.25004008656E+04  0.20096048529E+04 0.  0.
        4    1    3    3  502    0 -0.59661311069E+03 -0.72712092653E+03  0.11837453033E+04  0.15119214932E+04  0.12699999809E+01 0.  1.
       -4    1    3    3    0  502  0.59661311069E+03  0.72712092653E+03  0.30403587145E+03  0.98847937240E+03  0.12699999809E+01 0. -1.
</event>
<event>
 5   0  0.8011197E-05  0.1998208E+04  0.7818609E-02  0.8607459E-01
       -2   -1    0    0    0  501  0.00000000000E+00  0.00000000000E+00  0.11239723679E+04  0.11239723680E+04  0.25500000920E-02 0. -1.
        2   -1    0    0  501    0  0.00000000000E+00  0.00000000000E+00 -0.88810811697E+03  0.88810811697E+03  0.25500000920E-02 0.  1.
    10030    2    1    2    0    0  0.00000000000E+00  0.00000000000E+00  0.23586425098E+03  0.20120804849E+04  0.19982081806E+04 0.  0.
        5    1    3    3  502    0  0.70875494329E+03  0.18927617871E+03  0.80089434435E+03  0.10860998491E+04  0.46999998093E+01 0. -1.
       -5    1    3    3    0  502 -0.70875494329E+03 -0.18927617871E+03 -0.56503009337E+03  0.92598063580E+03  0.46999998093E+01 0.  1.
</event>
<event>
 5   0  0.7843846E-05  0.1989544E+04  0.7818609E-02  0.8611525E-01
       -2   -1    0    0    0  501  0.00000000000E+00  0.00000000000E+00  0.12325730648E+04  0.12325730648E+04  0.25500000920E-02 0. -1.
        2   -1    0    0  501    0  0.00000000000E+00  0.00000000000E+00 -0.80285002775E+03  0.80285002776E+03  0.25500000920E-02 0.  1.
    10030    2    1    2    0    0  0.00000000000E+00  0.00000000000E+00  0.42972303705E+03  0.20354230926E+04  0.19895439872E+04 0.  0.
        2    1    3    3  502    0  0.98501830913E+02  0.30239954481E+03  0.11791591572E+04  0.12212962022E+04  0.25500000920E-02 0. -1.
       -2    1    3    3    0  502 -0.98501830913E+02 -0.30239954481E+03 -0.74943612018E+03  0.81412689038E+03  0.25500000920E-02 0.  1.
</event>
<event>
 5   0  0.7935008E-05  0.2005893E+04  0.7818609E-02  0.8603870E-01
       -2   -1    0    0    0  501  0.00000000000E+00  0.00000000000E+00  0.11752057225E+04  0.11752057225E+04  0.25500000920E-02 0.  1.
        2   -1    0    0  501    0  0.00000000000E+00  0.00000000000E+00 -0.85593670364E+03  0.85593670364E+03  0.25500000920E-02 0. -1.
    10030    2    1    2    0    0  0.00000000000E+00  0.00000000000E+00  0.31926901890E+03  0.20311424262E+04  0.20058930303E+04 0.  0.
        3    1    3    3  502    0 -0.17477296509E+03  0.96976402607E+03 -0.29569988760E+02  0.98583074106E+03  0.10100000352E+00 0. -1.
       -3    1    3    3    0  502  0.17477296509E+03 -0.96976402607E+03  0.34883900766E+03  0.10453116851E+04  0.10100000352E+00 0.  1.
</event>
<event>
 5   0  0.7935008E-05  0.1950715E+04  0.7818609E-02  0.8630016E-01
       -2   -1    0    0    0  501  0.00000000000E+00  0.00000000000E+00  0.50895684243E+03  0.50895684243E+03  0.25500000920E-02 0.  1.
        2   -1    0    0  501    0  0.00000000000E+00  0.00000000000E+00 -0.18691611481E+04  0.18691611482E+04  0.25500000920E-02 0. -1.
    10030    2    1    2    0    0  0.00000000000E+00  0.00000000000E+00 -0.13602043057E+04  0.23781179906E+04  0.19507151058E+04 0.  0.
        3    1    3    3  502    0 -0.83057368201E+03  0.31888437096E+03 -0.19279351867E+03  0.91033468259E+03  0.10100000352E+00 0.  1.
       -3    1    3    3    0  502  0.83057368201E+03 -0.31888437096E+03 -0.11674107871E+04  0.14677833080E+04  0.10100000352E+00 0. -1.
</event>
<event>
 5   0  0.7843846E-05  0.2007137E+04  0.7818609E-02  0.8603291E-01
        2   -1    0    0  501    0  0.00000000000E+00  0.00000000000E+00  0.28321123337E+04  0.28321123337E+04  0.25500000920E-02 0.  1.
       -2   -1    0    0    0  501  0.00000000000E+00  0.00000000000E+00 -0.35561780358E+03  0.35561780359E+03  0.25500000920E-02 0. -1.
    10030    2    1    2    0    0  0.00000000000E+00  0.00000000000E+00  0.24764945301E+04  0.31877301373E+04  0.20071368340E+04 0.  0.
        2    1    3    3  502    0  0.62406665788E+03  0.18116901453E+03  0.23646479098E+02  0.65026191745E+03  0.25500000920E-02 0. -1.
       -2    1    3    3    0  502 -0.62406665788E+03 -0.18116901453E+03  0.24528480510E+04  0.25374682198E+04  0.25500000920E-02 0.  1.
</event>
<event>
 5   0  0.2859625E-05  0.2012948E+04  0.7818609E-02  0.8600591E-01
       -3   -1    0    0    0  501  0.00000000000E+00  0.00000000000E+00  0.97714450784E+03  0.97714451306E+03  0.10100000352E+00 0.  1.
        3   -1    0    0  501    0  0.00000000000E+00  0.00000000000E+00 -0.10366841663E+04  0.10366841712E+04  0.10100000352E+00 0. -1.
    10030    2    1    2    0    0  0.00000000000E+00  0.00000000000E+00 -0.59539658491E+02  0.20138286843E+04  0.20129483349E+04 0.  0.
        4    1    3    3  502    0  0.72235842843E+03 -0.70070852792E+03 -0.43722131183E+02  0.10073268476E+04  0.12699999809E+01 0. -1.
       -4    1    3    3    0  502 -0.72235842843E+03  0.70070852792E+03 -0.15817527308E+02  0.10065018367E+04  0.12699999809E+01 0.  1.
</event>
<event>
 5   0  0.8011197E-05  0.2003941E+04  0.7818609E-02  0.8604781E-01
       -2   -1    0    0    0  501  0.00000000000E+00  0.00000000000E+00  0.65476172240E+03  0.65476172240E+03  0.25500000920E-02 0. -1.
        2   -1    0    0  501    0  0.00000000000E+00  0.00000000000E+00 -0.15332973051E+04  0.15332973051E+04  0.25500000920E-02 0.  1.
    10030    2    1    2    0    0  0.00000000000E+00  0.00000000000E+00 -0.87853558269E+03  0.21880590275E+04  0.20039405025E+04 0.  0.
        5    1    3    3  502    0  0.58119797016E+03 -0.21579085593E+03 -0.12987122803E+04  0.14391082138E+04  0.46999998093E+01 0.  1.
       -5    1    3    3    0  502 -0.58119797016E+03  0.21579085593E+03  0.42017669765E+03  0.74895081365E+03  0.46999998093E+01 0. -1.
</event>
<event>
 5   0  0.7935008E-05  0.1995345E+04  0.7818609E-02  0.8608800E-01
       -2   -1    0    0    0  501  0.00000000000E+00  0.00000000000E+00  0.59862849955E+03  0.59862849956E+03  0.25500000920E-02 0.  1.
        2   -1    0    0  501    0  0.00000000000E+00  0.00000000000E+00 -0.16627183364E+04  0.16627183364E+04  0.25500000920E-02 0. -1.
    10030    2    1    2    0    0  0.00000000000E+00  0.00000000000E+00 -0.10640898368E+04  0.22613468360E+04  0.19953451660E+04 0.  0.
        3    1    3    3  502    0 -0.38102525987E+03  0.76592964838E+03  0.49733576843E+02  0.85691418111E+03  0.10100000352E+00 0. -1.
       -3    1    3    3    0  502  0.38102525987E+03 -0.76592964838E+03 -0.11138234137E+04  0.14044326548E+04  0.10100000352E+00 0.  1.
</event>
<event>
 5   0  0.3787698E-05  0.1832507E+04  0.7818609E-02  0.8689201E-01
        1   -1    0    0  501    0  0.00000000000E+00  0.00000000000E+00  0.14980972406E+04  0.14980972406E+04  0.50400001928E-02 0.  1.
       -1   -1    0    0    0  501  0.00000000000E+00  0.00000000000E+00 -0.56039124079E+03  0.56039124081E+03  0.50400001928E-02 0. -1.
    10030    2    1    2    0    0  0.00000000000E+00  0.00000000000E+00  0.93770599979E+03  0.20584884814E+04  0.18325071039E+04 0.  0.
        4    1    3    3  502    0 -0.44238840934E+03 -0.60758188675E+03 -0.11985113512E+03  0.76107106194E+03  0.12699999809E+01 0. -1.
       -4    1    3    3    0  502  0.44238840934E+03  0.60758188675E+03  0.10575571349E+04  0.12974174195E+04  0.12699999809E+01 0.  1.
</event>
<event>
 5   0  0.8022574E-05  0.2000113E+04  0.7818609E-02  0.8606568E-01
        2   -1    0    0  501    0  0.00000000000E+00  0.00000000000E+00  0.79226899518E+03  0.79226899518E+03  0.25500000920E-02 0.  1.
       -2   -1    0    0    0  501  0.00000000000E+00  0.00000000000E+00 -0.12623401238E+04  0.12623401238E+04  0.25500000920E-02 0. -1.
    10030    2    1    2    0    0  0.00000000000E+00  0.00000000000E+00 -0.47007112866E+03  0.20546091190E+04  0.20001129383E+04 0.  0.
        1    1    3    3  502    0 -0.14267675561E+02 -0.71223292338E+03  0.48596685749E+03  0.86234743017E+03  0.50400001928E-02 0.  1.
       -1    1    3    3    0  502  0.14267675561E+02  0.71223292338E+03 -0.95603798616E+03  0.11922616889E+04  0.50400001928E-02 0. -1.
</event>
<event>
 5   0  0.7843846E-05  0.2002216E+04  0.7818609E-02  0.8605585E-01
        2   -1    0    0  501    0  0.00000000000E+00  0.00000000000E+00  0.41584610504E+03  0.41584610505E+03  0.25500000920E-02 0. -1.
       -2   -1    0    0    0  501  0.00000000000E+00  0.00000000000E+00 -0.24100675407E+04  0.24100675407E+04  0.25500000920E-02 0.  1.
    10030    2    1    2    0    0  0.00000000000E+00  0.00000000000E+00 -0.19942214357E+04  0.28259136458E+04  0.20022159721E+04 0.  0.
        2    1    3    3  502    0  0.95881335413E+02 -0.83171480226E+03 -0.17718028070E+04  0.19596499508E+04  0.25500000920E-02 0. -1.
       -2    1    3    3    0  502 -0.95881335413E+02  0.83171480226E+03 -0.22241862863E+03  0.86626369493E+03  0.25500000920E-02 0.  1.
</event>
<event>
 5   0  0.3772949E-05  0.2015505E+04  0.7818609E-02  0.8599406E-01
        1   -1    0    0  501    0  0.00000000000E+00  0.00000000000E+00  0.11755442388E+04  0.11755442388E+04  0.50400001928E-02 0.  1.
       -1   -1    0    0    0  501  0.00000000000E+00  0.00000000000E+00 -0.86391078485E+03  0.86391078486E+03  0.50400001928E-02 0. -1.
    10030    2    1    2    0    0  0.00000000000E+00  0.00000000000E+00  0.31163345397E+03  0.20394550237E+04  0.20155052429E+04 0.  0.
        2    1    3    3  502    0  0.64431286411E+02 -0.43267876770E+03  0.10744608603E+04  0.11600984643E+04  0.25500000920E-02 0.  1.
       -2    1    3    3    0  502 -0.64431286411E+02  0.43267876770E+03 -0.76282740630E+03  0.87935655936E+03  0.25500000920E-02 0. -1.
</event>
<event>
 5   0  0.8011197E-05  0.1981512E+04  0.7818609E-02  0.8615313E-01
        2   -1    0    0  501    0  0.00000000000E+00  0.00000000000E+00  0.13888762571E+04  0.13888762571E+04  0.25500000920E-02 0.  1.
       -2   -1    0    0    0  501  0.00000000000E+00  0.00000000000E+00 -0.70675690569E+03  0.70675690569E+03  0.25500000920E-02 0. -1.
    10030    2    1    2    0    0  0.00000000000E+00  0.00000000000E+00  0.68211935145E+03  0.20956331628E+04  0.19815124384E+04 0.  0.
        5    1    3    3  502    0 -0.82368916156E+03  0.47586376648E+03  0.48227473771E+02  0.95250099125E+03  0.46999998093E+01 0. -1.
       -5    1    3    3    0  502  0.82368916156E+03 -0.47586376648E+03  0.63389187768E+03  0.11431321716E+04  0.46999998093E+01 0.  1.
</event>
<event>
 5   0  0.3970042E-05  0.2006094E+04  0.7818609E-02  0.8603777E-01
        1   -1    0    0  501    0  0.00000000000E+00  0.00000000000E+00  0.90574250253E+03  0.90574250255E+03  0.50400001928E-02 0. -1.
       -1   -1    0    0    0  501  0.00000000000E+00  0.00000000000E+00 -0.11108045765E+04  0.11108045765E+04  0.50400001928E-02 0.  1.
    10030    2    1    2    0    0  0.00000000000E+00  0.00000000000E+00 -0.20506207396E+03  0.20165470790E+04  0.20060936339E+04 0.  0.
        3    1    3    3  502    0  0.50879090547E+03  0.42240194916E+03  0.65559476785E+03  0.93117995144E+03  0.10100000352E+00 0. -1.
       -3    1    3    3    0  502 -0.50879090547E+03 -0.42240194916E+03 -0.86065684180E+03  0.10853671276E+04  0.10100000352E+00 0.  1.
</event>
<event>
 5   0  0.3970042E-05  0.2004987E+04  0.7818609E-02  0.8604293E-01
       -1   -1    0    0    0  501  0.00000000000E+00  0.00000000000E+00  0.11006300789E+04  0.11006300789E+04  0.50400001928E-02 0.  1.
        1   -1    0    0  501    0  0.00000000000E+00  0.00000000000E+00 -0.91310726996E+03  0.91310726998E+03  0.50400001928E-02 0. -1.
    10030    2    1    2    0    0  0.00000000000E+00  0.00000000000E+00  0.18752280897E+03  0.20137373489E+04  0.20049871088E+04 0.  0.
        3    1    3    3  502    0  0.51901323900E+03  0.60183640946E+03 -0.51997953087E+03  0.94971602531E+03  0.10100000352E+00 0. -1.
       -3    1    3    3    0  502 -0.51901323900E+03 -0.60183640946E+03  0.70750233983E+03  0.10640213236E+04  0.10100000352E+00 0.  1.
</event>
<event>
 5   0  0.3787698E-05  0.2008621E+04  0.7818609E-02  0.8602600E-01
        1   -1    0    0  501    0  0.00000000000E+00  0.00000000000E+00  0.66345642996E+03  0.66345642998E+03  0.50400001928E-02 0. -1.
       -1   -1    0    0    0  501  0.00000000000E+00  0.00000000000E+00 -0.15202806213E+04  0.15202806213E+04  0.50400001928E-02 0.  1.
    10030    2    1    2    0    0  0.00000000000E+00  0.00000000000E+00 -0.85682419133E+03  0.21837370513E+04  0.20086213716E+04 0.  0.
        4    1    3    3  502    0 -0.33017099521E+02 -0.66038926975E+03  0.39342433196E+03  0.76940784655E+03  0.12699999809E+01 0. -1.
       -4    1    3    3    0  502  0.33017099521E+02  0.66038926975E+03 -0.12502485233E+04  0.14143292047E+04  0.12699999809E+01 0.  1.
</event>
<event>
 5   0  0.7857136E-05  0.2000864E+04  0.7818609E-02  0.8606217E-01
        2   -1    0    0  501    0  0.00000000000E+00  0.00000000000E+00  0.15265050022E+04  0.15265050022E+04  0.25500000920E-02 0. -1.
       -2   -1    0    0    0  501  0.00000000000E+00  0.00000000000E+00 -0.65565742402E+03  0.65565742402E+03  0.25500000920E-02 0.  1.
    10030    2    1    2    0    0  0.00000000000E+00  0.00000000000E+00  0.87084757817E+03  0.21821624262E+04  0.20008641508E+04 0.  0.
        4    1    3    3  502    0  0.12576853960E+03 -0.31325399926E+03  0.14625195652E+04  0.15009699815E+04  0.12699999809E+01 0. -1.
       -4    1    3    3    0  502 -0.12576853960E+03  0.31325399926E+03 -0.59167198708E+03  0.68119244476E+03  0.12699999809E+01 0.  1.
</event>
<event>
 5   0  0.7843846E-05  0.2038071E+04  0.7818609E-02  0.8589025E-01
        2   -1    0    0  501    0  0.00000000000E+00  0.00000000000E+00  0.18223304871E+04  0.18223304871E+04  0.25500000920E-02 0.  1.
       -2   -1    0    0    0  501  0.00000000000E+00  0.00000000000E+00 -0.56983784189E+03  0.56983784190E+03  0.25500000920E-02 0. -1.
    10030    2    1    2    0    0  0.00000000000E+00  0.00000000000E+00  0.12524926452E+04  0.23921683290E+04  0.20380705307E+04 0.  0.
        2    1    3    3  502    0  0.43322862989E+03  0.37457712422E+03  0.16155635200E+04  0.17140713390E+04  0.25500000920E-02 0.  1.
       -2    1    3    3    0  502 -0.43322862989E+03 -0.37457712422E+03 -0.36307087483E+03  0.67809699004E+03  0.25500000920E-02 0. -1.
</event>
<event>
 5   0  0.7857136E-05  0.1980608E+04  0.7818609E-02  0.8615741E-01
       -2   -1    0    0    0  501  0.00000000000E+00  0.00000000000E+00  0.11412554576E+04  0.11412554576E+04  0.25500000920E-02 0. -1.
        2   -1    0    0  501    0  0.00000000000E+00  0.00000000000E+00 -0.85931838273E+03  0.85931838273E+03  0.25500000920E-02 0.  1.
    10030    2    1    2    0    0  0.00000000000E+00  0.00000000000E+00  0.28193707483E+03  0.20005738403E+04  0.19806077795E+04 0.  0.
        4    1    3    3  502    0  0.28457392982E+02  0.64715650693E+03  0.89757150440E+03  0.11069135405E+04  0.12699999809E+01 0. -1.
       -4    1    3    3    0  502 -0.28457392982E+02 -0.64715650693E+03 -0.61563442957E+03  0.89366029981E+03  0.12699999809E+01 0.  1.
</event>
<event>
 5   0  0.8022574E-05  0.1992480E+04  0.7818609E-02  0.8610144E-01
        2   -1    0    0  501    0  0.00000000000E+00  0.00000000000E+00  0.11074957914E+04  0.11074957914E+04  0.25500000920E-02 0.  1.
       -2   -1    0    0    0  501  0.00000000000E+00  0.00000000000E+00 -0.89616106600E+03  0.89616106600E+03  0.25500000920E-02 0. -1.
    10030    2    1    2    0    0  0.00000000000E+00  0.00000000000E+00  0.21133472544E+03  0.20036568574E+04  0.19924804732E+04 0.  0.
        1    1    3    3  502    0  0.76375751220E+03  0.24255683469E+03 -0.48954397348E+03  0.93904880463E+03  0.50400001928E-02 0. -1.
       -1    1    3    3    0  502 -0.76375751220E+03 -0.24255683469E+03  0.70087869892E+03  0.10646080528E+04  0.50400001928E-02 0.  1.
</event>
<event>
 5   0  0.7935008E-05  0.2007267E+04  0.7818609E-02  0.8603231E-01
        2   -1    0    0  501    0  0.00000000000E+00  0.00000000000E+00  0.11911722798E+04  0.11911722798E+04  0.25500000920E-02 0. -1.
       -2   -1    0    0    0  501  0.00000000000E+00  0.00000000000E+00 -0.84562053845E+03  0.84562053845E+03  0.25500000920E-02 0.  1.
    10030    2    1    2    0    0  0.00000000000E+00  0.00000000000E+00  0.34555174135E+03  0.20367928183E+04  0.20072665440E+04 0.  0.
        3    1    3    3  502    0  0.88920805285E+03 -0.16080207476E+03 -0.27037640341E+03  0.94321348496E+03  0.10100000352E+00 0.  1.
       -3    1    3    3    0  502 -0.88920805285E+03  0.16080207476E+03  0.61592814475E+03  0.10935793333E+04  0.10100000352E+00 0. -1.
</event>
<event>
 5   0  0.3818907E-05  0.2006708E+04  0.7818609E-02  0.8603491E-01
        1   -1    0    0  501    0  0.00000000000E+00  0.00000000000E+00  0.11334105534E+04  0.11334105534E+04  0.50400001928E-02 0. -1.
       -1   -1    0    0    0  501  0.00000000000E+00  0.00000000000E+00 -0.88822150246E+03  0.88822150247E+03  0.50400001928E-02 0.  1.
    10030    2    1    2    0    0  0.00000000000E+00  0.00000000000E+00  0.24518905090E+03  0.20216320558E+04  0.20067083741E+04 0.  0.
        1    1    3    3  502    0  0.30041441946E+02  0.35735586367E+03  0.10666408026E+04  0.11253125358E+04  0.50400001928E-02 0. -1.
       -1    1    3    3    0  502 -0.30041441946E+02 -0.35735586367E+03 -0.82145175170E+03  0.89631952000E+03  0.50400001928E-02 0.  1.
</event>
<event>
 5   0  0.7843846E-05  0.2004445E+04  0.7818609E-02  0.8604545E-01
       -2   -1    0    0    0  501  0.00000000000E+00  0.00000000000E+00  0.43229876638E+03  0.43229876639E+03  0.25500000920E-02 0. -1.
        2   -1    0    0  501    0  0.00000000000E+00  0.00000000000E+00 -0.23235088689E+04  0.23235088689E+04  0.25500000920E-02 0.  1.
    10030    2    1    2    0    0  0.00000000000E+00  0.00000000000E+00 -0.18912101025E+04  0.27558076353E+04  0.20044450780E+04 0.  0.
        2    1    3    3  502    0 -0.47485898180E+03 -0.75042497391E+03 -0.15843124013E+04  0.18162253382E+04  0.25500000920E-02 0.  1.
       -2    1    3    3    0  502  0.47485898180E+03  0.75042497391E+03 -0.30689770122E+03  0.93958229713E+03  0.25500000920E-02 0. -1.
</event>
<event>
 5   0  0.3772949E-05  0.2003371E+04  0.7818609E-02  0.8605046E-01
        1   -1    0    0  501    0  0.00000000000E+00  0.00000000000E+00  0.12984987147E+04  0.12984987147E+04  0.50400001928E-02 0.  1.
       -1   -1    0    0    0  501  0.00000000000E+00  0.00000000000E+00 -0.77271850393E+03  0.77271850395E+03  0.50400001928E-02 0. -1.
    10030    2    1    2    0    0  0.00000000000E+00  0.00000000000E+00  0.52578021074E+03  0.20712172186E+04  0.20033711430E+04 0.  0.
        2    1    3    3  502    0 -0.78125124102E+02  0.77618108103E+03 -0.38673105722E+03  0.87070173779E+03  0.25500000920E-02 0. -1.
       -2    1    3    3    0  502  0.78125124102E+02 -0.77618108103E+03  0.91251126796E+03  0.12005154808E+04  0.25500000920E-02 0.  1.
</event>
<event>
 5   0  0.7843846E-05  0.2026430E+04  0.7818609E-02  0.8594362E-01
       -2   -1    0    0    0  501  0.00000000000E+00  0.00000000000E+00  0.65988813491E+03  0.65988813492E+03  0.25500000920E-02 0. -1.
        2   -1    0    0  501    0  0.00000000000E+00  0.00000000000E+00 -0.15557255143E+04  0.15557255143E+04  0.25500000920E-02 0.  1.
    10030    2    1    2    0    0  0.00000000000E+00  0.00000000000E+00 -0.89583737942E+03  0.22156136492E+04  0.20264301696E+04 0.  0.
        2    1    3    3  502    0  0.26775397082E+03 -0.95038633249E+03 -0.69647058520E+03  0.12083036232E+04  0.25500000920E-02 0.  1.
       -2    1    3    3    0  502 -0.26775397082E+03  0.95038633249E+03 -0.19936679422E+03  0.10073100260E+04  0.25500000920E-02 0. -1.
</event>
<event>
 5   0  0.7857136E-05  0.1985908E+04  0.7818609E-02  0.8613237E-01
       -2   -1    0    0    0  501  0.00000000000E+00  0.00000000000E+00  0.40420770283E+03  0.40420770284E+03  0.25500000920E-02 0. -1.
        2   -1    0    0  501    0  0.00000000000E+00  0.00000000000E+00 -0.24392358181E+04  0.24392358181E+04  0.25500000920E-02 0.  1.
    10030    2    1    2    0    0  0.00000000000E+00  0.00000000000E+00 -0.20350281153E+04  0.28434435210E+04  0.19859082625E+04 0.  0.
        4    1    3    3  502    0  0.15394967473E+03  0.80617153252E+03 -0.18177194750E+04  0.19944219074E+04  0.12699999809E+01 0.  1.
       -4    1    3    3    0  502 -0.15394967473E+03 -0.80617153252E+03 -0.21730864032E+03  0.84902161354E+03  0.12699999809E+01 0. -1.
</event>
<event>
 5   0  0.3818907E-05  0.1984968E+04  0.7818609E-02  0.8613681E-01
       -1   -1    0    0    0  501  0.00000000000E+00  0.00000000000E+00  0.10741922355E+04  0.10741922355E+04  0.50400001928E-02 0.  1.
        1   -1    0    0  501    0  0.00000000000E+00  0.00000000000E+00 -0.91699105411E+03  0.91699105412E+03  0.50400001928E-02 0. -1.
    10030    2    1    2    0    0  0.00000000000E+00  0.00000000000E+00  0.15720118136E+03  0.19911832896E+04  0.19849681814E+04 0.  0.
        1    1    3    3  502    0  0.15214949930E+03 -0.98075082571E+03  0.76857900464E+02  0.99545406180E+03  0.50400001928E-02 0.  1.
       -1    1    3    3    0  502 -0.15214949930E+03  0.98075082571E+03  0.80343280899E+02  0.99572922779E+03  0.50400001928E-02 0. -1.
</event>
<event>
 5   0  0.3970042E-05  0.1969532E+04  0.7818609E-02  0.8620999E-01
        1   -1    0    0  501    0  0.00000000000E+00  0.00000000000E+00  0.13304710056E+04  0.13304710056E+04  0.50400001928E-02 0.  1.
       -1   -1    0    0    0  501  0.00000000000E+00  0.00000000000E+00 -0.72888813205E+03  0.72888813207E+03  0.50400001928E-02 0. -1.
    10030    2    1    2    0    0  0.00000000000E+00  0.00000000000E+00  0.60158287351E+03  0.20593591376E+04  0.19695324582E+04 0.  0.
        3    1    3    3  502    0 -0.68276460209E+03 -0.65305582002E+03  0.10430165226E+02  0.94485882780E+03  0.10100000352E+00 0.  1.
       -3    1    3    3    0  502  0.68276460209E+03  0.65305582002E+03  0.59115270828E+03  0.11145003098E+04  0.10100000352E+00 0. -1.
</event>
<event>
 5   0  0.7935008E-05  0.1996809E+04  0.7818609E-02  0.8608114E-01
        2   -1    0    0  501    0  0.00000000000E+00  0.00000000000E+00  0.10212731424E+04  0.10212731424E+04  0.25500000920E-02 0.  1.
       -2   -1    0    0    0  501  0.00000000000E+00  0.00000000000E+00 -0.97604757261E+03  0.97604757262E+03  0.25500000920E-02 0. -1.
    10030    2    1    2    0    0  0.00000000000E+00  0.00000000000E+00  0.45225569762E+02  0.19973207150E+04  0.19968086254E+04 0.  0.
        3    1    3    3  502    0 -0.24009238477E+03 -0.70477350354E+03 -0.64273531037E+03  0.98359480169E+03  0.10100000352E+00 0. -1.
       -3    1    3    3    0  502  0.24009238477E+03  0.70477350354E+03  0.68796088013E+03  0.10137259133E+04  0.10100000352E+00 0.  1.
</event>
<event>
 5   0  0.3549426E-05  0.1995920E+04  0.7818609E-02  0.8608530E-01
        1   -1    0    0  501    0  0.00000000000E+00  0.00000000000E+00  0.18480001944E+04  0.18480001944E+04  0.50400001928E-02 0.  1.
       -1   -1    0    0    0  501  0.00000000000E+00  0.00000000000E+00 -0.53892019302E+03  0.53892019304E+03  0.50400001928E-02 0. -1.
    10030    2    1    2    0    0  0.00000000000E+00  0.00000000000E+00  0.13090800014E+04  0.23869203874E+04  0.19959204608E+04 0.  0.
        5    1    3    3  502    0 -0.49568205989E+03 -0.30655983331E+03 -0.31422935591E+03  0.66214938950E+03  0.46999998093E+01 0. -1.
       -5    1    3    3    0  502  0.49568205989E+03  0.30655983331E+03  0.16233093573E+04  0.17247709979E+04  0.46999998093E+01 0.  1.
</event>
<event>
 5   0  0.3787698E-05  0.1972374E+04  0.7818609E-02  0.8619647E-01
        1   -1    0    0  501    0  0.00000000000E+00  0.00000000000E+00  0.67971868898E+03  0.67971868900E+03  0.50400001928E-02 0. -1.
       -1   -1    0    0    0  501  0.00000000000E+00  0.00000000000E+00 -0.14308338093E+04  0.14308338093E+04  0.50400001928E-02 0.  1.
    10030    2    1    2    0    0  0.00000000000E+00  0.00000000000E+00 -0.75111512031E+03  0.21105524983E+04  0.19723736776E+04 0.  0.
        4    1    3    3  502    0  0.30420952885E+03 -0.92949621292E+03 -0.23996725823E+03  0.10070216210E+04  0.12699999809E+01 0. -1.
       -4    1    3    3    0  502 -0.30420952885E+03  0.92949621292E+03 -0.51114786207E+03  0.11035308773E+04  0.12699999809E+01 0.  1.
</event>
<event>
 5   0  0.7857136E-05  0.2005068E+04  0.7818609E-02  0.8604255E-01
        2   -1    0    0  501    0  0.00000000000E+00  0.00000000000E+00  0.23653884820E+04  0.23653884820E+04  0.25500000920E-02 0.  1.
       -2   -1    0    0    0  501  0.00000000000E+00  0.00000000000E+00 -0.42490877094E+03  0.42490877095E+03  0.25500000920E-02 0. -1.
    10030    2    1    2    0    0  0.00000000000E+00  0.00000000000E+00  0.19404797110E+04  0.27902972529E+04  0.20050678918E+04 0.  0.
        4    1    3    3  502    0  0.49156675917E+03 -0.25216300794E+03  0.21344287446E+04  0.22047702238E+04  0.12699999809E+01 0.  1.
       -4    1    3    3    0  502 -0.49156675917E+03  0.25216300794E+03 -0.19394903355E+03  0.58552702910E+03  0.12699999809E+01 0. -1.
</event>
<event>
 5   0  0.8022574E-05  0.2000762E+04  0.7818609E-02  0.8606265E-01
       -2   -1    0    0    0  501  0.00000000000E+00  0.00000000000E+00  0.14099740929E+04  0.14099740929E+04  0.25500000920E-02 0. -1.
        2   -1    0    0  501    0  0.00000000000E+00  0.00000000000E+00 -0.70977337554E+03  0.70977337554E+03  0.25500000920E-02 0.  1.
    10030    2    1    2    0    0  0.00000000000E+00  0.00000000000E+00  0.70020071740E+03  0.21197474685E+04  0.20007619262E+04 0.  0.
        1    1    3    3  502    0 -0.22565026016E+03  0.95657011394E+03  0.15240866166E+03  0.99457167815E+03  0.50400001928E-02 0.  1.
       -1    1    3    3    0  502  0.22565026016E+03 -0.95657011394E+03  0.54779205574E+03  0.11251757903E+04  0.50400001928E-02 0. -1.
</event>
<event>
 5   0  0.3772949E-05  0.1992704E+04  0.7818609E-02  0.8610039E-01
       -1   -1    0    0    0  501  0.00000000000E+00  0.00000000000E+00  0.96336386939E+03  0.96336386940E+03  0.50400001928E-02 0. -1.
        1   -1    0    0  501    0  0.00000000000E+00  0.00000000000E+00 -0.10304696012E+04  0.10304696012E+04  0.50400001928E-02 0.  1.
    10030    2    1    2    0    0  0.00000000000E+00  0.00000000000E+00 -0.67105731815E+02  0.19938334706E+04  0.19927038740E+04 0.  0.
        2    1    3    3  502    0 -0.14725289009E+03  0.31122640456E+03  0.90194873850E+03  0.96543089624E+03  0.25500000920E-02 0. -1.
       -2    1    3    3    0  502  0.14725289009E+03 -0.31122640456E+03 -0.96905447031E+03  0.10284025744E+04  0.25500000920E-02 0.  1.
</event>
<event>
 5   0  0.7843846E-05  0.1989450E+04  0.7818609E-02  0.8611569E-01
       -2   -1    0    0    0  501  0.00000000000E+00  0.00000000000E+00  0.55656993178E+03  0.55656993179E+03  0.25500000920E-02 0.  1.
        2   -1    0    0  501    0  0.00000000000E+00  0.00000000000E+00 -0.17778148395E+04  0.17778148395E+04  0.25500000920E-02 0. -1.
    10030    2    1    2    0    0  0.00000000000E+00  0.00000000000E+00 -0.12212449078E+04  0.23343847713E+04  0.19894504608E+04 0.  0.
        2    1    3    3  502    0  0.53334394552E+03 -0.82806610494E+03 -0.77375646598E+03  0.12525367488E+04  0.25500000920E-02 0.  1.
       -2    1    3    3    0  502 -0.53334394552E+03  0.82806610494E+03 -0.44748844178E+03  0.10818480226E+04  0.25500000920E-02 0. -1.
</event>
<event>
 5   0  0.8022574E-05  0.1982734E+04  0.7818609E-02  0.8614736E-01
       -2   -1    0    0    0  501  0.00000000000E+00  0.00000000000E+00  0.49513018547E+03  0.49513018548E+03  0.25500000920E-02 0.  1.
        2   -1    0    0  501    0  0.00000000000E+00  0.00000000000E+00 -0.19849499973E+04  0.19849499973E+04  0.25500000920E-02 0. -1.
    10030    2    1    2    0    0  0.00000000000E+00  0.00000000000E+00 -0.14898198118E+04  0.24800801828E+04  0.19827341328E+04 0.  0.
        1    1    3    3  502    0  0.63847613415E+03 -0.32257140911E+03  0.11362883823E+03  0.72430352806E+03  0.50400001928E-02 0.  1.
       -1    1    3    3    0  502 -0.63847613415E+03  0.32257140911E+03 -0.16034486501E+04  0.17557766547E+04  0.50400001928E-02 0. -1.
</event>
<event>
 5   0  0.7935008E-05  0.1989983E+04  0.7818609E-02  0.8611318E-01
        2   -1    0    0  501    0  0.00000000000E+00  0.00000000000E+00  0.12117502637E+04  0.12117502637E+04  0.25500000920E-02 0. -1.
       -2   -1    0    0    0  501  0.00000000000E+00  0.00000000000E+00 -0.81700661181E+03  0.81700661181E+03  0.25500000920E-02 0.  1.
    10030    2    1    2    0    0  0.00000000000E+00  0.00000000000E+00  0.39474365184E+03  0.20287568755E+04  0.19899828917E+04 0.  0.
        3    1    3    3  502    0  0.93553493792E+03 -0.24532306157E+03 -0.40845188540E+02  0.96802756378E+03  0.10100000352E+00 0. -1.
       -3    1    3    3    0  502 -0.93553493792E+03  0.24532306157E+03  0.43558884038E+03  0.10607293117E+04  0.10100000352E+00 0.  1.
</event>
<event>
 5   0  0.7843846E-05  0.1997438E+04  0.7818609E-02  0.8607820E-01
        2   -1    0    0  501    0  0.00000000000E+00  0.00000000000E+00  0.14108062903E+04  0.14108062903E+04  0.25500000920E-02 0. -1.
       -2   -1    0    0    0  501  0.00000000000E+00  0.00000000000E+00 -0.70699954609E+03  0.70699954610E+03  0.25500000920E-02 0.  1.
    10030    2    1    2    0    0  0.00000000000E+00  0.00000000000E+00  0.70380674419E+03  0.21178058364E+04  0.19974377656E+04 0.  0.
        2    1    3    3  502    0  0.15791334655E+03  0.10307955163E+03  0.13917582697E+04  0.14044760946E+04  0.25500000920E-02 0. -1.
       -2    1    3    3    0  502 -0.15791334655E+03 -0.10307955163E+03 -0.68795152554E+03  0.71332974176E+03  0.25500000920E-02 0.  1.
</event>
<event>
 5   0  0.3549426E-05  0.1999273E+04  0.7818609E-02  0.8606961E-01
        1   -1    0    0  501    0  0.00000000000E+00  0.00000000000E+00  0.10854671625E+04  0.10854671625E+04  0.50400001928E-02 0. -1.
       -1   -1    0    0    0  501  0.00000000000E+00  0.00000000000E+00 -0.92059267977E+03  0.92059267978E+03  0.50400001928E-02 0.  1.
    10030    2    1    2    0    0  0.00000000000E+00  0.00000000000E+00  0.16487448270E+03  0.20060598423E+04  0.19992729918E+04 0.  0.
        5    1    3    3  502    0 -0.28930703207E+03 -0.86845281746E+03  0.48547500838E+03  0.10361548768E+04  0.46999998093E+01 0. -1.
       -5    1    3    3    0  502  0.28930703207E+03  0.86845281746E+03 -0.32060052568E+03  0.96990496546E+03  0.46999998093E+01 0.  1.
</event>
<event>
 5   0  0.7857136E-05  0.1998727E+04  0.7818609E-02  0.8607216E-01
       -2   -1    0    0    0  501  0.00000000000E+00  0.00000000000E+00  0.60085823834E+03  0.60085823835E+03  0.25500000920E-02 0. -1.
        2   -1    0    0  501    0  0.00000000000E+00  0.00000000000E+00 -0.16621678577E+04  0.16621678577E+04  0.25500000920E-02 0.  1.
    10030    2    1    2    0    0  0.00000000000E+00  0.00000000000E+00 -0.10613096194E+04  0.22630260960E+04  0.19987268456E+04 0.  0.
        4    1    3    3  502    0 -0.45200424292E+03 -0.86182449151E+03 -0.78803909303E+03  0.12522206334E+04  0.12699999809E+01 0. -1.
       -4    1    3    3    0  502  0.45200424292E+03  0.86182449151E+03 -0.27327052634E+03  0.10108054626E+04  0.12699999809E+01 0.  1.
</event>
<event>
 5   0  0.3970042E-05  0.2008053E+04  0.7818609E-02  0.8602865E-01
        1   -1    0    0  501    0  0.00000000000E+00  0.00000000000E+00  0.53550874361E+03  0.53550874364E+03  0.50400001928E-02 0.  1.
       -1   -1    0    0    0  501  0.00000000000E+00  0.00000000000E+00 -0.18824510398E+04  0.18824510398E+04  0.50400001928E-02 0. -1.
    10030    2    1    2    0    0  0.00000000000E+00  0.00000000000E+00 -0.13469422961E+04  0.24179597834E+04  0.20080527794E+04 0.  0.
        3    1    3    3  502    0 -0.82764757858E+03 -0.82642091978E+02  0.36735664381E+01  0.83177144396E+03  0.10100000352E+00 0.  1.
       -3    1    3    3    0  502  0.82764757858E+03  0.82642091978E+02 -0.13506158626E+04  0.15861883394E+04  0.10100000352E+00 0. -1.
</event>
<event>
 5   0  0.3818907E-05  0.1977238E+04  0.7818609E-02  0.8617337E-01
       -1   -1    0    0    0  501  0.00000000000E+00  0.00000000000E+00  0.87630891406E+03  0.87630891408E+03  0.50400001928E-02 0. -1.
        1   -1    0    0  501    0  0.00000000000E+00  0.00000000000E+00 -0.11153227958E+04  0.11153227958E+04  0.50400001928E-02 0.  1.
    10030    2    1    2    0    0  0.00000000000E+00  0.00000000000E+00 -0.23901388177E+03  0.19916317099E+04  0.19772377784E+04 0.  0.
        1    1    3    3  502    0  0.29099342456E+03 -0.89466331430E+02 -0.10669316082E+04  0.11095154141E+04  0.50400001928E-02 0.  1.
       -1    1    3    3    0  502 -0.29099342456E+03  0.89466331430E+02  0.82791772641E+03  0.88211629581E+03  0.50400001928E-02 0. -1.
</event>
<event>
 5   0  0.7935008E-05  0.1996917E+04  0.7818609E-02  0.8608063E-01
        2   -1    0    0  501    0  0.00000000000E+00  0.00000000000E+00  0.17799437134E+04  0.17799437134E+04  0.25500000920E-02 0. -1.
       -2   -1    0    0    0  501  0.00000000000E+00  0.00000000000E+00 -0.56008484543E+03  0.56008484543E+03  0.25500000920E-02 0.  1.
    10030    2    1    2    0    0  0.00000000000E+00  0.00000000000E+00  0.12198588680E+04  0.23400285589E+04  0.19969171236E+04 0.  0.
        3    1    3    3  502    0  0.33156309035E+03 -0.28053014445E+03 -0.44359411588E+03  0.62081156132E+03  0.10100000352E+00 0.  1.
       -3    1    3    3    0  502 -0.33156309035E+03  0.28053014445E+03  0.16634529839E+04  0.17192169975E+04  0.10100000352E+00 0. -1.
</event>
<event>
 5   0  0.2859625E-05  0.2094354E+04  0.7818609E-02  0.8563734E-01
        3   -1    0    0  501    0  0.00000000000E+00  0.00000000000E+00  0.16060800290E+04  0.16060800321E+04  0.10100000352E+00 0. -1.
       -3   -1    0    0    0  501  0.00000000000E+00  0.00000000000E+00 -0.68276791490E+03  0.68276792237E+03  0.10100000352E+00 0.  1.
    10030    2    1    2    0    0  0.00000000000E+00  0.00000000000E+00  0.92331211406E+03  0.22888479545E+04  0.20943542439E+04 0.  0.
        2    1    3    3  502    0  0.11875994821E+03  0.34114837424E+03  0.15358345363E+04  0.15777432812E+04  0.25500000920E-02 0. -1.
       -2    1    3    3    0  502 -0.11875994821E+03 -0.34114837424E+03 -0.61252242226E+03  0.71110467326E+03  0.25500000920E-02 0.  1.
</event>
<event>
 5   0  0.3970042E-05  0.1994000E+04  0.7818609E-02  0.8609431E-01
        1   -1    0    0  501    0  0.00000000000E+00  0.00000000000E+00  0.87928156879E+03  0.87928156881E+03  0.50400001928E-02 0. -1.
       -1   -1    0    0    0  501  0.00000000000E+00  0.00000000000E+00 -0.11304788530E+04  0.11304788530E+04  0.50400001928E-02 0.  1.
    10030    2    1    2    0    0  0.00000000000E+00  0.00000000000E+00 -0.25119728424E+03  0.20097604219E+04  0.19940002201E+04 0.  0.
        3    1    3    3  502    0  0.61762883970E+03  0.61956710396E+03  0.35638642922E+03  0.94463753740E+03  0.10100000352E+00 0. -1.
       -3    1    3    3    0  502 -0.61762883970E+03 -0.61956710396E+03 -0.60758371346E+03  0.10651228845E+04  0.10100000352E+00 0.  1.
</event>
<event>
 5   0  0.3787698E-05  0.1995365E+04  0.7818609E-02  0.8608791E-01
       -1   -1    0    0    0  501  0.00000000000E+00  0.00000000000E+00  0.94435803218E+03  0.94435803219E+03  0.50400001928E-02 0.  1.
        1   -1    0    0  501    0  0.00000000000E+00  0.00000000000E+00 -0.10540177140E+04  0.10540177141E+04  0.50400001928E-02 0. -1.
    10030    2    1    2    0    0  0.00000000000E+00  0.00000000000E+00 -0.10965968187E+03  0.19983757463E+04  0.19953647229E+04 0.  0.
        4    1    3    3  502    0  0.43126768366E+03  0.89688086415E+03  0.15855569471E+02  0.99530905322E+03  0.12699999809E+01 0. -1.
       -4    1    3    3    0  502 -0.43126768366E+03 -0.89688086415E+03 -0.12551525134E+03  0.10030666930E+04  0.12699999809E+01 0.  1.
</event>
<event>
 5   0  0.3549426E-05  0.2004611E+04  0.7818609E-02  0.8604468E-01
        1   -1    0    0  501    0  0.00000000000E+00  0.00000000000E+00  0.15194104313E+04  0.15194104313E+04  0.50400001928E-02 0. -1.
       -1   -1    0    0    0  501  0.00000000000E+00  0.00000000000E+00 -0.66118804019E+03  0.66118804021E+03  0.50400001928E-02 0.  1.
    10030    2    1    2    0    0  0.00000000000E+00  0.00000000000E+00  0.85822239111E+03  0.21805984715E+04  0.20046106907E+04 0.  0.
        5    1    3    3  502    0  0.11228116159E+03 -0.58901650963E+03 -0.44454616782E+03  0.74645220422E+03  0.46999998093E+01 0.  1.
       -5    1    3    3    0  502 -0.11228116159E+03  0.58901650963E+03  0.13027685589E+04  0.14341462673E+04  0.46999998093E+01 0. -1.
</event>
<event>
 5   0  0.3787698E-05  0.2006945E+04  0.7818609E-02  0.8603380E-01
       -1   -1    0    0    0  501  0.00000000000E+00  0.00000000000E+00  0.10908747587E+04  0.10908747587E+04  0.50400001928E-02 0.  1.
        1   -1    0    0  501    0  0.00000000000E+00  0.00000000000E+00 -0.92307332550E+03  0.92307332551E+03  0.50400001928E-02 0. -1.
    10030    2    1    2    0    0  0.00000000000E+00  0.00000000000E+00  0.16780143321E+03  0.20139480842E+04  0.20069453318E+04 0.  0.
        4    1    3    3  502    0 -0.66402717773E+03 -0.64991867448E+03 -0.29640635832E+03  0.97528699281E+03  0.12699999809E+01 0.  1.
       -4    1    3    3    0  502  0.66402717773E+03  0.64991867448E+03  0.46420779153E+03  0.10386610914E+04  0.12699999809E+01 0. -1.
</event>
<event>
 5   0  0.8022574E-05  0.1994805E+04  0.7818609E-02  0.8609054E-01
        2   -1    0    0  501    0  0.00000000000E+00  0.00000000000E+00  0.15702147248E+04  0.15702147248E+04  0.25500000920E-02 0.  1.
       -2   -1    0    0    0  501  0.00000000000E+00  0.00000000000E+00 -0.63355111417E+03  0.63355111417E+03  0.25500000920E-02 0. -1.
    10030    2    1    2    0    0  0.00000000000E+00  0.00000000000E+00  0.93666361062E+03  0.22037658390E+04  0.19948045402E+04 0.  0.
        1    1    3    3  502    0  0.68457585759E+01 -0.91502602645E+03  0.29908062883E+02  0.91554026987E+03  0.50400001928E-02 0. -1.
       -1    1    3    3    0  502 -0.68457585759E+01  0.91502602645E+03  0.90675554774E+03  0.12882255691E+04  0.50400001928E-02 0.  1.
</event>
<event>
 5   0  0.3787698E-05  0.1979858E+04  0.7818609E-02  0.8616096E-01
       -1   -1    0    0    0  501  0.00000000000E+00  0.00000000000E+00  0.88345814115E+03  0.88345814116E+03  0.50400001928E-02 0. -1.
        1   -1    0    0  501    0  0.00000000000E+00  0.00000000000E+00 -0.11092309803E+04  0.11092309803E+04  0.50400001928E-02 0.  1.
    10030    2    1    2    0    0  0.00000000000E+00  0.00000000000E+00 -0.22577283916E+03  0.19926891215E+04  0.19798577121E+04 0.  0.
        4    1    3    3  502    0  0.32167359315E+01 -0.67795965416E+03  0.61311914306E+03  0.91408770725E+03  0.12699999809E+01 0. -1.
       -4    1    3    3    0  502 -0.32167359315E+01  0.67795965416E+03 -0.83889198222E+03  0.10786014142E+04  0.12699999809E+01 0.  1.
</event>
<event>
 5   0  0.7935008E-05  0.2007932E+04  0.7818609E-02  0.8602921E-01
       -2   -1    0    0    0  501  0.00000000000E+00  0.00000000000E+00  0.51735367189E+03  0.51735367190E+03  0.25500000920E-02 0. -1.
        2   -1    0    0  501    0  0.00000000000E+00  0.00000000000E+00 -0.19482767830E+04  0.19482767830E+04  0.25500000920E-02 0.  1.
    10030    2    1    2    0    0  0.00000000000E+00  0.00000000000E+00 -0.14309231111E+04  0.24656304549E+04  0.20079324167E+04 0.  0.
        3    1    3    3  502    0 -0.51171986039E+03  0.13783622764E+03 -0.17625264678E+04  0.18404770037E+04  0.10100000352E+00 0.  1.
       -3    1    3    3    0  502  0.51171986039E+03 -0.13783622764E+03  0.33160335671E+03  0.62515345120E+03  0.10100000352E+00 0. -1.
</event>
<event>
 5   0  0.7857136E-05  0.1991027E+04  0.7818609E-02  0.8610827E-01
        2   -1    0    0  501    0  0.00000000000E+00  0.00000000000E+00  0.14925247099E+04  0.14925247099E+04  0.25500000920E-02 0. -1.
       -2   -1    0    0    0  501  0.00000000000E+00  0.00000000000E+00 -0.66400721511E+03  0.66400721512E+03  0.25500000920E-02 0.  1.
    10030    2    1    2    0    0  0.00000000000E+00  0.00000000000E+00  0.82851749481E+03  0.21565319250E+04  0.19910270477E+04 0.  0.
        4    1    3    3  502    0 -0.23280924757E+03  0.24568883812E+03  0.14282876525E+04  0.14678454899E+04  0.12699999809E+01 0. -1.
       -4    1    3    3    0  502  0.23280924757E+03 -0.24568883812E+03 -0.59977015774E+03  0.68868643514E+03  0.12699999809E+01 0.  1.
</event>
<event>
 5   0  0.3787698E-05  0.2005119E+04  0.7818609E-02  0.8604231E-01
        1   -1    0    0  501    0  0.00000000000E+00  0.00000000000E+00  0.50736798200E+03  0.50736798203E+03  0.50400001928E-02 0. -1.
       -1   -1    0    0    0  501  0.00000000000E+00  0.00000000000E+00 -0.19810585432E+04  0.19810585432E+04  0.50400001928E-02 0.  1.
    10030    2    1    2    0    0  0.00000000000E+00  0.00000000000E+00 -0.14736905612E+04  0.24884265252E+04  0.20051191240E+04 0.  0.
        4    1    3    3  502    0 -0.65974928595E+03 -0.60499709266E+03 -0.12971475495E+04  0.15760342574E+04  0.12699999809E+01 0.  1.
       -4    1    3    3    0  502  0.65974928595E+03  0.60499709266E+03 -0.17654301165E+03  0.91239226778E+03  0.12699999809E+01 0. -1.
</event>
<event>
 5   0  0.3818907E-05  0.2002021E+04  0.7818609E-02  0.8605676E-01
        1   -1    0    0  501    0  0.00000000000E+00  0.00000000000E+00  0.85048747439E+03  0.85048747441E+03  0.50400001928E-02 0. -1.
       -1   -1    0    0    0  501  0.00000000000E+00  0.00000000000E+00 -0.11781738800E+04  0.11781738800E+04  0.50400001928E-02 0.  1.
    10030    2    1    2    0    0  0.00000000000E+00  0.00000000000E+00 -0.32768640558E+03  0.20286613544E+04  0.20020211064E+04 0.  0.
        1    1    3    3  502    0  0.92915362932E+03 -0.27883665605E+03  0.86313834008E+02  0.97392321341E+03  0.50400001928E-02 0. -1.
       -1    1    3    3    0  502 -0.92915362932E+03  0.27883665605E+03 -0.41400023959E+03  0.10547381410E+04  0.50400001928E-02 0.  1.
</event>
<event>
 5   0  0.7843846E-05  0.1975401E+04  0.7818609E-02  0.8618209E-01
       -2   -1    0    0    0  501  0.00000000000E+00  0.00000000000E+00  0.64199609030E+03  0.64199609030E+03  0.25500000920E-02 0.  1.
        2   -1    0    0  501    0  0.00000000000E+00  0.00000000000E+00 -0.15195609070E+04  0.15195609070E+04  0.25500000920E-02 0. -1.
    10030    2    1    2    0    0  0.00000000000E+00  0.00000000000E+00 -0.87756481666E+03  0.21615569973E+04  0.19754008821E+04 0.  0.
        2    1    3    3  502    0  0.67851867672E+03  0.68245224992E+03 -0.68204658952E+03  0.11795406811E+04  0.25500000920E-02 0. -1.
       -2    1    3    3    0  502 -0.67851867672E+03 -0.68245224992E+03 -0.19551822714E+03  0.98201631617E+03  0.25500000920E-02 0.  1.
</event>
<event>
 5   0  0.7935008E-05  0.2045216E+04  0.7818609E-02  0.8585768E-01
       -2   -1    0    0    0  501  0.00000000000E+00  0.00000000000E+00  0.68014719977E+03  0.68014719977E+03  0.25500000920E-02 0. -1.
        2   -1    0    0  501    0  0.00000000000E+00  0.00000000000E+00 -0.15375004434E+04  0.15375004434E+04  0.25500000920E-02 0.  1.
    10030    2    1    2    0    0  0.00000000000E+00  0.00000000000E+00 -0.85735324360E+03  0.22176476431E+04  0.20452155106E+04 0.  0.
        3    1    3    3  502    0 -0.54832665820E+03  0.11224107483E+03  0.49932199213E+03  0.75005509464E+03  0.10100000352E+00 0. -1.
       -3    1    3    3    0  502  0.54832665820E+03 -0.11224107483E+03 -0.13566752357E+04  0.14675925485E+04  0.10100000352E+00 0.  1.
</event>
<event>
 5   0  0.3787698E-05  0.2028030E+04  0.7818609E-02  0.8593627E-01
       -1   -1    0    0    0  501  0.00000000000E+00  0.00000000000E+00  0.13208657616E+04  0.13208657616E+04  0.50400001928E-02 0. -1.
        1   -1    0    0  501    0  0.00000000000E+00  0.00000000000E+00 -0.77844920195E+03  0.77844920197E+03  0.50400001928E-02 0.  1.
    10030    2    1    2    0    0  0.00000000000E+00  0.00000000000E+00  0.54241655962E+03  0.20993149636E+04  0.20280304712E+04 0.  0.
        4    1    3    3  502    0 -0.33745358282E+02  0.96832024246E+03 -0.38373187345E+02  0.96966847715E+03  0.12699999809E+01 0.  1.
       -4    1    3    3    0  502  0.33745358282E+02 -0.96832024246E+03  0.58078974696E+03  0.11296464864E+04  0.12699999809E+01 0. -1.
</event>
<event>
 5   0  0.3772949E-05  0.2026665E+04  0.7818609E-02  0.8594254E-01
       -1   -1    0    0    0  501  0.00000000000E+00  0.00000000000E+00  0.56941494956E+03  0.56941494958E+03  0.50400001928E-02 0.  1.
        1   -1    0    0  501    0  0.00000000000E+00  0.00000000000E+00 -0.18033297960E+04  0.18033297960E+04  0.50400001928E-02 0. -1.
    10030    2    1    2    0    0  0.00000000000E+00  0.00000000000E+00 -0.12339148464E+04  0.23727447456E+04  0.20266651868E+04 0.  0.
        2    1    3    3  502    0 -0.84896066541E+03  0.38877479991E+02 -0.12631054460E+04  0.15223931942E+04  0.25500000920E-02 0.  1.
       -2    1    3    3    0  502  0.84896066541E+03 -0.38877479991E+02  0.29190599585E+02  0.85035155141E+03  0.25500000920E-02 0. -1.
</event>
<event>
 5   0  0.3818907E-05  0.2002278E+04  0.7818609E-02  0.8605556E-01
        1   -1    0    0  501    0  0.00000000000E+00  0.00000000000E+00  0.44090187809E+03  0.44090187812E+03  0.50400001928E-02 0. -1.
       -1   -1    0    0    0  501  0.00000000000E+00  0.00000000000E+00 -0.22732477356E+04  0.22732477356E+04  0.50400001928E-02 0.  1.
    10030    2    1    2    0    0  0.00000000000E+00  0.00000000000E+00 -0.18323458575E+04  0.27141496137E+04  0.20022778988E+04 0.  0.
        1    1    3    3  502    0 -0.78737440479E+03  0.60060500779E+03 -0.11153684972E+04  0.14915534564E+04  0.50400001928E-02 0. -1.
       -1    1    3    3    0  502  0.78737440479E+03 -0.60060500779E+03 -0.71697736035E+03  0.12225961574E+04  0.50400001928E-02 0.  1.
</event>
<event>
 5   0  0.7843846E-05  0.2014911E+04  0.7818609E-02  0.8599681E-01
        2   -1    0    0  501    0  0.00000000000E+00  0.00000000000E+00  0.12110381239E+04  0.12110381239E+04  0.25500000920E-02 0. -1.
       -2   -1    0    0    0  501  0.00000000000E+00  0.00000000000E+00 -0.83809671028E+03  0.83809671028E+03  0.25500000920E-02 0.  1.
    10030    2    1    2    0    0  0.00000000000E+00  0.00000000000E+00  0.37294141359E+03  0.20491348342E+04  0.20149114796E+04 0.  0.
        2    1    3    3  502    0 -0.34591970181E+03  0.61664163331E+03 -0.54339567503E+03  0.89173213673E+03  0.25500000920E-02 0.  1.
       -2    1    3    3    0  502  0.34591970181E+03 -0.61664163331E+03  0.91633708862E+03  0.11574026974E+04  0.25500000920E-02 0. -1.
</event>
<event>
 5   0  0.3549426E-05  0.1998934E+04  0.7818609E-02  0.8607119E-01
       -1   -1    0    0    0  501  0.00000000000E+00  0.00000000000E+00  0.19075048231E+04  0.19075048231E+04  0.50400001928E-02 0.  1.
        1   -1    0    0  501    0  0.00000000000E+00  0.00000000000E+00 -0.52368626492E+03  0.52368626495E+03  0.50400001928E-02 0. -1.
    10030    2    1    2    0    0  0.00000000000E+00  0.00000000000E+00  0.13838185582E+04  0.24311910881E+04  0.19989337920E+04 0.  0.
        5    1    3    3  502    0 -0.35728043387E+03  0.89843240428E+03  0.38402440692E+03  0.10403494262E+04  0.46999998093E+01 0. -1.
       -5    1    3    3    0  502  0.35728043387E+03 -0.89843240428E+03  0.99979415129E+03  0.13908416619E+04  0.46999998093E+01 0.  1.
</event>
<event>
 5   0  0.3970042E-05  0.1993743E+04  0.7818609E-02  0.8609552E-01
       -1   -1    0    0    0  501  0.00000000000E+00  0.00000000000E+00  0.81673982614E+03  0.81673982615E+03  0.50400001928E-02 0.  1.
        1   -1    0    0  501    0  0.00000000000E+00  0.00000000000E+00 -0.12167308034E+04  0.12167308035E+04  0.50400001928E-02 0. -1.
    10030    2    1    2    0    0  0.00000000000E+00  0.00000000000E+00 -0.39999097731E+03  0.20334706296E+04  0.19937427165E+04 0.  0.
        3    1    3    3  502    0  0.32043020767E+03 -0.88514541441E+03 -0.53454775132E+03  0.10825429466E+04  0.10100000352E+00 0. -1.
       -3    1    3    3    0  502 -0.32043020767E+03  0.88514541441E+03  0.13455677402E+03  0.95092768299E+03  0.10100000352E+00 0.  1.
</event>
<event>
 5   0  0.7935008E-05  0.1973182E+04  0.7818609E-02  0.8619263E-01
       -2   -1    0    0    0  501  0.00000000000E+00  0.00000000000E+00  0.82868973622E+03  0.82868973623E+03  0.25500000920E-02 0. -1.
        2   -1    0    0  501    0  0.00000000000E+00  0.00000000000E+00 -0.11745792723E+04  0.11745792723E+04  0.25500000920E-02 0.  1.
    10030    2    1    2    0    0  0.00000000000E+00  0.00000000000E+00 -0.34588953611E+03  0.20032690086E+04  0.19731819859E+04 0.  0.
        3    1    3    3  502    0  0.40669722517E+02  0.22104067522E+03 -0.11482429159E+04  0.11700319699E+04  0.10100000352E+00 0.  1.
       -3    1    3    3    0  502 -0.40669722517E+02 -0.22104067522E+03  0.80235337977E+03  0.83323703870E+03  0.10100000352E+00 0. -1.
</event>
<event>
 5   0  0.7935008E-05  0.2001485E+04  0.7818609E-02  0.8605927E-01
       -2   -1    0    0    0  501  0.00000000000E+00  0.00000000000E+00  0.81151015914E+03  0.81151015914E+03  0.25500000920E-02 0. -1.
        2   -1    0    0  501    0  0.00000000000E+00  0.00000000000E+00 -0.12341009552E+04  0.12341009552E+04  0.25500000920E-02 0.  1.
    10030    2    1    2    0    0  0.00000000000E+00  0.00000000000E+00 -0.42259079609E+03  0.20456111144E+04  0.20014849113E+04 0.  0.
        3    1    3    3  502    0  0.43931595951E+02  0.72687011902E+03  0.49028984339E+03  0.87786917919E+03  0.10100000352E+00 0. -1.
       -3    1    3    3    0  502 -0.43931595951E+02 -0.72687011902E+03 -0.91288063948E+03  0.11677419352E+04  0.10100000352E+00 0.  1.
</event>
<event>
 5   0  0.3818907E-05  0.2010969E+04  0.7818609E-02  0.8601509E-01
       -1   -1    0    0    0  501  0.00000000000E+00  0.00000000000E+00  0.85030271918E+03  0.85030271920E+03  0.50400001928E-02 0. -1.
        1   -1    0    0  501    0  0.00000000000E+00  0.00000000000E+00 -0.11889877920E+04  0.11889877920E+04  0.50400001928E-02 0.  1.
    10030    2    1    2    0    0  0.00000000000E+00  0.00000000000E+00 -0.33868507278E+03  0.20392905112E+04  0.20109694703E+04 0.  0.
        1    1    3    3  502    0 -0.23623508319E+03 -0.50727316050E+03 -0.10164915121E+04  0.11603396348E+04  0.50400001928E-02 0.  1.
       -1    1    3    3    0  502  0.23623508319E+03  0.50727316050E+03  0.67780643931E+03  0.87895087638E+03  0.50400001928E-02 0. -1.
</event>
<event>
 5   0  0.8022574E-05  0.2004770E+04  0.7818609E-02  0.8604394E-01
        2   -1    0    0  501    0  0.00000000000E+00  0.00000000000E+00  0.15488310383E+04  0.15488310383E+04  0.25500000920E-02 0.  1.
       -2   -1    0    0    0  501  0.00000000000E+00  0.00000000000E+00 -0.64873149569E+03  0.64873149570E+03  0.25500000920E-02 0. -1.
    10030    2    1    2    0    0  0.00000000000E+00  0.00000000000E+00  0.90009954259E+03  0.21975625340E+04  0.20047697883E+04 0.  0.
        1    1    3    3  502    0 -0.82417566724E+03  0.50872485832E+03  0.73316865130E+03  0.12147439167E+04  0.50400001928E-02 0.  1.
       -1    1    3    3    0  502  0.82417566724E+03 -0.50872485832E+03  0.16693089129E+03  0.98281861726E+03  0.50400001928E-02 0. -1.
</event>
<event>
 5   0  0.3772949E-05  0.1990073E+04  0.7818609E-02  0.8611276E-01
       -1   -1    0    0    0  501  0.00000000000E+00  0.00000000000E+00  0.12922915626E+04  0.12922915627E+04  0.50400001928E-02 0. -1.
        1   -1    0    0  501    0  0.00000000000E+00  0.00000000000E+00 -0.76615666443E+03  0.76615666445E+03  0.50400001928E-02 0.  1.
    10030    2    1    2    0    0  0.00000000000E+00  0.00000000000E+00  0.52613489821E+03  0.20584482271E+04  0.19900731576E+04 0.  0.
        2    1    3    3  502    0  0.75162653228E+02  0.70072341907E+03 -0.46351668108E+03  0.84351078720E+03  0.25500000920E-02 0.  1.
       -2    1    3    3    0  502 -0.75162653228E+02 -0.70072341907E+03  0.98965157929E+03  0.12149374399E+04  0.25500000920E-02 0. -1.
</event>
<event>
 5   0  0.3818907E-05  0.2006899E+04  0.7818609E-02  0.8603402E-01
        1   -1    0    0  501    0  0.00000000000E+00  0.00000000000E+00  0.74423036706E+03  0.74423036708E+03  0.50400001928E-02 0. -1.
       -1   -1    0    0    0  501  0.00000000000E+00  0.00000000000E+00 -0.13529553293E+04  0.13529553293E+04  0.50400001928E-02 0.  1.
    10030    2    1    2    0    0  0.00000000000E+00  0.00000000000E+00 -0.60872496219E+03  0.20971856963E+04  0.20068985439E+04 0.  0.
        1    1    3    3  502    0  0.55677475474E+03 -0.11066208881E+03  0.56030856853E+03  0.79761514367E+03  0.50400001928E-02 0. -1.
       -1    1    3    3    0  502 -0.55677475474E+03  0.11066208881E+03 -0.11690335307E+04  0.12995705527E+04  0.50400001928E-02 0.  1.
</event>
<event>
 5   0  0.2859625E-05  0.2002709E+04  0.7818609E-02  0.8605355E-01
        4   -1    0    0  501    0  0.00000000000E+00  0.00000000000E+00  0.70975533066E+03  0.70975646689E+03  0.12699999809E+01 0. -1.
       -4   -1    0    0    0  501  0.00000000000E+00  0.00000000000E+00 -0.14127535328E+04  0.14127541037E+04  0.12699999809E+01 0.  1.
    10030    2    1    2    0    0  0.00000000000E+00  0.00000000000E+00 -0.70299820216E+03  0.21225105706E+04  0.20027093273E+04 0.  0.
        2    1    3    3  502    0 -0.14600517907E+03  0.49800629825E+03 -0.12591053394E+04  0.13618641787E+04  0.25500000920E-02 0.  1.
       -2    1    3    3    0  502  0.14600517907E+03 -0.49800629825E+03  0.55610713724E+03  0.76064639189E+03  0.25500000920E-02 0. -1.
</event>
<event>
 5   0  0.8022574E-05  0.2002097E+04  0.7818609E-02  0.8605641E-01
        2   -1    0    0  501    0  0.00000000000E+00  0.00000000000E+00  0.10742366547E+04  0.10742366547E+04  0.25500000920E-02 0. -1.
       -2   -1    0    0    0  501  0.00000000000E+00  0.00000000000E+00 -0.93284709627E+03  0.93284709627E+03  0.25500000920E-02 0.  1.
    10030    2    1    2    0    0  0.00000000000E+00  0.00000000000E+00  0.14138955841E+03  0.20070837509E+04  0.20020974442E+04 0.  0.
        1    1    3    3  502    0 -0.45755298416E+03  0.76148255186E+02  0.96000348533E+03  0.10661894681E+04  0.50400001928E-02 0. -1.
       -1    1    3    3    0  502  0.45755298416E+03 -0.76148255186E+02 -0.81861392692E+03  0.94089428282E+03  0.50400001928E-02 0.  1.
</event>
<event>
 5   0  0.3772949E-05  0.1977061E+04  0.7818609E-02  0.8617421E-01
        1   -1    0    0  501    0  0.00000000000E+00  0.00000000000E+00  0.21693353774E+04  0.21693353774E+04  0.50400001928E-02 0.  1.
       -1   -1    0    0    0  501  0.00000000000E+00  0.00000000000E+00 -0.45045724340E+03  0.45045724343E+03  0.50400001928E-02 0. -1.
    10030    2    1    2    0    0  0.00000000000E+00  0.00000000000E+00  0.17188781340E+04  0.26197926208E+04  0.19770612880E+04 0.  0.
        2    1    3    3  502    0 -0.18204243722E+02 -0.79131078896E+03  0.74731839603E+02  0.79504025500E+03  0.25500000920E-02 0. -1.
       -2    1    3    3    0  502  0.18204243722E+02  0.79131078896E+03  0.16441462944E+04  0.18247523658E+04  0.25500000920E-02 0.  1.
</event>
<event>
 5   0  0.3772949E-05  0.1989313E+04  0.7818609E-02  0.8611634E-01
       -1   -1    0    0    0  501  0.00000000000E+00  0.00000000000E+00  0.67136459146E+03  0.67136459148E+03  0.50400001928E-02 0. -1.
        1   -1    0    0  501    0  0.00000000000E+00  0.00000000000E+00 -0.14736276081E+04  0.14736276082E+04  0.50400001928E-02 0.  1.
    10030    2    1    2    0    0  0.00000000000E+00  0.00000000000E+00 -0.80226301669E+03  0.21449921996E+04  0.19893128433E+04 0.  0.
        2    1    3    3  502    0 -0.72016349372E+02  0.39584331576E+03 -0.13819687600E+04  0.14393456634E+04  0.25500000920E-02 0.  1.
       -2    1    3    3    0  502  0.72016349372E+02 -0.39584331576E+03  0.57970574332E+03  0.70564653620E+03  0.25500000920E-02 0. -1.
</event>
<event>
 5   0  0.7843846E-05  0.2012925E+04  0.7818609E-02  0.8600601E-01
        2   -1    0    0  501    0  0.00000000000E+00  0.00000000000E+00  0.22276437750E+04  0.22276437750E+04  0.25500000920E-02 0.  1.
       -2   -1    0    0    0  501  0.00000000000E+00  0.00000000000E+00 -0.45472584319E+03  0.45472584319E+03  0.25500000920E-02 0. -1.
    10030    2    1    2    0    0  0.00000000000E+00  0.00000000000E+00  0.17729179318E+04  0.26823696182E+04  0.20129254273E+04 0.  0.
        2    1    3    3  502    0 -0.39689160578E+03 -0.24152370120E+03  0.20761938997E+04  0.21275426563E+04  0.25500000920E-02 0.  1.
       -2    1    3    3    0  502  0.39689160578E+03  0.24152370120E+03 -0.30327596790E+03  0.55482696194E+03  0.25500000920E-02 0. -1.
</event>
<event>
 5   0  0.2859625E-05  0.1999081E+04  0.7818609E-02  0.8607050E-01
        3   -1    0    0  501    0  0.00000000000E+00  0.00000000000E+00  0.12127762089E+04  0.12127762131E+04  0.10100000352E+00 0. -1.
       -3   -1    0    0    0  501  0.00000000000E+00  0.00000000000E+00 -0.82379673457E+03  0.82379674076E+03  0.10100000352E+00 0.  1.
    10030    2    1    2    0    0  0.00000000000E+00  0.00000000000E+00  0.38897947431E+03  0.20365729538E+04  0.19990808800E+04 0.  0.
        5    1    3    3  502    0  0.91402137278E+03  0.14848579050E+03 -0.18883272950E+03  0.94507300755E+03  0.46999998093E+01 0.  1.
       -5    1    3    3    0  502 -0.91402137278E+03 -0.14848579050E+03  0.57781220381E+03  0.10914999463E+04  0.46999998093E+01 0. -1.
</event>
<event>
 5   0  0.3970042E-05  0.2002245E+04  0.7818609E-02  0.8605572E-01
       -1   -1    0    0    0  501  0.00000000000E+00  0.00000000000E+00  0.10539431903E+04  0.10539431903E+04  0.50400001928E-02 0.  1.
        1   -1    0    0  501    0  0.00000000000E+00  0.00000000000E+00 -0.95094901864E+03  0.95094901866E+03  0.50400001928E-02 0. -1.
    10030    2    1    2    0    0  0.00000000000E+00  0.00000000000E+00  0.10299417161E+03  0.20048922089E+04  0.20022449825E+04 0.  0.
        3    1    3    3  502    0 -0.25515597211E+03  0.11643724125E+03 -0.91080631759E+03  0.95301120645E+03  0.10100000352E+00 0. -1.
       -3    1    3    3    0  502  0.25515597211E+03 -0.11643724125E+03  0.10138004892E+04  0.10518810025E+04  0.10100000352E+00 0.  1.
</event>
<event>
 5   0  0.8011197E-05  0.2063085E+04  0.7818609E-02  0.8577681E-01
       -2   -1    0    0    0  501  0.00000000000E+00  0.00000000000E+00  0.96548998548E+03  0.96548998549E+03  0.25500000920E-02 0.  1.
        2   -1    0    0  501    0  0.00000000000E+00  0.00000000000E+00 -0.11021142735E+04  0.11021142735E+04  0.25500000920E-02 0. -1.
    10030    2    1    2    0    0  0.00000000000E+00  0.00000000000E+00 -0.13662428802E+03  0.20676042590E+04  0.20630853535E+04 0.  0.
        5    1    3    3  502    0  0.43080183391E+03 -0.54299414894E+03  0.69731494578E+03  0.98321060282E+03  0.46999998093E+01 0.  1.
       -5    1    3    3    0  502 -0.43080183391E+03  0.54299414894E+03 -0.83393923380E+03  0.10843936562E+04  0.46999998093E+01 0. -1.
</event>
<event>
 5   0  0.3970042E-05  0.2008102E+04  0.7818609E-02  0.8602842E-01
       -1   -1    0    0    0  501  0.00000000000E+00  0.00000000000E+00  0.11195344797E+04  0.11195344797E+04  0.50400001928E-02 0.  1.
        1   -1    0    0  501    0  0.00000000000E+00  0.00000000000E+00 -0.90048002229E+03  0.90048002231E+03  0.50400001928E-02 0. -1.
    10030    2    1    2    0    0  0.00000000000E+00  0.00000000000E+00  0.21905445737E+03  0.20200145020E+04  0.20081020225E+04 0.  0.
        3    1    3    3  502    0  0.22247974102E+02  0.35404789918E+03  0.10543934862E+04  0.11124704586E+04  0.10100000352E+00 0.  1.
       -3    1    3    3    0  502 -0.22247974102E+02 -0.35404789918E+03 -0.83533902888E+03  0.90754404336E+03  0.10100000352E+00 0. -1.
</event>
<event>
 5   0  0.7843846E-05  0.2004818E+04  0.7818609E-02  0.8604372E-01
        2   -1    0    0  501    0  0.00000000000E+00  0.00000000000E+00  0.21160797959E+04  0.21160797959E+04  0.25500000920E-02 0. -1.
       -2   -1    0    0    0  501  0.00000000000E+00  0.00000000000E+00 -0.47485139706E+03  0.47485139707E+03  0.25500000920E-02 0.  1.
    10030    2    1    2    0    0  0.00000000000E+00  0.00000000000E+00  0.16412283988E+04  0.25909311930E+04  0.20048176450E+04 0.  0.
        2    1    3    3  502    0  0.33749070484E+03  0.86783743175E+03  0.34090647058E+03  0.99159417379E+03  0.25500000920E-02 0. -1.
       -2    1    3    3    0  502 -0.33749070484E+03 -0.86783743175E+03  0.13003219283E+04  0.15993370192E+04  0.25500000920E-02 0.  1.
</event>
<event>
 5   0  0.7843846E-05  0.2004200E+04  0.7818609E-02  0.8604660E-01
       -2   -1    0    0    0  501  0.00000000000E+00  0.00000000000E+00  0.47092294255E+03  0.47092294256E+03  0.25500000920E-02 0.  1.
        2   -1    0    0  501    0  0.00000000000E+00  0.00000000000E+00 -0.21324166644E+04  0.21324166644E+04  0.25500000920E-02 0. -1.
    10030    2    1    2    0    0  0.00000000000E+00  0.00000000000E+00 -0.16614937219E+04  0.26033396070E+04  0.20041995214E+04 0.  0.
        2    1    3    3  502    0 -0.71653205531E+03  0.69228978114E+03 -0.97016763100E+03  0.13906504088E+04  0.25500000920E-02 0.  1.
       -2    1    3    3    0  502  0.71653205531E+03 -0.69228978114E+03 -0.69132609086E+03  0.12126891981E+04  0.25500000920E-02 0. -1.
</event>
<event>
 5   0  0.3818907E-05  0.1991437E+04  0.7818609E-02  0.8610634E-01
       -1   -1    0    0    0  501  0.00000000000E+00  0.00000000000E+00  0.54391353662E+03  0.54391353664E+03  0.50400001928E-02 0.  1.
        1   -1    0    0  501    0  0.00000000000E+00  0.00000000000E+00 -0.18228186454E+04  0.18228186454E+04  0.50400001928E-02 0. -1.
    10030    2    1    2    0    0  0.00000000000E+00  0.00000000000E+00 -0.12789051088E+04  0.23667321820E+04  0.19914374066E+04 0.  0.
        1    1    3    3  502    0 -0.78358742469E+03 -0.29525543357E+03  0.84827656065E+00  0.83736834355E+03  0.50400001928E-02 0.  1.
       -1    1    3    3    0  502  0.78358742469E+03  0.29525543357E+03 -0.12797533853E+04  0.15293638385E+04  0.50400001928E-02 0. -1.
</event>
<event>
 5   0  0.7935008E-05  0.1982333E+04  0.7818609E-02  0.8614926E-01
        2   -1    0    0  501    0  0.00000000000E+00  0.00000000000E+00  0.12518266227E+04  0.12518266227E+04  0.25500000920E-02 0.  1.
       -2   -1    0    0    0  501  0.00000000000E+00  0.00000000000E+00 -0.78478164217E+03  0.78478164218E+03  0.25500000920E-02 0. -1.
    10030    2    1    2    0    0  0.00000000000E+00  0.00000000000E+00  0.46704498054E+03  0.20366082649E+04  0.19823325177E+04 0.  0.
        3    1    3    3  502    0  0.13907533704E+03  0.43465353420E+03  0.11374677358E+04  0.12256012827E+04  0.10100000352E+00 0.  1.
       -3    1    3    3    0  502 -0.13907533704E+03 -0.43465353420E+03 -0.67042275522E+03  0.81100698214E+03  0.10100000352E+00 0. -1.
</event>
<event>
 5   0  0.7843846E-05  0.2007503E+04  0.7818609E-02  0.8603121E-01
       -2   -1    0    0    0  501  0.00000000000E+00  0.00000000000E+00  0.79395668004E+03  0.79395668004E+03  0.25500000920E-02 0.  1.
        2   -1    0    0  501    0  0.00000000000E+00  0.00000000000E+00 -0.12689822337E+04  0.12689822337E+04  0.25500000920E-02 0. -1.
    10030    2    1    2    0    0  0.00000000000E+00  0.00000000000E+00 -0.47502555368E+03  0.20629389138E+04  0.20075028481E+04 0.  0.
        2    1    3    3  502    0  0.14178510933E+03 -0.15312639868E+03  0.77141738051E+03  0.79914672380E+03  0.25500000920E-02 0.  1.
       -2    1    3    3    0  502 -0.14178510933E+03  0.15312639868E+03 -0.12464429342E+04  0.12637921900E+04  0.25500000920E-02 0. -1.
</event>
<event>
 5   0  0.3970042E-05  0.2004027E+04  0.7818609E-02  0.8604740E-01
        1   -1    0    0  501    0  0.00000000000E+00  0.00000000000E+00  0.82828809093E+03  0.82828809094E+03  0.50400001928E-02 0.  1.
       -1   -1    0    0    0  501  0.00000000000E+00  0.00000000000E+00 -0.12121756669E+04  0.12121756669E+04  0.50400001928E-02 0. -1.
    10030    2    1    2    0    0  0.00000000000E+00  0.00000000000E+00 -0.38388757601E+03  0.20404637579E+04  0.20040266157E+04 0.  0.
        3    1    3    3  502    0  0.30195200169E+03 -0.64952734003E+03  0.52148860785E+03  0.88600855249E+03  0.10100000352E+00 0.  1.
       -3    1    3    3    0  502 -0.30195200169E+03  0.64952734003E+03 -0.90537618386E+03  0.11544552054E+04  0.10100000352E+00 0. -1.
</event>
<event>
 5   0  0.3970042E-05  0.1989918E+04  0.7818609E-02  0.8611349E-01
       -1   -1    0    0    0  501  0.00000000000E+00  0.00000000000E+00  0.42781496951E+03  0.42781496954E+03  0.50400001928E-02 0. -1.
        1   -1    0    0  501    0  0.00000000000E+00  0.00000000000E+00 -0.23139521116E+04  0.23139521116E+04  0.50400001928E-02 0.  1.
    10030    2    1    2    0    0  0.00000000000E+00  0.00000000000E+00 -0.18861371420E+04  0.27417670811E+04  0.19899179401E+04 0.  0.
        3    1    3    3  502    0 -0.89164110900E+03 -0.21873101978E+03 -0.14714732003E+04  0.17343876486E+04  0.10100000352E+00 0.  1.
       -3    1    3    3    0  502  0.89164110900E+03  0.21873101978E+03 -0.41466394179E+03  0.10073794325E+04  0.10100000352E+00 0. -1.
</event>
<event>
 5   0  0.3787698E-05  0.2001676E+04  0.7818609E-02  0.8605838E-01
       -1   -1    0    0    0  501  0.00000000000E+00  0.00000000000E+00  0.75462846190E+03  0.75462846191E+03  0.50400001928E-02 0. -1.
        1   -1    0    0  501    0  0.00000000000E+00  0.00000000000E+00 -0.13273766563E+04  0.13273766563E+04  0.50400001928E-02 0.  1.
    10030    2    1    2    0    0  0.00000000000E+00  0.00000000000E+00 -0.57274819440E+03  0.20820051182E+04  0.20016755027E+04 0.  0.
        4    1    3    3  502    0  0.39982479730E+03  0.60612302110E+03  0.43005630998E+03  0.84391648159E+03  0.12699999809E+01 0. -1.
       -4    1    3    3    0  502 -0.39982479730E+03 -0.60612302110E+03 -0.10028045044E+04  0.12380886366E+04  0.12699999809E+01 0.  1.
</event>
<event>
 5   0  0.7935008E-05  0.1994574E+04  0.7818609E-02  0.8609162E-01
       -2   -1    0    0    0  501  0.00000000000E+00  0.00000000000E+00  0.75991113504E+03  0.75991113504E+03  0.25500000920E-02 0. -1.
        2   -1    0    0  501    0  0.00000000000E+00  0.00000000000E+00 -0.13088123679E+04  0.13088123679E+04  0.25500000920E-02 0.  1.
    10030    2    1    2    0    0  0.00000000000E+00  0.00000000000E+00 -0.54890123286E+03  0.20687235029E+04  0.19945737309E+04 0.  0.
        3    1    3    3  502    0 -0.11027314140E+03  0.91657682296E+03  0.11681057467E+03  0.93054712866E+03  0.10100000352E+00 0. -1.
       -3    1    3    3    0  502  0.11027314140E+03 -0.91657682296E+03 -0.66571180753E+03  0.11381763743E+04  0.10100000352E+00 0.  1.
</event>
<event>
 5   0  0.7843846E-05  0.1995163E+04  0.7818609E-02  0.8608885E-01
       -2   -1    0    0    0  501  0.00000000000E+00  0.00000000000E+00  0.51428742715E+03  0.51428742715E+03  0.25500000920E-02 0.  1.
        2   -1    0    0  501    0  0.00000000000E+00  0.00000000000E+00 -0.19350448901E+04  0.19350448901E+04  0.25500000920E-02 0. -1.
    10030    2    1    2    0    0  0.00000000000E+00  0.00000000000E+00 -0.14207574630E+04  0.24493323173E+04  0.19951634098E+04 0.  0.
        2    1    3    3  502    0 -0.30792952821E+03  0.52277985620E+03  0.26174218516E+03  0.66077858916E+03  0.25500000920E-02 0.  1.
       -2    1    3    3    0  502  0.30792952821E+03 -0.52277985620E+03 -0.16824996482E+04  0.17885537281E+04  0.25500000920E-02 0. -1.
</event>
<event>
 5   0  0.7857136E-05  0.1905542E+04  0.7818609E-02  0.8652103E-01
       -2   -1    0    0    0  501  0.00000000000E+00  0.00000000000E+00  0.81131043743E+03  0.81131043743E+03  0.25500000920E-02 0.  1.
        2   -1    0    0  501    0  0.00000000000E+00  0.00000000000E+00 -0.11188971075E+04  0.11188971075E+04  0.25500000920E-02 0. -1.
    10030    2    1    2    0    0  0.00000000000E+00  0.00000000000E+00 -0.30758667005E+03  0.19302075449E+04  0.19055423393E+04 0.  0.
        4    1    3    3  502    0 -0.94103013903E+03 -0.10980832972E+03 -0.51612960784E+02  0.94882090115E+03  0.12699999809E+01 0. -1.
       -4    1    3    3    0  502  0.94103013903E+03  0.10980832972E+03 -0.25597370927E+03  0.98138664377E+03  0.12699999809E+01 0.  1.
</event>
<event>
 5   0  0.3772949E-05  0.2007870E+04  0.7818609E-02  0.8602950E-01
       -1   -1    0    0    0  501  0.00000000000E+00  0.00000000000E+00  0.56497906377E+03  0.56497906379E+03  0.50400001928E-02 0.  1.
        1   -1    0    0  501    0  0.00000000000E+00  0.00000000000E+00 -0.17839334247E+04  0.17839334247E+04  0.50400001928E-02 0. -1.
    10030    2    1    2    0    0  0.00000000000E+00  0.00000000000E+00 -0.12189543610E+04  0.23489124885E+04  0.20078695537E+04 0.  0.
        2    1    3    3  502    0 -0.15883869768E+03 -0.77346320911E+02 -0.17656051298E+04  0.17744220636E+04  0.25500000920E-02 0. -1.
       -2    1    3    3    0  502  0.15883869768E+03  0.77346320911E+02  0.54665076887E+03  0.57449042494E+03  0.25500000920E-02 0.  1.
</event>
<event>
 5   0  0.2859625E-05  0.2009370E+04  0.7818609E-02  0.8602252E-01
       -3   -1    0    0    0  501  0.00000000000E+00  0.00000000000E+00  0.62767679525E+03  0.62767680337E+03  0.10100000352E+00 0.  1.
        3   -1    0    0  501    0  0.00000000000E+00  0.00000000000E+00 -0.16081400523E+04  0.16081400554E+04  0.10100000352E+00 0. -1.
    10030    2    1    2    0    0  0.00000000000E+00  0.00000000000E+00 -0.98046325701E+03  0.22358168588E+04  0.20093702565E+04 0.  0.
        4    1    3    3  502    0 -0.45270919856E+03  0.84134917028E+03 -0.83602136524E+03  0.12695461318E+04  0.12699999809E+01 0. -1.
       -4    1    3    3    0  502  0.45270919856E+03 -0.84134917028E+03 -0.14444189176E+03  0.96627072697E+03  0.12699999809E+01 0.  1.
</event>
<event>
 5   0  0.8022574E-05  0.2001813E+04  0.7818609E-02  0.8605774E-01
        2   -1    0    0  501    0  0.00000000000E+00  0.00000000000E+00  0.17949114146E+04  0.17949114146E+04  0.25500000920E-02 0. -1.
       -2   -1    0    0    0  501  0.00000000000E+00  0.00000000000E+00 -0.55814099334E+03  0.55814099334E+03  0.25500000920E-02 0.  1.
    10030    2    1    2    0    0  0.00000000000E+00  0.00000000000E+00  0.12367704213E+04  0.23530524080E+04  0.20018128184E+04 0.  0.
        1    1    3    3  502    0  0.78669619828E+03 -0.61683762172E+03  0.56039221357E+03  0.11460449350E+04  0.50400001928E-02 0. -1.
       -1    1    3    3    0  502 -0.78669619828E+03  0.61683762172E+03  0.67637820773E+03  0.12070074730E+04  0.50400001928E-02 0.  1.
</event>
<event>
 5   0  0.7843846E-05  0.2022258E+04  0.7818609E-02  0.8596284E-01
        2   -1    0    0  501    0  0.00000000000E+00  0.00000000000E+00  0.10738408133E+04  0.10738408133E+04  0.25500000920E-02 0.  1.
       -2   -1    0    0    0  501  0.00000000000E+00  0.00000000000E+00 -0.95207996298E+03  0.95207996298E+03  0.25500000920E-02 0. -1.
    10030    2    1    2    0    0  0.00000000000E+00  0.00000000000E+00  0.12176085031E+03  0.20259207763E+04  0.20222584620E+04 0.  0.
        2    1    3    3  502    0  0.35176725875E+03  0.92958093602E+03  0.24701626450E+03  0.10241474288E+04  0.25500000920E-02 0.  1.
       -2    1    3    3    0  502 -0.35176725875E+03 -0.92958093602E+03 -0.12525541419E+03  0.10017733475E+04  0.25500000920E-02 0. -1.
</event>
<event>
 5   0  0.3818907E-05  0.1999446E+04  0.7818609E-02  0.8606880E-01
        1   -1    0    0  501    0  0.00000000000E+00  0.00000000000E+00  0.74807644832E+03  0.74807644833E+03  0.50400001928E-02 0.  1.
       -1   -1    0    0    0  501  0.00000000000E+00  0.00000000000E+00 -0.13360208123E+04  0.13360208123E+04  0.50400001928E-02 0. -1.
    10030    2    1    2    0    0  0.00000000000E+00  0.00000000000E+00 -0.58794436397E+03  0.20840972606E+04  0.19994456273E+04 0.  0.
        1    1    3    3  502    0  0.24031942857E+03 -0.10857318829E+03 -0.12991143076E+04  0.13256091238E+04  0.50400001928E-02 0. -1.
       -1    1    3    3    0  502 -0.24031942857E+03  0.10857318829E+03  0.71116994361E+03  0.75848813681E+03  0.50400001928E-02 0.  1.
</event>
<event>
 5   0  0.3970042E-05  0.1975350E+04  0.7818609E-02  0.8618233E-01
       -1   -1    0    0    0  501  0.00000000000E+00  0.00000000000E+00  0.77516854903E+03  0.77516854905E+03  0.50400001928E-02 0.  1.
        1   -1    0    0  501    0  0.00000000000E+00  0.00000000000E+00 -0.12584379073E+04  0.12584379073E+04  0.50400001928E-02 0. -1.
    10030    2    1    2    0    0  0.00000000000E+00  0.00000000000E+00 -0.48326935823E+03  0.20336064563E+04  0.19753495758E+04 0.  0.
        3    1    3    3  502    0 -0.23200653795E+03  0.84457118991E+03 -0.71157710958E+03  0.11284810683E+04  0.10100000352E+00 0. -1.
       -3    1    3    3    0  502  0.23200653795E+03 -0.84457118991E+03  0.22830775135E+03  0.90512538800E+03  0.10100000352E+00 0.  1.
</event>
<event>
 5   0  0.3787698E-05  0.2009266E+04  0.7818609E-02  0.8602301E-01
        1   -1    0    0  501    0  0.00000000000E+00  0.00000000000E+00  0.85000146625E+03  0.85000146626E+03  0.50400001928E-02 0.  1.
       -1   -1    0    0    0  501  0.00000000000E+00  0.00000000000E+00 -0.11873952708E+04  0.11873952708E+04  0.50400001928E-02 0. -1.
    10030    2    1    2    0    0  0.00000000000E+00  0.00000000000E+00 -0.33739380452E+03  0.20373967370E+04  0.20092662553E+04 0.  0.
        4    1    3    3  502    0  0.99368433493E+03  0.12504165958E+03 -0.88583594044E+02  0.10054315691E+04  0.12699999809E+01 0.  1.
       -4    1    3    3    0  502 -0.99368433493E+03 -0.12504165958E+03 -0.24881021048E+03  0.10319651679E+04  0.12699999809E+01 0. -1.
</event>
<event>
 5   0  0.2859625E-05  0.1994803E+04  0.7818609E-02  0.8609054E-01
       -3   -1    0    0    0  501  0.00000000000E+00  0.00000000000E+00  0.84935777944E+03  0.84935778544E+03  0.10100000352E+00 0. -1.
        3   -1    0    0  501    0  0.00000000000E+00  0.00000000000E+00 -0.11712494410E+04  0.11712494453E+04  0.10100000352E+00 0.  1.
    10030    2    1    2    0    0  0.00000000000E+00  0.00000000000E+00 -0.32189166152E+03  0.20206072308E+04  0.19948030828E+04 0.  0.
        5    1    3    3  502    0 -0.40626052114E+03  0.81861553495E+03  0.24373273885E+03  0.94583653084E+03  0.46999998093E+01 0.  1.
       -5    1    3    3    0  502  0.40626052114E+03 -0.81861553495E+03 -0.56562440037E+03  0.10747706999E+04  0.46999998093E+01 0. -1.
</event>
<event>
 5   0  0.3818907E-05  0.2068093E+04  0.7818609E-02  0.8575430E-01
        1   -1    0    0  501    0  0.00000000000E+00  0.00000000000E+00  0.12720483970E+04  0.12720483970E+04  0.50400001928E-02 0.  1.
       -1   -1    0    0    0  501  0.00000000000E+00  0.00000000000E+00 -0.84057519623E+03  0.84057519625E+03  0.50400001928E-02 0. -1.
    10030    2    1    2    0    0  0.00000000000E+00  0.00000000000E+00  0.43147320075E+03  0.21126235932E+04  0.20680931613E+04 0.  0.
        1    1    3    3  502    0 -0.26414516471E+03  0.82968124487E+03  0.78551778193E+03  0.11726814665E+04  0.50400001928E-02 0.  1.
       -1    1    3    3    0  502  0.26414516471E+03 -0.82968124487E+03 -0.35404458118E+03  0.93994212674E+03  0.50400001928E-02 0. -1.
</event>
<event>
 5   0  0.7935008E-05  0.1992693E+04  0.7818609E-02  0.8610044E-01
        2   -1    0    0  501    0  0.00000000000E+00  0.00000000000E+00  0.26261032820E+04  0.26261032820E+04  0.25500000920E-02 0.  1.
       -2   -1    0    0    0  501  0.00000000000E+00  0.00000000000E+00 -0.37801503768E+03  0.37801503769E+03  0.25500000920E-02 0. -1.
    10030    2    1    2    0    0  0.00000000000E+00  0.00000000000E+00  0.22480882443E+04  0.30041183196E+04  0.19926931837E+04 0.  0.
        3    1    3    3  502    0 -0.74157791458E+03 -0.57922767963E+03  0.63029809035E+03  0.11325714994E+04  0.10100000352E+00 0. -1.
       -3    1    3    3    0  502  0.74157791458E+03  0.57922767963E+03  0.16177901539E+04  0.18715468203E+04  0.10100000352E+00 0.  1.
</event>
<event>
 5   0  0.3772949E-05  0.1993231E+04  0.7818609E-02  0.8609792E-01
       -1   -1    0    0    0  501  0.00000000000E+00  0.00000000000E+00  0.75028550902E+03  0.75028550904E+03  0.50400001928E-02 0. -1.
        1   -1    0    0  501    0  0.00000000000E+00  0.00000000000E+00 -0.13238188599E+04  0.13238188599E+04  0.50400001928E-02 0.  1.
    10030    2    1    2    0    0  0.00000000000E+00  0.00000000000E+00 -0.57353335089E+03  0.20741043690E+04  0.19932306512E+04 0.  0.
        2    1    3    3  502    0 -0.71906279779E+03  0.43422183887E+03 -0.84485038569E+03  0.11913740331E+04  0.25500000920E-02 0.  1.
       -2    1    3    3    0  502  0.71906279779E+03 -0.43422183887E+03  0.27131703480E+03  0.88273033588E+03  0.25500000920E-02 0. -1.
</event>
<event>
 5   0  0.8022574E-05  0.2005151E+04  0.7818609E-02  0.8604216E-01
       -2   -1    0    0    0  501  0.00000000000E+00  0.00000000000E+00  0.24432331936E+04  0.24432331936E+04  0.25500000920E-02 0. -1.
        2   -1    0    0  501    0  0.00000000000E+00  0.00000000000E+00 -0.41140481497E+03  0.41140481498E+03  0.25500000920E-02 0.  1.
    10030    2    1    2    0    0  0.00000000000E+00  0.00000000000E+00  0.20318283786E+04  0.28546380086E+04  0.20051512661E+04 0.  0.
        1    1    3    3  502    0 -0.23042913942E+03  0.70674115570E+03  0.58168374228E+02  0.74563007534E+03  0.50400001928E-02 0.  1.
       -1    1    3    3    0  502  0.23042913942E+03 -0.70674115570E+03  0.19736600044E+04  0.21090079332E+04  0.50400001928E-02 0. -1.
</event>
<event>
 5   0  0.3772949E-05  0.1996213E+04  0.7818609E-02  0.8608393E-01
       -1   -1    0    0    0  501  0.00000000000E+00  0.00000000000E+00  0.89043990789E+03  0.89043990791E+03  0.50400001928E-02 0.  1.
        1   -1    0    0  501    0  0.00000000000E+00  0.00000000000E+00 -0.11187916797E+04  0.11187916797E+04  0.50400001928E-02 0. -1.
    10030    2    1    2    0    0  0.00000000000E+00  0.00000000000E+00 -0.22835177182E+03  0.20092315876E+04  0.19962131752E+04 0.  0.
        2    1    3    3  502    0  0.40221212620E+03 -0.88757749978E+03  0.10321493984E+03  0.97990904496E+03  0.25500000920E-02 0.  1.
       -2    1    3    3    0  502 -0.40221212620E+03  0.88757749978E+03 -0.33156671166E+03  0.10293225427E+04  0.25500000920E-02 0. -1.
</event>
<event>
 5   0  0.3970042E-05  0.2000003E+04  0.7818609E-02  0.8606619E-01
       -1   -1    0    0    0  501  0.00000000000E+00  0.00000000000E+00  0.17243436091E+04  0.17243436091E+04  0.50400001928E-02 0.  1.
        1   -1    0    0  501    0  0.00000000000E+00  0.00000000000E+00 -0.57993269058E+03  0.57993269060E+03  0.50400001928E-02 0. -1.
    10030    2    1    2    0    0  0.00000000000E+00  0.00000000000E+00  0.11444109185E+04  0.23042762997E+04  0.20000032287E+04 0.  0.
        3    1    3    3  502    0  0.68545885096E+02 -0.28208680295E+02  0.17211741761E+04  0.17227695211E+04  0.10100000352E+00 0.  1.
       -3    1    3    3    0  502 -0.68545885096E+02  0.28208680295E+02 -0.57676325763E+03  0.58150677860E+03  0.10100000352E+00 0. -1.
</event>
<event>
 5   0  0.7857136E-05  0.1974070E+04  0.7818609E-02  0.8618840E-01
       -2   -1    0    0    0  501  0.00000000000E+00  0.00000000000E+00  0.56918551646E+03  0.56918551647E+03  0.25500000920E-02 0.  1.
        2   -1    0    0  501    0  0.00000000000E+00  0.00000000000E+00 -0.17116360729E+04  0.17116360729E+04  0.25500000920E-02 0. -1.
    10030    2    1    2    0    0  0.00000000000E+00  0.00000000000E+00 -0.11424505564E+04  0.22808215894E+04  0.19740703758E+04 0.  0.
        4    1    3    3  502    0  0.72249334554E+03 -0.66949486668E+03 -0.64445221425E+03  0.11770897503E+04  0.12699999809E+01 0. -1.
       -4    1    3    3    0  502 -0.72249334554E+03  0.66949486668E+03 -0.49799834218E+03  0.11037318391E+04  0.12699999809E+01 0.  1.
</event>
<event>
 5   0  0.3787698E-05  0.1985706E+04  0.7818609E-02  0.8613333E-01
        1   -1    0    0  501    0  0.00000000000E+00  0.00000000000E+00  0.90687322968E+03  0.90687322969E+03  0.50400001928E-02 0. -1.
       -1   -1    0    0    0  501  0.00000000000E+00  0.00000000000E+00 -0.10869847023E+04  0.10869847023E+04  0.50400001928E-02 0.  1.
    10030    2    1    2    0    0  0.00000000000E+00  0.00000000000E+00 -0.18011147265E+03  0.19938579320E+04  0.19857062498E+04 0.  0.
        4    1    3    3  502    0  0.57534547358E+03 -0.60281682781E+03 -0.63203556224E+03  0.10458877123E+04  0.12699999809E+01 0.  1.
       -4    1    3    3    0  502 -0.57534547358E+03  0.60281682781E+03  0.45192408959E+03  0.94797021974E+03  0.12699999809E+01 0. -1.
</event>
<event>
 5   0  0.7843846E-05  0.1878648E+04  0.7818609E-02  0.8665558E-01
        2   -1    0    0  501    0  0.00000000000E+00  0.00000000000E+00  0.16529795835E+04  0.16529795835E+04  0.25500000920E-02 0. -1.
       -2   -1    0    0    0  501  0.00000000000E+00  0.00000000000E+00 -0.53378125561E+03  0.53378125562E+03  0.25500000920E-02 0.  1.
    10030    2    1    2    0    0  0.00000000000E+00  0.00000000000E+00  0.11191983279E+04  0.21867608391E+04  0.18786479368E+04 0.  0.
        2    1    3    3  502    0 -0.52663681552E+03  0.34577135728E+03  0.13705921804E+04  0.15084518859E+04  0.25500000920E-02 0. -1.
       -2    1    3    3    0  502  0.52663681552E+03 -0.34577135728E+03 -0.25139385251E+03  0.67830895326E+03  0.25500000920E-02 0.  1.
</event>
<event>
 5   0  0.3549426E-05  0.2004595E+04  0.7818609E-02  0.8604475E-01
        1   -1    0    0  501    0  0.00000000000E+00  0.00000000000E+00  0.12206437428E+04  0.12206437428E+04  0.50400001928E-02 0.  1.
       -1   -1    0    0    0  501  0.00000000000E+00  0.00000000000E+00 -0.82300850200E+03  0.82300850202E+03  0.50400001928E-02 0. -1.
    10030    2    1    2    0    0  0.00000000000E+00  0.00000000000E+00  0.39763524078E+03  0.20436522448E+04  0.20045949000E+04 0.  0.
        5    1    3    3  502    0  0.73860775240E+02  0.77996896313E+03 -0.43847896135E+03  0.89782675785E+03  0.46999998093E+01 0. -1.
       -5    1    3    3    0  502 -0.73860775240E+02 -0.77996896313E+03  0.83611420213E+03  0.11458254870E+04  0.46999998093E+01 0.  1.
</event>
<event>
 5   0  0.7935008E-05  0.1988943E+04  0.7818609E-02  0.8611808E-01
        2   -1    0    0  501    0  0.00000000000E+00  0.00000000000E+00  0.23831282600E+04  0.23831282600E+04  0.25500000920E-02 0. -1.
       -2   -1    0    0    0  501  0.00000000000E+00  0.00000000000E+00 -0.41498978078E+03  0.41498978079E+03  0.25500000920E-02 0.  1.
    10030    2    1    2    0    0  0.00000000000E+00  0.00000000000E+00  0.19681384793E+04  0.27981180408E+04  0.19889433116E+04 0.  0.
        3    1    3    3  502    0  0.92048933401E+03  0.20569232467E+02  0.45533419612E+03  0.10271577034E+04  0.10100000352E+00 0.  1.
       -3    1    3    3    0  502 -0.92048933401E+03 -0.20569232467E+02  0.15128042831E+04  0.17709603374E+04  0.10100000352E+00 0. -1.
</event>
<event>
 5   0  0.3772949E-05  0.1978585E+04  0.7818609E-02  0.8616699E-01
        1   -1    0    0  501    0  0.00000000000E+00  0.00000000000E+00  0.10464176184E+04  0.10464176185E+04  0.50400001928E-02 0.  1.
       -1   -1    0    0    0  501  0.00000000000E+00  0.00000000000E+00 -0.93528611838E+03  0.93528611839E+03  0.50400001928E-02 0. -1.
    10030    2    1    2    0    0  0.00000000000E+00  0.00000000000E+00  0.11113150007E+03  0.19817037369E+04  0.19785852244E+04 0.  0.
        2    1    3    3  502    0 -0.64167412129E+03 -0.42428603716E+03  0.67858760994E+03  0.10257901655E+04  0.25500000920E-02 0.  1.
       -2    1    3    3    0  502  0.64167412129E+03  0.42428603716E+03 -0.56745610987E+03  0.95591357135E+03  0.25500000920E-02 0. -1.
</event>
<event>
 5   0  0.7843846E-05  0.1987600E+04  0.7818609E-02  0.8612440E-01
       -2   -1    0    0    0  501  0.00000000000E+00  0.00000000000E+00  0.85500965258E+03  0.85500965259E+03  0.25500000920E-02 0.  1.
        2   -1    0    0  501    0  0.00000000000E+00  0.00000000000E+00 -0.11551191083E+04  0.11551191083E+04  0.25500000920E-02 0. -1.
    10030    2    1    2    0    0  0.00000000000E+00  0.00000000000E+00 -0.30010945575E+03  0.20101287609E+04  0.19875995447E+04 0.  0.
        2    1    3    3  502    0  0.74011483187E+03 -0.50581942474E+03  0.28377697597E+03  0.94029390453E+03  0.25500000920E-02 0.  1.
       -2    1    3    3    0  502 -0.74011483187E+03  0.50581942474E+03 -0.58388643173E+03  0.10698348564E+04  0.25500000920E-02 0. -1.
</event>
<event>
 5   0  0.8022574E-05  0.1982790E+04  0.7818609E-02  0.8614709E-01
        2   -1    0    0  501    0  0.00000000000E+00  0.00000000000E+00  0.24760967072E+04  0.24760967072E+04  0.25500000920E-02 0.  1.
       -2   -1    0    0    0  501  0.00000000000E+00  0.00000000000E+00 -0.39694086475E+03  0.39694086476E+03  0.25500000920E-02 0. -1.
    10030    2    1    2    0    0  0.00000000000E+00  0.00000000000E+00  0.20791558425E+04  0.28730375720E+04  0.19827899215E+04 0.  0.
        1    1    3    3  502    0 -0.83793840943E+03  0.23603649148E+02  0.27261854267E+03  0.88148668741E+03  0.50400001928E-02 0. -1.
       -1    1    3    3    0  502  0.83793840943E+03 -0.23603649148E+02  0.18065372998E+04  0.19915508846E+04  0.50400001928E-02 0.  1.
</event>
<event>
 5   0  0.3970042E-05  0.2013182E+04  0.7818609E-02  0.8600482E-01
       -1   -1    0    0    0  501  0.00000000000E+00  0.00000000000E+00  0.12184288390E+04  0.12184288390E+04  0.50400001928E-02 0.  1.
        1   -1    0    0  501    0  0.00000000000E+00  0.00000000000E+00 -0.83158372368E+03  0.83158372369E+03  0.50400001928E-02 0. -1.
    10030    2    1    2    0    0  0.00000000000E+00  0.00000000000E+00  0.38684511535E+03  0.20500125627E+04  0.20131821488E+04 0.  0.
        3    1    3    3  502    0  0.25181849733E+03 -0.68001780480E+03 -0.51748188591E+03  0.89085592713E+03  0.10100000352E+00 0. -1.
       -3    1    3    3    0  502 -0.25181849733E+03  0.68001780480E+03  0.90432700126E+03  0.11591566356E+04  0.10100000352E+00 0.  1.
</event>
<event>
 5   0  0.3787698E-05  0.1992318E+04  0.7818609E-02  0.8610220E-01
       -1   -1    0    0    0  501  0.00000000000E+00  0.00000000000E+00  0.74725835514E+03  0.74725835515E+03  0.50400001928E-02 0.  1.
        1   -1    0    0  501    0  0.00000000000E+00  0.00000000000E+00 -0.13279653842E+04  0.13279653842E+04  0.50400001928E-02 0. -1.
    10030    2    1    2    0    0  0.00000000000E+00  0.00000000000E+00 -0.58070702910E+03  0.20752237394E+04  0.19923184773E+04 0.  0.
        4    1    3    3  502    0  0.40073843285E+03 -0.13611111188E+02 -0.12401961721E+04  0.13034050453E+04  0.12699999809E+01 0. -1.
       -4    1    3    3    0  502 -0.40073843285E+03  0.13611111188E+02  0.65948914301E+03  0.77181869410E+03  0.12699999809E+01 0.  1.
</event>
<event>
 5   0  0.7843846E-05  0.2010144E+04  0.7818609E-02  0.8601892E-01
       -2   -1    0    0    0  501  0.00000000000E+00  0.00000000000E+00  0.70290410233E+03  0.70290410233E+03  0.25500000920E-02 0.  1.
        2   -1    0    0  501    0  0.00000000000E+00  0.00000000000E+00 -0.14371378995E+04  0.14371378995E+04  0.25500000920E-02 0. -1.
    10030    2    1    2    0    0  0.00000000000E+00  0.00000000000E+00 -0.73423379713E+03  0.21400420018E+04  0.20101443979E+04 0.  0.
        2    1    3    3  502    0 -0.44954846288E+03 -0.62454073313E+03  0.32121240880E+03  0.83385991593E+03  0.25500000920E-02 0.  1.
       -2    1    3    3    0  502  0.44954846288E+03  0.62454073313E+03 -0.10554462059E+04  0.13061820859E+04  0.25500000920E-02 0. -1.
</event>
<event>
 5   0  0.7857136E-05  0.1995905E+04  0.7818609E-02  0.8608538E-01
       -2   -1    0    0    0  501  0.00000000000E+00  0.00000000000E+00  0.73066513202E+03  0.73066513202E+03  0.25500000920E-02 0.  1.
        2   -1    0    0  501    0  0.00000000000E+00  0.00000000000E+00 -0.13630171261E+04  0.13630171261E+04  0.25500000920E-02 0. -1.
    10030    2    1    2    0    0  0.00000000000E+00  0.00000000000E+00 -0.63235199411E+03  0.20936822581E+04  0.19959048959E+04 0.  0.
        4    1    3    3  502    0  0.69813809598E+03 -0.68752791267E+03 -0.11765349725E+03  0.98688164948E+03  0.12699999809E+01 0. -1.
       -4    1    3    3    0  502 -0.69813809598E+03  0.68752791267E+03 -0.51469849686E+03  0.11068006087E+04  0.12699999809E+01 0.  1.
</event>
<event>
 5   0  0.7935008E-05  0.1997735E+04  0.7818609E-02  0.8607680E-01
       -2   -1    0    0    0  501  0.00000000000E+00  0.00000000000E+00  0.60369265086E+03  0.60369265087E+03  0.25500000920E-02 0. -1.
        2   -1    0    0  501    0  0.00000000000E+00  0.00000000000E+00 -0.16527230168E+04  0.16527230168E+04  0.25500000920E-02 0.  1.
    10030    2    1    2    0    0  0.00000000000E+00  0.00000000000E+00 -0.10490303660E+04  0.22564156677E+04  0.19977354571E+04 0.  0.
        3    1    3    3  502    0  0.38557478232E+03 -0.48536283732E+03 -0.14091937097E+04  0.15395037896E+04  0.10100000352E+00 0.  1.
       -3    1    3    3    0  502 -0.38557478232E+03  0.48536283732E+03  0.36016334370E+03  0.71691187810E+03  0.10100000352E+00 0. -1.
</event>
<event>
 5   0  0.8011197E-05  0.2001069E+04  0.7818609E-02  0.8606121E-01
        2   -1    0    0  501    0  0.00000000000E+00  0.00000000000E+00  0.17109320583E+04  0.17109320583E+04  0.25500000920E-02 0.  1.
       -2   -1    0    0    0  501  0.00000000000E+00  0.00000000000E+00 -0.58510174370E+03  0.58510174371E+03  0.25500000920E-02 0. -1.
    10030    2    1    2    0    0  0.00000000000E+00  0.00000000000E+00  0.11258303146E+04  0.22960338020E+04  0.20010690450E+04 0.  0.
        5    1    3    3  502    0 -0.21646443689E+03 -0.63658499168E+03  0.14130397372E+04  0.15648644328E+04  0.46999998093E+01 0.  1.
       -5    1    3    3    0  502  0.21646443689E+03  0.63658499168E+03 -0.28720942260E+03  0.73116936923E+03  0.46999998093E+01 0. -1.
</event>
<event>
 5   0  0.3787698E-05  0.2001660E+04  0.7818609E-02  0.8605845E-01
        1   -1    0    0  501    0  0.00000000000E+00  0.00000000000E+00  0.81999487135E+03  0.81999487137E+03  0.50400001928E-02 0.  1.
       -1   -1    0    0    0  501  0.00000000000E+00  0.00000000000E+00 -0.12215453664E+04  0.12215453664E+04  0.50400001928E-02 0. -1.
    10030    2    1    2    0    0  0.00000000000E+00  0.00000000000E+00 -0.40155049507E+03  0.20415402378E+04  0.20016602465E+04 0.  0.
        4    1    3    3  502    0  0.80968830303E+03 -0.57089237173E+03 -0.34553998882E+03  0.10492438920E+04  0.12699999809E+01 0. -1.
       -4    1    3    3    0  502 -0.80968830303E+03  0.57089237173E+03 -0.56010506256E+02  0.99229634579E+03  0.12699999809E+01 0.  1.
</event>
<event>
 5   0  0.3549426E-05  0.2014408E+04  0.7818609E-02  0.8599914E-01
        1   -1    0    0  501    0  0.00000000000E+00  0.00000000000E+00  0.16449561973E+04  0.16449561973E+04  0.50400001928E-02 0. -1.
       -1   -1    0    0    0  501  0.00000000000E+00  0.00000000000E+00 -0.61670939973E+03  0.61670939975E+03  0.50400001928E-02 0.  1.
    10030    2    1    2    0    0  0.00000000000E+00  0.00000000000E+00  0.10282467976E+04  0.22616655971E+04  0.20144080511E+04 0.  0.
        5    1    3    3  502    0  0.52604556995E+03  0.58207517969E+02  0.14762347478E+04  0.15682484425E+04  0.46999998093E+01 0. -1.
       -5    1    3    3    0  502 -0.52604556995E+03 -0.58207517969E+02 -0.44798795017E+03  0.69341715461E+03  0.46999998093E+01 0.  1.
</event>
<event>
 5   0  0.3818907E-05  0.1986891E+04  0.7818609E-02  0.8612774E-01
        1   -1    0    0  501    0  0.00000000000E+00  0.00000000000E+00  0.23531830617E+04  0.23531830617E+04  0.50400001928E-02 0. -1.
       -1   -1    0    0    0  501  0.00000000000E+00  0.00000000000E+00 -0.41940362302E+03  0.41940362305E+03  0.50400001928E-02 0.  1.
    10030    2    1    2    0    0  0.00000000000E+00  0.00000000000E+00  0.19337794387E+04  0.27725866848E+04  0.19868905372E+04 0.  0.
        1    1    3    3  502    0  0.45678363186E+03  0.30431494794E+03 -0.18861103029E+03  0.58037315121E+03  0.50400001928E-02 0.  1.
       -1    1    3    3    0  502 -0.45678363186E+03 -0.30431494794E+03  0.21223904690E+04  0.21922135336E+04  0.50400001928E-02 0. -1.
</event>
<event>
 5   0  0.7857136E-05  0.2007535E+04  0.7818609E-02  0.8603106E-01
        2   -1    0    0  501    0  0.00000000000E+00  0.00000000000E+00  0.18874887831E+04  0.18874887832E+04  0.25500000920E-02 0.  1.
       -2   -1    0    0    0  501  0.00000000000E+00  0.00000000000E+00 -0.53380403372E+03  0.53380403372E+03  0.25500000920E-02 0. -1.
    10030    2    1    2    0    0  0.00000000000E+00  0.00000000000E+00  0.13536847494E+04  0.24212928169E+04  0.20075349322E+04 0.  0.
        4    1    3    3  502    0 -0.66628843269E+03 -0.64406487899E+03  0.11420723328E+04  0.14707449371E+04  0.12699999809E+01 0.  1.
       -4    1    3    3    0  502  0.66628843269E+03  0.64406487899E+03  0.21161241665E+03  0.95054787974E+03  0.12699999809E+01 0. -1.
</event>
<event>
 5   0  0.7857136E-05  0.1986694E+04  0.7818609E-02  0.8612867E-01
       -2   -1    0    0    0  501  0.00000000000E+00  0.00000000000E+00  0.12098327654E+04  0.12098327654E+04  0.25500000920E-02 0. -1.
        2   -1    0    0  501    0  0.00000000000E+00  0.00000000000E+00 -0.81559893782E+03  0.81559893782E+03  0.25500000920E-02 0.  1.
    10030    2    1    2    0    0  0.00000000000E+00  0.00000000000E+00  0.39423382755E+03  0.20254317032E+04  0.19866940563E+04 0.  0.
        4    1    3    3  502    0  0.43099276074E+03 -0.34412028564E+02 -0.71463503912E+03  0.83525074053E+03  0.12699999809E+01 0.  1.
       -4    1    3    3    0  502 -0.43099276074E+03  0.34412028564E+02  0.11088688667E+04  0.11901809627E+04  0.12699999809E+01 0. -1.
</event>
<event>
 5   0  0.3549426E-05  0.1978918E+04  0.7818609E-02  0.8616541E-01
        1   -1    0    0  501    0  0.00000000000E+00  0.00000000000E+00  0.91782896478E+03  0.91782896479E+03  0.50400001928E-02 0. -1.
       -1   -1    0    0    0  501  0.00000000000E+00  0.00000000000E+00 -0.10666791223E+04  0.10666791223E+04  0.50400001928E-02 0.  1.
    10030    2    1    2    0    0  0.00000000000E+00  0.00000000000E+00 -0.14885015752E+03  0.19845080871E+04  0.19789178807E+04 0.  0.
        5    1    3    3  502    0  0.47791212114E+03 -0.65478554819E+03 -0.64335724629E+03  0.10349274110E+04  0.46999998093E+01 0.  1.
       -5    1    3    3    0  502 -0.47791212114E+03  0.65478554819E+03  0.49450708876E+03  0.94958067613E+03  0.46999998093E+01 0. -1.
</event>
<event>
 5   0  0.7843846E-05  0.1995426E+04  0.7818609E-02  0.8608762E-01
       -2   -1    0    0    0  501  0.00000000000E+00  0.00000000000E+00  0.12591233570E+04  0.12591233570E+04  0.25500000920E-02 0. -1.
        2   -1    0    0  501    0  0.00000000000E+00  0.00000000000E+00 -0.79057493112E+03  0.79057493112E+03  0.25500000920E-02 0.  1.
    10030    2    1    2    0    0  0.00000000000E+00  0.00000000000E+00  0.46854842589E+03  0.20496982881E+04  0.19954261312E+04 0.  0.
        2    1    3    3  502    0 -0.56319549387E+03 -0.43195810937E+03  0.95452583208E+03  0.11894942357E+04  0.25500000920E-02 0. -1.
       -2    1    3    3    0  502  0.56319549387E+03  0.43195810937E+03 -0.48597740618E+03  0.86020405248E+03  0.25500000920E-02 0.  1.
</event>
<event>
 5   0  0.3772949E-05  0.2001995E+04  0.7818609E-02  0.8605689E-01
       -1   -1    0    0    0  501  0.00000000000E+00  0.00000000000E+00  0.10850738835E+04  0.10850738835E+04  0.50400001928E-02 0.  1.
        1   -1    0    0  501    0  0.00000000000E+00  0.00000000000E+00 -0.92343554181E+03  0.92343554183E+03  0.50400001928E-02 0. -1.
    10030    2    1    2    0    0  0.00000000000E+00  0.00000000000E+00  0.16163834165E+03  0.20085094253E+04  0.20019947947E+04 0.  0.
        2    1    3    3  502    0  0.16625941709E+03  0.25212094816E+02 -0.90916332841E+03  0.92458412339E+03  0.25500000920E-02 0. -1.
       -2    1    3    3    0  502 -0.16625941709E+03 -0.25212094816E+02  0.10708016701E+04  0.10839253019E+04  0.25500000920E-02 0.  1.
</event>
<event>
 5   0  0.3970042E-05  0.2010983E+04  0.7818609E-02  0.8601503E-01
        1   -1    0    0  501    0  0.00000000000E+00  0.00000000000E+00  0.98672318945E+03  0.98672318947E+03  0.50400001928E-02 0. -1.
       -1   -1    0    0    0  501  0.00000000000E+00  0.00000000000E+00 -0.10246172567E+04  0.10246172567E+04  0.50400001928E-02 0.  1.
    10030    2    1    2    0    0  0.00000000000E+00  0.00000000000E+00 -0.37894067217E+02  0.20113404461E+04  0.20109834485E+04 0.  0.
        3    1    3    3  502    0 -0.25300961289E+03 -0.29473938520E+03 -0.94654276546E+03  0.10231463172E+04  0.10100000352E+00 0.  1.
       -3    1    3    3    0  502  0.25300961289E+03  0.29473938520E+03  0.90864869825E+03  0.98819412892E+03  0.10100000352E+00 0. -1.
</event>
<event>
 5   0  0.8011197E-05  0.1997634E+04  0.7818609E-02  0.8607728E-01
        2   -1    0    0  501    0  0.00000000000E+00  0.00000000000E+00  0.16429108425E+04  0.16429108425E+04  0.25500000920E-02 0. -1.
       -2   -1    0    0    0  501  0.00000000000E+00  0.00000000000E+00 -0.60723631423E+03  0.60723631424E+03  0.25500000920E-02 0.  1.
    10030    2    1    2    0    0  0.00000000000E+00  0.00000000000E+00  0.10356745283E+04  0.22501471568E+04  0.19976337248E+04 0.  0.
        5    1    3    3  502    0 -0.10660094494E+03 -0.18684865043E+03  0.16164945013E+04  0.16307522014E+04  0.46999998093E+01 0. -1.
       -5    1    3    3    0  502  0.10660094494E+03  0.18684865043E+03 -0.58081997303E+03  0.61939495534E+03  0.46999998093E+01 0.  1.
</event>
<event>
 5   0  0.8022574E-05  0.1993172E+04  0.7818609E-02  0.8609820E-01
       -2   -1    0    0    0  501  0.00000000000E+00  0.00000000000E+00  0.80610911413E+03  0.80610911413E+03  0.25500000920E-02 0.  1.
        2   -1    0    0  501    0  0.00000000000E+00  0.00000000000E+00 -0.12320713405E+04  0.12320713406E+04  0.25500000920E-02 0. -1.
    10030    2    1    2    0    0  0.00000000000E+00  0.00000000000E+00 -0.42596222642E+03  0.20381804547E+04  0.19931722825E+04 0.  0.
        1    1    3    3  502    0 -0.75997930765E+03 -0.28298847977E+03  0.37935110375E+03  0.89529787651E+03  0.50400001928E-02 0.  1.
       -1    1    3    3    0  502  0.75997930765E+03  0.28298847977E+03 -0.80531333017E+03  0.11428825782E+04  0.50400001928E-02 0. -1.
</event>
<event>
 5   0  0.3787698E-05  0.2000209E+04  0.7818609E-02  0.8606523E-01
       -1   -1    0    0    0  501  0.00000000000E+00  0.00000000000E+00  0.44502634662E+03  0.44502634665E+03  0.50400001928E-02 0. -1.
        1   -1    0    0  501    0  0.00000000000E+00  0.00000000000E+00 -0.22475267435E+04  0.22475267435E+04  0.50400001928E-02 0.  1.
    10030    2    1    2    0    0  0.00000000000E+00  0.00000000000E+00 -0.18025003968E+04  0.26925530901E+04  0.20002086047E+04 0.  0.
        4    1    3    3  502    0 -0.12793908385E+03 -0.13945164459E+03  0.42070198278E+03  0.46131002761E+03  0.12699999809E+01 0. -1.
       -4    1    3    3    0  502  0.12793908385E+03  0.13945164459E+03 -0.22232023796E+04  0.22312430625E+04  0.12699999809E+01 0.  1.
</event>
<event>
 5   0  0.3787698E-05  0.1976065E+04  0.7818609E-02  0.8617893E-01
       -1   -1    0    0    0  501  0.00000000000E+00  0.00000000000E+00  0.83641371700E+03  0.83641371701E+03  0.50400001928E-02 0. -1.
        1   -1    0    0  501    0  0.00000000000E+00  0.00000000000E+00 -0.11671357844E+04  0.11671357844E+04  0.50400001928E-02 0.  1.
    10030    2    1    2    0    0  0.00000000000E+00  0.00000000000E+00 -0.33072206741E+03  0.20035495014E+04  0.19760651606E+04 0.  0.
        4    1    3    3  502    0 -0.44369740279E+02  0.20998039043E+03 -0.11432160179E+04  0.11631873945E+04  0.12699999809E+01 0.  1.
       -4    1    3    3    0  502  0.44369740279E+02 -0.20998039043E+03  0.81249395052E+03  0.84036210692E+03  0.12699999809E+01 0. -1.
</event>
<event>
 5   0  0.3549426E-05  0.1972754E+04  0.7818609E-02  0.8619466E-01
        1   -1    0    0  501    0  0.00000000000E+00  0.00000000000E+00  0.12221494989E+04  0.12221494989E+04  0.50400001928E-02 0. -1.
       -1   -1    0    0    0  501  0.00000000000E+00  0.00000000000E+00 -0.79608848957E+03  0.79608848959E+03  0.50400001928E-02 0.  1.
    10030    2    1    2    0    0  0.00000000000E+00  0.00000000000E+00  0.42606100932E+03  0.20182379885E+04  0.19727535565E+04 0.  0.
        5    1    3    3  502    0 -0.36837315961E+02  0.46894874163E+03 -0.67393462983E+03  0.82187583333E+03  0.46999998093E+01 0.  1.
       -5    1    3    3    0  502  0.36837315961E+02 -0.46894874163E+03  0.10999956391E+04  0.11963621551E+04  0.46999998093E+01 0. -1.
</event>
<event>
 5   0  0.7857136E-05  0.1992777E+04  0.7818609E-02  0.8610005E-01
        2   -1    0    0  501    0  0.00000000000E+00  0.00000000000E+00  0.18432760878E+04  0.18432760878E+04  0.25500000920E-02 0. -1.
       -2   -1    0    0    0  501  0.00000000000E+00  0.00000000000E+00 -0.53860091669E+03  0.53860091669E+03  0.25500000920E-02 0.  1.
    10030    2    1    2    0    0  0.00000000000E+00  0.00000000000E+00  0.13046751711E+04  0.23818770045E+04  0.19927771482E+04 0.  0.
        4    1    3    3  502    0  0.55375385628E+02 -0.78526567860E+03  0.13824026336E+04  0.15908322581E+04  0.12699999809E+01 0. -1.
       -4    1    3    3    0  502 -0.55375385628E+02  0.78526567860E+03 -0.77727462518E+02  0.79104474630E+03  0.12699999809E+01 0.  1.
</event>
<event>
 5   0  0.3549426E-05  0.2001535E+04  0.7818609E-02  0.8605903E-01
        1   -1    0    0  501    0  0.00000000000E+00  0.00000000000E+00  0.93983307041E+03  0.93983307042E+03  0.50400001928E-02 0. -1.
       -1   -1    0    0    0  501  0.00000000000E+00  0.00000000000E+00 -0.10656529979E+04  0.10656529979E+04  0.50400001928E-02 0.  1.
    10030    2    1    2    0    0  0.00000000000E+00  0.00000000000E+00 -0.12581992747E+03  0.20054860683E+04  0.20015353397E+04 0.  0.
        5    1    3    3  502    0 -0.50450761826E+03 -0.14755738524E+03 -0.91618510491E+03  0.10562757004E+04  0.46999998093E+01 0.  1.
       -5    1    3    3    0  502  0.50450761826E+03  0.14755738524E+03  0.79036517744E+03  0.94921036790E+03  0.46999998093E+01 0. -1.
</event>
<event>
 5   0  0.7935008E-05  0.1887744E+04  0.7818609E-02  0.8660981E-01
        2   -1    0    0  501    0  0.00000000000E+00  0.00000000000E+00  0.23602785744E+04  0.23602785744E+04  0.25500000920E-02 0. -1.
       -2   -1    0    0    0  501  0.00000000000E+00  0.00000000000E+00 -0.37745322060E+03  0.37745322061E+03  0.25500000920E-02 0.  1.
    10030    2    1    2    0    0  0.00000000000E+00  0.00000000000E+00  0.19828253538E+04  0.27377317950E+04  0.18877444207E+04 0.  0.
        3    1    3    3  502    0  0.32865846074E+03 -0.23569122980E+03  0.22282507849E+04  0.22646563338E+04  0.10100000352E+00 0. -1.
       -3    1    3    3    0  502 -0.32865846074E+03  0.23569122980E+03 -0.24542543107E+03  0.47307546125E+03  0.10100000352E+00 0.  1.
</event>
<event>
 5   0  0.7935008E-05  0.2025362E+04  0.7818609E-02  0.8594854E-01
       -2   -1    0    0    0  501  0.00000000000E+00  0.00000000000E+00  0.88958259871E+03  0.88958259871E+03  0.25500000920E-02 0. -1.
        2   -1    0    0  501    0  0.00000000000E+00  0.00000000000E+00 -0.11528136391E+04  0.11528136391E+04  0.25500000920E-02 0.  1.
    10030    2    1    2    0    0  0.00000000000E+00  0.00000000000E+00 -0.26323104037E+03  0.20423962378E+04  0.20253621433E+04 0.  0.
        3    1    3    3  502    0 -0.23684625272E+03 -0.46440117416E+03  0.74387889531E+03  0.90836139233E+03  0.10100000352E+00 0. -1.
       -3    1    3    3    0  502  0.23684625272E+03  0.46440117416E+03 -0.10071099357E+04  0.11340348455E+04  0.10100000352E+00 0.  1.
</event>
<event>
 5   0  0.2859625E-05  0.2044416E+04  0.7818609E-02  0.8586132E-01
       -3   -1    0    0    0  501  0.00000000000E+00  0.00000000000E+00  0.90597558662E+03  0.90597559225E+03  0.10100000352E+00 0. -1.
        3   -1    0    0  501    0  0.00000000000E+00  0.00000000000E+00 -0.11533523569E+04  0.11533523613E+04  0.10100000352E+00 0.  1.
    10030    2    1    2    0    0  0.00000000000E+00  0.00000000000E+00 -0.24737677030E+03  0.20593279536E+04  0.20444158956E+04 0.  0.
        2    1    3    3  502    0 -0.48099966213E+03  0.84530021473E+03  0.19327483331E+03  0.99158877020E+03  0.25500000920E-02 0. -1.
       -2    1    3    3    0  502  0.48099966213E+03 -0.84530021473E+03 -0.44065160361E+03  0.10677391834E+04  0.25500000920E-02 0.  1.
</event>
<event>
 5   0  0.3549426E-05  0.1993243E+04  0.7818609E-02  0.8609786E-01
       -1   -1    0    0    0  501  0.00000000000E+00  0.00000000000E+00  0.10358138438E+04  0.10358138438E+04  0.50400001928E-02 0.  1.
        1   -1    0    0  501    0  0.00000000000E+00  0.00000000000E+00 -0.95891201620E+03  0.95891201621E+03  0.50400001928E-02 0. -1.
    10030    2    1    2    0    0  0.00000000000E+00  0.00000000000E+00  0.76901827626E+02  0.19947258600E+04  0.19932429269E+04 0.  0.
        5    1    3    3  502    0 -0.56673409803E+03 -0.68755703760E+03 -0.40832275295E+03  0.98013865264E+03  0.46999998093E+01 0. -1.
       -5    1    3    3    0  502  0.56673409803E+03  0.68755703760E+03  0.48522458057E+03  0.10145872074E+04  0.46999998093E+01 0.  1.
</event>
<event>
 5   0  0.7935008E-05  0.1959182E+04  0.7818609E-02  0.8625946E-01
        2   -1    0    0  501    0  0.00000000000E+00  0.00000000000E+00  0.10874561451E+04  0.10874561451E+04  0.25500000920E-02 0. -1.
       -2   -1    0    0    0  501  0.00000000000E+00  0.00000000000E+00 -0.88242481805E+03  0.88242481805E+03  0.25500000920E-02 0.  1.
    10030    2    1    2    0    0  0.00000000000E+00  0.00000000000E+00  0.20503132702E+03  0.19698809631E+04  0.19591817587E+04 0.  0.
        3    1    3    3  502    0  0.29327752267E+03  0.80423958453E+03  0.58133609369E+03  0.10347775986E+04  0.10100000352E+00 0. -1.
       -3    1    3    3    0  502 -0.29327752267E+03 -0.80423958453E+03 -0.37630476667E+03  0.93510336447E+03  0.10100000352E+00 0.  1.
</event>
<event>
 5   0  0.2859625E-05  0.2184377E+04  0.7818609E-02  0.8524959E-01
        3   -1    0    0  501    0  0.00000000000E+00  0.00000000000E+00  0.11514822896E+04  0.11514822940E+04  0.10100000352E+00 0.  1.
       -3   -1    0    0    0  501  0.00000000000E+00  0.00000000000E+00 -0.10359475254E+04  0.10359475303E+04  0.10100000352E+00 0. -1.
    10030    2    1    2    0    0  0.00000000000E+00  0.00000000000E+00  0.11553476423E+03  0.21874298243E+04  0.21843765597E+04 0.  0.
        1    1    3    3  502    0 -0.17801815442E+03  0.38940380626E+03  0.10639351948E+04  0.11468582678E+04  0.50400001928E-02 0.  1.
       -1    1    3    3    0  502  0.17801815442E+03 -0.38940380626E+03 -0.94840043056E+03  0.10405715566E+04  0.50400001928E-02 0. -1.
</event>
<event>
 5   0  0.7843846E-05  0.1997540E+04  0.7818609E-02  0.8607771E-01
        2   -1    0    0  501    0  0.00000000000E+00  0.00000000000E+00  0.80845555003E+03  0.80845555003E+03  0.25500000920E-02 0.  1.
       -2   -1    0    0    0  501  0.00000000000E+00  0.00000000000E+00 -0.12338860068E+04  0.12338860068E+04  0.25500000920E-02 0. -1.
    10030    2    1    2    0    0  0.00000000000E+00  0.00000000000E+00 -0.42543045679E+03  0.20423415569E+04  0.19975404780E+04 0.  0.
        2    1    3    3  502    0 -0.18664972060E+03 -0.84708718142E+02  0.78671979392E+03  0.81298322201E+03  0.25500000920E-02 0.  1.
       -2    1    3    3    0  502  0.18664972060E+03  0.84708718142E+02 -0.12121502507E+04  0.12293583348E+04  0.25500000920E-02 0. -1.
</event>
<event>
 5   0  0.8022574E-05  0.2000403E+04  0.7818609E-02  0.8606432E-01
        2   -1    0    0  501    0  0.00000000000E+00  0.00000000000E+00  0.29950931416E+04  0.29950931416E+04  0.25500000920E-02 0. -1.
       -2   -1    0    0    0  501  0.00000000000E+00  0.00000000000E+00 -0.33401388598E+03  0.33401388599E+03  0.25500000920E-02 0.  1.
    10030    2    1    2    0    0  0.00000000000E+00  0.00000000000E+00  0.26610792556E+04  0.33291070276E+04  0.20004026586E+04 0.  0.
        1    1    3    3  502    0 -0.35410475577E+03 -0.74238857485E+03  0.38343741423E+03  0.90749943515E+03  0.50400001928E-02 0.  1.
       -1    1    3    3    0  502  0.35410475577E+03  0.74238857485E+03  0.22776418414E+04  0.24216075924E+04  0.50400001928E-02 0. -1.
</event>
<event>
 5   0  0.3818907E-05  0.2017399E+04  0.7818609E-02  0.8598529E-01
       -1   -1    0    0    0  501  0.00000000000E+00  0.00000000000E+00  0.14094492591E+04  0.14094492591E+04  0.50400001928E-02 0. -1.
        1   -1    0    0  501    0  0.00000000000E+00  0.00000000000E+00 -0.72189553161E+03  0.72189553163E+03  0.50400001928E-02 0.  1.
    10030    2    1    2    0    0  0.00000000000E+00  0.00000000000E+00  0.68755372753E+03  0.21313447908E+04  0.20173994371E+04 0.  0.
        1    1    3    3  502    0 -0.52769333541E+03 -0.13590096194E+02  0.12518778113E+04  0.13586180484E+04  0.50400001928E-02 0. -1.
       -1    1    3    3    0  502  0.52769333541E+03  0.13590096194E+02 -0.56432408374E+03  0.77272674242E+03  0.50400001928E-02 0.  1.
</event>
<event>
 5   0  0.7857136E-05  0.2029601E+04  0.7818609E-02  0.8592905E-01
        2   -1    0    0  501    0  0.00000000000E+00  0.00000000000E+00  0.19621499620E+04  0.19621499620E+04  0.25500000920E-02 0.  1.
       -2   -1    0    0    0  501  0.00000000000E+00  0.00000000000E+00 -0.52484291607E+03  0.52484291608E+03  0.25500000920E-02 0. -1.
    10030    2    1    2    0    0  0.00000000000E+00  0.00000000000E+00  0.14373070459E+04  0.24869928781E+04  0.20296014464E+04 0.  0.
        4    1    3    3  502    0 -0.67453174961E+03 -0.45227410518E+03  0.14642869269E+04  0.16744201279E+04  0.12699999809E+01 0.  1.
       -4    1    3    3    0  502  0.67453174961E+03  0.45227410518E+03 -0.26979880998E+02  0.81257275018E+03  0.12699999809E+01 0. -1.
</event>
<event>
 5   0  0.7857136E-05  0.1989450E+04  0.7818609E-02  0.8611569E-01
       -2   -1    0    0    0  501  0.00000000000E+00  0.00000000000E+00  0.56716399601E+03  0.56716399602E+03  0.25500000920E-02 0.  1.
        2   -1    0    0  501    0  0.00000000000E+00  0.00000000000E+00 -0.17446059913E+04  0.17446059913E+04  0.25500000920E-02 0. -1.
    10030    2    1    2    0    0  0.00000000000E+00  0.00000000000E+00 -0.11774419953E+04  0.23117699873E+04  0.19894498793E+04 0.  0.
        4    1    3    3  502    0 -0.13740017917E+03  0.97561793577E+03 -0.74790821779E+03  0.12369630071E+04  0.12699999809E+01 0. -1.
       -4    1    3    3    0  502  0.13740017917E+03 -0.97561793577E+03 -0.42953377752E+03  0.10748069802E+04  0.12699999809E+01 0.  1.
</event>
<event>
 5   0  0.7935008E-05  0.1970508E+04  0.7818609E-02  0.8620534E-01
        2   -1    0    0  501    0  0.00000000000E+00  0.00000000000E+00  0.77952363571E+03  0.77952363572E+03  0.25500000920E-02 0.  1.
       -2   -1    0    0    0  501  0.00000000000E+00  0.00000000000E+00 -0.12452807855E+04  0.12452807855E+04  0.25500000920E-02 0. -1.
    10030    2    1    2    0    0  0.00000000000E+00  0.00000000000E+00 -0.46575714982E+03  0.20248044213E+04  0.19705083663E+04 0.  0.
        3    1    3    3  502    0  0.21689173118E+03 -0.93694845889E+03 -0.12945078664E+02  0.96181184383E+03  0.10100000352E+00 0.  1.
       -3    1    3    3    0  502 -0.21689173118E+03  0.93694845889E+03 -0.45281207116E+03  0.10629925774E+04  0.10100000352E+00 0. -1.
</event>
<event>
 5   0  0.3787698E-05  0.1972035E+04  0.7818609E-02  0.8619808E-01
        1   -1    0    0  501    0  0.00000000000E+00  0.00000000000E+00  0.12444635055E+04  0.12444635055E+04  0.50400001928E-02 0.  1.
       -1   -1    0    0    0  501  0.00000000000E+00  0.00000000000E+00 -0.78124500637E+03  0.78124500638E+03  0.50400001928E-02 0. -1.
    10030    2    1    2    0    0  0.00000000000E+00  0.00000000000E+00  0.46321849911E+03  0.20257085119E+04  0.19720353945E+04 0.  0.
        4    1    3    3  502    0  0.31004868783E+03  0.23944048270E+03  0.11610945078E+04  0.12253995278E+04  0.12699999809E+01 0.  1.
       -4    1    3    3    0  502 -0.31004868783E+03 -0.23944048270E+03 -0.69787600874E+03  0.80030898411E+03  0.12699999809E+01 0. -1.
</event>
<event>
 5   0  0.3772949E-05  0.1994952E+04  0.7818609E-02  0.8608985E-01
       -1   -1    0    0    0  501  0.00000000000E+00  0.00000000000E+00  0.10474945027E+04  0.10474945028E+04  0.50400001928E-02 0. -1.
        1   -1    0    0  501    0  0.00000000000E+00  0.00000000000E+00 -0.94984565560E+03  0.94984565561E+03  0.50400001928E-02 0.  1.
    10030    2    1    2    0    0  0.00000000000E+00  0.00000000000E+00  0.97648847150E+02  0.19973401584E+04  0.19949517315E+04 0.  0.
        2    1    3    3  502    0 -0.60969594047E+03  0.49027390482E+03  0.66832241239E+03  0.10289569906E+04  0.25500000920E-02 0. -1.
       -2    1    3    3    0  502  0.60969594047E+03 -0.49027390482E+03 -0.57067356524E+03  0.96838316778E+03  0.25500000920E-02 0.  1.
</event>
<event>
 5   0  0.7935008E-05  0.2001372E+04  0.7818609E-02  0.8605980E-01
       -2   -1    0    0    0  501  0.00000000000E+00  0.00000000000E+00  0.13049365318E+04  0.13049365318E+04  0.25500000920E-02 0.  1.
        2   -1    0    0  501    0  0.00000000000E+00  0.00000000000E+00 -0.76737228775E+03  0.76737228776E+03  0.25500000920E-02 0. -1.
    10030    2    1    2    0    0  0.00000000000E+00  0.00000000000E+00  0.53756424407E+03  0.20723088196E+04  0.20013716614E+04 0.  0.
        3    1    3    3  502    0 -0.49146037545E+03  0.86082356066E+03  0.12672755164E+03  0.99930495134E+03  0.10100000352E+00 0.  1.
       -3    1    3    3    0  502  0.49146037545E+03 -0.86082356066E+03  0.41083669243E+03  0.10730038682E+04  0.10100000352E+00 0. -1.
</event>
<event>
 5   0  0.7857136E-05  0.2001556E+04  0.7818609E-02  0.8605894E-01
        2   -1    0    0  501    0  0.00000000000E+00  0.00000000000E+00  0.14510541148E+04  0.14510541148E+04  0.25500000920E-02 0.  1.
       -2   -1    0    0    0  501  0.00000000000E+00  0.00000000000E+00 -0.69022671819E+03  0.69022671819E+03  0.25500000920E-02 0. -1.
    10030    2    1    2    0    0  0.00000000000E+00  0.00000000000E+00  0.76082739663E+03  0.21412808330E+04  0.20015557145E+04 0.  0.
        4    1    3    3  502    0 -0.21377963686E+03  0.50564044989E+03 -0.51476763324E+03  0.75256981525E+03  0.12699999809E+01 0. -1.
       -4    1    3    3    0  502  0.21377963686E+03 -0.50564044989E+03  0.12755950299E+04  0.13887110178E+04  0.12699999809E+01 0.  1.
</event>
<event>
 5   0  0.7857136E-05  0.1985604E+04  0.7818609E-02  0.8613381E-01
        2   -1    0    0  501    0  0.00000000000E+00  0.00000000000E+00  0.17116694294E+04  0.17116694294E+04  0.25500000920E-02 0. -1.
       -2   -1    0    0    0  501  0.00000000000E+00  0.00000000000E+00 -0.57584454304E+03  0.57584454305E+03  0.25500000920E-02 0.  1.
    10030    2    1    2    0    0  0.00000000000E+00  0.00000000000E+00  0.11358248863E+04  0.22875139724E+04  0.19856036869E+04 0.  0.
        4    1    3    3  502    0 -0.72076587126E+03 -0.67595983231E+03  0.67858569202E+03  0.11987098441E+04  0.12699999809E+01 0. -1.
       -4    1    3    3    0  502  0.72076587126E+03  0.67595983231E+03  0.45723919429E+03  0.10888041283E+04  0.12699999809E+01 0.  1.
</event>
<event>
 5   0  0.3970042E-05  0.1990765E+04  0.7818609E-02  0.8610950E-01
        1   -1    0    0  501    0  0.00000000000E+00  0.00000000000E+00  0.90340262717E+03  0.90340262718E+03  0.50400001928E-02 0. -1.
       -1   -1    0    0    0  501  0.00000000000E+00  0.00000000000E+00 -0.10967277867E+04  0.10967277867E+04  0.50400001928E-02 0.  1.
    10030    2    1    2    0    0  0.00000000000E+00  0.00000000000E+00 -0.19332515952E+03  0.20001304139E+04  0.19907654445E+04 0.  0.
        3    1    3    3  502    0 -0.49932342748E+03 -0.12123670702E+02 -0.96170991614E+03  0.10836774620E+04  0.10100000352E+00 0.  1.
       -3    1    3    3    0  502  0.49932342748E+03  0.12123670702E+02  0.76838475662E+03  0.91645295189E+03  0.10100000352E+00 0. -1.
</event>
<event>
 5   0  0.3818907E-05  0.1953026E+04  0.7818609E-02  0.8628903E-01
       -1   -1    0    0    0  501  0.00000000000E+00  0.00000000000E+00  0.69998939375E+03  0.69998939376E+03  0.50400001928E-02 0. -1.
        1   -1    0    0  501    0  0.00000000000E+00  0.00000000000E+00 -0.13622745479E+04  0.13622745479E+04  0.50400001928E-02 0.  1.
    10030    2    1    2    0    0  0.00000000000E+00  0.00000000000E+00 -0.66228515417E+03  0.20622639417E+04  0.19530260981E+04 0.  0.
        1    1    3    3  502    0  0.65900786254E+03 -0.61673446656E+03  0.62431383369E+02  0.90473777570E+03  0.50400001928E-02 0. -1.
       -1    1    3    3    0  502 -0.65900786254E+03  0.61673446656E+03 -0.72471653754E+03  0.11575261660E+04  0.50400001928E-02 0.  1.
</event>
<event>
 5   0  0.3772949E-05  0.1995132E+04  0.7818609E-02  0.8608900E-01
        1   -1    0    0  501    0  0.00000000000E+00  0.00000000000E+00  0.11426115871E+04  0.11426115872E+04  0.50400001928E-02 0. -1.
       -1   -1    0    0    0  501  0.00000000000E+00  0.00000000000E+00 -0.87093260207E+03  0.87093260209E+03  0.50400001928E-02 0.  1.
    10030    2    1    2    0    0  0.00000000000E+00  0.00000000000E+00  0.27167898508E+03  0.20135441892E+04  0.19951317578E+04 0.  0.
        2    1    3    3  502    0 -0.83485405577E+03 -0.36569503960E+03  0.54507335488E+03  0.10619882855E+04  0.25500000920E-02 0. -1.
       -2    1    3    3    0  502  0.83485405577E+03  0.36569503960E+03 -0.27339436980E+03  0.95155590370E+03  0.25500000920E-02 0.  1.
</event>
<event>
 5   0  0.8022574E-05  0.1998825E+04  0.7818609E-02  0.8607170E-01
       -2   -1    0    0    0  501  0.00000000000E+00  0.00000000000E+00  0.97517580561E+03  0.97517580562E+03  0.25500000920E-02 0.  1.
        2   -1    0    0  501    0  0.00000000000E+00  0.00000000000E+00 -0.10242512936E+04  0.10242512936E+04  0.25500000920E-02 0. -1.
    10030    2    1    2    0    0  0.00000000000E+00  0.00000000000E+00 -0.49075488002E+02  0.19994270992E+04  0.19988247351E+04 0.  0.
        1    1    3    3  502    0  0.66587723350E+03 -0.58626647920E+03  0.43573590823E+03  0.98841623645E+03  0.50400001928E-02 0.  1.
       -1    1    3    3    0  502 -0.66587723350E+03  0.58626647920E+03 -0.48481139624E+03  0.10110108628E+04  0.50400001928E-02 0. -1.
</event>
<event>
 5   0  0.7857136E-05  0.1992010E+04  0.7818609E-02  0.8610365E-01
       -2   -1    0    0    0  501  0.00000000000E+00  0.00000000000E+00  0.64877220434E+03  0.64877220434E+03  0.25500000920E-02 0. -1.
        2   -1    0    0  501    0  0.00000000000E+00  0.00000000000E+00 -0.15290822460E+04  0.15290822460E+04  0.25500000920E-02 0.  1.
    10030    2    1    2    0    0  0.00000000000E+00  0.00000000000E+00 -0.88031004168E+03  0.21778544504E+04  0.19920100997E+04 0.  0.
        4    1    3    3  502    0  0.23074654863E+03 -0.81401680854E+03  0.13437857884E+03  0.85669513226E+03  0.12699999809E+01 0. -1.
       -4    1    3    3    0  502 -0.23074654863E+03  0.81401680854E+03 -0.10146886205E+04  0.13211593181E+04  0.12699999809E+01 0.  1.
</event>
<event>
 5   0  0.3549426E-05  0.1999115E+04  0.7818609E-02  0.8607035E-01
       -1   -1    0    0    0  501  0.00000000000E+00  0.00000000000E+00  0.15288740489E+04  0.15288740489E+04  0.50400001928E-02 0. -1.
        1   -1    0    0  501    0  0.00000000000E+00  0.00000000000E+00 -0.65349737315E+03  0.65349737317E+03  0.50400001928E-02 0.  1.
    10030    2    1    2    0    0  0.00000000000E+00  0.00000000000E+00  0.87537667575E+03  0.21823714221E+04  0.19991149790E+04 0.  0.
        5    1    3    3  502    0  0.84392707782E+03  0.22215229572E+03 -0.94357172688E+02  0.87777555286E+03  0.46999998093E+01 0.  1.
       -5    1    3    3    0  502 -0.84392707782E+03 -0.22215229572E+03  0.96973384844E+03  0.13045958692E+04  0.46999998093E+01 0. -1.
</event>
<event>
 5   0  0.8022574E-05  0.1988329E+04  0.7818609E-02  0.8612097E-01
        2   -1    0    0  501    0  0.00000000000E+00  0.00000000000E+00  0.10584782076E+04  0.10584782076E+04  0.25500000920E-02 0.  1.
       -2   -1    0    0    0  501  0.00000000000E+00  0.00000000000E+00 -0.93375897027E+03  0.93375897027E+03  0.25500000920E-02 0. -1.
    10030    2    1    2    0    0  0.00000000000E+00  0.00000000000E+00  0.12471923732E+03  0.19922371779E+04  0.19883294709E+04 0.  0.
        1    1    3    3  502    0 -0.36911743958E+03 -0.65367482262E+03  0.71542664426E+03  0.10370022860E+04  0.50400001928E-02 0.  1.
       -1    1    3    3    0  502  0.36911743958E+03  0.65367482262E+03 -0.59070740693E+03  0.95523489182E+03  0.50400001928E-02 0. -1.
</event>
<event>
 5   0  0.3970042E-05  0.1991699E+04  0.7818609E-02  0.8610512E-01
       -1   -1    0    0    0  501  0.00000000000E+00  0.00000000000E+00  0.57618914377E+03  0.57618914379E+03  0.50400001928E-02 0. -1.
        1   -1    0    0  501    0  0.00000000000E+00  0.00000000000E+00 -0.17211640928E+04  0.17211640928E+04  0.50400001928E-02 0.  1.
    10030    2    1    2    0    0  0.00000000000E+00  0.00000000000E+00 -0.11449749490E+04  0.22973532366E+04  0.19916988376E+04 0.  0.
        3    1    3    3  502    0  0.50607947833E+03  0.47151283875E+02  0.41530920920E+03  0.65636988917E+03  0.10100000352E+00 0. -1.
       -3    1    3    3    0  502 -0.50607947833E+03 -0.47151283875E+02 -0.15602841582E+04  0.16409833474E+04  0.10100000352E+00 0.  1.
</event>
<event>
 5   0  0.3549426E-05  0.2052380E+04  0.7818609E-02  0.8582516E-01
        1   -1    0    0  501    0  0.00000000000E+00  0.00000000000E+00  0.16555132974E+04  0.16555132974E+04  0.50400001928E-02 0.  1.
       -1   -1    0    0    0  501  0.00000000000E+00  0.00000000000E+00 -0.63609603634E+03  0.63609603636E+03  0.50400001928E-02 0. -1.
    10030    2    1    2    0    0  0.00000000000E+00  0.00000000000E+00  0.10194172611E+04  0.22916093338E+04  0.20523795425E+04 0.  0.
        5    1    3    3  502    0 -0.81946557158E+03  0.61746699076E+03  0.52750541761E+03  0.11537215276E+04  0.46999998093E+01 0.  1.
       -5    1    3    3    0  502  0.81946557158E+03 -0.61746699076E+03  0.49191184347E+03  0.11378878062E+04  0.46999998093E+01 0. -1.
</event>
<event>
 5   0  0.3549426E-05  0.1979196E+04  0.7818609E-02  0.8616409E-01
        1   -1    0    0  501    0  0.00000000000E+00  0.00000000000E+00  0.20090022000E+04  0.20090022000E+04  0.50400001928E-02 0. -1.
       -1   -1    0    0    0  501  0.00000000000E+00  0.00000000000E+00 -0.48745823823E+03  0.48745823826E+03  0.50400001928E-02 0.  1.
    10030    2    1    2    0    0  0.00000000000E+00  0.00000000000E+00  0.15215439618E+04  0.24964604383E+04  0.19791964764E+04 0.  0.
        5    1    3    3  502    0 -0.51996662613E+03  0.18860646107E+03  0.17958058576E+04  0.18790631861E+04  0.46999998093E+01 0. -1.
       -5    1    3    3    0  502  0.51996662613E+03 -0.18860646107E+03 -0.27426189580E+03  0.61739725213E+03  0.46999998093E+01 0.  1.
</event>
<event>
 5   0  0.8011197E-05  0.2013635E+04  0.7818609E-02  0.8600272E-01
       -2   -1    0    0    0  501  0.00000000000E+00  0.00000000000E+00  0.34847451448E+03  0.34847451449E+03  0.25500000920E-02 0.  1.
        2   -1    0    0  501    0  0.00000000000E+00  0.00000000000E+00 -0.29089119546E+04  0.29089119546E+04  0.25500000920E-02 0. -1.
    10030    2    1    2    0    0  0.00000000000E+00  0.00000000000E+00 -0.25604374401E+04  0.32573864691E+04  0.20136352014E+04 0.  0.
        5    1    3    3  502    0 -0.24843984536E+03  0.75485260203E+03 -0.22802113027E+04  0.24147278279E+04  0.46999998093E+01 0. -1.
       -5    1    3    3    0  502  0.24843984536E+03 -0.75485260203E+03 -0.28022613737E+03  0.84265864121E+03  0.46999998093E+01 0.  1.
</event>
<event>
 5   0  0.8011197E-05  0.1996494E+04  0.7818609E-02  0.8608261E-01
        2   -1    0    0  501    0  0.00000000000E+00  0.00000000000E+00  0.90533375009E+03  0.90533375010E+03  0.25500000920E-02 0. -1.
       -2   -1    0    0    0  501  0.00000000000E+00  0.00000000000E+00 -0.11006961849E+04  0.11006961849E+04  0.25500000920E-02 0.  1.
    10030    2    1    2    0    0  0.00000000000E+00  0.00000000000E+00 -0.19536243481E+03  0.20060299350E+04  0.19964943324E+04 0.  0.
        5    1    3    3  502    0 -0.66093018288E+03  0.78816353814E+02 -0.84516621007E+03  0.10758107347E+04  0.46999998093E+01 0.  1.
       -5    1    3    3    0  502  0.66093018288E+03 -0.78816353814E+02  0.64980377526E+03  0.93021920030E+03  0.46999998093E+01 0. -1.
</event>
<event>
 5   0  0.7857136E-05  0.2001601E+04  0.7818609E-02  0.8605872E-01
       -2   -1    0    0    0  501  0.00000000000E+00  0.00000000000E+00  0.13455889180E+04  0.13455889180E+04  0.25500000920E-02 0. -1.
        2   -1    0    0  501    0  0.00000000000E+00  0.00000000000E+00 -0.74435950218E+03  0.74435950218E+03  0.25500000920E-02 0.  1.
    10030    2    1    2    0    0  0.00000000000E+00  0.00000000000E+00  0.60122941579E+03  0.20899484202E+04  0.20016012561E+04 0.  0.
        4    1    3    3  502    0 -0.23927028034E+03  0.87794631344E+03  0.73560862501E+03  0.11701118145E+04  0.12699999809E+01 0. -1.
       -4    1    3    3    0  502  0.23927028034E+03 -0.87794631344E+03 -0.13437920922E+03  0.91983660566E+03  0.12699999809E+01 0.  1.
</event>
<event>
 5   0  0.3818907E-05  0.2002607E+04  0.7818609E-02  0.8605403E-01
        1   -1    0    0  501    0  0.00000000000E+00  0.00000000000E+00  0.14539606668E+04  0.14539606668E+04  0.50400001928E-02 0.  1.
       -1   -1    0    0    0  501  0.00000000000E+00  0.00000000000E+00 -0.68957075300E+03  0.68957075302E+03  0.50400001928E-02 0. -1.
    10030    2    1    2    0    0  0.00000000000E+00  0.00000000000E+00  0.76438991384E+03  0.21435314199E+04  0.20026070527E+04 0.  0.
        1    1    3    3  502    0 -0.97228903853E+03  0.17976400189E+03  0.21313171058E+03  0.10114772350E+04  0.50400001928E-02 0.  1.
       -1    1    3    3    0  502  0.97228903853E+03 -0.17976400189E+03  0.55125820325E+03  0.11320541849E+04  0.50400001928E-02 0. -1.
</event>
<event>
 5   0  0.8011197E-05  0.1998302E+04  0.7818609E-02  0.8607415E-01
       -2   -1    0    0    0  501  0.00000000000E+00  0.00000000000E+00  0.56851722614E+03  0.56851722615E+03  0.25500000920E-02 0.  1.
        2   -1    0    0  501    0  0.00000000000E+00  0.00000000000E+00 -0.17559757628E+04  0.17559757628E+04  0.25500000920E-02 0. -1.
    10030    2    1    2    0    0  0.00000000000E+00  0.00000000000E+00 -0.11874585367E+04  0.23244929890E+04  0.19983017489E+04 0.  0.
        5    1    3    3  502    0 -0.55616580999E+03 -0.24173645496E+03 -0.15174013062E+04  0.16341008953E+04  0.46999998093E+01 0. -1.
       -5    1    3    3    0  502  0.55616580999E+03  0.24173645496E+03  0.32994276954E+03  0.69039209369E+03  0.46999998093E+01 0.  1.
</event>
<event>
 5   0  0.3549426E-05  0.1982057E+04  0.7818609E-02  0.8615056E-01
        1   -1    0    0  501    0  0.00000000000E+00  0.00000000000E+00  0.82160110745E+03  0.82160110746E+03  0.50400001928E-02 0.  1.
       -1   -1    0    0    0  501  0.00000000000E+00  0.00000000000E+00 -0.11953944526E+04  0.11953944526E+04  0.50400001928E-02 0. -1.
    10030    2    1    2    0    0  0.00000000000E+00  0.00000000000E+00 -0.37379334515E+03  0.20169955601E+04  0.19820569176E+04 0.  0.
        5    1    3    3  502    0 -0.22528313220E+02  0.98658237455E+03 -0.94393219403E+02  0.99135486912E+03  0.46999998093E+01 0.  1.
       -5    1    3    3    0  502  0.22528313220E+02 -0.98658237455E+03 -0.27940012575E+03  0.10256406910E+04  0.46999998093E+01 0. -1.
</event>
<event>
 5   0  0.7935008E-05  0.1987530E+04  0.7818609E-02  0.8612473E-01
        2   -1    0    0  501    0  0.00000000000E+00  0.00000000000E+00  0.12634829723E+04  0.12634829723E+04  0.25500000920E-02 0.  1.
       -2   -1    0    0    0  501  0.00000000000E+00  0.00000000000E+00 -0.78162428770E+03  0.78162428770E+03  0.25500000920E-02 0. -1.
    10030    2    1    2    0    0  0.00000000000E+00  0.00000000000E+00  0.48185868459E+03  0.20451072600E+04  0.19875301037E+04 0.  0.
        3    1    3    3  502    0 -0.65997724471E+03  0.62063324460E+03  0.66118911033E+03  0.11215732868E+04  0.10100000352E+00 0.  1.
       -3    1    3    3    0  502  0.65997724471E+03 -0.62063324460E+03 -0.17933042574E+03  0.92353397319E+03  0.10100000352E+00 0. -1.
</event>
<event>
 5   0  0.8011197E-05  0.2001171E+04  0.7818609E-02  0.8606073E-01
       -2   -1    0    0    0  501  0.00000000000E+00  0.00000000000E+00  0.47178704119E+03  0.47178704120E+03  0.25500000920E-02 0. -1.
        2   -1    0    0  501    0  0.00000000000E+00  0.00000000000E+00 -0.21220834742E+04  0.21220834742E+04  0.25500000920E-02 0.  1.
    10030    2    1    2    0    0  0.00000000000E+00  0.00000000000E+00 -0.16502964330E+04  0.25938705154E+04  0.20011711406E+04 0.  0.
        5    1    3    3  502    0  0.38739036598E+03 -0.48350242497E+02  0.36898144632E+03  0.53719497329E+03  0.46999998093E+01 0. -1.
       -5    1    3    3    0  502 -0.38739036598E+03  0.48350242497E+02 -0.20192778794E+04  0.20566755421E+04  0.46999998093E+01 0.  1.
</event>
<event>
 5   0  0.3787698E-05  0.2004106E+04  0.7818609E-02  0.8604703E-01
        1   -1    0    0  501    0  0.00000000000E+00  0.00000000000E+00  0.10868757959E+04  0.10868757959E+04  0.50400001928E-02 0.  1.
       -1   -1    0    0    0  501  0.00000000000E+00  0.00000000000E+00 -0.92385001276E+03  0.92385001277E+03  0.50400001928E-02 0. -1.
    10030    2    1    2    0    0  0.00000000000E+00  0.00000000000E+00  0.16302578310E+03  0.20107258086E+04  0.20041060031E+04 0.  0.
        4    1    3    3  502    0 -0.50213250721E+03 -0.22106273092E+03 -0.75976908170E+03  0.93715337923E+03  0.12699999809E+01 0. -1.
       -4    1    3    3    0  502  0.50213250721E+03  0.22106273092E+03  0.92279486480E+03  0.10735724294E+04  0.12699999809E+01 0.  1.
</event>
<event>
 5   0  0.7935008E-05  0.2001824E+04  0.7818609E-02  0.8605768E-01
        2   -1    0    0  501    0  0.00000000000E+00  0.00000000000E+00  0.70629032279E+03  0.70629032280E+03  0.25500000920E-02 0. -1.
       -2   -1    0    0    0  501  0.00000000000E+00  0.00000000000E+00 -0.14184316687E+04  0.14184316687E+04  0.25500000920E-02 0.  1.
    10030    2    1    2    0    0  0.00000000000E+00  0.00000000000E+00 -0.71214134595E+03  0.21247219915E+04  0.20018237297E+04 0.  0.
        3    1    3    3  502    0 -0.86424962894E+03  0.12832415224E+03 -0.87434150463E+03  0.12360694099E+04  0.10100000352E+00 0.  1.
       -3    1    3    3    0  502  0.86424962894E+03 -0.12832415224E+03  0.16220015869E+03  0.88865258163E+03  0.10100000352E+00 0. -1.
</event>
<event>
 5   0  0.7843846E-05  0.1997758E+04  0.7818609E-02  0.8607670E-01
       -2   -1    0    0    0  501  0.00000000000E+00  0.00000000000E+00  0.54660843338E+03  0.54660843339E+03  0.25500000920E-02 0. -1.
        2   -1    0    0  501    0  0.00000000000E+00  0.00000000000E+00 -0.18253631414E+04  0.18253631414E+04  0.25500000920E-02 0.  1.
    10030    2    1    2    0    0  0.00000000000E+00  0.00000000000E+00 -0.12787547080E+04  0.23719715748E+04  0.19977576300E+04 0.  0.
        2    1    3    3  502    0  0.27051280996E+03  0.87032868029E+03 -0.15401341615E+03  0.92432100725E+03  0.25500000920E-02 0. -1.
       -2    1    3    3    0  502 -0.27051280996E+03 -0.87032868029E+03 -0.11247412919E+04  0.14476505676E+04  0.25500000920E-02 0.  1.
</event>
<event>
 5   0  0.7857136E-05  0.1997585E+04  0.7818609E-02  0.8607751E-01
        2   -1    0    0  501    0  0.00000000000E+00  0.00000000000E+00  0.81014488556E+03  0.81014488557E+03  0.25500000920E-02 0. -1.
       -2   -1    0    0    0  501  0.00000000000E+00  0.00000000000E+00 -0.12313677541E+04  0.12313677541E+04  0.25500000920E-02 0.  1.
    10030    2    1    2    0    0  0.00000000000E+00  0.00000000000E+00 -0.42122286852E+03  0.20415126397E+04  0.19975848300E+04 0.  0.
        4    1    3    3  502    0  0.97946285341E+03 -0.57042967672E+02 -0.40176270589E+03  0.10601963338E+04  0.12699999809E+01 0. -1.
       -4    1    3    3    0  502 -0.97946285341E+03  0.57042967672E+02 -0.19460162626E+02  0.98131630589E+03  0.12699999809E+01 0.  1.
</event>
<event>
 5   0  0.7935008E-05  0.2002028E+04  0.7818609E-02  0.8605673E-01
       -2   -1    0    0    0  501  0.00000000000E+00  0.00000000000E+00  0.78349251484E+03  0.78349251484E+03  0.25500000920E-02 0. -1.
        2   -1    0    0  501    0  0.00000000000E+00  0.00000000000E+00 -0.12789256038E+04  0.12789256038E+04  0.25500000920E-02 0.  1.
    10030    2    1    2    0    0  0.00000000000E+00  0.00000000000E+00 -0.49543308894E+03  0.20624181186E+04  0.20020276098E+04 0.  0.
        3    1    3    3  502    0  0.25308646400E+03  0.47834689609E+03  0.61980207362E+03  0.82281415394E+03  0.10100000352E+00 0. -1.
       -3    1    3    3    0  502 -0.25308646400E+03 -0.47834689609E+03 -0.11152351626E+04  0.12396039647E+04  0.10100000352E+00 0.  1.
</event>
<event>
 5   0  0.8022574E-05  0.1992504E+04  0.7818609E-02  0.8610133E-01
       -2   -1    0    0    0  501  0.00000000000E+00  0.00000000000E+00  0.95673762111E+03  0.95673762111E+03  0.25500000920E-02 0. -1.
        2   -1    0    0  501    0  0.00000000000E+00  0.00000000000E+00 -0.10373987908E+04  0.10373987908E+04  0.25500000920E-02 0.  1.
    10030    2    1    2    0    0  0.00000000000E+00  0.00000000000E+00 -0.80661169702E+02  0.19941364119E+04  0.19925044053E+04 0.  0.
        1    1    3    3  502    0  0.94474120331E+03 -0.29746140220E+03  0.66991683805E+02  0.99272710890E+03  0.50400001928E-02 0. -1.
       -1    1    3    3    0  502 -0.94474120331E+03  0.29746140220E+03 -0.14765285351E+03  0.10014093030E+04  0.50400001928E-02 0.  1.
</event>
<event>
 5   0  0.8022574E-05  0.2083990E+04  0.7818609E-02  0.8568329E-01
        2   -1    0    0  501    0  0.00000000000E+00  0.00000000000E+00  0.27065320215E+04  0.27065320215E+04  0.25500000920E-02 0. -1.
       -2   -1    0    0    0  501  0.00000000000E+00  0.00000000000E+00 -0.40116063058E+03  0.40116063059E+03  0.25500000920E-02 0.  1.
    10030    2    1    2    0    0  0.00000000000E+00  0.00000000000E+00  0.23053713910E+04  0.31076926521E+04  0.20839904918E+04 0.  0.
        1    1    3    3  502    0  0.48258383659E+03 -0.81919648231E+02  0.25244123376E+04  0.25714306598E+04  0.50400001928E-02 0. -1.
       -1    1    3    3    0  502 -0.48258383659E+03  0.81919648231E+02 -0.21904094661E+03  0.53626199233E+03  0.50400001928E-02 0.  1.
</event>
<event>
 5   0  0.3818907E-05  0.1988538E+04  0.7818609E-02  0.8611998E-01
       -1   -1    0    0    0  501  0.00000000000E+00  0.00000000000E+00  0.77403979594E+03  0.77403979596E+03  0.50400001928E-02 0.  1.
        1   -1    0    0  501    0  0.00000000000E+00  0.00000000000E+00 -0.12771580105E+04  0.12771580105E+04  0.50400001928E-02 0. -1.
    10030    2    1    2    0    0  0.00000000000E+00  0.00000000000E+00 -0.50311821457E+03  0.20511978065E+04  0.19885382831E+04 0.  0.
        1    1    3    3  502    0 -0.12434571868E+03 -0.37489309002E+03 -0.11927604013E+04  0.12564569478E+04  0.50400001928E-02 0. -1.
       -1    1    3    3    0  502  0.12434571868E+03  0.37489309002E+03  0.68964218674E+03  0.79474085868E+03  0.50400001928E-02 0.  1.
</event>
<event>
 5   0  0.3772949E-05  0.1985616E+04  0.7818609E-02  0.8613375E-01
       -1   -1    0    0    0  501  0.00000000000E+00  0.00000000000E+00  0.98900021297E+03  0.98900021298E+03  0.50400001928E-02 0.  1.
        1   -1    0    0  501    0  0.00000000000E+00  0.00000000000E+00 -0.99663046026E+03  0.99663046027E+03  0.50400001928E-02 0. -1.
    10030    2    1    2    0    0  0.00000000000E+00  0.00000000000E+00 -0.76302472942E+01  0.19856306733E+04  0.19856160127E+04 0.  0.
        2    1    3    3  502    0 -0.36406147399E+03  0.33010850567E+03 -0.86646588955E+03  0.99613027266E+03  0.25500000920E-02 0. -1.
       -2    1    3    3    0  502  0.36406147399E+03 -0.33010850567E+03  0.85883564226E+03  0.98950040059E+03  0.25500000920E-02 0.  1.
</event>
<event>
 5   0  0.8022574E-05  0.1999097E+04  0.7818609E-02  0.8607043E-01
       -2   -1    0    0    0  501  0.00000000000E+00  0.00000000000E+00  0.10396517208E+04  0.10396517208E+04  0.25500000920E-02 0. -1.
        2   -1    0    0  501    0  0.00000000000E+00  0.00000000000E+00 -0.96099255595E+03  0.96099255595E+03  0.25500000920E-02 0.  1.
    10030    2    1    2    0    0  0.00000000000E+00  0.00000000000E+00  0.78659164820E+02  0.20006442767E+04  0.19990973608E+04 0.  0.
        1    1    3    3  502    0 -0.86032668396E+03  0.37788466682E+03 -0.30172546797E+03  0.98691290528E+03  0.50400001928E-02 0.  1.
       -1    1    3    3    0  502  0.86032668396E+03 -0.37788466682E+03  0.38038463279E+03  0.10137313714E+04  0.50400001928E-02 0. -1.
</event>
<event>
 5   0  0.3549426E-05  0.1926002E+04  0.7818609E-02  0.8642021E-01
        1   -1    0    0  501    0  0.00000000000E+00  0.00000000000E+00  0.13563815909E+04  0.13563815909E+04  0.50400001928E-02 0.  1.
       -1   -1    0    0    0  501  0.00000000000E+00  0.00000000000E+00 -0.68370936432E+03  0.68370936433E+03  0.50400001928E-02 0. -1.
    10030    2    1    2    0    0  0.00000000000E+00  0.00000000000E+00  0.67267222659E+03  0.20400909552E+04  0.19260018643E+04 0.  0.
        5    1    3    3  502    0  0.23872870992E+03  0.15902762285E+03 -0.63739384770E+03  0.69898082152E+03  0.46999998093E+01 0. -1.
       -5    1    3    3    0  502 -0.23872870992E+03 -0.15902762285E+03  0.13100660743E+04  0.13411101337E+04  0.46999998093E+01 0.  1.
</event>
<event>
 5   0  0.8011197E-05  0.1998857E+04  0.7818609E-02  0.8607155E-01
       -2   -1    0    0    0  501  0.00000000000E+00  0.00000000000E+00  0.76101868519E+03  0.76101868519E+03  0.25500000920E-02 0.  1.
        2   -1    0    0  501    0  0.00000000000E+00  0.00000000000E+00 -0.13125272359E+04  0.13125272359E+04  0.25500000920E-02 0. -1.
    10030    2    1    2    0    0  0.00000000000E+00  0.00000000000E+00 -0.55150855070E+03  0.20735459211E+04  0.19988574250E+04 0.  0.
        5    1    3    3  502    0  0.73024432599E+03  0.64440006392E+03 -0.50847457862E+03  0.10986704261E+04  0.46999998093E+01 0. -1.
       -5    1    3    3    0  502 -0.73024432599E+03 -0.64440006392E+03 -0.43033972082E+02  0.97487549501E+03  0.46999998093E+01 0.  1.
</event>
<event>
 5   0  0.3970042E-05  0.1987554E+04  0.7818609E-02  0.8612462E-01
       -1   -1    0    0    0  501  0.00000000000E+00  0.00000000000E+00  0.41506328542E+03  0.41506328545E+03  0.50400001928E-02 0.  1.
        1   -1    0    0  501    0  0.00000000000E+00  0.00000000000E+00 -0.23793776621E+04  0.23793776621E+04  0.50400001928E-02 0. -1.
    10030    2    1    2    0    0  0.00000000000E+00  0.00000000000E+00 -0.19643143767E+04  0.27944409475E+04  0.19875535814E+04 0.  0.
        3    1    3    3  502    0 -0.53850322607E+03  0.56937426160E+03 -0.18413182823E+04  0.20011561162E+04  0.10100000352E+00 0. -1.
       -3    1    3    3    0  502  0.53850322607E+03 -0.56937426160E+03 -0.12299609433E+03  0.79328483137E+03  0.10100000352E+00 0.  1.
</event>
<event>
 5   0  0.7843846E-05  0.1949416E+04  0.7818609E-02  0.8630642E-01
        2   -1    0    0  501    0  0.00000000000E+00  0.00000000000E+00  0.18768796281E+04  0.18768796281E+04  0.25500000920E-02 0. -1.
       -2   -1    0    0    0  501  0.00000000000E+00  0.00000000000E+00 -0.50618912379E+03  0.50618912380E+03  0.25500000920E-02 0.  1.
    10030    2    1    2    0    0  0.00000000000E+00  0.00000000000E+00  0.13706905044E+04  0.23830687519E+04  0.19494163788E+04 0.  0.
        2    1    3    3  502    0 -0.45289907578E+03 -0.30198358900E+03  0.16737525654E+04  0.17600452582E+04  0.25500000920E-02 0. -1.
       -2    1    3    3    0  502  0.45289907578E+03  0.30198358900E+03 -0.30306206104E+03  0.62302349371E+03  0.25500000920E-02 0.  1.
</event>
<event>
 5   0  0.3787698E-05  0.1961040E+04  0.7818609E-02  0.8625055E-01
        1   -1    0    0  501    0  0.00000000000E+00  0.00000000000E+00  0.83437094219E+03  0.83437094220E+03  0.50400001928E-02 0. -1.
       -1   -1    0    0    0  501  0.00000000000E+00  0.00000000000E+00 -0.11522687119E+04  0.11522687119E+04  0.50400001928E-02 0.  1.
    10030    2    1    2    0    0  0.00000000000E+00  0.00000000000E+00 -0.31789776972E+03  0.19866396541E+04  0.19610400616E+04 0.  0.
        4    1    3    3  502    0  0.51334230787E+03  0.83307185439E+03 -0.22212382089E+03  0.10034289433E+04  0.12699999809E+01 0.  1.
       -4    1    3    3    0  502 -0.51334230787E+03 -0.83307185439E+03 -0.95773948838E+02  0.98321071079E+03  0.12699999809E+01 0. -1.
</event>
<event>
 5   0  0.3549426E-05  0.2014967E+04  0.7818609E-02  0.8599655E-01
        1   -1    0    0  501    0  0.00000000000E+00  0.00000000000E+00  0.10707511438E+04  0.10707511438E+04  0.50400001928E-02 0.  1.
       -1   -1    0    0    0  501  0.00000000000E+00  0.00000000000E+00 -0.94795433402E+03  0.94795433404E+03  0.50400001928E-02 0. -1.
    10030    2    1    2    0    0  0.00000000000E+00  0.00000000000E+00  0.12279680977E+03  0.20187054778E+04  0.20149671833E+04 0.  0.
        5    1    3    3  502    0  0.64127333817E+03  0.24114222740E+03 -0.67863297617E+03  0.96433701289E+03  0.46999998093E+01 0. -1.
       -5    1    3    3    0  502 -0.64127333817E+03 -0.24114222740E+03  0.80142978594E+03  0.10543684649E+04  0.46999998093E+01 0.  1.
</event>
<event>
 5   0  0.3818907E-05  0.2002894E+04  0.7818609E-02  0.8605269E-01
       -1   -1    0    0    0  501  0.00000000000E+00  0.00000000000E+00  0.56775781649E+03  0.56775781651E+03  0.50400001928E-02 0.  1.
        1   -1    0    0  501    0  0.00000000000E+00  0.00000000000E+00 -0.17664153998E+04  0.17664153998E+04  0.50400001928E-02 0. -1.
    10030    2    1    2    0    0  0.00000000000E+00  0.00000000000E+00 -0.11986575833E+04  0.23341732163E+04  0.20028940565E+04 0.  0.
        1    1    3    3  502    0  0.35467190673E+03  0.33512913376E+03 -0.16184994227E+04  0.16904567664E+04  0.50400001928E-02 0. -1.
       -1    1    3    3    0  502 -0.35467190673E+03 -0.33512913376E+03  0.41984183942E+03  0.64371644990E+03  0.50400001928E-02 0.  1.
</event>
<event>
 5   0  0.3772949E-05  0.2011168E+04  0.7818609E-02  0.8601417E-01
       -1   -1    0    0    0  501  0.00000000000E+00  0.00000000000E+00  0.12152051786E+04  0.12152051786E+04  0.50400001928E-02 0. -1.
        1   -1    0    0  501    0  0.00000000000E+00  0.00000000000E+00 -0.83212235329E+03  0.83212235331E+03  0.50400001928E-02 0.  1.
    10030    2    1    2    0    0  0.00000000000E+00  0.00000000000E+00  0.38308282530E+03  0.20473275319E+04  0.20111682107E+04 0.  0.
        2    1    3    3  502    0  0.37343744259E+02  0.10048868587E+04  0.18880251088E+03  0.10231512802E+04  0.25500000920E-02 0. -1.
       -2    1    3    3    0  502 -0.37343744259E+02 -0.10048868587E+04  0.19428031442E+03  0.10241762517E+04  0.25500000920E-02 0.  1.
</event>
<event>
 5   0  0.7935008E-05  0.2008285E+04  0.7818609E-02  0.8602757E-01
       -2   -1    0    0    0  501  0.00000000000E+00  0.00000000000E+00  0.28044476050E+04  0.28044476050E+04  0.25500000920E-02 0. -1.
        2   -1    0    0  501    0  0.00000000000E+00  0.00000000000E+00 -0.35953692447E+03  0.35953692448E+03  0.25500000920E-02 0.  1.
    10030    2    1    2    0    0  0.00000000000E+00  0.00000000000E+00  0.24449106805E+04  0.31639845294E+04  0.20082853052E+04 0.  0.
        3    1    3    3  502    0 -0.23467693427E+03  0.74011245591E+02 -0.31130035219E+03  0.39681084591E+03  0.10100000352E+00 0.  1.
       -3    1    3    3    0  502  0.23467693427E+03 -0.74011245591E+02  0.27562110327E+04  0.27671736835E+04  0.10100000352E+00 0. -1.
</event>
<event>
 5   0  0.8022574E-05  0.2003140E+04  0.7818609E-02  0.8605154E-01
        2   -1    0    0  501    0  0.00000000000E+00  0.00000000000E+00  0.72925492989E+03  0.72925492989E+03  0.25500000920E-02 0.  1.
       -2   -1    0    0    0  501  0.00000000000E+00  0.00000000000E+00 -0.13755714725E+04  0.13755714726E+04  0.25500000920E-02 0. -1.
    10030    2    1    2    0    0  0.00000000000E+00  0.00000000000E+00 -0.64631654266E+03  0.21048264024E+04  0.20031398132E+04 0.  0.
        1    1    3    3  502    0  0.92331715618E+02  0.33010467150E+03  0.66570353344E+03  0.74876927976E+03  0.50400001928E-02 0.  1.
       -1    1    3    3    0  502 -0.92331715618E+02 -0.33010467150E+03 -0.13120200761E+04  0.13560571227E+04  0.50400001928E-02 0. -1.
</event>
<event>
 5   0  0.3772949E-05  0.2009438E+04  0.7818609E-02  0.8602221E-01
        1   -1    0    0  501    0  0.00000000000E+00  0.00000000000E+00  0.64591752307E+03  0.64591752309E+03  0.50400001928E-02 0.  1.
       -1   -1    0    0    0  501  0.00000000000E+00  0.00000000000E+00 -0.15628321316E+04  0.15628321316E+04  0.50400001928E-02 0. -1.
    10030    2    1    2    0    0  0.00000000000E+00  0.00000000000E+00 -0.91691460852E+03  0.22087496547E+04  0.20094383887E+04 0.  0.
        2    1    3    3  502    0  0.74831107436E+03  0.66961237564E+03 -0.42182842620E+03  0.10891691415E+04  0.25500000920E-02 0. -1.
       -2    1    3    3    0  502 -0.74831107436E+03 -0.66961237564E+03 -0.49508618232E+03  0.11195805132E+04  0.25500000920E-02 0.  1.
</event>
<event>
 5   0  0.3787698E-05  0.1967302E+04  0.7818609E-02  0.8622062E-01
        1   -1    0    0  501    0  0.00000000000E+00  0.00000000000E+00  0.12259086489E+04  0.12259086489E+04  0.50400001928E-02 0.  1.
       -1   -1    0    0    0  501  0.00000000000E+00  0.00000000000E+00 -0.78926718359E+03  0.78926718361E+03  0.50400001928E-02 0. -1.
    10030    2    1    2    0    0  0.00000000000E+00  0.00000000000E+00  0.43664146534E+03  0.20151758325E+04  0.19673021798E+04 0.  0.
        4    1    3    3  502    0 -0.63686377375E+03  0.73878578874E+03  0.88073262736E+02  0.97936633620E+03  0.12699999809E+01 0. -1.
       -4    1    3    3    0  502  0.63686377375E+03 -0.73878578874E+03  0.34856820260E+03  0.10358094964E+04  0.12699999809E+01 0.  1.
</event>
<event>
 5   0  0.3970042E-05  0.1995953E+04  0.7818609E-02  0.8608515E-01
        1   -1    0    0  501    0  0.00000000000E+00  0.00000000000E+00  0.11067232506E+04  0.11067232506E+04  0.50400001928E-02 0.  1.
       -1   -1    0    0    0  501  0.00000000000E+00  0.00000000000E+00 -0.89991484151E+03  0.89991484153E+03  0.50400001928E-02 0. -1.
    10030    2    1    2    0    0  0.00000000000E+00  0.00000000000E+00  0.20680840907E+03  0.20066380921E+04  0.19959525833E+04 0.  0.
        3    1    3    3  502    0  0.63357558012E+03  0.73407651339E+03  0.34061295823E+03  0.10277662870E+04  0.10100000352E+00 0.  1.
       -3    1    3    3    0  502 -0.63357558012E+03 -0.73407651339E+03 -0.13380454915E+03  0.97887180510E+03  0.10100000352E+00 0. -1.
</event>
<event>
 5   0  0.3787698E-05  0.2025076E+04  0.7818609E-02  0.8594986E-01
        1   -1    0    0  501    0  0.00000000000E+00  0.00000000000E+00  0.17285503853E+04  0.17285503853E+04  0.50400001928E-02 0. -1.
       -1   -1    0    0    0  501  0.00000000000E+00  0.00000000000E+00 -0.59311734547E+03  0.59311734550E+03  0.50400001928E-02 0.  1.
    10030    2    1    2    0    0  0.00000000000E+00  0.00000000000E+00  0.11354330398E+04  0.23216677308E+04  0.20250760145E+04 0.  0.
        4    1    3    3  502    0 -0.27895571963E+03  0.40045273752E+03 -0.44937656379E+03  0.66341510194E+03  0.12699999809E+01 0.  1.
       -4    1    3    3    0  502  0.27895571963E+03 -0.40045273752E+03  0.15848096036E+04  0.16582526289E+04  0.12699999809E+01 0. -1.
</event>
<event>
 5   0  0.7843846E-05  0.1984983E+04  0.7818609E-02  0.8613674E-01
        2   -1    0    0  501    0  0.00000000000E+00  0.00000000000E+00  0.17205420535E+04  0.17205420535E+04  0.25500000920E-02 0. -1.
       -2   -1    0    0    0  501  0.00000000000E+00  0.00000000000E+00 -0.57251665396E+03  0.57251665396E+03  0.25500000920E-02 0.  1.
    10030    2    1    2    0    0  0.00000000000E+00  0.00000000000E+00  0.11480253995E+04  0.22930587074E+04  0.19849825989E+04 0.  0.
        2    1    3    3  502    0  0.80701633039E+03  0.14900956923E+03 -0.70793429877E+02  0.82370560211E+03  0.25500000920E-02 0.  1.
       -2    1    3    3    0  502 -0.80701633039E+03 -0.14900956923E+03  0.12188188294E+04  0.14693531053E+04  0.25500000920E-02 0. -1.
</event>
<event>
 5   0  0.8022574E-05  0.1994092E+04  0.7818609E-02  0.8609388E-01
        2   -1    0    0  501    0  0.00000000000E+00  0.00000000000E+00  0.13944862755E+04  0.13944862755E+04  0.25500000920E-02 0. -1.
       -2   -1    0    0    0  501  0.00000000000E+00  0.00000000000E+00 -0.71287955051E+03  0.71287955051E+03  0.25500000920E-02 0.  1.
    10030    2    1    2    0    0  0.00000000000E+00  0.00000000000E+00  0.68160672500E+03  0.21073658260E+04  0.19940920232E+04 0.  0.
        1    1    3    3  502    0 -0.75494073545E+03 -0.36047085532E+03  0.91404174105E+03  0.12390912218E+04  0.50400001928E-02 0. -1.
       -1    1    3    3    0  502  0.75494073545E+03  0.36047085532E+03 -0.23243501606E+03  0.86827460420E+03  0.50400001928E-02 0.  1.
</event>
<event>
 5   0  0.3818907E-05  0.2005842E+04  0.7818609E-02  0.8603894E-01
       -1   -1    0    0    0  501  0.00000000000E+00  0.00000000000E+00  0.86658366191E+03  0.86658366192E+03  0.50400001928E-02 0. -1.
        1   -1    0    0  501    0  0.00000000000E+00  0.00000000000E+00 -0.11607080566E+04  0.11607080566E+04  0.50400001928E-02 0.  1.
    10030    2    1    2    0    0  0.00000000000E+00  0.00000000000E+00 -0.29412439471E+03  0.20272917186E+04  0.20058421056E+04 0.  0.
        1    1    3    3  502    0  0.45508492299E+02  0.61175508200E+03 -0.94897945252E+03  0.11299899577E+04  0.50400001928E-02 0.  1.
       -1    1    3    3    0  502 -0.45508492299E+02 -0.61175508200E+03  0.65485505781E+03  0.89730176083E+03  0.50400001928E-02 0. -1.
</event>
<event>
 5   0  0.7843846E-05  0.1971537E+04  0.7818609E-02  0.8620045E-01
        2   -1    0    0  501    0  0.00000000000E+00  0.00000000000E+00  0.16871161062E+04  0.16871161062E+04  0.25500000920E-02 0.  1.
       -2   -1    0    0    0  501  0.00000000000E+00  0.00000000000E+00 -0.57597682764E+03  0.57597682764E+03  0.25500000920E-02 0. -1.
    10030    2    1    2    0    0  0.00000000000E+00  0.00000000000E+00  0.11111392786E+04  0.22630929338E+04  0.19715372507E+04 0.  0.
        2    1    3    3  502    0 -0.17320690850E+03 -0.25977870839E+03 -0.51771832250E+03  0.60458074063E+03  0.25500000920E-02 0. -1.
       -2    1    3    3    0  502  0.17320690850E+03  0.25977870839E+03  0.16288576011E+04  0.16585121932E+04  0.25500000920E-02 0.  1.
</event>
<event>
 5   0  0.3970042E-05  0.1995665E+04  0.7818609E-02  0.8608650E-01
       -1   -1    0    0    0  501  0.00000000000E+00  0.00000000000E+00  0.86427009532E+03  0.86427009533E+03  0.50400001928E-02 0. -1.
        1   -1    0    0  501    0  0.00000000000E+00  0.00000000000E+00 -0.11520356531E+04  0.11520356531E+04  0.50400001928E-02 0.  1.
    10030    2    1    2    0    0  0.00000000000E+00  0.00000000000E+00 -0.28776555780E+03  0.20163057485E+04  0.19956652663E+04 0.  0.
        3    1    3    3  502    0  0.11625451497E+03 -0.96504792348E+03 -0.37168613998E+03  0.10406647893E+04  0.10100000352E+00 0.  1.
       -3    1    3    3    0  502 -0.11625451497E+03  0.96504792348E+03  0.83920582183E+02  0.97564095915E+03  0.10100000352E+00 0. -1.
</event>
<event>
 5   0  0.8022574E-05  0.2008902E+04  0.7818609E-02  0.8602470E-01
       -2   -1    0    0    0  501  0.00000000000E+00  0.00000000000E+00  0.81344966592E+03  0.81344966593E+03  0.25500000920E-02 0. -1.
        2   -1    0    0  501    0  0.00000000000E+00  0.00000000000E+00 -0.12402999771E+04  0.12402999771E+04  0.25500000920E-02 0.  1.
    10030    2    1    2    0    0  0.00000000000E+00  0.00000000000E+00 -0.42685031121E+03  0.20537496431E+04  0.20089017916E+04 0.  0.
        1    1    3    3  502    0 -0.83267303009E+03 -0.52853228895E+03 -0.18831787281E+02  0.98643063199E+03  0.50400001928E-02 0. -1.
       -1    1    3    3    0  502  0.83267303009E+03  0.52853228895E+03 -0.40801852393E+03  0.10673190111E+04  0.50400001928E-02 0.  1.
</event>
<event>
 5   0  0.3970042E-05  0.1988290E+04  0.7818609E-02  0.8612115E-01
       -1   -1    0    0    0  501  0.00000000000E+00  0.00000000000E+00  0.80143283436E+03  0.80143283437E+03  0.50400001928E-02 0. -1.
        1   -1    0    0  501    0  0.00000000000E+00  0.00000000000E+00 -0.12331965685E+04  0.12331965685E+04  0.50400001928E-02 0.  1.
    10030    2    1    2    0    0  0.00000000000E+00  0.00000000000E+00 -0.43176373414E+03  0.20346294029E+04  0.19882899399E+04 0.  0.
        3    1    3    3  502    0  0.70165313442E+03  0.32518068728E+03 -0.85515313677E+03  0.11529728956E+04  0.10100000352E+00 0.  1.
       -3    1    3    3    0  502 -0.70165313442E+03 -0.32518068728E+03  0.42338940262E+03  0.88165650730E+03  0.10100000352E+00 0. -1.
</event>
<event>
 5   0  0.8011197E-05  0.1850458E+04  0.7818609E-02  0.8679917E-01
        2   -1    0    0  501    0  0.00000000000E+00  0.00000000000E+00  0.22111151604E+04  0.22111151604E+04  0.25500000920E-02 0.  1.
       -2   -1    0    0    0  501  0.00000000000E+00  0.00000000000E+00 -0.38715720165E+03  0.38715720166E+03  0.25500000920E-02 0. -1.
    10030    2    1    2    0    0  0.00000000000E+00  0.00000000000E+00  0.18239579588E+04  0.25982723621E+04  0.18504584924E+04 0.  0.
        5    1    3    3  502    0 -0.58992765361E+03 -0.40759441035E+03  0.90981765563E+02  0.72280537595E+03  0.46999998093E+01 0. -1.
       -5    1    3    3    0  502  0.58992765361E+03  0.40759441035E+03  0.17329761932E+04  0.18754669861E+04  0.46999998093E+01 0.  1.
</event>
<event>
 5   0  0.8022574E-05  0.2015521E+04  0.7818609E-02  0.8599398E-01
        2   -1    0    0  501    0  0.00000000000E+00  0.00000000000E+00  0.11027468223E+04  0.11027468223E+04  0.25500000920E-02 0.  1.
       -2   -1    0    0    0  501  0.00000000000E+00  0.00000000000E+00 -0.92095571226E+03  0.92095571227E+03  0.25500000920E-02 0. -1.
    10030    2    1    2    0    0  0.00000000000E+00  0.00000000000E+00  0.18179110999E+03  0.20237025345E+04  0.20155207616E+04 0.  0.
        1    1    3    3  502    0  0.50538820955E+03  0.30794137394E+03  0.90988793855E+03  0.10854221266E+04  0.50400001928E-02 0.  1.
       -1    1    3    3    0  502 -0.50538820955E+03 -0.30794137394E+03 -0.72809682856E+03  0.93828040794E+03  0.50400001928E-02 0. -1.
</event>
<event>
 5   0  0.3772949E-05  0.1945996E+04  0.7818609E-02  0.8632294E-01
       -1   -1    0    0    0  501  0.00000000000E+00  0.00000000000E+00  0.46195687846E+03  0.46195687848E+03  0.50400001928E-02 0. -1.
        1   -1    0    0  501    0  0.00000000000E+00  0.00000000000E+00 -0.20493788672E+04  0.20493788672E+04  0.50400001928E-02 0.  1.
    10030    2    1    2    0    0  0.00000000000E+00  0.00000000000E+00 -0.15874219887E+04  0.25113357457E+04  0.19459955440E+04 0.  0.
        2    1    3    3  502    0 -0.80534134720E+03 -0.14040496655E+03 -0.14746778288E+04  0.16861088158E+04  0.25500000920E-02 0.  1.
       -2    1    3    3    0  502  0.80534134720E+03  0.14040496655E+03 -0.11274415997E+03  0.82522692986E+03  0.25500000920E-02 0. -1.
</event>
<event>
 5   0  0.7843846E-05  0.2000058E+04  0.7818609E-02  0.8606594E-01
       -2   -1    0    0    0  501  0.00000000000E+00  0.00000000000E+00  0.64994914387E+03  0.64994914388E+03  0.25500000920E-02 0.  1.
        2   -1    0    0  501    0  0.00000000000E+00  0.00000000000E+00 -0.15386712144E+04  0.15386712144E+04  0.25500000920E-02 0. -1.
    10030    2    1    2    0    0  0.00000000000E+00  0.00000000000E+00 -0.88872207049E+03  0.21886203582E+04  0.20000580376E+04 0.  0.
        2    1    3    3  502    0  0.80370897605E+03 -0.13131349926E+03 -0.10794826133E+04  0.13522108067E+04  0.25500000920E-02 0. -1.
       -2    1    3    3    0  502 -0.80370897605E+03  0.13131349926E+03  0.19076054280E+03  0.83640955157E+03  0.25500000920E-02 0.  1.
</event>
<event>
 5   0  0.8022574E-05  0.1951022E+04  0.7818609E-02  0.8629868E-01
       -2   -1    0    0    0  501  0.00000000000E+00  0.00000000000E+00  0.61014655192E+03  0.61014655193E+03  0.25500000920E-02 0. -1.
        2   -1    0    0  501    0  0.00000000000E+00  0.00000000000E+00 -0.15596612052E+04  0.15596612052E+04  0.25500000920E-02 0.  1.
    10030    2    1    2    0    0  0.00000000000E+00  0.00000000000E+00 -0.94951465324E+03  0.21698077571E+04  0.19510222003E+04 0.  0.
        1    1    3    3  502    0  0.80753658960E+03  0.23854951721E+03 -0.10225359281E+04  0.13246135059E+04  0.50400001928E-02 0.  1.
       -1    1    3    3    0  502 -0.80753658960E+03 -0.23854951721E+03  0.73021274823E+02  0.84519425123E+03  0.50400001928E-02 0. -1.
</event>
<event>
 5   0  0.3772949E-05  0.2086144E+04  0.7818609E-02  0.8567372E-01
       -1   -1    0    0    0  501  0.00000000000E+00  0.00000000000E+00  0.58536593624E+03  0.58536593626E+03  0.50400001928E-02 0. -1.
        1   -1    0    0  501    0  0.00000000000E+00  0.00000000000E+00 -0.18586642788E+04  0.18586642788E+04  0.50400001928E-02 0.  1.
    10030    2    1    2    0    0  0.00000000000E+00  0.00000000000E+00 -0.12732983425E+04  0.24440302150E+04  0.20861435768E+04 0.  0.
        2    1    3    3  502    0  0.15432662028E+03 -0.37256601117E+03 -0.17636432556E+04  0.18091599352E+04  0.25500000920E-02 0.  1.
       -2    1    3    3    0  502 -0.15432662028E+03  0.37256601117E+03  0.49034491304E+03  0.63487027979E+03  0.25500000920E-02 0. -1.
</event>
<event>
 5   0  0.3787698E-05  0.2007552E+04  0.7818609E-02  0.8603098E-01
        1   -1    0    0  501    0  0.00000000000E+00  0.00000000000E+00  0.13626010520E+04  0.13626010520E+04  0.50400001928E-02 0. -1.
       -1   -1    0    0    0  501  0.00000000000E+00  0.00000000000E+00 -0.73944368563E+03  0.73944368565E+03  0.50400001928E-02 0.  1.
    10030    2    1    2    0    0  0.00000000000E+00  0.00000000000E+00  0.62315736639E+03  0.21020447377E+04  0.20075524840E+04 0.  0.
        4    1    3    3  502    0 -0.98687274085E+03 -0.14729205622E+03  0.42605144092E+03  0.10849581557E+04  0.12699999809E+01 0. -1.
       -4    1    3    3    0  502  0.98687274085E+03  0.14729205622E+03  0.19710592547E+03  0.10170865820E+04  0.12699999809E+01 0.  1.
</event>
<event>
 5   0  0.8011197E-05  0.1987492E+04  0.7818609E-02  0.8612491E-01
        2   -1    0    0  501    0  0.00000000000E+00  0.00000000000E+00  0.12772792751E+04  0.12772792751E+04  0.25500000920E-02 0. -1.
       -2   -1    0    0    0  501  0.00000000000E+00  0.00000000000E+00 -0.77315213937E+03  0.77315213937E+03  0.25500000920E-02 0.  1.
    10030    2    1    2    0    0  0.00000000000E+00  0.00000000000E+00  0.50412713572E+03  0.20504314145E+04  0.19874920922E+04 0.  0.
        5    1    3    3  502    0 -0.37635559105E+03 -0.33637673332E+03  0.11351592416E+04  0.12423370844E+04  0.46999998093E+01 0. -1.
       -5    1    3    3    0  502  0.37635559105E+03  0.33637673332E+03 -0.63103210584E+03  0.80809433004E+03  0.46999998093E+01 0.  1.
</event>
<event>
 5   0  0.3970042E-05  0.1992176E+04  0.7818609E-02  0.8610287E-01
        1   -1    0    0  501    0  0.00000000000E+00  0.00000000000E+00  0.89715096786E+03  0.89715096787E+03  0.50400001928E-02 0. -1.
       -1   -1    0    0    0  501  0.00000000000E+00  0.00000000000E+00 -0.11059356099E+04  0.11059356099E+04  0.50400001928E-02 0.  1.
    10030    2    1    2    0    0  0.00000000000E+00  0.00000000000E+00 -0.20878464200E+03  0.20030865777E+04  0.19921758987E+04 0.  0.
        3    1    3    3  502    0  0.64162405177E+03 -0.52644414151E+03 -0.65819586588E+03  0.10592670419E+04  0.10100000352E+00 0.  1.
       -3    1    3    3    0  502 -0.64162405177E+03  0.52644414151E+03  0.44941122388E+03  0.94381953587E+03  0.10100000352E+00 0. -1.
</event>
<event>
 5   0  0.3970042E-05  0.1999772E+04  0.7818609E-02  0.8606727E-01
       -1   -1    0    0    0  501  0.00000000000E+00  0.00000000000E+00  0.79509618213E+03  0.79509618214E+03  0.50400001928E-02 0.  1.
        1   -1    0    0  501    0  0.00000000000E+00  0.00000000000E+00 -0.12574223289E+04  0.12574223289E+04  0.50400001928E-02 0. -1.
    10030    2    1    2    0    0  0.00000000000E+00  0.00000000000E+00 -0.46232614672E+03  0.20525185110E+04  0.19997716800E+04 0.  0.
        3    1    3    3  502    0 -0.10081742572E+03  0.27906181057E+03  0.74886897108E+03  0.80550877928E+03  0.10100000352E+00 0.  1.
       -3    1    3    3    0  502  0.10081742572E+03 -0.27906181057E+03 -0.12111951178E+04  0.12470097317E+04  0.10100000352E+00 0. -1.
</event>
<event>
 5   0  0.7935008E-05  0.2007357E+04  0.7818609E-02  0.8603189E-01
       -2   -1    0    0    0  501  0.00000000000E+00  0.00000000000E+00  0.47663577839E+03  0.47663577840E+03  0.25500000920E-02 0.  1.
        2   -1    0    0  501    0  0.00000000000E+00  0.00000000000E+00 -0.21135025444E+04  0.21135025444E+04  0.25500000920E-02 0. -1.
    10030    2    1    2    0    0  0.00000000000E+00  0.00000000000E+00 -0.16368667660E+04  0.25901383228E+04  0.20073573976E+04 0.  0.
        3    1    3    3  502    0 -0.82706896771E+03 -0.52774961328E+03 -0.10915681272E+04  0.14676797056E+04  0.10100000352E+00 0. -1.
       -3    1    3    3    0  502  0.82706896771E+03  0.52774961328E+03 -0.54529863879E+03  0.11224586172E+04  0.10100000352E+00 0.  1.
</event>
<event>
 5   0  0.8011197E-05  0.2004331E+04  0.7818609E-02  0.8604598E-01
        2   -1    0    0  501    0  0.00000000000E+00  0.00000000000E+00  0.82560081339E+03  0.82560081339E+03  0.25500000920E-02 0. -1.
       -2   -1    0    0    0  501  0.00000000000E+00  0.00000000000E+00 -0.12164906891E+04  0.12164906891E+04  0.25500000920E-02 0.  1.
    10030    2    1    2    0    0  0.00000000000E+00  0.00000000000E+00 -0.39088987571E+03  0.20420915025E+04  0.20043310130E+04 0.  0.
        5    1    3    3  502    0 -0.49452636100E+03 -0.86952005627E+03 -0.25735284901E+03  0.10328959429E+04  0.46999998093E+01 0. -1.
       -5    1    3    3    0  502  0.49452636100E+03  0.86952005627E+03 -0.13353702670E+03  0.10091955596E+04  0.46999998093E+01 0.  1.
</event>
<event>
 5   0  0.3549426E-05  0.2002392E+04  0.7818609E-02  0.8605503E-01
       -1   -1    0    0    0  501  0.00000000000E+00  0.00000000000E+00  0.90992611369E+03  0.90992611371E+03  0.50400001928E-02 0. -1.
        1   -1    0    0  501    0  0.00000000000E+00  0.00000000000E+00 -0.11016205126E+04  0.11016205126E+04  0.50400001928E-02 0.  1.
    10030    2    1    2    0    0  0.00000000000E+00  0.00000000000E+00 -0.19169439893E+03  0.20115466263E+04  0.20023918416E+04 0.  0.
        5    1    3    3  502    0 -0.41150782685E+03 -0.41748530002E+03 -0.91118497586E+03  0.10834725735E+04  0.46999998093E+01 0.  1.
       -5    1    3    3    0  502  0.41150782685E+03  0.41748530002E+03  0.71949057692E+03  0.92807405285E+03  0.46999998093E+01 0. -1.
</event>
<event>
 5   0  0.3772949E-05  0.1998336E+04  0.7818609E-02  0.8607399E-01
       -1   -1    0    0    0  501  0.00000000000E+00  0.00000000000E+00  0.66999968053E+03  0.66999968055E+03  0.50400001928E-02 0. -1.
        1   -1    0    0  501    0  0.00000000000E+00  0.00000000000E+00 -0.14900559478E+04  0.14900559478E+04  0.50400001928E-02 0.  1.
    10030    2    1    2    0    0  0.00000000000E+00  0.00000000000E+00 -0.82005626730E+03  0.21600556284E+04  0.19983363171E+04 0.  0.
        2    1    3    3  502    0 -0.83532441788E+03  0.14650560348E+03 -0.98108732113E+03  0.12968280945E+04  0.25500000920E-02 0. -1.
       -2    1    3    3    0  502  0.83532441788E+03 -0.14650560348E+03  0.16103105383E+03  0.86322753389E+03  0.25500000920E-02 0.  1.
</event>
<event>
 5   0  0.7857136E-05  0.1986566E+04  0.7818609E-02  0.8612927E-01
        2   -1    0    0  501    0  0.00000000000E+00  0.00000000000E+00  0.17176094569E+04  0.17176094569E+04  0.25500000920E-02 0.  1.
       -2   -1    0    0    0  501  0.00000000000E+00  0.00000000000E+00 -0.57440939034E+03  0.57440939035E+03  0.25500000920E-02 0. -1.
    10030    2    1    2    0    0  0.00000000000E+00  0.00000000000E+00  0.11432000666E+04  0.22920188473E+04  0.19865658821E+04 0.  0.
        4    1    3    3  502    0  0.40762889909E+03  0.15789414744E+03  0.16006585772E+04  0.16592773653E+04  0.12699999809E+01 0.  1.
       -4    1    3    3    0  502 -0.40762889909E+03 -0.15789414744E+03 -0.45745851065E+03  0.63274148199E+03  0.12699999809E+01 0. -1.
</event>
<event>
 5   0  0.8011197E-05  0.1991468E+04  0.7818609E-02  0.8610620E-01
       -2   -1    0    0    0  501  0.00000000000E+00  0.00000000000E+00  0.88408636054E+03  0.88408636054E+03  0.25500000920E-02 0.  1.
        2   -1    0    0  501    0  0.00000000000E+00  0.00000000000E+00 -0.11214809004E+04  0.11214809004E+04  0.25500000920E-02 0. -1.
    10030    2    1    2    0    0  0.00000000000E+00  0.00000000000E+00 -0.23739453990E+03  0.20055672610E+04  0.19914677679E+04 0.  0.
        5    1    3    3  502    0  0.69846714214E+03  0.57979251494E+03 -0.53079872781E+03  0.10515631643E+04  0.46999998093E+01 0.  1.
       -5    1    3    3    0  502 -0.69846714214E+03 -0.57979251494E+03  0.29340418791E+03  0.95400409670E+03  0.46999998093E+01 0. -1.
</event>
<event>
 5   0  0.3818907E-05  0.1975724E+04  0.7818609E-02  0.8618055E-01
       -1   -1    0    0    0  501  0.00000000000E+00  0.00000000000E+00  0.15971572597E+04  0.15971572597E+04  0.50400001928E-02 0.  1.
        1   -1    0    0  501    0  0.00000000000E+00  0.00000000000E+00 -0.61100532418E+03  0.61100532420E+03  0.50400001928E-02 0. -1.
    10030    2    1    2    0    0  0.00000000000E+00  0.00000000000E+00  0.98615193553E+03  0.22081625839E+04  0.19757242614E+04 0.  0.
        1    1    3    3  502    0 -0.89297721254E+03 -0.76955295033E+00  0.96522427531E+03  0.13149398450E+04  0.50400001928E-02 0.  1.
       -1    1    3    3    0  502  0.89297721254E+03  0.76955295033E+00  0.20927660215E+02  0.89322273891E+03  0.50400001928E-02 0. -1.
</event>
<event>
 5   0  0.7843846E-05  0.1970704E+04  0.7818609E-02  0.8620441E-01
       -2   -1    0    0    0  501  0.00000000000E+00  0.00000000000E+00  0.72877939417E+03  0.72877939417E+03  0.25500000920E-02 0. -1.
        2   -1    0    0  501    0  0.00000000000E+00  0.00000000000E+00 -0.13322532528E+04  0.13322532528E+04  0.25500000920E-02 0.  1.
    10030    2    1    2    0    0  0.00000000000E+00  0.00000000000E+00 -0.60347385861E+03  0.20610326469E+04  0.19707041568E+04 0.  0.
        2    1    3    3  502    0 -0.18214678570E+03 -0.38831182859E+03 -0.12295029032E+04  0.13021677760E+04  0.25500000920E-02 0.  1.
       -2    1    3    3    0  502  0.18214678570E+03  0.38831182859E+03  0.62602904458E+03  0.75886487100E+03  0.25500000920E-02 0. -1.
</event>
<event>
 5   0  0.3772949E-05  0.1990382E+04  0.7818609E-02  0.8611131E-01
        1   -1    0    0  501    0  0.00000000000E+00  0.00000000000E+00  0.18072594351E+04  0.18072594351E+04  0.50400001928E-02 0.  1.
       -1   -1    0    0    0  501  0.00000000000E+00  0.00000000000E+00 -0.54801498827E+03  0.54801498829E+03  0.50400001928E-02 0. -1.
    10030    2    1    2    0    0  0.00000000000E+00  0.00000000000E+00  0.12592444469E+04  0.23552744234E+04  0.19903821323E+04 0.  0.
        2    1    3    3  502    0  0.13028200012E+03  0.98486372162E+03  0.55986298510E+03  0.11403405245E+04  0.25500000920E-02 0. -1.
       -2    1    3    3    0  502 -0.13028200012E+03 -0.98486372162E+03  0.69938146176E+03  0.12149338989E+04  0.25500000920E-02 0.  1.
</event>
<event>
 5   0  0.8022574E-05  0.2009618E+04  0.7818609E-02  0.8602137E-01
        2   -1    0    0  501    0  0.00000000000E+00  0.00000000000E+00  0.12347322000E+04  0.12347322000E+04  0.25500000920E-02 0.  1.
       -2   -1    0    0    0  501  0.00000000000E+00  0.00000000000E+00 -0.81770051032E+03  0.81770051033E+03  0.25500000920E-02 0. -1.
    10030    2    1    2    0    0  0.00000000000E+00  0.00000000000E+00  0.41703168965E+03  0.20524327103E+04  0.20096180234E+04 0.  0.
        1    1    3    3  502    0  0.23260998073E+03  0.43428215273E+02  0.12058700008E+04  0.12288677194E+04  0.50400001928E-02 0.  1.
       -1    1    3    3    0  502 -0.23260998073E+03 -0.43428215273E+02 -0.78883831115E+03  0.82356499087E+03  0.50400001928E-02 0. -1.
</event>
<event>
 5   0  0.3970042E-05  0.2001615E+04  0.7818609E-02  0.8605866E-01
        1   -1    0    0  501    0  0.00000000000E+00  0.00000000000E+00  0.13911421745E+04  0.13911421745E+04  0.50400001928E-02 0.  1.
       -1   -1    0    0    0  501  0.00000000000E+00  0.00000000000E+00 -0.71999506304E+03  0.71999506306E+03  0.50400001928E-02 0. -1.
    10030    2    1    2    0    0  0.00000000000E+00  0.00000000000E+00  0.67114711144E+03  0.21111372375E+04  0.20016148457E+04 0.  0.
        3    1    3    3  502    0  0.87249647851E+03  0.31595001286E+03 -0.59827139721E+02  0.92986763170E+03  0.10100000352E+00 0. -1.
       -3    1    3    3    0  502 -0.87249647851E+03 -0.31595001286E+03  0.73097425116E+03  0.11812696058E+04  0.10100000352E+00 0.  1.
</event>
<event>
 5   0  0.3970042E-05  0.2006602E+04  0.7818609E-02  0.8603540E-01
        1   -1    0    0  501    0  0.00000000000E+00  0.00000000000E+00  0.84448170594E+03  0.84448170596E+03  0.50400001928E-02 0. -1.
       -1   -1    0    0    0  501  0.00000000000E+00  0.00000000000E+00 -0.11919887566E+04  0.11919887566E+04  0.50400001928E-02 0.  1.
    10030    2    1    2    0    0  0.00000000000E+00  0.00000000000E+00 -0.34750705064E+03  0.20364704626E+04  0.20066018027E+04 0.  0.
        3    1    3    3  502    0 -0.52587174658E+03  0.84554232208E+03 -0.48919444185E+02  0.99693331497E+03  0.10100000352E+00 0. -1.
       -3    1    3    3    0  502  0.52587174658E+03 -0.84554232208E+03 -0.29858760645E+03  0.10395371476E+04  0.10100000352E+00 0.  1.
</event>
<event>
 5   0  0.7857136E-05  0.1945774E+04  0.7818609E-02  0.8632401E-01
        2   -1    0    0  501    0  0.00000000000E+00  0.00000000000E+00  0.21529304102E+04  0.21529304102E+04  0.25500000920E-02 0.  1.
       -2   -1    0    0    0  501  0.00000000000E+00  0.00000000000E+00 -0.43963759508E+03  0.43963759508E+03  0.25500000920E-02 0. -1.
    10030    2    1    2    0    0  0.00000000000E+00  0.00000000000E+00  0.17132928151E+04  0.25925680053E+04  0.19457740341E+04 0.  0.
        4    1    3    3  502    0 -0.47141367375E+03  0.54374188410E+03 -0.15671328116E+02  0.71981476211E+03  0.12699999809E+01 0. -1.
       -4    1    3    3    0  502  0.47141367375E+03 -0.54374188410E+03  0.17289641433E+04  0.18727532432E+04  0.12699999809E+01 0.  1.
</event>
<event>
 5   0  0.8022574E-05  0.1859751E+04  0.7818609E-02  0.8675154E-01
       -2   -1    0    0    0  501  0.00000000000E+00  0.00000000000E+00  0.58596112805E+03  0.58596112806E+03  0.25500000920E-02 0.  1.
        2   -1    0    0  501    0  0.00000000000E+00  0.00000000000E+00 -0.14756417089E+04  0.14756417089E+04  0.25500000920E-02 0. -1.
    10030    2    1    2    0    0  0.00000000000E+00  0.00000000000E+00 -0.88968058084E+03  0.20616028369E+04  0.18597512526E+04 0.  0.
        1    1    3    3  502    0  0.21400933765E+03  0.86064141419E+03 -0.13491542574E+03  0.89705396301E+03  0.50400001928E-02 0.  1.
       -1    1    3    3    0  502 -0.21400933765E+03 -0.86064141419E+03 -0.75476515510E+03  0.11645488739E+04  0.50400001928E-02 0. -1.
</event>
<event>
 5   0  0.2859625E-05  0.1983045E+04  0.7818609E-02  0.8614589E-01
        4   -1    0    0  501    0  0.00000000000E+00  0.00000000000E+00  0.92502431080E+03  0.92502518261E+03  0.12699999809E+01 0. -1.
       -4   -1    0    0    0  501  0.00000000000E+00  0.00000000000E+00 -0.10627990761E+04  0.10627998349E+04  0.12699999809E+01 0.  1.
    10030    2    1    2    0    0  0.00000000000E+00  0.00000000000E+00 -0.13777476535E+03  0.19878250176E+04  0.19830447334E+04 0.  0.
        2    1    3    3  502    0 -0.20090347118E+03  0.95643018522E+03 -0.23660987373E+03  0.10055372376E+04  0.25500000920E-02 0.  1.
       -2    1    3    3    0  502  0.20090347118E+03 -0.95643018522E+03  0.98835108377E+02  0.98228777992E+03  0.25500000920E-02 0. -1.
</event>
<event>
 5   0  0.3787698E-05  0.1955583E+04  0.7818609E-02  0.8627673E-01
        1   -1    0    0  501    0  0.00000000000E+00  0.00000000000E+00  0.81523989288E+03  0.81523989289E+03  0.50400001928E-02 0. -1.
       -1   -1    0    0    0  501  0.00000000000E+00  0.00000000000E+00 -0.11727548994E+04  0.11727548994E+04  0.50400001928E-02 0.  1.
    10030    2    1    2    0    0  0.00000000000E+00  0.00000000000E+00 -0.35751500652E+03  0.19879947923E+04  0.19555833693E+04 0.  0.
        4    1    3    3  502    0 -0.71580844545E+03 -0.29748084493E+03  0.42710544869E+03  0.88504082441E+03  0.12699999809E+01 0. -1.
       -4    1    3    3    0  502  0.71580844545E+03  0.29748084493E+03 -0.78462045521E+03  0.11029539679E+04  0.12699999809E+01 0.  1.
</event>
<event>
 5   0  0.3549426E-05  0.2047118E+04  0.7818609E-02  0.8584903E-01
       -1   -1    0    0    0  501  0.00000000000E+00  0.00000000000E+00  0.13643677237E+04  0.13643677237E+04  0.50400001928E-02 0.  1.
        1   -1    0    0  501    0  0.00000000000E+00  0.00000000000E+00 -0.76788195305E+03  0.76788195307E+03  0.50400001928E-02 0. -1.
    10030    2    1    2    0    0  0.00000000000E+00  0.00000000000E+00  0.59648577063E+03  0.21322496768E+04  0.20471183184E+04 0.  0.
        5    1    3    3  502    0 -0.23027748177E+03 -0.96380254502E+03  0.31246801592E+02  0.99143407093E+03  0.46999998093E+01 0.  1.
       -5    1    3    3    0  502  0.23027748177E+03  0.96380254502E+03  0.56523896904E+03  0.11408156058E+04  0.46999998093E+01 0. -1.
</event>
<event>
 5   0  0.7843846E-05  0.1992345E+04  0.7818609E-02  0.8610208E-01
        2   -1    0    0  501    0  0.00000000000E+00  0.00000000000E+00  0.64457598083E+03  0.64457598083E+03  0.25500000920E-02 0.  1.
       -2   -1    0    0    0  501  0.00000000000E+00  0.00000000000E+00 -0.15395538096E+04  0.15395538096E+04  0.25500000920E-02 0. -1.
    10030    2    1    2    0    0  0.00000000000E+00  0.00000000000E+00 -0.89497782873E+03  0.21841297904E+04  0.19923447562E+04 0.  0.
        2    1    3    3  502    0 -0.96806327649E+02 -0.63180848437E+03 -0.12851111955E+04  0.14352923782E+04  0.25500000920E-02 0. -1.
       -2    1    3    3    0  502  0.96806327649E+02  0.63180848437E+03  0.39013336681E+03  0.74883741220E+03  0.25500000920E-02 0.  1.
</event>
<event>
 5   0  0.3787698E-05  0.2007773E+04  0.7818609E-02  0.8602995E-01
       -1   -1    0    0    0  501  0.00000000000E+00  0.00000000000E+00  0.58654198974E+03  0.58654198976E+03  0.50400001928E-02 0.  1.
        1   -1    0    0  501    0  0.00000000000E+00  0.00000000000E+00 -0.17181849320E+04  0.17181849320E+04  0.50400001928E-02 0. -1.
    10030    2    1    2    0    0  0.00000000000E+00  0.00000000000E+00 -0.11316429422E+04  0.23047269217E+04  0.20077725058E+04 0.  0.
        4    1    3    3  502    0 -0.92645167600E+03  0.22494876661E+03 -0.20487717526E+03  0.97513636246E+03  0.12699999809E+01 0. -1.
       -4    1    3    3    0  502  0.92645167600E+03 -0.22494876661E+03 -0.92676576697E+03  0.13295905593E+04  0.12699999809E+01 0.  1.
</event>
<event>
 5   0  0.8011197E-05  0.1979005E+04  0.7818609E-02  0.8616500E-01
       -2   -1    0    0    0  501  0.00000000000E+00  0.00000000000E+00  0.53767671695E+03  0.53767671695E+03  0.25500000920E-02 0. -1.
        2   -1    0    0  501    0  0.00000000000E+00  0.00000000000E+00 -0.18210111877E+04  0.18210111877E+04  0.25500000920E-02 0.  1.
    10030    2    1    2    0    0  0.00000000000E+00  0.00000000000E+00 -0.12833344708E+04  0.23586879047E+04  0.19790051207E+04 0.  0.
        5    1    3    3  502    0  0.49840198627E+03 -0.36855677339E+03  0.27757288558E+03  0.67919616602E+03  0.46999998093E+01 0. -1.
       -5    1    3    3    0  502 -0.49840198627E+03  0.36855677339E+03 -0.15609073564E+04  0.16794917387E+04  0.46999998093E+01 0.  1.
</event>
<event>
 5   0  0.3549426E-05  0.1994150E+04  0.7818609E-02  0.8609361E-01
        1   -1    0    0  501    0  0.00000000000E+00  0.00000000000E+00  0.15442622412E+04  0.15442622412E+04  0.50400001928E-02 0. -1.
       -1   -1    0    0    0  501  0.00000000000E+00  0.00000000000E+00 -0.64377575470E+03  0.64377575472E+03  0.50400001928E-02 0.  1.
    10030    2    1    2    0    0  0.00000000000E+00  0.00000000000E+00  0.90048648648E+03  0.21880379959E+04  0.19941500343E+04 0.  0.
        5    1    3    3  502    0 -0.89561780292E+03  0.43754308197E+03  0.42424790662E+03  0.10833206237E+04  0.46999998093E+01 0.  1.
       -5    1    3    3    0  502  0.89561780292E+03 -0.43754308197E+03  0.47623857986E+03  0.11047173722E+04  0.46999998093E+01 0. -1.
</event>
<event>
 5   0  0.3818907E-05  0.2015233E+04  0.7818609E-02  0.8599532E-01
       -1   -1    0    0    0  501  0.00000000000E+00  0.00000000000E+00  0.17000159016E+04  0.17000159016E+04  0.50400001928E-02 0. -1.
        1   -1    0    0  501    0  0.00000000000E+00  0.00000000000E+00 -0.59722423101E+03  0.59722423103E+03  0.50400001928E-02 0.  1.
    10030    2    1    2    0    0  0.00000000000E+00  0.00000000000E+00  0.11027916706E+04  0.22972401327E+04  0.20152326810E+04 0.  0.
        1    1    3    3  502    0 -0.27092220403E+03  0.37229799227E+03  0.15730791734E+04  0.16390798399E+04  0.50400001928E-02 0. -1.
       -1    1    3    3    0  502  0.27092220403E+03 -0.37229799227E+03 -0.47028750279E+03  0.65816029278E+03  0.50400001928E-02 0.  1.
</event>
<event>
 5   0  0.7843846E-05  0.2015767E+04  0.7818609E-02  0.8599284E-01
        2   -1    0    0  501    0  0.00000000000E+00  0.00000000000E+00  0.95390617795E+03  0.95390617795E+03  0.25500000920E-02 0.  1.
       -2   -1    0    0    0  501  0.00000000000E+00  0.00000000000E+00 -0.10649152852E+04  0.10649152852E+04  0.25500000920E-02 0. -1.
    10030    2    1    2    0    0  0.00000000000E+00  0.00000000000E+00 -0.11100910722E+03  0.20188214631E+04  0.20157671190E+04 0.  0.
        2    1    3    3  502    0  0.13438752077E+03 -0.98667651650E+03  0.10041922752E+03  0.10008369374E+04  0.25500000920E-02 0. -1.
       -2    1    3    3    0  502 -0.13438752077E+03  0.98667651650E+03 -0.21142833473E+03  0.10179845258E+04  0.25500000920E-02 0.  1.
</event>
<event>
 5   0  0.3549426E-05  0.2009749E+04  0.7818609E-02  0.8602076E-01
        1   -1    0    0  501    0  0.00000000000E+00  0.00000000000E+00  0.11284256039E+04  0.11284256039E+04  0.50400001928E-02 0.  1.
       -1   -1    0    0    0  501  0.00000000000E+00  0.00000000000E+00 -0.89485094866E+03  0.89485094868E+03  0.50400001928E-02 0. -1.
    10030    2    1    2    0    0  0.00000000000E+00  0.00000000000E+00  0.23357465523E+03  0.20232765526E+04  0.20097489616E+04 0.  0.
        5    1    3    3  502    0 -0.60447851540E+03 -0.77492357831E+02 -0.68755941279E+03  0.91878146325E+03  0.46999998093E+01 0. -1.
       -5    1    3    3    0  502  0.60447851540E+03  0.77492357831E+02  0.92113406802E+03  0.11044950893E+04  0.46999998093E+01 0.  1.
</event>
<event>
 5   0  0.8022574E-05  0.1898887E+04  0.7818609E-02  0.8655411E-01
       -2   -1    0    0    0  501  0.00000000000E+00  0.00000000000E+00  0.70762082591E+03  0.70762082592E+03  0.25500000920E-02 0. -1.
        2   -1    0    0  501    0  0.00000000000E+00  0.00000000000E+00 -0.12739063862E+04  0.12739063862E+04  0.25500000920E-02 0.  1.
    10030    2    1    2    0    0  0.00000000000E+00  0.00000000000E+00 -0.56628556027E+03  0.19815272121E+04  0.18988867150E+04 0.  0.
        1    1    3    3  502    0  0.39182230174E+03 -0.66537611626E+03  0.29334218072E+03  0.82601436261E+03  0.50400001928E-02 0. -1.
       -1    1    3    3    0  502 -0.39182230174E+03  0.66537611626E+03 -0.85962774099E+03  0.11555128495E+04  0.50400001928E-02 0.  1.
</event>
<event>
 5   0  0.3818907E-05  0.1999633E+04  0.7818609E-02  0.8606792E-01
       -1   -1    0    0    0  501  0.00000000000E+00  0.00000000000E+00  0.49911477598E+03  0.49911477601E+03  0.50400001928E-02 0. -1.
        1   -1    0    0  501    0  0.00000000000E+00  0.00000000000E+00 -0.20028112900E+04  0.20028112900E+04  0.50400001928E-02 0.  1.
    10030    2    1    2    0    0  0.00000000000E+00  0.00000000000E+00 -0.15036965140E+04  0.25019260660E+04  0.19996326747E+04 0.  0.
        1    1    3    3  502    0  0.70301723366E+03  0.19999415548E+03 -0.16054165684E+04  0.17639708760E+04  0.50400001928E-02 0.  1.
       -1    1    3    3    0  502 -0.70301723366E+03 -0.19999415548E+03  0.10172005440E+03  0.73795519006E+03  0.50400001928E-02 0. -1.
</event>
<event>
 5   0  0.3772949E-05  0.2005134E+04  0.7818609E-02  0.8604224E-01
        1   -1    0    0  501    0  0.00000000000E+00  0.00000000000E+00  0.16220758733E+04  0.16220758733E+04  0.50400001928E-02 0. -1.
       -1   -1    0    0    0  501  0.00000000000E+00  0.00000000000E+00 -0.61966281634E+03  0.61966281636E+03  0.50400001928E-02 0.  1.
    10030    2    1    2    0    0  0.00000000000E+00  0.00000000000E+00  0.10024130570E+04  0.22417386897E+04  0.20051335157E+04 0.  0.
        2    1    3    3  502    0  0.86135599507E+03  0.15025749348E+03 -0.47216078254E+02  0.87563738079E+03  0.25500000920E-02 0.  1.
       -2    1    3    3    0  502 -0.86135599507E+03 -0.15025749348E+03  0.10496291352E+04  0.13661013089E+04  0.25500000920E-02 0. -1.
</event>
<event>
 5   0  0.7857136E-05  0.1996290E+04  0.7818609E-02  0.8608357E-01
        2   -1    0    0  501    0  0.00000000000E+00  0.00000000000E+00  0.13405586561E+04  0.13405586561E+04  0.25500000920E-02 0. -1.
       -2   -1    0    0    0  501  0.00000000000E+00  0.00000000000E+00 -0.74319243505E+03  0.74319243506E+03  0.25500000920E-02 0.  1.
    10030    2    1    2    0    0  0.00000000000E+00  0.00000000000E+00  0.59736622106E+03  0.20837510912E+04  0.19962896102E+04 0.  0.
        4    1    3    3  502    0  0.71185882956E+03  0.12679165077E+03  0.10169231178E+04  0.12477793701E+04  0.12699999809E+01 0. -1.
       -4    1    3    3    0  502 -0.71185882956E+03 -0.12679165077E+03 -0.41955689677E+03  0.83597172109E+03  0.12699999809E+01 0.  1.
</event>
<event>
 5   0  0.7843846E-05  0.1994785E+04  0.7818609E-02  0.8609063E-01
       -2   -1    0    0    0  501  0.00000000000E+00  0.00000000000E+00  0.86369959125E+03  0.86369959125E+03  0.25500000920E-02 0. -1.
        2   -1    0    0  501    0  0.00000000000E+00  0.00000000000E+00 -0.11517799278E+04  0.11517799278E+04  0.25500000920E-02 0.  1.
    10030    2    1    2    0    0  0.00000000000E+00  0.00000000000E+00 -0.28808033656E+03  0.20154795191E+04  0.19947850539E+04 0.  0.
        2    1    3    3  502    0  0.22943763291E+03 -0.63862200328E+03  0.59450968078E+03  0.90217595346E+03  0.25500000920E-02 0. -1.
       -2    1    3    3    0  502 -0.22943763291E+03  0.63862200328E+03 -0.88259001733E+03  0.11133035656E+04  0.25500000920E-02 0.  1.
</event>
<event>
 5   0  0.7857136E-05  0.1994368E+04  0.7818609E-02  0.8609258E-01
       -2   -1    0    0    0  501  0.00000000000E+00  0.00000000000E+00  0.89743627450E+03  0.89743627450E+03  0.25500000920E-02 0.  1.
        2   -1    0    0  501    0  0.00000000000E+00  0.00000000000E+00 -0.11080183544E+04  0.11080183544E+04  0.25500000920E-02 0. -1.
    10030    2    1    2    0    0  0.00000000000E+00  0.00000000000E+00 -0.21058207992E+03  0.20054546289E+04  0.19943679340E+04 0.  0.
        4    1    3    3  502    0  0.90575368967E+03 -0.26010122588E+02 -0.52390801610E+03  0.10466840474E+04  0.12699999809E+01 0. -1.
       -4    1    3    3    0  502 -0.90575368967E+03  0.26010122588E+02  0.31332593618E+03  0.95877058153E+03  0.12699999809E+01 0.  1.
</event>
<event>
 5   0  0.3772949E-05  0.2001869E+04  0.7818609E-02  0.8605747E-01
       -1   -1    0    0    0  501  0.00000000000E+00  0.00000000000E+00  0.88138714938E+03  0.88138714940E+03  0.50400001928E-02 0. -1.
        1   -1    0    0  501    0  0.00000000000E+00  0.00000000000E+00 -0.11366970913E+04  0.11366970913E+04  0.50400001928E-02 0.  1.
    10030    2    1    2    0    0  0.00000000000E+00  0.00000000000E+00 -0.25530994188E+03  0.20180842407E+04  0.20018693354E+04 0.  0.
        2    1    3    3  502    0  0.26740366911E+03 -0.94334746214E+03 -0.33043358543E+03  0.10346958543E+04  0.25500000920E-02 0. -1.
       -2    1    3    3    0  502 -0.26740366911E+03  0.94334746214E+03  0.75123643550E+02  0.98338838635E+03  0.25500000920E-02 0.  1.
</event>
<event>
 5   0  0.8022574E-05  0.1998965E+04  0.7818609E-02  0.8607104E-01
       -2   -1    0    0    0  501  0.00000000000E+00  0.00000000000E+00  0.14293177048E+04  0.14293177048E+04  0.25500000920E-02 0.  1.
        2   -1    0    0  501    0  0.00000000000E+00  0.00000000000E+00 -0.69891090520E+03  0.69891090521E+03  0.25500000920E-02 0. -1.
    10030    2    1    2    0    0  0.00000000000E+00  0.00000000000E+00  0.73040679963E+03  0.21282286100E+04  0.19989654633E+04 0.  0.
        1    1    3    3  502    0 -0.41863053484E+03 -0.30691832135E+03 -0.54414478392E+03  0.75202654645E+03  0.50400001928E-02 0. -1.
       -1    1    3    3    0  502  0.41863053484E+03  0.30691832135E+03  0.12745515835E+04  0.13762020636E+04  0.50400001928E-02 0.  1.
</event>
<event>
 5   0  0.3787698E-05  0.1994662E+04  0.7818609E-02  0.8609120E-01
        1   -1    0    0  501    0  0.00000000000E+00  0.00000000000E+00  0.10188486975E+04  0.10188486976E+04  0.50400001928E-02 0. -1.
       -1   -1    0    0    0  501  0.00000000000E+00  0.00000000000E+00 -0.97626801924E+03  0.97626801925E+03  0.50400001928E-02 0.  1.
    10030    2    1    2    0    0  0.00000000000E+00  0.00000000000E+00  0.42580678301E+02  0.19951167168E+04  0.19946622771E+04 0.  0.
        4    1    3    3  502    0  0.80771659913E+03 -0.95831634674E+02  0.59855090984E+03  0.10098785131E+04  0.12699999809E+01 0. -1.
       -4    1    3    3    0  502 -0.80771659913E+03  0.95831634674E+02 -0.55597023154E+03  0.98523820367E+03  0.12699999809E+01 0.  1.
</event>
<event>
 5   0  0.3772949E-05  0.1975761E+04  0.7818609E-02  0.8618038E-01
       -1   -1    0    0    0  501  0.00000000000E+00  0.00000000000E+00  0.57338113156E+03  0.57338113159E+03  0.50400001928E-02 0.  1.
        1   -1    0    0  501    0  0.00000000000E+00  0.00000000000E+00 -0.17020228865E+04  0.17020228865E+04  0.50400001928E-02 0. -1.
    10030    2    1    2    0    0  0.00000000000E+00  0.00000000000E+00 -0.11286417549E+04  0.22754040181E+04  0.19757609254E+04 0.  0.
        2    1    3    3  502    0  0.72019235437E+03  0.29977124148E+03 -0.12623519911E+04  0.14839381301E+04  0.25500000920E-02 0. -1.
       -2    1    3    3    0  502 -0.72019235437E+03 -0.29977124148E+03  0.13371023622E+03  0.79146588795E+03  0.25500000920E-02 0.  1.
</event>
<event>
 5   0  0.3818907E-05  0.1966837E+04  0.7818609E-02  0.8622284E-01
        1   -1    0    0  501    0  0.00000000000E+00  0.00000000000E+00  0.14301148186E+04  0.14301148186E+04  0.50400001928E-02 0. -1.
       -1   -1    0    0    0  501  0.00000000000E+00  0.00000000000E+00 -0.67624770072E+03  0.67624770074E+03  0.50400001928E-02 0.  1.
    10030    2    1    2    0    0  0.00000000000E+00  0.00000000000E+00  0.75386711783E+03  0.21063625193E+04  0.19668369102E+04 0.  0.
        1    1    3    3  502    0  0.16426481194E+03  0.28200740229E+03 -0.61656131297E+03  0.69760945812E+03  0.50400001928E-02 0.  1.
       -1    1    3    3    0  502 -0.16426481194E+03 -0.28200740229E+03  0.13704284308E+04  0.14087530612E+04  0.50400001928E-02 0. -1.
</event>
<event>
 5   0  0.8022574E-05  0.2005388E+04  0.7818609E-02  0.8604106E-01
       -2   -1    0    0    0  501  0.00000000000E+00  0.00000000000E+00  0.58499552810E+03  0.58499552811E+03  0.25500000920E-02 0.  1.
        2   -1    0    0  501    0  0.00000000000E+00  0.00000000000E+00 -0.17186370286E+04  0.17186370286E+04  0.25500000920E-02 0. -1.
    10030    2    1    2    0    0  0.00000000000E+00  0.00000000000E+00 -0.11336415005E+04  0.23036325567E+04  0.20053877193E+04 0.  0.
        1    1    3    3  502    0 -0.82154800202E+02  0.39185643299E+03 -0.16228291962E+04  0.16714889995E+04  0.50400001928E-02 0. -1.
       -1    1    3    3    0  502  0.82154800202E+02 -0.39185643299E+03  0.48918769572E+03  0.63214355722E+03  0.50400001928E-02 0.  1.
</event>
<event>
 5   0  0.3970042E-05  0.1997992E+04  0.7818609E-02  0.8607560E-01
        1   -1    0    0  501    0  0.00000000000E+00  0.00000000000E+00  0.12099321915E+04  0.12099321915E+04  0.50400001928E-02 0.  1.
       -1   -1    0    0    0  501  0.00000000000E+00  0.00000000000E+00 -0.82483358875E+03  0.82483358876E+03  0.50400001928E-02 0. -1.
    10030    2    1    2    0    0  0.00000000000E+00  0.00000000000E+00  0.38509860273E+03  0.20347657802E+04  0.19979917033E+04 0.  0.
        3    1    3    3  502    0  0.87547626410E+03 -0.45562388840E+03  0.35012558112E+03  0.10472056863E+04  0.10100000352E+00 0.  1.
       -3    1    3    3    0  502 -0.87547626410E+03  0.45562388840E+03  0.34973021609E+02  0.98756009393E+03  0.10100000352E+00 0. -1.
</event>
<event>
 5   0  0.3549426E-05  0.1991484E+04  0.7818609E-02  0.8610613E-01
        1   -1    0    0  501    0  0.00000000000E+00  0.00000000000E+00  0.16517149344E+04  0.16517149344E+04  0.50400001928E-02 0.  1.
       -1   -1    0    0    0  501  0.00000000000E+00  0.00000000000E+00 -0.60028639636E+03  0.60028639638E+03  0.50400001928E-02 0. -1.
    10030    2    1    2    0    0  0.00000000000E+00  0.00000000000E+00  0.10514285381E+04  0.22520013308E+04  0.19914838747E+04 0.  0.
        5    1    3    3  502    0 -0.71961203197E+02  0.45136334992E+03  0.15260693336E+04  0.15930527265E+04  0.46999998093E+01 0.  1.
       -5    1    3    3    0  502  0.71961203197E+02 -0.45136334992E+03 -0.47464079551E+03  0.65894860435E+03  0.46999998093E+01 0. -1.
</event>
<event>
 5   0  0.3970042E-05  0.1999759E+04  0.7818609E-02  0.8606733E-01
       -1   -1    0    0    0  501  0.00000000000E+00  0.00000000000E+00  0.52351262928E+03  0.52351262930E+03  0.50400001928E-02 0. -1.
        1   -1    0    0  501    0  0.00000000000E+00  0.00000000000E+00 -0.19097140135E+04  0.19097140135E+04  0.50400001928E-02 0.  1.
    10030    2    1    2    0    0  0.00000000000E+00  0.00000000000E+00 -0.13862013842E+04  0.24332266428E+04  0.19997593900E+04 0.  0.
        3    1    3    3  502    0 -0.31959448827E+03  0.85108474641E+03 -0.18661065490E+03  0.92806757794E+03  0.10100000352E+00 0. -1.
       -3    1    3    3    0  502  0.31959448827E+03 -0.85108474641E+03 -0.11995907293E+04  0.15051590649E+04  0.10100000352E+00 0.  1.
</event>
<event>
 5   0  0.7843846E-05  0.2005141E+04  0.7818609E-02  0.8604221E-01
       -2   -1    0    0    0  501  0.00000000000E+00  0.00000000000E+00  0.65094563661E+03  0.65094563661E+03  0.25500000920E-02 0.  1.
        2   -1    0    0  501    0  0.00000000000E+00  0.00000000000E+00 -0.15441339883E+04  0.15441339883E+04  0.25500000920E-02 0. -1.
    10030    2    1    2    0    0  0.00000000000E+00  0.00000000000E+00 -0.89318835167E+03  0.21950796249E+04  0.20051406754E+04 0.  0.
        2    1    3    3  502    0 -0.28584351962E+03  0.12976099910E+03  0.59575678476E+03  0.67340224323E+03  0.25500000920E-02 0.  1.
       -2    1    3    3    0  502  0.28584351962E+03 -0.12976099910E+03 -0.14889451364E+04  0.15216773817E+04  0.25500000920E-02 0. -1.
</event>
<event>
 5   0  0.7843846E-05  0.1995953E+04  0.7818609E-02  0.8608515E-01
       -2   -1    0    0    0  501  0.00000000000E+00  0.00000000000E+00  0.87815953140E+03  0.87815953140E+03  0.25500000920E-02 0. -1.
        2   -1    0    0  501    0  0.00000000000E+00  0.00000000000E+00 -0.11341419787E+04  0.11341419787E+04  0.25500000920E-02 0.  1.
    10030    2    1    2    0    0  0.00000000000E+00  0.00000000000E+00 -0.25598244734E+03  0.20123015102E+04  0.19959534951E+04 0.  0.
        2    1    3    3  502    0 -0.24208949903E+03 -0.81686909028E+03 -0.65193531838E+03  0.10728010512E+04  0.25500000920E-02 0.  1.
       -2    1    3    3    0  502  0.24208949903E+03  0.81686909028E+03  0.39595287104E+03  0.93950045891E+03  0.25500000920E-02 0. -1.
</event>
<event>
 5   0  0.7857136E-05  0.1944152E+04  0.7818609E-02  0.8633186E-01
        2   -1    0    0  501    0  0.00000000000E+00  0.00000000000E+00  0.11687696307E+04  0.11687696307E+04  0.25500000920E-02 0.  1.
       -2   -1    0    0    0  501  0.00000000000E+00  0.00000000000E+00 -0.80848404918E+03  0.80848404918E+03  0.25500000920E-02 0. -1.
    10030    2    1    2    0    0  0.00000000000E+00  0.00000000000E+00  0.36028558156E+03  0.19772536799E+04  0.19441518497E+04 0.  0.
        4    1    3    3  502    0 -0.74135991489E+03  0.20257350131E+03 -0.42520531361E+03  0.87832324258E+03  0.12699999809E+01 0. -1.
       -4    1    3    3    0  502  0.74135991489E+03 -0.20257350131E+03  0.78549089517E+03  0.10989304374E+04  0.12699999809E+01 0.  1.
</event>
<event>
 5   0  0.2859625E-05  0.2007217E+04  0.7818609E-02  0.8603254E-01
       -3   -1    0    0    0  501  0.00000000000E+00  0.00000000000E+00  0.14850696634E+04  0.14850696668E+04  0.10100000352E+00 0. -1.
        3   -1    0    0  501    0  0.00000000000E+00  0.00000000000E+00 -0.67823732914E+03  0.67823733666E+03  0.10100000352E+00 0.  1.
    10030    2    1    2    0    0  0.00000000000E+00  0.00000000000E+00  0.80683233421E+03  0.21633070035E+04  0.20072166738E+04 0.  0.
        2    1    3    3  502    0 -0.34573209840E+03  0.33088500587E+03 -0.54734942051E+03  0.72705361502E+03  0.25500000920E-02 0.  1.
       -2    1    3    3    0  502  0.34573209840E+03 -0.33088500587E+03  0.13541817547E+04  0.14362533884E+04  0.25500000920E-02 0. -1.
</event>
<event>
 5   0  0.3970042E-05  0.1934590E+04  0.7818609E-02  0.8637828E-01
        1   -1    0    0  501    0  0.00000000000E+00  0.00000000000E+00  0.14389238614E+04  0.14389238614E+04  0.50400001928E-02 0. -1.
       -1   -1    0    0    0  501  0.00000000000E+00  0.00000000000E+00 -0.65024923907E+03  0.65024923909E+03  0.50400001928E-02 0.  1.
    10030    2    1    2    0    0  0.00000000000E+00  0.00000000000E+00  0.78867462234E+03  0.20891731005E+04  0.19345895130E+04 0.  0.
        3    1    3    3  502    0  0.40682407415E+03  0.45869889893E+02  0.13407490842E+04  0.14018623296E+04  0.10100000352E+00 0. -1.
       -3    1    3    3    0  502 -0.40682407415E+03 -0.45869889893E+02 -0.55207446190E+03  0.68731077089E+03  0.10100000352E+00 0.  1.
</event>
<event>
 5   0  0.3787698E-05  0.2001272E+04  0.7818609E-02  0.8606026E-01
       -1   -1    0    0    0  501  0.00000000000E+00  0.00000000000E+00  0.67000818442E+03  0.67000818444E+03  0.50400001928E-02 0. -1.
        1   -1    0    0  501    0  0.00000000000E+00  0.00000000000E+00 -0.14944176371E+04  0.14944176371E+04  0.50400001928E-02 0.  1.
    10030    2    1    2    0    0  0.00000000000E+00  0.00000000000E+00 -0.82440945264E+03  0.21644258215E+04  0.20012716435E+04 0.  0.
        4    1    3    3  502    0 -0.70222535855E+03 -0.61853022004E+03 -0.79545300493E+03  0.12281885780E+04  0.12699999809E+01 0. -1.
       -4    1    3    3    0  502  0.70222535855E+03  0.61853022004E+03 -0.28956447716E+02  0.93623724347E+03  0.12699999809E+01 0.  1.
</event>
<event>
 5   0  0.8011197E-05  0.2001583E+04  0.7818609E-02  0.8605881E-01
        2   -1    0    0  501    0  0.00000000000E+00  0.00000000000E+00  0.10755249725E+04  0.10755249725E+04  0.25500000920E-02 0. -1.
       -2   -1    0    0    0  501  0.00000000000E+00  0.00000000000E+00 -0.93125051658E+03  0.93125051658E+03  0.25500000920E-02 0.  1.
    10030    2    1    2    0    0  0.00000000000E+00  0.00000000000E+00  0.14427445597E+03  0.20067754891E+04  0.20015825602E+04 0.  0.
        5    1    3    3  502    0  0.43127027828E+03 -0.18157336181E+03 -0.81480368816E+03  0.93962230651E+03  0.46999998093E+01 0.  1.
       -5    1    3    3    0  502 -0.43127027828E+03  0.18157336181E+03  0.95907814413E+03  0.10671531826E+04  0.46999998093E+01 0. -1.
</event>
<event>
 5   0  0.3970042E-05  0.2046994E+04  0.7818609E-02  0.8584959E-01
        1   -1    0    0  501    0  0.00000000000E+00  0.00000000000E+00  0.23461517388E+04  0.23461517388E+04  0.50400001928E-02 0.  1.
       -1   -1    0    0    0  501  0.00000000000E+00  0.00000000000E+00 -0.44649527147E+03  0.44649527150E+03  0.50400001928E-02 0. -1.
    10030    2    1    2    0    0  0.00000000000E+00  0.00000000000E+00  0.18996564673E+04  0.27926470103E+04  0.20469935589E+04 0.  0.
        3    1    3    3  502    0 -0.63607189175E+03 -0.76626352698E+03  0.62756522798E+03  0.11771089031E+04  0.10100000352E+00 0. -1.
       -3    1    3    3    0  502  0.63607189175E+03  0.76626352698E+03  0.12720912393E+04  0.16155381071E+04  0.10100000352E+00 0.  1.
</event>
<event>
 5   0  0.3772949E-05  0.1954336E+04  0.7818609E-02  0.8628273E-01
       -1   -1    0    0    0  501  0.00000000000E+00  0.00000000000E+00  0.13277527661E+04  0.13277527662E+04  0.50400001928E-02 0. -1.
        1   -1    0    0  501    0  0.00000000000E+00  0.00000000000E+00 -0.71915327614E+03  0.71915327616E+03  0.50400001928E-02 0.  1.
    10030    2    1    2    0    0  0.00000000000E+00  0.00000000000E+00  0.60859949000E+03  0.20469060423E+04  0.19543364620E+04 0.  0.
        2    1    3    3  502    0  0.48382516519E+02  0.48578085588E+03  0.11908776982E+04  0.12870561759E+04  0.25500000920E-02 0. -1.
       -2    1    3    3    0  502 -0.48382516519E+02 -0.48578085588E+03 -0.58227820816E+03  0.75984986645E+03  0.25500000920E-02 0.  1.
</event>
<event>
 5   0  0.7935008E-05  0.2007260E+04  0.7818609E-02  0.8603234E-01
       -2   -1    0    0    0  501  0.00000000000E+00  0.00000000000E+00  0.84678718942E+03  0.84678718942E+03  0.25500000920E-02 0. -1.
        2   -1    0    0  501    0  0.00000000000E+00  0.00000000000E+00 -0.11895232016E+04  0.11895232016E+04  0.25500000920E-02 0.  1.
    10030    2    1    2    0    0  0.00000000000E+00  0.00000000000E+00 -0.34273601219E+03  0.20363103910E+04  0.20072598324E+04 0.  0.
        3    1    3    3  502    0  0.51397846311E+03 -0.38203970938E+03 -0.95530328703E+03  0.11501011175E+04  0.10100000352E+00 0.  1.
       -3    1    3    3    0  502 -0.51397846311E+03  0.38203970938E+03  0.61256727484E+03  0.88620927353E+03  0.10100000352E+00 0. -1.
</event>
<event>
 5   0  0.3970042E-05  0.2006558E+04  0.7818609E-02  0.8603561E-01
       -1   -1    0    0    0  501  0.00000000000E+00  0.00000000000E+00  0.12901153372E+04  0.12901153372E+04  0.50400001928E-02 0.  1.
        1   -1    0    0  501    0  0.00000000000E+00  0.00000000000E+00 -0.78021615323E+03  0.78021615324E+03  0.50400001928E-02 0. -1.
    10030    2    1    2    0    0  0.00000000000E+00  0.00000000000E+00  0.50989918398E+03  0.20703314905E+04  0.20065580736E+04 0.  0.
        3    1    3    3  502    0  0.57374669910E+03 -0.67409406849E+03 -0.23226671823E+03  0.91516988942E+03  0.10100000352E+00 0. -1.
       -3    1    3    3    0  502 -0.57374669910E+03  0.67409406849E+03  0.74216590221E+03  0.11551616010E+04  0.10100000352E+00 0.  1.
</event>
<event>
 5   0  0.3970042E-05  0.2013852E+04  0.7818609E-02  0.8600171E-01
        1   -1    0    0  501    0  0.00000000000E+00  0.00000000000E+00  0.60923361349E+03  0.60923361351E+03  0.50400001928E-02 0. -1.
       -1   -1    0    0    0  501  0.00000000000E+00  0.00000000000E+00 -0.16642225732E+04  0.16642225733E+04  0.50400001928E-02 0.  1.
    10030    2    1    2    0    0  0.00000000000E+00  0.00000000000E+00 -0.10549889598E+04  0.22734561868E+04  0.20138523600E+04 0.  0.
        3    1    3    3  502    0  0.41763548867E+03  0.16670938437E+03 -0.15445713190E+04  0.16086988499E+04  0.10100000352E+00 0.  1.
       -3    1    3    3    0  502 -0.41763548867E+03 -0.16670938437E+03  0.48958235920E+03  0.66475733684E+03  0.10100000352E+00 0. -1.
</event>
<event>
 5   0  0.3970042E-05  0.1998922E+04  0.7818609E-02  0.8607125E-01
        1   -1    0    0  501    0  0.00000000000E+00  0.00000000000E+00  0.17104612622E+04  0.17104612623E+04  0.50400001928E-02 0.  1.
       -1   -1    0    0    0  501  0.00000000000E+00  0.00000000000E+00 -0.58400753393E+03  0.58400753396E+03  0.50400001928E-02 0. -1.
    10030    2    1    2    0    0  0.00000000000E+00  0.00000000000E+00  0.11264537283E+04  0.22944687962E+04  0.19989219732E+04 0.  0.
        3    1    3    3  502    0 -0.32864170728E+02  0.55253870587E+03 -0.39200706910E+03  0.67826884612E+03  0.10100000352E+00 0. -1.
       -3    1    3    3    0  502  0.32864170728E+02 -0.55253870587E+03  0.15184607974E+04  0.16161999501E+04  0.10100000352E+00 0.  1.
</event>
<event>
 5   0  0.2859625E-05  0.1998450E+04  0.7818609E-02  0.8607346E-01
       -4   -1    0    0    0  501  0.00000000000E+00  0.00000000000E+00  0.13476883781E+04  0.13476889765E+04  0.12699999809E+01 0. -1.
        4   -1    0    0  501    0  0.00000000000E+00  0.00000000000E+00 -0.74086049682E+03  0.74086158535E+03  0.12699999809E+01 0.  1.
    10030    2    1    2    0    0  0.00000000000E+00  0.00000000000E+00  0.60682788133E+03  0.20885505619E+04  0.19984502426E+04 0.  0.
        4    1    3    3  502    0  0.56503579120E+03  0.23963965836E+03  0.11274796874E+04  0.12837073925E+04  0.12699999809E+01 0. -1.
       -4    1    3    3    0  502 -0.56503579120E+03 -0.23963965836E+03 -0.52065180609E+03  0.80484316937E+03  0.12699999809E+01 0.  1.
</event>
<event>
 5   0  0.3787698E-05  0.2030062E+04  0.7818609E-02  0.8592693E-01
       -1   -1    0    0    0  501  0.00000000000E+00  0.00000000000E+00  0.63736883971E+03  0.63736883973E+03  0.50400001928E-02 0. -1.
        1   -1    0    0  501    0  0.00000000000E+00  0.00000000000E+00 -0.16164697483E+04  0.16164697483E+04  0.50400001928E-02 0.  1.
    10030    2    1    2    0    0  0.00000000000E+00  0.00000000000E+00 -0.97910090856E+03  0.22538385880E+04  0.20300615241E+04 0.  0.
        4    1    3    3  502    0  0.51189825451E+03  0.46280704340E+03  0.33684953927E+03  0.76791888074E+03  0.12699999809E+01 0. -1.
       -4    1    3    3    0  502 -0.51189825451E+03 -0.46280704340E+03 -0.13159504478E+04  0.14859197073E+04  0.12699999809E+01 0.  1.
</event>
<event>
 5   0  0.3787698E-05  0.1989270E+04  0.7818609E-02  0.8611654E-01
        1   -1    0    0  501    0  0.00000000000E+00  0.00000000000E+00  0.13825592835E+04  0.13825592835E+04  0.50400001928E-02 0.  1.
       -1   -1    0    0    0  501  0.00000000000E+00  0.00000000000E+00 -0.71555582835E+03  0.71555582837E+03  0.50400001928E-02 0. -1.
    10030    2    1    2    0    0  0.00000000000E+00  0.00000000000E+00  0.66700345510E+03  0.20981151118E+04  0.19892695678E+04 0.  0.
        4    1    3    3  502    0 -0.37081986195E+03 -0.82969744461E+03  0.75983618085E+03  0.11845918513E+04  0.12699999809E+01 0.  1.
       -4    1    3    3    0  502  0.37081986195E+03  0.82969744461E+03 -0.92832725748E+02  0.91352326050E+03  0.12699999809E+01 0. -1.
</event>
<event>
 5   0  0.7935008E-05  0.2004632E+04  0.7818609E-02  0.8604458E-01
       -2   -1    0    0    0  501  0.00000000000E+00  0.00000000000E+00  0.47533345866E+03  0.47533345867E+03  0.25500000920E-02 0. -1.
        2   -1    0    0  501    0  0.00000000000E+00  0.00000000000E+00 -0.21135422640E+04  0.21135422640E+04  0.25500000920E-02 0.  1.
    10030    2    1    2    0    0  0.00000000000E+00  0.00000000000E+00 -0.16382088053E+04  0.25888757226E+04  0.20046319905E+04 0.  0.
        3    1    3    3  502    0  0.12382365219E+03 -0.21741713826E+03 -0.20725630985E+04  0.20876111507E+04  0.10100000352E+00 0.  1.
       -3    1    3    3    0  502 -0.12382365219E+03  0.21741713826E+03  0.43435429322E+03  0.50126457195E+03  0.10100000352E+00 0. -1.
</event>
<event>
 5   0  0.7857136E-05  0.2001775E+04  0.7818609E-02  0.8605791E-01
        2   -1    0    0  501    0  0.00000000000E+00  0.00000000000E+00  0.76416459894E+03  0.76416459894E+03  0.25500000920E-02 0.  1.
       -2   -1    0    0    0  501  0.00000000000E+00  0.00000000000E+00 -0.13109420378E+04  0.13109420378E+04  0.25500000920E-02 0. -1.
    10030    2    1    2    0    0  0.00000000000E+00  0.00000000000E+00 -0.54677743888E+03  0.20751066368E+04  0.20017747092E+04 0.  0.
        4    1    3    3  502    0  0.52861490729E+02  0.10849228159E+03  0.75659359616E+03  0.76615951016E+03  0.12699999809E+01 0.  1.
       -4    1    3    3    0  502 -0.52861490729E+02 -0.10849228159E+03 -0.13033710350E+04  0.13089471266E+04  0.12699999809E+01 0. -1.
</event>
<event>
 5   0  0.7857136E-05  0.1987483E+04  0.7818609E-02  0.8612495E-01
       -2   -1    0    0    0  501  0.00000000000E+00  0.00000000000E+00  0.76760914271E+03  0.76760914272E+03  0.25500000920E-02 0.  1.
        2   -1    0    0  501    0  0.00000000000E+00  0.00000000000E+00 -0.12864910943E+04  0.12864910943E+04  0.25500000920E-02 0. -1.
    10030    2    1    2    0    0  0.00000000000E+00  0.00000000000E+00 -0.51888195160E+03  0.20541002370E+04  0.19874831582E+04 0.  0.
        4    1    3    3  502    0 -0.73709321379E+03  0.57630351095E+03 -0.60545909484E+03  0.11144570297E+04  0.12699999809E+01 0. -1.
       -4    1    3    3    0  502  0.73709321379E+03 -0.57630351095E+03  0.86577143233E+02  0.93964320738E+03  0.12699999809E+01 0.  1.
</event>
<event>
 5   0  0.3549426E-05  0.1989689E+04  0.7818609E-02  0.8611457E-01
       -1   -1    0    0    0  501  0.00000000000E+00  0.00000000000E+00  0.33316267305E+03  0.33316267309E+03  0.50400001928E-02 0.  1.
        1   -1    0    0  501    0  0.00000000000E+00  0.00000000000E+00 -0.29706668170E+04  0.29706668170E+04  0.50400001928E-02 0. -1.
    10030    2    1    2    0    0  0.00000000000E+00  0.00000000000E+00 -0.26375041440E+04  0.33038294901E+04  0.19896887169E+04 0.  0.
        5    1    3    3  502    0  0.35187790382E+03  0.17765912838E+03  0.19793796117E+03  0.44111489610E+03  0.46999998093E+01 0.  1.
       -5    1    3    3    0  502 -0.35187790382E+03 -0.17765912838E+03 -0.28354421052E+04  0.28627145940E+04  0.46999998093E+01 0. -1.
</event>
<event>
 5   0  0.3970042E-05  0.1997759E+04  0.7818609E-02  0.8607669E-01
        1   -1    0    0  501    0  0.00000000000E+00  0.00000000000E+00  0.19556374501E+04  0.19556374501E+04  0.50400001928E-02 0. -1.
       -1   -1    0    0    0  501  0.00000000000E+00  0.00000000000E+00 -0.51019704834E+03  0.51019704836E+03  0.50400001928E-02 0.  1.
    10030    2    1    2    0    0  0.00000000000E+00  0.00000000000E+00  0.14454404018E+04  0.24658344985E+04  0.19977591994E+04 0.  0.
        3    1    3    3  502    0 -0.12927856724E+03 -0.17204199775E+03  0.19266843445E+04  0.19386655128E+04  0.10100000352E+00 0. -1.
       -3    1    3    3    0  502  0.12927856724E+03  0.17204199775E+03 -0.48124394269E+03  0.52716898573E+03  0.10100000352E+00 0.  1.
</event>
<event>
 5   0  0.7857136E-05  0.1995825E+04  0.7818609E-02  0.8608575E-01
        2   -1    0    0  501    0  0.00000000000E+00  0.00000000000E+00  0.13282579859E+04  0.13282579859E+04  0.25500000920E-02 0.  1.
       -2   -1    0    0    0  501  0.00000000000E+00  0.00000000000E+00 -0.74972553246E+03  0.74972553246E+03  0.25500000920E-02 0. -1.
    10030    2    1    2    0    0  0.00000000000E+00  0.00000000000E+00  0.57853245347E+03  0.20779835184E+04  0.19958245672E+04 0.  0.
        4    1    3    3  502    0 -0.23705959656E+03 -0.33239113088E+03 -0.65879261069E+03  0.77504221369E+03  0.12699999809E+01 0. -1.
       -4    1    3    3    0  502  0.23705959656E+03  0.33239113088E+03  0.12373250642E+04  0.13029413047E+04  0.12699999809E+01 0.  1.
</event>
<event>
 5   0  0.8011197E-05  0.1997709E+04  0.7818609E-02  0.8607693E-01
        2   -1    0    0  501    0  0.00000000000E+00  0.00000000000E+00  0.25618925434E+04  0.25618925434E+04  0.25500000920E-02 0. -1.
       -2   -1    0    0    0  501  0.00000000000E+00  0.00000000000E+00 -0.38944263699E+03  0.38944263700E+03  0.25500000920E-02 0.  1.
    10030    2    1    2    0    0  0.00000000000E+00  0.00000000000E+00  0.21724499064E+04  0.29513351804E+04  0.19977088755E+04 0.  0.
        5    1    3    3  502    0  0.75916388666E+03  0.12211428573E+03  0.20280884641E+04  0.21689644105E+04  0.46999998093E+01 0. -1.
       -5    1    3    3    0  502 -0.75916388666E+03 -0.12211428573E+03  0.14436144227E+03  0.78237076990E+03  0.46999998093E+01 0.  1.
</event>
<event>
 5   0  0.3549426E-05  0.2004850E+04  0.7818609E-02  0.8604356E-01
        1   -1    0    0  501    0  0.00000000000E+00  0.00000000000E+00  0.13933900971E+04  0.13933900971E+04  0.50400001928E-02 0.  1.
       -1   -1    0    0    0  501  0.00000000000E+00  0.00000000000E+00 -0.72115936752E+03  0.72115936754E+03  0.50400001928E-02 0. -1.
    10030    2    1    2    0    0  0.00000000000E+00  0.00000000000E+00  0.67223072958E+03  0.21145494646E+04  0.20048504395E+04 0.  0.
        5    1    3    3  502    0 -0.70370527863E+03 -0.48966570091E+03 -0.21179008514E+03  0.88309158527E+03  0.46999998093E+01 0. -1.
       -5    1    3    3    0  502  0.70370527863E+03  0.48966570091E+03  0.88402081472E+03  0.12314578794E+04  0.46999998093E+01 0.  1.
</event>
<event>
 5   0  0.3970042E-05  0.2009399E+04  0.7818609E-02  0.8602239E-01
       -1   -1    0    0    0  501  0.00000000000E+00  0.00000000000E+00  0.51960984858E+03  0.51960984861E+03  0.50400001928E-02 0.  1.
        1   -1    0    0  501    0  0.00000000000E+00  0.00000000000E+00 -0.19426518119E+04  0.19426518119E+04  0.50400001928E-02 0. -1.
    10030    2    1    2    0    0  0.00000000000E+00  0.00000000000E+00 -0.14230419633E+04  0.24622616605E+04  0.20093989289E+04 0.  0.
        3    1    3    3  502    0  0.45747334127E+03  0.88829235153E+03 -0.58256055843E+03  0.11565993145E+04  0.10100000352E+00 0.  1.
       -3    1    3    3    0  502 -0.45747334127E+03 -0.88829235153E+03 -0.84048140488E+03  0.13056623461E+04  0.10100000352E+00 0. -1.
</event>
<event>
 5   0  0.7843846E-05  0.2010003E+04  0.7818609E-02  0.8601958E-01
       -2   -1    0    0    0  501  0.00000000000E+00  0.00000000000E+00  0.76498848430E+03  0.76498848430E+03  0.25500000920E-02 0. -1.
        2   -1    0    0  501    0  0.00000000000E+00  0.00000000000E+00 -0.13203181255E+04  0.13203181255E+04  0.25500000920E-02 0.  1.
    10030    2    1    2    0    0  0.00000000000E+00  0.00000000000E+00 -0.55532964117E+03  0.20853066098E+04  0.20100031459E+04 0.  0.
        2    1    3    3  502    0  0.95378616403E+03 -0.25289237425E+03 -0.47550674792E+03  0.10953397952E+04  0.25500000920E-02 0.  1.
       -2    1    3    3    0  502 -0.95378616403E+03  0.25289237425E+03 -0.79822893250E+02  0.98996681456E+03  0.25500000920E-02 0. -1.
</event>
<event>
 5   0  0.8011197E-05  0.1994133E+04  0.7818609E-02  0.8609369E-01
        2   -1    0    0  501    0  0.00000000000E+00  0.00000000000E+00  0.17277213111E+04  0.17277213111E+04  0.25500000920E-02 0. -1.
       -2   -1    0    0    0  501  0.00000000000E+00  0.00000000000E+00 -0.57540604656E+03  0.57540604657E+03  0.25500000920E-02 0.  1.
    10030    2    1    2    0    0  0.00000000000E+00  0.00000000000E+00  0.11523152645E+04  0.23031273576E+04  0.19941326828E+04 0.  0.
        5    1    3    3  502    0  0.70821056728E+02  0.17553099310E+02  0.17246209700E+04  0.17261701288E+04  0.46999998093E+01 0. -1.
       -5    1    3    3    0  502 -0.70821056728E+02 -0.17553099310E+02 -0.57230570550E+03  0.57695722885E+03  0.46999998093E+01 0.  1.
</event>
<event>
 5   0  0.8022574E-05  0.1999252E+04  0.7818609E-02  0.8606970E-01
       -2   -1    0    0    0  501  0.00000000000E+00  0.00000000000E+00  0.59224651492E+03  0.59224651493E+03  0.25500000920E-02 0.  1.
        2   -1    0    0  501    0  0.00000000000E+00  0.00000000000E+00 -0.16872236308E+04  0.16872236308E+04  0.25500000920E-02 0. -1.
    10030    2    1    2    0    0  0.00000000000E+00  0.00000000000E+00 -0.10949771159E+04  0.22794701457E+04  0.19992521754E+04 0.  0.
        1    1    3    3  502    0  0.75577098700E+03  0.85520941965E+02 -0.12870558948E+04  0.14949971547E+04  0.50400001928E-02 0. -1.
       -1    1    3    3    0  502 -0.75577098700E+03 -0.85520941965E+02  0.19207877890E+03  0.78447299102E+03  0.50400001928E-02 0.  1.
</event>
<event>
 5   0  0.7857136E-05  0.2006531E+04  0.7818609E-02  0.8603573E-01
        2   -1    0    0  501    0  0.00000000000E+00  0.00000000000E+00  0.15237978690E+04  0.15237978690E+04  0.25500000920E-02 0.  1.
       -2   -1    0    0    0  501  0.00000000000E+00  0.00000000000E+00 -0.66054807968E+03  0.66054807968E+03  0.25500000920E-02 0. -1.
    10030    2    1    2    0    0  0.00000000000E+00  0.00000000000E+00  0.86324978936E+03  0.21843459487E+04  0.20065310924E+04 0.  0.
        4    1    3    3  502    0 -0.69163793081E+03  0.18280515714E+03  0.11973494082E+04  0.13947859947E+04  0.12699999809E+01 0.  1.
       -4    1    3    3    0  502  0.69163793081E+03 -0.18280515714E+03 -0.33409961882E+03  0.78955995403E+03  0.12699999809E+01 0. -1.
</event>
<event>
 5   0  0.8011197E-05  0.1997797E+04  0.7818609E-02  0.8607651E-01
        2   -1    0    0  501    0  0.00000000000E+00  0.00000000000E+00  0.25906445665E+04  0.25906445665E+04  0.25500000920E-02 0. -1.
       -2   -1    0    0    0  501  0.00000000000E+00  0.00000000000E+00 -0.38515429953E+03  0.38515429954E+03  0.25500000920E-02 0.  1.
    10030    2    1    2    0    0  0.00000000000E+00  0.00000000000E+00  0.22054902669E+04  0.29757988660E+04  0.19977966797E+04 0.  0.
        5    1    3    3  502    0  0.81250704963E+03 -0.29395444628E+03  0.18492989797E+04  0.20412020303E+04  0.46999998093E+01 0. -1.
       -5    1    3    3    0  502 -0.81250704963E+03  0.29395444628E+03  0.35619128721E+03  0.93459683568E+03  0.46999998093E+01 0.  1.
</event>
<event>
 5   0  0.7935008E-05  0.2012251E+04  0.7818609E-02  0.8600914E-01
        2   -1    0    0  501    0  0.00000000000E+00  0.00000000000E+00  0.16007977131E+04  0.16007977131E+04  0.25500000920E-02 0. -1.
       -2   -1    0    0    0  501  0.00000000000E+00  0.00000000000E+00 -0.63236501864E+03  0.63236501865E+03  0.25500000920E-02 0.  1.
    10030    2    1    2    0    0  0.00000000000E+00  0.00000000000E+00  0.96843269448E+03  0.22331627318E+04  0.20122509542E+04 0.  0.
        3    1    3    3  502    0  0.14920476618E+03 -0.95925698056E+03  0.19090487730E+03  0.98938399996E+03  0.10100000352E+00 0.  1.
       -3    1    3    3    0  502 -0.14920476618E+03  0.95925698056E+03  0.77752781717E+03  0.12437787318E+04  0.10100000352E+00 0. -1.
</event>
<event>
 5   0  0.3772949E-05  0.1994917E+04  0.7818609E-02  0.8609001E-01
        1   -1    0    0  501    0  0.00000000000E+00  0.00000000000E+00  0.85049454441E+03  0.85049454442E+03  0.50400001928E-02 0.  1.
       -1   -1    0    0    0  501  0.00000000000E+00  0.00000000000E+00 -0.11698178327E+04  0.11698178327E+04  0.50400001928E-02 0. -1.
    10030    2    1    2    0    0  0.00000000000E+00  0.00000000000E+00 -0.31932328825E+03  0.20203123771E+04  0.19949172260E+04 0.  0.
        2    1    3    3  502    0 -0.92649345206E+02 -0.75205499861E+03  0.49725049440E+03  0.90632702502E+03  0.25500000920E-02 0.  1.
       -2    1    3    3    0  502  0.92649345206E+02  0.75205499861E+03 -0.81657378265E+03  0.11139853521E+04  0.25500000920E-02 0. -1.
</event>
<event>
 5   0  0.8011197E-05  0.2002095E+04  0.7818609E-02  0.8605642E-01
       -2   -1    0    0    0  501  0.00000000000E+00  0.00000000000E+00  0.53845723844E+03  0.53845723845E+03  0.25500000920E-02 0.  1.
        2   -1    0    0  501    0  0.00000000000E+00  0.00000000000E+00 -0.18610500002E+04  0.18610500002E+04  0.25500000920E-02 0. -1.
    10030    2    1    2    0    0  0.00000000000E+00  0.00000000000E+00 -0.13225927617E+04  0.23995072386E+04  0.20020947467E+04 0.  0.
        5    1    3    3  502    0  0.33562061582E+03 -0.14226355746E+03 -0.17786630372E+04  0.18156388428E+04  0.46999998093E+01 0. -1.
       -5    1    3    3    0  502 -0.33562061582E+03  0.14226355746E+03  0.45607027544E+03  0.58386839586E+03  0.46999998093E+01 0.  1.
</event>
<event>
 5   0  0.3549426E-05  0.2002811E+04  0.7818609E-02  0.8605307E-01
        1   -1    0    0  501    0  0.00000000000E+00  0.00000000000E+00  0.73159110020E+03  0.73159110022E+03  0.50400001928E-02 0.  1.
       -1   -1    0    0    0  501  0.00000000000E+00  0.00000000000E+00 -0.13707290628E+04  0.13707290628E+04  0.50400001928E-02 0. -1.
    10030    2    1    2    0    0  0.00000000000E+00  0.00000000000E+00 -0.63913796257E+03  0.21023201630E+04  0.20028112074E+04 0.  0.
        5    1    3    3  502    0  0.69355703929E+03  0.36963753783E+03 -0.97099773599E+03  0.12492045347E+04  0.46999998093E+01 0. -1.
       -5    1    3    3    0  502 -0.69355703929E+03 -0.36963753783E+03  0.33185977341E+03  0.85311562835E+03  0.46999998093E+01 0.  1.
</event>
<event>
 5   0  0.3549426E-05  0.1993642E+04  0.7818609E-02  0.8609599E-01
       -1   -1    0    0    0  501  0.00000000000E+00  0.00000000000E+00  0.81202259203E+03  0.81202259205E+03  0.50400001928E-02 0.  1.
        1   -1    0    0  501    0  0.00000000000E+00  0.00000000000E+00 -0.12236757500E+04  0.12236757500E+04  0.50400001928E-02 0. -1.
    10030    2    1    2    0    0  0.00000000000E+00  0.00000000000E+00 -0.41165315799E+03  0.20356983421E+04  0.19936422491E+04 0.  0.
        5    1    3    3  502    0  0.66423758229E+03 -0.62988689137E+03 -0.60868865388E+03  0.10993147998E+04  0.46999998093E+01 0. -1.
       -5    1    3    3    0  502 -0.66423758229E+03  0.62988689137E+03  0.19703549589E+03  0.93638354230E+03  0.46999998093E+01 0.  1.
</event>
<event>
 5   0  0.3549426E-05  0.1938174E+04  0.7818609E-02  0.8636085E-01
        1   -1    0    0  501    0  0.00000000000E+00  0.00000000000E+00  0.11615662333E+04  0.11615662333E+04  0.50400001928E-02 0. -1.
       -1   -1    0    0    0  501  0.00000000000E+00  0.00000000000E+00 -0.80850284109E+03  0.80850284111E+03  0.50400001928E-02 0.  1.
    10030    2    1    2    0    0  0.00000000000E+00  0.00000000000E+00  0.35306339223E+03  0.19700690744E+04  0.19381739858E+04 0.  0.
        5    1    3    3  502    0  0.61979765984E+03  0.56992967974E+03 -0.31109038266E+03  0.89764597431E+03  0.46999998093E+01 0.  1.
       -5    1    3    3    0  502 -0.61979765984E+03 -0.56992967974E+03  0.66415377490E+03  0.10724231001E+04  0.46999998093E+01 0. -1.
</event>
<event>
 5   0  0.3818907E-05  0.2011219E+04  0.7818609E-02  0.8601393E-01
        1   -1    0    0  501    0  0.00000000000E+00  0.00000000000E+00  0.12755661493E+04  0.12755661493E+04  0.50400001928E-02 0.  1.
       -1   -1    0    0    0  501  0.00000000000E+00  0.00000000000E+00 -0.79278534000E+03  0.79278534002E+03  0.50400001928E-02 0. -1.
    10030    2    1    2    0    0  0.00000000000E+00  0.00000000000E+00  0.48278080932E+03  0.20683514894E+04  0.20112186787E+04 0.  0.
        1    1    3    3  502    0  0.93215871192E+03  0.16998961566E+03  0.58775724574E+03  0.11150223826E+04  0.50400001928E-02 0.  1.
       -1    1    3    3    0  502 -0.93215871192E+03 -0.16998961566E+03 -0.10497643641E+03  0.95332910680E+03  0.50400001928E-02 0. -1.
</event>
<event>
 5   0  0.7935008E-05  0.2004433E+04  0.7818609E-02  0.8604551E-01
       -2   -1    0    0    0  501  0.00000000000E+00  0.00000000000E+00  0.66395190784E+03  0.66395190785E+03  0.25500000920E-02 0. -1.
        2   -1    0    0  501    0  0.00000000000E+00  0.00000000000E+00 -0.15128168590E+04  0.15128168590E+04  0.25500000920E-02 0.  1.
    10030    2    1    2    0    0  0.00000000000E+00  0.00000000000E+00 -0.84886495118E+03  0.21767687669E+04  0.20044327275E+04 0.  0.
        3    1    3    3  502    0  0.42180588762E+03  0.87247090937E+03 -0.14689790506E+03  0.98015544647E+03  0.10100000352E+00 0.  1.
       -3    1    3    3    0  502 -0.42180588762E+03 -0.87247090937E+03 -0.70196704612E+03  0.11966133204E+04  0.10100000352E+00 0. -1.
</event>
<event>
 5   0  0.8011197E-05  0.2027907E+04  0.7818609E-02  0.8593683E-01
       -2   -1    0    0    0  501  0.00000000000E+00  0.00000000000E+00  0.12575331812E+04  0.12575331812E+04  0.25500000920E-02 0. -1.
        2   -1    0    0  501    0  0.00000000000E+00  0.00000000000E+00 -0.81755423963E+03  0.81755423963E+03  0.25500000920E-02 0.  1.
    10030    2    1    2    0    0  0.00000000000E+00  0.00000000000E+00  0.43997894156E+03  0.20750874208E+04  0.20279068852E+04 0.  0.
        5    1    3    3  502    0  0.15988620774E+03  0.33532134505E+03 -0.74539833544E+03  0.83285339187E+03  0.46999998093E+01 0.  1.
       -5    1    3    3    0  502 -0.15988620774E+03 -0.33532134505E+03  0.11853772770E+04  0.12422340290E+04  0.46999998093E+01 0. -1.
</event>
<event>
 5   0  0.3787698E-05  0.2011288E+04  0.7818609E-02  0.8601361E-01
        1   -1    0    0  501    0  0.00000000000E+00  0.00000000000E+00  0.97046930124E+03  0.97046930125E+03  0.50400001928E-02 0. -1.
       -1   -1    0    0    0  501  0.00000000000E+00  0.00000000000E+00 -0.10420935859E+04  0.10420935859E+04  0.50400001928E-02 0.  1.
    10030    2    1    2    0    0  0.00000000000E+00  0.00000000000E+00 -0.71624284637E+02  0.20125628871E+04  0.20112879795E+04 0.  0.
        4    1    3    3  502    0 -0.65395019248E+03  0.63153430387E+03  0.39438105294E+03  0.99097147236E+03  0.12699999809E+01 0. -1.
       -4    1    3    3    0  502  0.65395019248E+03 -0.63153430387E+03 -0.46600533758E+03  0.10215914148E+04  0.12699999809E+01 0.  1.
</event>
<event>
 5   0  0.7843846E-05  0.1963739E+04  0.7818609E-02  0.8623764E-01
        2   -1    0    0  501    0  0.00000000000E+00  0.00000000000E+00  0.64029142905E+03  0.64029142906E+03  0.25500000920E-02 0. -1.
       -2   -1    0    0    0  501  0.00000000000E+00  0.00000000000E+00 -0.15056709397E+04  0.15056709398E+04  0.25500000920E-02 0.  1.
    10030    2    1    2    0    0  0.00000000000E+00  0.00000000000E+00 -0.86537951070E+03  0.21459623688E+04  0.19637394916E+04 0.  0.
        2    1    3    3  502    0  0.74930242029E+03 -0.46004492602E+03  0.44865825985E+02  0.88040240422E+03  0.25500000920E-02 0. -1.
       -2    1    3    3    0  502 -0.74930242029E+03  0.46004492602E+03 -0.91024533668E+03  0.12655599646E+04  0.25500000920E-02 0.  1.
</event>
<event>
 5   0  0.7843846E-05  0.2002031E+04  0.7818609E-02  0.8605672E-01
        2   -1    0    0  501    0  0.00000000000E+00  0.00000000000E+00  0.13418541665E+04  0.13418541665E+04  0.25500000920E-02 0. -1.
       -2   -1    0    0    0  501  0.00000000000E+00  0.00000000000E+00 -0.74675188511E+03  0.74675188512E+03  0.25500000920E-02 0.  1.
    10030    2    1    2    0    0  0.00000000000E+00  0.00000000000E+00  0.59510228143E+03  0.20886060517E+04  0.20020310971E+04 0.  0.
        2    1    3    3  502    0  0.28845163130E+03 -0.14487048449E+03  0.12860707007E+04  0.13259598969E+04  0.25500000920E-02 0. -1.
       -2    1    3    3    0  502 -0.28845163130E+03  0.14487048449E+03 -0.69096841931E+03  0.76264615476E+03  0.25500000920E-02 0.  1.
</event>
<event>
 5   0  0.3818907E-05  0.2000145E+04  0.7818609E-02  0.8606553E-01
        1   -1    0    0  501    0  0.00000000000E+00  0.00000000000E+00  0.12494591106E+04  0.12494591106E+04  0.50400001928E-02 0.  1.
       -1   -1    0    0    0  501  0.00000000000E+00  0.00000000000E+00 -0.80046229418E+03  0.80046229420E+03  0.50400001928E-02 0. -1.
    10030    2    1    2    0    0  0.00000000000E+00  0.00000000000E+00  0.44899681642E+03  0.20499214048E+04  0.20001449009E+04 0.  0.
        1    1    3    3  502    0  0.42954900199E+03 -0.61274458296E+03  0.90446761399E+03  0.11738951971E+04  0.50400001928E-02 0.  1.
       -1    1    3    3    0  502 -0.42954900199E+03  0.61274458296E+03 -0.45547079757E+03  0.87602620767E+03  0.50400001928E-02 0. -1.
</event>
<event>
 5   0  0.8011197E-05  0.2008859E+04  0.7818609E-02  0.8602490E-01
       -2   -1    0    0    0  501  0.00000000000E+00  0.00000000000E+00  0.50573145539E+03  0.50573145539E+03  0.25500000920E-02 0. -1.
        2   -1    0    0  501    0  0.00000000000E+00  0.00000000000E+00 -0.19948907324E+04  0.19948907324E+04  0.25500000920E-02 0.  1.
    10030    2    1    2    0    0  0.00000000000E+00  0.00000000000E+00 -0.14891592771E+04  0.25006221878E+04  0.20088593713E+04 0.  0.
        5    1    3    3  502    0  0.47878535540E+03 -0.31779884335E+03 -0.17700275256E+04  0.18609812070E+04  0.46999998093E+01 0.  1.
       -5    1    3    3    0  502 -0.47878535540E+03  0.31779884335E+03  0.28086824853E+03  0.63964098087E+03  0.46999998093E+01 0. -1.
</event>
<event>
 5   0  0.3970042E-05  0.1997119E+04  0.7818609E-02  0.8607969E-01
       -1   -1    0    0    0  501  0.00000000000E+00  0.00000000000E+00  0.62648123026E+03  0.62648123028E+03  0.50400001928E-02 0.  1.
        1   -1    0    0  501    0  0.00000000000E+00  0.00000000000E+00 -0.15916209173E+04  0.15916209173E+04  0.50400001928E-02 0. -1.
    10030    2    1    2    0    0  0.00000000000E+00  0.00000000000E+00 -0.96513968706E+03  0.22181021476E+04  0.19971185547E+04 0.  0.
        3    1    3    3  502    0  0.61192043681E+03 -0.75046857503E+03 -0.21171911153E+03  0.99119861556E+03  0.10100000352E+00 0.  1.
       -3    1    3    3    0  502 -0.61192043681E+03  0.75046857503E+03 -0.75342057553E+03  0.12269035320E+04  0.10100000352E+00 0. -1.
</event>
<event>
 5   0  0.7857136E-05  0.2000581E+04  0.7818609E-02  0.8606349E-01
        2   -1    0    0  501    0  0.00000000000E+00  0.00000000000E+00  0.20123314942E+04  0.20123314942E+04  0.25500000920E-02 0. -1.
       -2   -1    0    0    0  501  0.00000000000E+00  0.00000000000E+00 -0.49722473662E+03  0.49722473663E+03  0.25500000920E-02 0.  1.
    10030    2    1    2    0    0  0.00000000000E+00  0.00000000000E+00  0.15151067576E+04  0.25095562309E+04  0.20005809129E+04 0.  0.
        4    1    3    3  502    0 -0.12167940722E+03  0.92568431310E+03  0.12078897693E+04  0.15266619250E+04  0.12699999809E+01 0. -1.
       -4    1    3    3    0  502  0.12167940722E+03 -0.92568431310E+03  0.30721698833E+03  0.98289430585E+03  0.12699999809E+01 0.  1.
</event>
<event>
 5   0  0.2859625E-05  0.2002956E+04  0.7818609E-02  0.8605240E-01
       -3   -1    0    0    0  501  0.00000000000E+00  0.00000000000E+00  0.81691667617E+03  0.81691668241E+03  0.10100000352E+00 0.  1.
        3   -1    0    0  501    0  0.00000000000E+00  0.00000000000E+00 -0.12277363112E+04  0.12277363154E+04  0.10100000352E+00 0. -1.
    10030    2    1    2    0    0  0.00000000000E+00  0.00000000000E+00 -0.41081963508E+03  0.20446529978E+04  0.20029560926E+04 0.  0.
        3    1    3    3  502    0  0.29567744680E+03 -0.37633307951E+03 -0.11034431142E+04  0.12027628427E+04  0.10100000352E+00 0. -1.
       -3    1    3    3    0  502 -0.29567744680E+03  0.37633307951E+03  0.69262347912E+03  0.84189015513E+03  0.10100000352E+00 0.  1.
</event>
<event>
 5   0  0.8011197E-05  0.1995650E+04  0.7818609E-02  0.8608657E-01
        2   -1    0    0  501    0  0.00000000000E+00  0.00000000000E+00  0.11462779923E+04  0.11462779923E+04  0.25500000920E-02 0.  1.
       -2   -1    0    0    0  501  0.00000000000E+00  0.00000000000E+00 -0.86859754930E+03  0.86859754931E+03  0.25500000920E-02 0. -1.
    10030    2    1    2    0    0  0.00000000000E+00  0.00000000000E+00  0.27768044298E+03  0.20148755416E+04  0.19956495233E+04 0.  0.
        5    1    3    3  502    0  0.68073145755E+03 -0.72921285874E+03  0.11659492929E+03  0.10043720318E+04  0.46999998093E+01 0. -1.
       -5    1    3    3    0  502 -0.68073145755E+03  0.72921285874E+03  0.16108551369E+03  0.10105035098E+04  0.46999998093E+01 0.  1.
</event>
<event>
 5   0  0.3818907E-05  0.2002811E+04  0.7818609E-02  0.8605307E-01
        1   -1    0    0  501    0  0.00000000000E+00  0.00000000000E+00  0.16937235037E+04  0.16937235037E+04  0.50400001928E-02 0. -1.
       -1   -1    0    0    0  501  0.00000000000E+00  0.00000000000E+00 -0.59207617971E+03  0.59207617973E+03  0.50400001928E-02 0.  1.
    10030    2    1    2    0    0  0.00000000000E+00  0.00000000000E+00  0.11016473240E+04  0.22857996834E+04  0.20028113656E+04 0.  0.
        1    1    3    3  502    0 -0.15076931418E+03  0.98265561106E+03  0.41353617082E+03  0.10767337650E+04  0.50400001928E-02 0. -1.
       -1    1    3    3    0  502  0.15076931418E+03 -0.98265561106E+03  0.68811115318E+03  0.12090659185E+04  0.50400001928E-02 0.  1.
</event>
<event>
 5   0  0.3818907E-05  0.2000956E+04  0.7818609E-02  0.8606174E-01
        1   -1    0    0  501    0  0.00000000000E+00  0.00000000000E+00  0.50860772121E+03  0.50860772123E+03  0.50400001928E-02 0.  1.
       -1   -1    0    0    0  501  0.00000000000E+00  0.00000000000E+00 -0.19680315910E+04  0.19680315910E+04  0.50400001928E-02 0. -1.
    10030    2    1    2    0    0  0.00000000000E+00  0.00000000000E+00 -0.14594238698E+04  0.24766393122E+04  0.20009558344E+04 0.  0.
        1    1    3    3  502    0 -0.19953982342E+03  0.93170849924E+03 -0.35213548136E+03  0.10158229501E+04  0.50400001928E-02 0. -1.
       -1    1    3    3    0  502  0.19953982342E+03 -0.93170849924E+03 -0.11072883884E+04  0.14608163621E+04  0.50400001928E-02 0.  1.
</event>
<event>
 5   0  0.3970042E-05  0.1999458E+04  0.7818609E-02  0.8606874E-01
       -1   -1    0    0    0  501  0.00000000000E+00  0.00000000000E+00  0.76412027333E+03  0.76412027335E+03  0.50400001928E-02 0.  1.
        1   -1    0    0  501    0  0.00000000000E+00  0.00000000000E+00 -0.13079857601E+04  0.13079857601E+04  0.50400001928E-02 0. -1.
    10030    2    1    2    0    0  0.00000000000E+00  0.00000000000E+00 -0.54386548675E+03  0.20721060334E+04  0.19994583632E+04 0.  0.
        3    1    3    3  502    0  0.56629711823E+03 -0.79582362369E+03 -0.49282200960E+03  0.10940298028E+04  0.10100000352E+00 0. -1.
       -3    1    3    3    0  502 -0.56629711823E+03  0.79582362369E+03 -0.51043477148E+02  0.97807623061E+03  0.10100000352E+00 0.  1.
</event>
<event>
 5   0  0.7857136E-05  0.1992537E+04  0.7818609E-02  0.8610118E-01
       -2   -1    0    0    0  501  0.00000000000E+00  0.00000000000E+00  0.53795714642E+03  0.53795714642E+03  0.25500000920E-02 0. -1.
        2   -1    0    0  501    0  0.00000000000E+00  0.00000000000E+00 -0.18450368401E+04  0.18450368401E+04  0.25500000920E-02 0.  1.
    10030    2    1    2    0    0  0.00000000000E+00  0.00000000000E+00 -0.13070796937E+04  0.23829939865E+04  0.19925368288E+04 0.  0.
        4    1    3    3  502    0 -0.40729425235E+03  0.89880410669E+03 -0.81757265939E+03  0.12814695067E+04  0.12699999809E+01 0.  1.
       -4    1    3    3    0  502  0.40729425235E+03 -0.89880410669E+03 -0.48950703427E+03  0.11015244798E+04  0.12699999809E+01 0. -1.
</event>
<event>
 5   0  0.8022574E-05  0.1999119E+04  0.7818609E-02  0.8607033E-01
        2   -1    0    0  501    0  0.00000000000E+00  0.00000000000E+00  0.12798602723E+04  0.12798602723E+04  0.25500000920E-02 0. -1.
       -2   -1    0    0    0  501  0.00000000000E+00  0.00000000000E+00 -0.78064678504E+03  0.78064678504E+03  0.25500000920E-02 0.  1.
    10030    2    1    2    0    0  0.00000000000E+00  0.00000000000E+00  0.49921348722E+03  0.20605070573E+04  0.19991186126E+04 0.  0.
        1    1    3    3  502    0  0.13982635706E+03 -0.80142291182E+03  0.84820637886E+03  0.11752804580E+04  0.50400001928E-02 0. -1.
       -1    1    3    3    0  502 -0.13982635706E+03  0.80142291182E+03 -0.34899289164E+03  0.88522659933E+03  0.50400001928E-02 0.  1.
</event>
<event>
 5   0  0.8011197E-05  0.1914081E+04  0.7818609E-02  0.8647879E-01
       -2   -1    0    0    0  501  0.00000000000E+00  0.00000000000E+00  0.52351794896E+03  0.52351794896E+03  0.25500000920E-02 0.  1.
        2   -1    0    0  501    0  0.00000000000E+00  0.00000000000E+00 -0.17495609337E+04  0.17495609337E+04  0.25500000920E-02 0. -1.
    10030    2    1    2    0    0  0.00000000000E+00  0.00000000000E+00 -0.12260429847E+04  0.22730788827E+04  0.19140810344E+04 0.  0.
        5    1    3    3  502    0  0.28599647841E+03 -0.86048754495E+03 -0.24956009021E+03  0.94049727766E+03  0.46999998093E+01 0.  1.
       -5    1    3    3    0  502 -0.28599647841E+03  0.86048754495E+03 -0.97648289453E+03  0.13325816050E+04  0.46999998093E+01 0. -1.
</event>
<event>
 5   0  0.3772949E-05  0.1875190E+04  0.7818609E-02  0.8667305E-01
       -1   -1    0    0    0  501  0.00000000000E+00  0.00000000000E+00  0.70463523703E+03  0.70463523705E+03  0.50400001928E-02 0. -1.
        1   -1    0    0  501    0  0.00000000000E+00  0.00000000000E+00 -0.12475743432E+04  0.12475743432E+04  0.50400001928E-02 0.  1.
    10030    2    1    2    0    0  0.00000000000E+00  0.00000000000E+00 -0.54293910615E+03  0.19522095802E+04  0.18751904896E+04 0.  0.
        2    1    3    3  502    0  0.50853877385E+02 -0.88752714496E+03 -0.58169225434E+03  0.10623824305E+04  0.25500000920E-02 0.  1.
       -2    1    3    3    0  502 -0.50853877385E+02  0.88752714496E+03  0.38753148194E+02  0.88982714972E+03  0.25500000920E-02 0. -1.
</event>
<event>
 5   0  0.3549426E-05  0.1960760E+04  0.7818609E-02  0.8625190E-01
        1   -1    0    0  501    0  0.00000000000E+00  0.00000000000E+00  0.82662452010E+03  0.82662452012E+03  0.50400001928E-02 0. -1.
       -1   -1    0    0    0  501  0.00000000000E+00  0.00000000000E+00 -0.11627346292E+04  0.11627346292E+04  0.50400001928E-02 0.  1.
    10030    2    1    2    0    0  0.00000000000E+00  0.00000000000E+00 -0.33611010910E+03  0.19893591493E+04  0.19607600107E+04 0.  0.
        5    1    3    3  502    0  0.35704535603E+03 -0.80911601869E+03 -0.59727728455E+03  0.10671983708E+04  0.46999998093E+01 0.  1.
       -5    1    3    3    0  502 -0.35704535603E+03  0.80911601869E+03  0.26116717545E+03  0.92216077855E+03  0.46999998093E+01 0. -1.
</event>
<event>
 5   0  0.7857136E-05  0.1996732E+04  0.7818609E-02  0.8608150E-01
        2   -1    0    0  501    0  0.00000000000E+00  0.00000000000E+00  0.71469780295E+03  0.71469780296E+03  0.25500000920E-02 0. -1.
       -2   -1    0    0    0  501  0.00000000000E+00  0.00000000000E+00 -0.13946233600E+04  0.13946233600E+04  0.25500000920E-02 0.  1.
    10030    2    1    2    0    0  0.00000000000E+00  0.00000000000E+00 -0.67992555701E+03  0.21093211629E+04  0.19967315807E+04 0.  0.
        4    1    3    3  502    0  0.40963533590E+03 -0.49751368720E+03 -0.11454615679E+04  0.13143077242E+04  0.12699999809E+01 0.  1.
       -4    1    3    3    0  502 -0.40963533590E+03  0.49751368720E+03  0.46553601093E+03  0.79501343872E+03  0.12699999809E+01 0. -1.
</event>
<event>
 5   0  0.3970042E-05  0.1904176E+04  0.7818609E-02  0.8652780E-01
        1   -1    0    0  501    0  0.00000000000E+00  0.00000000000E+00  0.86783124991E+03  0.86783124993E+03  0.50400001928E-02 0.  1.
       -1   -1    0    0    0  501  0.00000000000E+00  0.00000000000E+00 -0.10445256060E+04  0.10445256060E+04  0.50400001928E-02 0. -1.
    10030    2    1    2    0    0  0.00000000000E+00  0.00000000000E+00 -0.17669435612E+03  0.19123568560E+04  0.19041764228E+04 0.  0.
        3    1    3    3  502    0 -0.70398152899E+03  0.24654641328E+03  0.50588455442E+03  0.90127372072E+03  0.10100000352E+00 0.  1.
       -3    1    3    3    0  502  0.70398152899E+03 -0.24654641328E+03 -0.68257891055E+03  0.10110831352E+04  0.10100000352E+00 0. -1.
</event>
<event>
 5   0  0.7857136E-05  0.2014119E+04  0.7818609E-02  0.8600048E-01
        2   -1    0    0  501    0  0.00000000000E+00  0.00000000000E+00  0.12520812466E+04  0.12520812466E+04  0.25500000920E-02 0.  1.
       -2   -1    0    0    0  501  0.00000000000E+00  0.00000000000E+00 -0.80998625929E+03  0.80998625930E+03  0.25500000920E-02 0. -1.
    10030    2    1    2    0    0  0.00000000000E+00  0.00000000000E+00  0.44209498726E+03  0.20620675059E+04  0.20141187703E+04 0.  0.
        4    1    3    3  502    0 -0.42479343126E+03  0.36446768028E+03 -0.63606908750E+03  0.84727306471E+03  0.12699999809E+01 0. -1.
       -4    1    3    3    0  502  0.42479343126E+03 -0.36446768028E+03  0.10781640748E+04  0.12147944411E+04  0.12699999809E+01 0.  1.
</event>
<event>
 5   0  0.3970042E-05  0.2001258E+04  0.7818609E-02  0.8606033E-01
       -1   -1    0    0    0  501  0.00000000000E+00  0.00000000000E+00  0.14789689571E+04  0.14789689571E+04  0.50400001928E-02 0.  1.
        1   -1    0    0  501    0  0.00000000000E+00  0.00000000000E+00 -0.67699763978E+03  0.67699763980E+03  0.50400001928E-02 0. -1.
    10030    2    1    2    0    0  0.00000000000E+00  0.00000000000E+00  0.80197131728E+03  0.21559665969E+04  0.20012580976E+04 0.  0.
        3    1    3    3  502    0  0.17527773792E+03  0.93509459652E+03  0.66961334034E+02  0.95373372611E+03  0.10100000352E+00 0. -1.
       -3    1    3    3    0  502 -0.17527773792E+03 -0.93509459652E+03  0.73500998325E+03  0.12022328708E+04  0.10100000352E+00 0.  1.
</event>
<event>
 5   0  0.3818907E-05  0.1766867E+04  0.7818609E-02  0.8724120E-01
        1   -1    0    0  501    0  0.00000000000E+00  0.00000000000E+00  0.17602128544E+04  0.17602128544E+04  0.50400001928E-02 0.  1.
       -1   -1    0    0    0  501  0.00000000000E+00  0.00000000000E+00 -0.44338649383E+03  0.44338649386E+03  0.50400001928E-02 0. -1.
    10030    2    1    2    0    0  0.00000000000E+00  0.00000000000E+00  0.13168263606E+04  0.22035993483E+04  0.17668668382E+04 0.  0.
        1    1    3    3  502    0 -0.50360989716E+03 -0.53177348122E+03  0.42290759176E+02  0.73361738815E+03  0.50400001928E-02 0. -1.
       -1    1    3    3    0  502  0.50360989716E+03  0.53177348122E+03  0.12745356014E+04  0.14699819602E+04  0.50400001928E-02 0.  1.
</event>
<event>
 5   0  0.7857136E-05  0.2003926E+04  0.7818609E-02  0.8604788E-01
        2   -1    0    0  501    0  0.00000000000E+00  0.00000000000E+00  0.15394894891E+04  0.15394894891E+04  0.25500000920E-02 0. -1.
       -2   -1    0    0    0  501  0.00000000000E+00  0.00000000000E+00 -0.65211835720E+03  0.65211835721E+03  0.25500000920E-02 0.  1.
    10030    2    1    2    0    0  0.00000000000E+00  0.00000000000E+00  0.88737113194E+03  0.21916078464E+04  0.20039255042E+04 0.  0.
        4    1    3    3  502    0 -0.53524734288E+03 -0.83980230592E+03  0.56433591215E+03  0.11446546491E+04  0.12699999809E+01 0.  1.
       -4    1    3    3    0  502  0.53524734288E+03  0.83980230592E+03  0.32303521980E+03  0.10469531972E+04  0.12699999809E+01 0. -1.
</event>
<event>
 5   0  0.8022574E-05  0.2027693E+04  0.7818609E-02  0.8593782E-01
        2   -1    0    0  501    0  0.00000000000E+00  0.00000000000E+00  0.21120995910E+04  0.21120995910E+04  0.25500000920E-02 0. -1.
       -2   -1    0    0    0  501  0.00000000000E+00  0.00000000000E+00 -0.48666479935E+03  0.48666479936E+03  0.25500000920E-02 0.  1.
    10030    2    1    2    0    0  0.00000000000E+00  0.00000000000E+00  0.16254347916E+04  0.25987643903E+04  0.20276928009E+04 0.  0.
        1    1    3    3  502    0 -0.52912014085E+03  0.54641119867E+03  0.16718450565E+04  0.18367360220E+04  0.50400001928E-02 0. -1.
       -1    1    3    3    0  502  0.52912014085E+03 -0.54641119867E+03 -0.46410264861E+02  0.76202836837E+03  0.50400001928E-02 0.  1.
</event>
<event>
 5   0  0.7843846E-05  0.1992302E+04  0.7818609E-02  0.8610228E-01
       -2   -1    0    0    0  501  0.00000000000E+00  0.00000000000E+00  0.65799729770E+03  0.65799729771E+03  0.25500000920E-02 0. -1.
        2   -1    0    0  501    0  0.00000000000E+00  0.00000000000E+00 -0.15080867117E+04  0.15080867117E+04  0.25500000920E-02 0.  1.
    10030    2    1    2    0    0  0.00000000000E+00  0.00000000000E+00 -0.85008941399E+03  0.21660840094E+04  0.19923021668E+04 0.  0.
        2    1    3    3  502    0 -0.58615404056E+03  0.22541928009E+03  0.41566103806E+03  0.75310325300E+03  0.25500000920E-02 0. -1.
       -2    1    3    3    0  502  0.58615404056E+03 -0.22541928009E+03 -0.12657504521E+04  0.14129807564E+04  0.25500000920E-02 0.  1.
</event>
<event>
 5   0  0.7857136E-05  0.2004470E+04  0.7818609E-02  0.8604534E-01
        2   -1    0    0  501    0  0.00000000000E+00  0.00000000000E+00  0.10158423605E+04  0.10158423605E+04  0.25500000920E-02 0.  1.
       -2   -1    0    0    0  501  0.00000000000E+00  0.00000000000E+00 -0.98880970158E+03  0.98880970159E+03  0.25500000920E-02 0. -1.
    10030    2    1    2    0    0  0.00000000000E+00  0.00000000000E+00  0.27032658876E+02  0.20046520620E+04  0.20044697866E+04 0.  0.
        4    1    3    3  502    0  0.33650402291E+03 -0.39012859934E+03 -0.84623497249E+03  0.99073231653E+03  0.12699999809E+01 0. -1.
       -4    1    3    3    0  502 -0.33650402291E+03  0.39012859934E+03  0.87326763137E+03  0.10139197455E+04  0.12699999809E+01 0.  1.
</event>
<event>
 5   0  0.3818907E-05  0.2001508E+04  0.7818609E-02  0.8605916E-01
        1   -1    0    0  501    0  0.00000000000E+00  0.00000000000E+00  0.76806405385E+03  0.76806405386E+03  0.50400001928E-02 0.  1.
       -1   -1    0    0    0  501  0.00000000000E+00  0.00000000000E+00 -0.13039386571E+04  0.13039386571E+04  0.50400001928E-02 0. -1.
    10030    2    1    2    0    0  0.00000000000E+00  0.00000000000E+00 -0.53587460327E+03  0.20720027110E+04  0.20015078426E+04 0.  0.
        1    1    3    3  502    0  0.93151722899E+03 -0.33392851015E+03 -0.11342971596E+03  0.99604161474E+03  0.50400001928E-02 0. -1.
       -1    1    3    3    0  502 -0.93151722899E+03  0.33392851015E+03 -0.42244488731E+03  0.10759610963E+04  0.50400001928E-02 0.  1.
</event>
<event>
 5   0  0.3970042E-05  0.2001763E+04  0.7818609E-02  0.8605797E-01
        1   -1    0    0  501    0  0.00000000000E+00  0.00000000000E+00  0.13293667089E+04  0.13293667089E+04  0.50400001928E-02 0.  1.
       -1   -1    0    0    0  501  0.00000000000E+00  0.00000000000E+00 -0.75356475885E+03  0.75356475886E+03  0.50400001928E-02 0. -1.
    10030    2    1    2    0    0  0.00000000000E+00  0.00000000000E+00  0.57580195006E+03  0.20829314678E+04  0.20017631263E+04 0.  0.
        3    1    3    3  502    0  0.49032176998E+03  0.31045557920E+02  0.11952595764E+04  0.12922943666E+04  0.10100000352E+00 0.  1.
       -3    1    3    3    0  502 -0.49032176998E+03 -0.31045557920E+02 -0.61945762632E+03  0.79063710119E+03  0.10100000352E+00 0. -1.
</event>
<event>
 5   0  0.7843846E-05  0.2008073E+04  0.7818609E-02  0.8602855E-01
       -2   -1    0    0    0  501  0.00000000000E+00  0.00000000000E+00  0.86755753544E+03  0.86755753545E+03  0.25500000920E-02 0. -1.
        2   -1    0    0  501    0  0.00000000000E+00  0.00000000000E+00 -0.11619860853E+04  0.11619860853E+04  0.25500000920E-02 0.  1.
    10030    2    1    2    0    0  0.00000000000E+00  0.00000000000E+00 -0.29442854988E+03  0.20295436208E+04  0.20080734891E+04 0.  0.
        2    1    3    3  502    0 -0.39637346690E+02  0.98779961569E+03  0.30076712810E+02  0.98905197471E+03  0.25500000920E-02 0. -1.
       -2    1    3    3    0  502  0.39637346690E+02 -0.98779961569E+03 -0.32450526269E+03  0.10404916461E+04  0.25500000920E-02 0.  1.
</event>
<event>
 5   0  0.3772949E-05  0.1956416E+04  0.7818609E-02  0.8627273E-01
       -1   -1    0    0    0  501  0.00000000000E+00  0.00000000000E+00  0.73714382759E+03  0.73714382761E+03  0.50400001928E-02 0. -1.
        1   -1    0    0  501    0  0.00000000000E+00  0.00000000000E+00 -0.12981063920E+04  0.12981063920E+04  0.50400001928E-02 0.  1.
    10030    2    1    2    0    0  0.00000000000E+00  0.00000000000E+00 -0.56096256444E+03  0.20352502196E+04  0.19564162282E+04 0.  0.
        2    1    3    3  502    0  0.80519388298E+03  0.35252171401E+03 -0.72706043348E+03  0.11407127693E+04  0.25500000920E-02 0.  1.
       -2    1    3    3    0  502 -0.80519388298E+03 -0.35252171401E+03  0.16609786904E+03  0.89453745038E+03  0.25500000920E-02 0. -1.
</event>
<event>
 5   0  0.3787698E-05  0.1948712E+04  0.7818609E-02  0.8630982E-01
        1   -1    0    0  501    0  0.00000000000E+00  0.00000000000E+00  0.68117105148E+03  0.68117105150E+03  0.50400001928E-02 0. -1.
       -1   -1    0    0    0  501  0.00000000000E+00  0.00000000000E+00 -0.13937320180E+04  0.13937320180E+04  0.50400001928E-02 0.  1.
    10030    2    1    2    0    0  0.00000000000E+00  0.00000000000E+00 -0.71256096653E+03  0.20749030695E+04  0.19487122971E+04 0.  0.
        4    1    3    3  502    0 -0.15999026120E+03 -0.63154183857E+03 -0.11277153420E+04  0.13023768590E+04  0.12699999809E+01 0.  1.
       -4    1    3    3    0  502  0.15999026120E+03  0.63154183857E+03  0.41515437543E+03  0.77252621048E+03  0.12699999809E+01 0. -1.
</event>
<event>
 5   0  0.3787698E-05  0.1984047E+04  0.7818609E-02  0.8614116E-01
        1   -1    0    0  501    0  0.00000000000E+00  0.00000000000E+00  0.13256977808E+04  0.13256977808E+04  0.50400001928E-02 0.  1.
       -1   -1    0    0    0  501  0.00000000000E+00  0.00000000000E+00 -0.74233403915E+03  0.74233403917E+03  0.50400001928E-02 0. -1.
    10030    2    1    2    0    0  0.00000000000E+00  0.00000000000E+00  0.58336374162E+03  0.20680318199E+04  0.19840469635E+04 0.  0.
        4    1    3    3  502    0  0.37744711713E+03  0.91245080821E+03  0.19238018469E+03  0.10060042505E+04  0.12699999809E+01 0.  1.
       -4    1    3    3    0  502 -0.37744711713E+03 -0.91245080821E+03  0.39098355692E+03  0.10620275695E+04  0.12699999809E+01 0. -1.
</event>
<event>
 5   0  0.7843846E-05  0.1992254E+04  0.7818609E-02  0.8610251E-01
        2   -1    0    0  501    0  0.00000000000E+00  0.00000000000E+00  0.30022090983E+04  0.30022090983E+04  0.25500000920E-02 0. -1.
       -2   -1    0    0    0  501  0.00000000000E+00  0.00000000000E+00 -0.33051298202E+03  0.33051298203E+03  0.25500000920E-02 0.  1.
    10030    2    1    2    0    0  0.00000000000E+00  0.00000000000E+00  0.26716961163E+04  0.33327220804E+04  0.19922540819E+04 0.  0.
        2    1    3    3  502    0 -0.79159060100E+03 -0.27485348408E+02  0.23463568348E+04  0.24764413016E+04  0.25500000920E-02 0. -1.
       -2    1    3    3    0  502  0.79159060100E+03  0.27485348408E+02  0.32533928148E+03  0.85628077875E+03  0.25500000920E-02 0.  1.
</event>
<event>
 5   0  0.3818907E-05  0.2015353E+04  0.7818609E-02  0.8599476E-01
       -1   -1    0    0    0  501  0.00000000000E+00  0.00000000000E+00  0.43819608385E+03  0.43819608388E+03  0.50400001928E-02 0.  1.
        1   -1    0    0  501    0  0.00000000000E+00  0.00000000000E+00 -0.23172552762E+04  0.23172552762E+04  0.50400001928E-02 0. -1.
    10030    2    1    2    0    0  0.00000000000E+00  0.00000000000E+00 -0.18790591923E+04  0.27554513600E+04  0.20153532567E+04 0.  0.
        1    1    3    3  502    0 -0.12780456314E+03  0.99421507633E+03 -0.79866799326E+03  0.12816661765E+04  0.50400001928E-02 0.  1.
       -1    1    3    3    0  502  0.12780456314E+03 -0.99421507633E+03 -0.10803911990E+04  0.14737851836E+04  0.50400001928E-02 0. -1.
</event>
<event>
 5   0  0.7843846E-05  0.1895868E+04  0.7818609E-02  0.8656916E-01
       -2   -1    0    0    0  501  0.00000000000E+00  0.00000000000E+00  0.10581947732E+04  0.10581947732E+04  0.25500000920E-02 0.  1.
        2   -1    0    0  501    0  0.00000000000E+00  0.00000000000E+00 -0.84916205692E+03  0.84916205693E+03  0.25500000920E-02 0. -1.
    10030    2    1    2    0    0  0.00000000000E+00  0.00000000000E+00  0.20903271625E+03  0.19073568301E+04  0.18958679809E+04 0.  0.
        2    1    3    3  502    0  0.46306856265E+03 -0.73608873617E+03  0.48405535990E+03  0.99527318496E+03  0.25500000920E-02 0.  1.
       -2    1    3    3    0  502 -0.46306856265E+03  0.73608873617E+03 -0.27502264365E+03  0.91208364516E+03  0.25500000920E-02 0. -1.
</event>
<event>
 5   0  0.7843846E-05  0.2010964E+04  0.7818609E-02  0.8601512E-01
       -2   -1    0    0    0  501  0.00000000000E+00  0.00000000000E+00  0.63932799106E+03  0.63932799106E+03  0.25500000920E-02 0.  1.
        2   -1    0    0  501    0  0.00000000000E+00  0.00000000000E+00 -0.15813390719E+04  0.15813390719E+04  0.25500000920E-02 0. -1.
    10030    2    1    2    0    0  0.00000000000E+00  0.00000000000E+00 -0.94201108087E+03  0.22206670630E+04  0.20109642782E+04 0.  0.
        2    1    3    3  502    0  0.36329771327E+03 -0.55406065150E+03  0.36418764255E+03  0.75604303647E+03  0.25500000920E-02 0.  1.
       -2    1    3    3    0  502 -0.36329771327E+03  0.55406065150E+03 -0.13061987234E+04  0.14646240265E+04  0.25500000920E-02 0. -1.
</event>
<event>
 5   0  0.7843846E-05  0.2009370E+04  0.7818609E-02  0.8602252E-01
       -2   -1    0    0    0  501  0.00000000000E+00  0.00000000000E+00  0.10009587146E+04  0.10009587146E+04  0.25500000920E-02 0.  1.
        2   -1    0    0  501    0  0.00000000000E+00  0.00000000000E+00 -0.10084251484E+04  0.10084251484E+04  0.25500000920E-02 0. -1.
    10030    2    1    2    0    0  0.00000000000E+00  0.00000000000E+00 -0.74664338320E+01  0.20093838630E+04  0.20093699912E+04 0.  0.
        2    1    3    3  502    0  0.82664208134E+03 -0.31716299412E+03  0.47109891962E+03  0.10029275585E+04  0.25500000920E-02 0. -1.
       -2    1    3    3    0  502 -0.82664208134E+03  0.31716299412E+03 -0.47856535345E+03  0.10064563046E+04  0.25500000920E-02 0.  1.
</event>
<event>
 5   0  0.8022574E-05  0.2001696E+04  0.7818609E-02  0.8605828E-01
        2   -1    0    0  501    0  0.00000000000E+00  0.00000000000E+00  0.98676063033E+03  0.98676063034E+03  0.25500000920E-02 0. -1.
       -2   -1    0    0    0  501  0.00000000000E+00  0.00000000000E+00 -0.10151366758E+04  0.10151366758E+04  0.25500000920E-02 0.  1.
    10030    2    1    2    0    0  0.00000000000E+00  0.00000000000E+00 -0.28376045492E+02  0.20018973062E+04  0.20016961869E+04 0.  0.
        1    1    3    3  502    0 -0.24878712998E+03 -0.52966974456E+03 -0.82621284646E+03  0.10124587607E+04  0.50400001928E-02 0.  1.
       -1    1    3    3    0  502  0.24878712998E+03  0.52966974456E+03  0.79783680096E+03  0.98943854551E+03  0.50400001928E-02 0. -1.
</event>
<event>
 5   0  0.3772949E-05  0.1997229E+04  0.7818609E-02  0.8607918E-01
        1   -1    0    0  501    0  0.00000000000E+00  0.00000000000E+00  0.19186492934E+04  0.19186492934E+04  0.50400001928E-02 0. -1.
       -1   -1    0    0    0  501  0.00000000000E+00  0.00000000000E+00 -0.51975650028E+03  0.51975650031E+03  0.50400001928E-02 0.  1.
    10030    2    1    2    0    0  0.00000000000E+00  0.00000000000E+00  0.13988927931E+04  0.24384057937E+04  0.19972285218E+04 0.  0.
        2    1    3    3  502    0 -0.14976036987E+03 -0.58240848465E+03  0.16728009505E+04  0.17776081771E+04  0.25500000920E-02 0. -1.
       -2    1    3    3    0  502  0.14976036987E+03  0.58240848465E+03 -0.27390815740E+03  0.66079761658E+03  0.25500000920E-02 0.  1.
</event>
<event>
 5   0  0.7857136E-05  0.1984607E+04  0.7818609E-02  0.8613851E-01
        2   -1    0    0  501    0  0.00000000000E+00  0.00000000000E+00  0.14022503835E+04  0.14022503835E+04  0.25500000920E-02 0.  1.
       -2   -1    0    0    0  501  0.00000000000E+00  0.00000000000E+00 -0.70220411906E+03  0.70220411906E+03  0.25500000920E-02 0. -1.
    10030    2    1    2    0    0  0.00000000000E+00  0.00000000000E+00  0.70004626444E+03  0.21044545026E+04  0.19846067573E+04 0.  0.
        4    1    3    3  502    0  0.24083955129E+03 -0.66234121717E+03 -0.39070582830E+03  0.80582394765E+03  0.12699999809E+01 0.  1.
       -4    1    3    3    0  502 -0.24083955129E+03  0.66234121717E+03  0.10907520927E+04  0.12986305549E+04  0.12699999809E+01 0. -1.
</event>
<event>
 5   0  0.8011197E-05  0.2000130E+04  0.7818609E-02  0.8606560E-01
       -2   -1    0    0    0  501  0.00000000000E+00  0.00000000000E+00  0.52903466115E+03  0.52903466115E+03  0.25500000920E-02 0.  1.
        2   -1    0    0  501    0  0.00000000000E+00  0.00000000000E+00 -0.18904811073E+04  0.18904811073E+04  0.25500000920E-02 0. -1.
    10030    2    1    2    0    0  0.00000000000E+00  0.00000000000E+00 -0.13614464461E+04  0.24195157684E+04  0.20001300278E+04 0.  0.
        5    1    3    3  502    0 -0.44596764177E+03 -0.20647352604E+03  0.37287162159E+03  0.61690663041E+03  0.46999998093E+01 0.  1.
       -5    1    3    3    0  502  0.44596764177E+03  0.20647352604E+03 -0.17343180677E+04  0.18026091380E+04  0.46999998093E+01 0. -1.
</event>
<event>
 5   0  0.3970042E-05  0.1988007E+04  0.7818609E-02  0.8612248E-01
        1   -1    0    0  501    0  0.00000000000E+00  0.00000000000E+00  0.14314383627E+04  0.14314383627E+04  0.50400001928E-02 0. -1.
       -1   -1    0    0    0  501  0.00000000000E+00  0.00000000000E+00 -0.69024488043E+03  0.69024488044E+03  0.50400001928E-02 0.  1.
    10030    2    1    2    0    0  0.00000000000E+00  0.00000000000E+00  0.74119348227E+03  0.21216832431E+04  0.19880070438E+04 0.  0.
        3    1    3    3  502    0 -0.47406843623E+03  0.81237961948E+03  0.71368031878E+03  0.11806951918E+04  0.10100000352E+00 0. -1.
       -3    1    3    3    0  502  0.47406843623E+03 -0.81237961948E+03  0.27513163489E+02  0.94098805133E+03  0.10100000352E+00 0.  1.
</event>
<event>
 5   0  0.8011197E-05  0.2005294E+04  0.7818609E-02  0.8604149E-01
        2   -1    0    0  501    0  0.00000000000E+00  0.00000000000E+00  0.14731173065E+04  0.14731173065E+04  0.25500000920E-02 0. -1.
       -2   -1    0    0    0  501  0.00000000000E+00  0.00000000000E+00 -0.68243119641E+03  0.68243119642E+03  0.25500000920E-02 0.  1.
    10030    2    1    2    0    0  0.00000000000E+00  0.00000000000E+00  0.79068611004E+03  0.21555485029E+04  0.20052941988E+04 0.  0.
        5    1    3    3  502    0  0.35291946851E+03 -0.49449529385E+03 -0.46204415715E+03  0.76327232365E+03  0.46999998093E+01 0.  1.
       -5    1    3    3    0  502 -0.35291946851E+03  0.49449529385E+03  0.12527302672E+04  0.13922761792E+04  0.46999998093E+01 0. -1.
</event>
<event>
 5   0  0.3549426E-05  0.2001987E+04  0.7818609E-02  0.8605692E-01
       -1   -1    0    0    0  501  0.00000000000E+00  0.00000000000E+00  0.85845221011E+03  0.85845221013E+03  0.50400001928E-02 0.  1.
        1   -1    0    0  501    0  0.00000000000E+00  0.00000000000E+00 -0.11672025088E+04  0.11672025089E+04  0.50400001928E-02 0. -1.
    10030    2    1    2    0    0  0.00000000000E+00  0.00000000000E+00 -0.30875029873E+03  0.20256547190E+04  0.20019865868E+04 0.  0.
        5    1    3    3  502    0 -0.65366898531E+03 -0.53676000297E+03  0.38727692011E+03  0.93026874934E+03  0.46999998093E+01 0. -1.
       -5    1    3    3    0  502  0.65366898531E+03  0.53676000297E+03 -0.69602721884E+03  0.10953859696E+04  0.46999998093E+01 0.  1.
</event>
<event>
 5   0  0.8011197E-05  0.2006937E+04  0.7818609E-02  0.8603384E-01
       -2   -1    0    0    0  501  0.00000000000E+00  0.00000000000E+00  0.74912810724E+03  0.74912810724E+03  0.25500000920E-02 0. -1.
        2   -1    0    0  501    0  0.00000000000E+00  0.00000000000E+00 -0.13441614641E+04  0.13441614641E+04  0.25500000920E-02 0.  1.
    10030    2    1    2    0    0  0.00000000000E+00  0.00000000000E+00 -0.59503335685E+03  0.20932895713E+04  0.20069371026E+04 0.  0.
        5    1    3    3  502    0  0.40698960258E+03 -0.68052067609E+03  0.34390516413E+03  0.86431578668E+03  0.46999998093E+01 0. -1.
       -5    1    3    3    0  502 -0.40698960258E+03  0.68052067609E+03 -0.93893852098E+03  0.12289737847E+04  0.46999998093E+01 0.  1.
</event>
<event>
 5   0  0.7843846E-05  0.2016132E+04  0.7818609E-02  0.8599116E-01
        2   -1    0    0  501    0  0.00000000000E+00  0.00000000000E+00  0.19702675022E+04  0.19702675022E+04  0.25500000920E-02 0.  1.
       -2   -1    0    0    0  501  0.00000000000E+00  0.00000000000E+00 -0.51576588972E+03  0.51576588973E+03  0.25500000920E-02 0. -1.
    10030    2    1    2    0    0  0.00000000000E+00  0.00000000000E+00  0.14545016125E+04  0.24860333919E+04  0.20161317132E+04 0.  0.
        2    1    3    3  502    0 -0.37169257420E+03 -0.12624833061E+02 -0.42807941186E+03  0.56706854876E+03  0.25500000920E-02 0. -1.
       -2    1    3    3    0  502  0.37169257420E+03  0.12624833061E+02  0.18825810243E+04  0.19189648432E+04  0.25500000920E-02 0.  1.
</event>
<event>
 5   0  0.3818907E-05  0.2014666E+04  0.7818609E-02  0.8599794E-01
        1   -1    0    0  501    0  0.00000000000E+00  0.00000000000E+00  0.90442815442E+03  0.90442815444E+03  0.50400001928E-02 0.  1.
       -1   -1    0    0    0  501  0.00000000000E+00  0.00000000000E+00 -0.11219461683E+04  0.11219461683E+04  0.50400001928E-02 0. -1.
    10030    2    1    2    0    0  0.00000000000E+00  0.00000000000E+00 -0.21751801391E+03  0.20263743228E+04  0.20146659300E+04 0.  0.
        1    1    3    3  502    0  0.55456600886E+03 -0.19397192716E+03 -0.93177544041E+03  0.11015325860E+04  0.50400001928E-02 0. -1.
       -1    1    3    3    0  502 -0.55456600886E+03  0.19397192716E+03  0.71425742650E+03  0.92484173675E+03  0.50400001928E-02 0.  1.
</event>
<event>
 5   0  0.3970042E-05  0.2008774E+04  0.7818609E-02  0.8602529E-01
       -1   -1    0    0    0  501  0.00000000000E+00  0.00000000000E+00  0.55627854636E+03  0.55627854638E+03  0.50400001928E-02 0. -1.
        1   -1    0    0  501    0  0.00000000000E+00  0.00000000000E+00 -0.18134684393E+04  0.18134684393E+04  0.50400001928E-02 0.  1.
    10030    2    1    2    0    0  0.00000000000E+00  0.00000000000E+00 -0.12571898929E+04  0.23697469857E+04  0.20087743401E+04 0.  0.
        3    1    3    3  502    0 -0.80250096654E+03  0.56138206048E+02  0.80828636995E+02  0.80851257148E+03  0.10100000352E+00 0. -1.
       -3    1    3    3    0  502  0.80250096654E+03 -0.56138206048E+02 -0.13380185299E+04  0.15612344142E+04  0.10100000352E+00 0.  1.
</event>
<event>
 5   0  0.7857136E-05  0.2012449E+04  0.7818609E-02  0.8600822E-01
       -2   -1    0    0    0  501  0.00000000000E+00  0.00000000000E+00  0.97215605519E+03  0.97215605519E+03  0.25500000920E-02 0. -1.
        2   -1    0    0  501    0  0.00000000000E+00  0.00000000000E+00 -0.10414869358E+04  0.10414869358E+04  0.25500000920E-02 0.  1.
    10030    2    1    2    0    0  0.00000000000E+00  0.00000000000E+00 -0.69330880601E+02  0.20136429910E+04  0.20124490861E+04 0.  0.
        4    1    3    3  502    0  0.82775344870E+02  0.95300813493E+03  0.27762539892E+03  0.99606914317E+03  0.12699999809E+01 0. -1.
       -4    1    3    3    0  502 -0.82775344870E+02 -0.95300813493E+03 -0.34695627952E+03  0.10175738478E+04  0.12699999809E+01 0.  1.
</event>
<event>
 5   0  0.7857136E-05  0.1974767E+04  0.7818609E-02  0.8618509E-01
       -2   -1    0    0    0  501  0.00000000000E+00  0.00000000000E+00  0.13189245303E+04  0.13189245303E+04  0.25500000920E-02 0.  1.
        2   -1    0    0  501    0  0.00000000000E+00  0.00000000000E+00 -0.73918301255E+03  0.73918301255E+03  0.25500000920E-02 0. -1.
    10030    2    1    2    0    0  0.00000000000E+00  0.00000000000E+00  0.57974151771E+03  0.20581075428E+04  0.19747674370E+04 0.  0.
        4    1    3    3  502    0  0.80769251712E+03 -0.46036741522E+03  0.63650241214E+03  0.11266952972E+04  0.12699999809E+01 0.  1.
       -4    1    3    3    0  502 -0.80769251712E+03  0.46036741522E+03 -0.56760894427E+02  0.93141224560E+03  0.12699999809E+01 0. -1.
</event>
<event>
 5   0  0.8022574E-05  0.1801402E+04  0.7818609E-02  0.8705554E-01
       -2   -1    0    0    0  501  0.00000000000E+00  0.00000000000E+00  0.81259441105E+03  0.81259441105E+03  0.25500000920E-02 0.  1.
        2   -1    0    0  501    0  0.00000000000E+00  0.00000000000E+00 -0.99836048045E+03  0.99836048045E+03  0.25500000920E-02 0. -1.
    10030    2    1    2    0    0  0.00000000000E+00  0.00000000000E+00 -0.18576606940E+03  0.18109548915E+04  0.18014018393E+04 0.  0.
        1    1    3    3  502    0 -0.51649171267E+03  0.23288573821E+03 -0.79678382522E+03  0.97768293453E+03  0.50400001928E-02 0. -1.
       -1    1    3    3    0  502  0.51649171267E+03 -0.23288573821E+03  0.61101775582E+03  0.83327195697E+03  0.50400001928E-02 0.  1.
</event>
<event>
 5   0  0.8011197E-05  0.2027451E+04  0.7818609E-02  0.8593893E-01
       -2   -1    0    0    0  501  0.00000000000E+00  0.00000000000E+00  0.78448358746E+03  0.78448358746E+03  0.25500000920E-02 0.  1.
        2   -1    0    0  501    0  0.00000000000E+00  0.00000000000E+00 -0.13099571422E+04  0.13099571422E+04  0.25500000920E-02 0. -1.
    10030    2    1    2    0    0  0.00000000000E+00  0.00000000000E+00 -0.52547355474E+03  0.20944407297E+04  0.20274514824E+04 0.  0.
        5    1    3    3  502    0  0.92585589183E+03 -0.29623476914E+03 -0.55973136681E+03  0.11217332410E+04  0.46999998093E+01 0.  1.
       -5    1    3    3    0  502 -0.92585589183E+03  0.29623476914E+03  0.34257812067E+02  0.97270748870E+03  0.46999998093E+01 0. -1.
</event>
<event>
 5   0  0.3970042E-05  0.2000753E+04  0.7818609E-02  0.8606269E-01
       -1   -1    0    0    0  501  0.00000000000E+00  0.00000000000E+00  0.92540328203E+03  0.92540328205E+03  0.50400001928E-02 0.  1.
        1   -1    0    0  501    0  0.00000000000E+00  0.00000000000E+00 -0.10814238869E+04  0.10814238869E+04  0.50400001928E-02 0. -1.
    10030    2    1    2    0    0  0.00000000000E+00  0.00000000000E+00 -0.15602060489E+03  0.20068271690E+04  0.20007530725E+04 0.  0.
        3    1    3    3  502    0 -0.41239106506E+03  0.91141915104E+03 -0.79409036790E+02  0.10035223290E+04  0.10100000352E+00 0.  1.
       -3    1    3    3    0  502  0.41239106506E+03 -0.91141915104E+03 -0.76611568098E+02  0.10033048400E+04  0.10100000352E+00 0. -1.
</event>
<event>
 5   0  0.3818907E-05  0.2103233E+04  0.7818609E-02  0.8559821E-01
       -1   -1    0    0    0  501  0.00000000000E+00  0.00000000000E+00  0.86275810861E+03  0.86275810863E+03  0.50400001928E-02 0. -1.
        1   -1    0    0  501    0  0.00000000000E+00  0.00000000000E+00 -0.12818161619E+04  0.12818161619E+04  0.50400001928E-02 0.  1.
    10030    2    1    2    0    0  0.00000000000E+00  0.00000000000E+00 -0.41905805326E+03  0.21445742705E+04  0.21032330232E+04 0.  0.
        1    1    3    3  502    0  0.10328241258E+04  0.19182053847E+03 -0.15982151515E+03  0.10625740965E+04  0.50400001928E-02 0.  1.
       -1    1    3    3    0  502 -0.10328241258E+04 -0.19182053847E+03 -0.25923653811E+03  0.10820001740E+04  0.50400001928E-02 0. -1.
</event>
<event>
 5   0  0.7843846E-05  0.2051750E+04  0.7818609E-02  0.8582801E-01
        2   -1    0    0  501    0  0.00000000000E+00  0.00000000000E+00  0.72036980487E+03  0.72036980488E+03  0.25500000920E-02 0.  1.
       -2   -1    0    0    0  501  0.00000000000E+00  0.00000000000E+00 -0.14609432969E+04  0.14609432969E+04  0.25500000920E-02 0. -1.
    10030    2    1    2    0    0  0.00000000000E+00  0.00000000000E+00 -0.74057349205E+03  0.21813131018E+04  0.20517499241E+04 0.  0.
        2    1    3    3  502    0 -0.39819575086E+03  0.63041869162E+03  0.37878497628E+03  0.83634062499E+03  0.25500000920E-02 0.  1.
       -2    1    3    3    0  502  0.39819575086E+03 -0.63041869162E+03 -0.11193584683E+04  0.13449724768E+04  0.25500000920E-02 0. -1.
</event>
<event>
 5   0  0.3549426E-05  0.2013053E+04  0.7818609E-02  0.8600542E-01
       -1   -1    0    0    0  501  0.00000000000E+00  0.00000000000E+00  0.90721317481E+03  0.90721317482E+03  0.50400001928E-02 0.  1.
        1   -1    0    0  501    0  0.00000000000E+00  0.00000000000E+00 -0.11167119861E+04  0.11167119861E+04  0.50400001928E-02 0. -1.
    10030    2    1    2    0    0  0.00000000000E+00  0.00000000000E+00 -0.20949881132E+03  0.20239251610E+04  0.20130532296E+04 0.  0.
        5    1    3    3  502    0 -0.75591110243E+03 -0.21104128983E+03  0.52883950905E+03  0.94637906630E+03  0.46999998093E+01 0.  1.
       -5    1    3    3    0  502  0.75591110243E+03  0.21104128983E+03 -0.73833832037E+03  0.10775460947E+04  0.46999998093E+01 0. -1.
</event>
<event>
 5   0  0.3818907E-05  0.2013580E+04  0.7818609E-02  0.8600298E-01
       -1   -1    0    0    0  501  0.00000000000E+00  0.00000000000E+00  0.10937592125E+04  0.10937592125E+04  0.50400001928E-02 0. -1.
        1   -1    0    0  501    0  0.00000000000E+00  0.00000000000E+00 -0.92673638140E+03  0.92673638141E+03  0.50400001928E-02 0.  1.
    10030    2    1    2    0    0  0.00000000000E+00  0.00000000000E+00  0.16702283110E+03  0.20204955939E+04  0.20135803483E+04 0.  0.
        1    1    3    3  502    0 -0.82176421772E+02  0.99929469092E+03  0.17483833207E+03  0.10177972716E+04  0.50400001928E-02 0.  1.
       -1    1    3    3    0  502  0.82176421772E+02 -0.99929469092E+03 -0.78155009695E+01  0.10026983224E+04  0.50400001928E-02 0. -1.
</event>
<event>
 5   0  0.3772949E-05  0.2017383E+04  0.7818609E-02  0.8598536E-01
       -1   -1    0    0    0  501  0.00000000000E+00  0.00000000000E+00  0.60513227533E+03  0.60513227536E+03  0.50400001928E-02 0. -1.
        1   -1    0    0  501    0  0.00000000000E+00  0.00000000000E+00 -0.16813827433E+04  0.16813827433E+04  0.50400001928E-02 0.  1.
    10030    2    1    2    0    0  0.00000000000E+00  0.00000000000E+00 -0.10762504680E+04  0.22865150187E+04  0.20173834194E+04 0.  0.
        2    1    3    3  502    0  0.95299455858E+03  0.27235532974E+03 -0.75041713271E+03  0.12431821779E+04  0.25500000920E-02 0.  1.
       -2    1    3    3    0  502 -0.95299455858E+03 -0.27235532974E+03 -0.32583333528E+03  0.10433328408E+04  0.25500000920E-02 0. -1.
</event>
<event>
 5   0  0.7843846E-05  0.1965948E+04  0.7818609E-02  0.8622709E-01
        2   -1    0    0  501    0  0.00000000000E+00  0.00000000000E+00  0.18946236768E+04  0.18946236768E+04  0.25500000920E-02 0. -1.
       -2   -1    0    0    0  501  0.00000000000E+00  0.00000000000E+00 -0.50998929074E+03  0.50998929074E+03  0.25500000920E-02 0.  1.
    10030    2    1    2    0    0  0.00000000000E+00  0.00000000000E+00  0.13846343861E+04  0.24046129676E+04  0.19659478988E+04 0.  0.
        2    1    3    3  502    0 -0.89533618501E+03 -0.27072052754E+02  0.11874634665E+04  0.14874237004E+04  0.25500000920E-02 0.  1.
       -2    1    3    3    0  502  0.89533618501E+03  0.27072052754E+02  0.19717091956E+03  0.91718926714E+03  0.25500000920E-02 0. -1.
</event>
<event>
 5   0  0.7935008E-05  0.2014409E+04  0.7818609E-02  0.8599913E-01
        2   -1    0    0  501    0  0.00000000000E+00  0.00000000000E+00  0.16407885694E+04  0.16407885694E+04  0.25500000920E-02 0.  1.
       -2   -1    0    0    0  501  0.00000000000E+00  0.00000000000E+00 -0.61827667951E+03  0.61827667952E+03  0.25500000920E-02 0. -1.
    10030    2    1    2    0    0  0.00000000000E+00  0.00000000000E+00  0.10225118899E+04  0.22590652489E+04  0.20144094008E+04 0.  0.
        3    1    3    3  502    0 -0.31258841361E+03  0.85756858629E+03  0.98879726806E+03  0.13456802904E+04  0.10100000352E+00 0.  1.
       -3    1    3    3    0  502  0.31258841361E+03 -0.85756858629E+03  0.33714621849E+02  0.91338495851E+03  0.10100000352E+00 0. -1.
</event>
<event>
 5   0  0.3549426E-05  0.2005417E+04  0.7818609E-02  0.8604092E-01
        1   -1    0    0  501    0  0.00000000000E+00  0.00000000000E+00  0.18456429894E+04  0.18456429894E+04  0.50400001928E-02 0. -1.
       -1   -1    0    0    0  501  0.00000000000E+00  0.00000000000E+00 -0.54475568040E+03  0.54475568042E+03  0.50400001928E-02 0.  1.
    10030    2    1    2    0    0  0.00000000000E+00  0.00000000000E+00  0.13008873090E+04  0.23903986698E+04  0.20054171661E+04 0.  0.
        5    1    3    3  502    0  0.39560458430E+03 -0.14837311880E+03  0.17343409333E+04  0.17850709041E+04  0.46999998093E+01 0. -1.
       -5    1    3    3    0  502 -0.39560458430E+03  0.14837311880E+03 -0.43345362436E+03  0.60532776574E+03  0.46999998093E+01 0.  1.
</event>
<event>
 5   0  0.3818907E-05  0.1995075E+04  0.7818609E-02  0.8608927E-01
       -1   -1    0    0    0  501  0.00000000000E+00  0.00000000000E+00  0.13591644217E+04  0.13591644217E+04  0.50400001928E-02 0.  1.
        1   -1    0    0  501    0  0.00000000000E+00  0.00000000000E+00 -0.73212687133E+03  0.73212687134E+03  0.50400001928E-02 0. -1.
    10030    2    1    2    0    0  0.00000000000E+00  0.00000000000E+00  0.62703755041E+03  0.20912912931E+04  0.19950747312E+04 0.  0.
        1    1    3    3  502    0 -0.21099130910E+03 -0.39212254712E+02  0.13346801636E+04  0.13518232401E+04  0.50400001928E-02 0.  1.
       -1    1    3    3    0  502  0.21099130910E+03  0.39212254712E+02 -0.70764261315E+03  0.73946805300E+03  0.50400001928E-02 0. -1.
</event>
<event>
 5   0  0.3970042E-05  0.1995771E+04  0.7818609E-02  0.8608600E-01
        1   -1    0    0  501    0  0.00000000000E+00  0.00000000000E+00  0.14047888525E+04  0.14047888526E+04  0.50400001928E-02 0. -1.
       -1   -1    0    0    0  501  0.00000000000E+00  0.00000000000E+00 -0.70884377491E+03  0.70884377493E+03  0.50400001928E-02 0.  1.
    10030    2    1    2    0    0  0.00000000000E+00  0.00000000000E+00  0.69594507763E+03  0.21136326275E+04  0.19957713629E+04 0.  0.
        3    1    3    3  502    0 -0.52612495783E+03  0.40370560671E+03 -0.44170950080E+03  0.79680172028E+03  0.10100000352E+00 0.  1.
       -3    1    3    3    0  502  0.52612495783E+03 -0.40370560671E+03  0.11376545784E+04  0.13168309072E+04  0.10100000352E+00 0. -1.
</event>
<event>
 5   0  0.8011197E-05  0.1993328E+04  0.7818609E-02  0.8609747E-01
       -2   -1    0    0    0  501  0.00000000000E+00  0.00000000000E+00  0.88584565411E+03  0.88584565411E+03  0.25500000920E-02 0. -1.
        2   -1    0    0  501    0  0.00000000000E+00  0.00000000000E+00 -0.11213450917E+04  0.11213450917E+04  0.25500000920E-02 0.  1.
    10030    2    1    2    0    0  0.00000000000E+00  0.00000000000E+00 -0.23549943762E+03  0.20071907458E+04  0.19933275459E+04 0.  0.
        5    1    3    3  502    0  0.49317365136E+03  0.85171453917E+03  0.40437335135E+02  0.98503562103E+03  0.46999998093E+01 0.  1.
       -5    1    3    3    0  502 -0.49317365136E+03 -0.85171453917E+03 -0.27593677275E+03  0.10221551248E+04  0.46999998093E+01 0. -1.
</event>
<event>
 5   0  0.2859625E-05  0.1997793E+04  0.7818609E-02  0.8607653E-01
        3   -1    0    0  501    0  0.00000000000E+00  0.00000000000E+00  0.10368901414E+04  0.10368901463E+04  0.10100000352E+00 0.  1.
       -3   -1    0    0    0  501  0.00000000000E+00  0.00000000000E+00 -0.96229518072E+03  0.96229518602E+03  0.10100000352E+00 0. -1.
    10030    2    1    2    0    0  0.00000000000E+00  0.00000000000E+00  0.74594960697E+02  0.19991853324E+04  0.19977931787E+04 0.  0.
        2    1    3    3  502    0 -0.10297051201E+02  0.10294051955E+03 -0.95691969758E+03  0.96249575970E+03  0.25500000920E-02 0. -1.
       -2    1    3    3    0  502  0.10297051201E+02 -0.10294051955E+03  0.10315146583E+04  0.10366895727E+04  0.25500000920E-02 0.  1.
</event>
<event>
 5   0  0.7843846E-05  0.2001593E+04  0.7818609E-02  0.8605876E-01
       -2   -1    0    0    0  501  0.00000000000E+00  0.00000000000E+00  0.51818476252E+03  0.51818476253E+03  0.25500000920E-02 0. -1.
        2   -1    0    0  501    0  0.00000000000E+00  0.00000000000E+00 -0.19328894060E+04  0.19328894060E+04  0.25500000920E-02 0.  1.
    10030    2    1    2    0    0  0.00000000000E+00  0.00000000000E+00 -0.14147046435E+04  0.24510741686E+04  0.20015932033E+04 0.  0.
        2    1    3    3  502    0 -0.91850549842E+03 -0.23026643492E+03 -0.11040022765E+04  0.14544744783E+04  0.25500000920E-02 0.  1.
       -2    1    3    3    0  502  0.91850549842E+03  0.23026643492E+03 -0.31070236704E+03  0.99659969023E+03  0.25500000920E-02 0. -1.
</event>
<event>
 5   0  0.7843846E-05  0.1958285E+04  0.7818609E-02  0.8626376E-01
       -2   -1    0    0    0  501  0.00000000000E+00  0.00000000000E+00  0.53278160831E+03  0.53278160832E+03  0.25500000920E-02 0. -1.
        2   -1    0    0  501    0  0.00000000000E+00  0.00000000000E+00 -0.17994623301E+04  0.17994623301E+04  0.25500000920E-02 0.  1.
    10030    2    1    2    0    0  0.00000000000E+00  0.00000000000E+00 -0.12666807218E+04  0.23322439385E+04  0.19582854076E+04 0.  0.
        2    1    3    3  502    0 -0.27185358292E+03 -0.31859251005E+03 -0.16874023990E+04  0.17386007058E+04  0.25500000920E-02 0.  1.
       -2    1    3    3    0  502  0.27185358292E+03  0.31859251005E+03  0.42072167720E+03  0.59364323265E+03  0.25500000920E-02 0. -1.
</event>
<event>
 5   0  0.8011197E-05  0.1993976E+04  0.7818609E-02  0.8609442E-01
       -2   -1    0    0    0  501  0.00000000000E+00  0.00000000000E+00  0.74879943000E+03  0.74879943000E+03  0.25500000920E-02 0.  1.
        2   -1    0    0  501    0  0.00000000000E+00  0.00000000000E+00 -0.13274384148E+04  0.13274384148E+04  0.25500000920E-02 0. -1.
    10030    2    1    2    0    0  0.00000000000E+00  0.00000000000E+00 -0.57863898477E+03  0.20762378448E+04  0.19939760564E+04 0.  0.
        5    1    3    3  502    0 -0.51124449059E+02 -0.98608558369E+03 -0.14585073877E+03  0.99813476828E+03  0.46999998093E+01 0. -1.
       -5    1    3    3    0  502  0.51124449059E+02  0.98608558369E+03 -0.43278824600E+03  0.10781030765E+04  0.46999998093E+01 0.  1.
</event>
<event>
 5   0  0.8022574E-05  0.1942890E+04  0.7818609E-02  0.8633797E-01
       -2   -1    0    0    0  501  0.00000000000E+00  0.00000000000E+00  0.37539390445E+03  0.37539390445E+03  0.25500000920E-02 0. -1.
        2   -1    0    0  501    0  0.00000000000E+00  0.00000000000E+00 -0.25139068289E+04  0.25139068289E+04  0.25500000920E-02 0.  1.
    10030    2    1    2    0    0  0.00000000000E+00  0.00000000000E+00 -0.21385129244E+04  0.28893007333E+04  0.19428899093E+04 0.  0.
        1    1    3    3  502    0 -0.36896167041E+03  0.26477354102E+03 -0.23463303205E+04  0.23898752510E+04  0.50400001928E-02 0.  1.
       -1    1    3    3    0  502  0.36896167041E+03 -0.26477354102E+03  0.20781739610E+03  0.49942548233E+03  0.50400001928E-02 0. -1.
</event>
<event>
 5   0  0.7843846E-05  0.1995273E+04  0.7818609E-02  0.8608834E-01
       -2   -1    0    0    0  501  0.00000000000E+00  0.00000000000E+00  0.79245911450E+03  0.79245911451E+03  0.25500000920E-02 0. -1.
        2   -1    0    0  501    0  0.00000000000E+00  0.00000000000E+00 -0.12559365870E+04  0.12559365870E+04  0.25500000920E-02 0.  1.
    10030    2    1    2    0    0  0.00000000000E+00  0.00000000000E+00 -0.46347747251E+03  0.20483957015E+04  0.19952728090E+04 0.  0.
        2    1    3    3  502    0  0.90585663972E+03  0.85405758415E+02  0.18830999381E+03  0.92915609511E+03  0.25500000920E-02 0. -1.
       -2    1    3    3    0  502 -0.90585663972E+03 -0.85405758415E+02 -0.65178746633E+03  0.11192396064E+04  0.25500000920E-02 0.  1.
</event>
<event>
 5   0  0.8022574E-05  0.1999138E+04  0.7818609E-02  0.8607024E-01
       -2   -1    0    0    0  501  0.00000000000E+00  0.00000000000E+00  0.11348936518E+04  0.11348936518E+04  0.25500000920E-02 0. -1.
        2   -1    0    0  501    0  0.00000000000E+00  0.00000000000E+00 -0.88038077949E+03  0.88038077949E+03  0.25500000920E-02 0.  1.
    10030    2    1    2    0    0  0.00000000000E+00  0.00000000000E+00  0.25451287235E+03  0.20152744313E+04  0.19991383723E+04 0.  0.
        1    1    3    3  502    0 -0.54001007947E+03  0.29422258141E+03  0.92162749394E+03  0.11079598598E+04  0.50400001928E-02 0. -1.
       -1    1    3    3    0  502  0.54001007947E+03 -0.29422258141E+03 -0.66711462159E+03  0.90731457153E+03  0.50400001928E-02 0.  1.
</event>
<event>
 5   0  0.3787698E-05  0.1964596E+04  0.7818609E-02  0.8623355E-01
       -1   -1    0    0    0  501  0.00000000000E+00  0.00000000000E+00  0.10001996615E+04  0.10001996615E+04  0.50400001928E-02 0. -1.
        1   -1    0    0  501    0  0.00000000000E+00  0.00000000000E+00 -0.96471626988E+03  0.96471626990E+03  0.50400001928E-02 0.  1.
    10030    2    1    2    0    0  0.00000000000E+00  0.00000000000E+00  0.35483391578E+02  0.19649159314E+04  0.19645955172E+04 0.  0.
        4    1    3    3  502    0  0.21774387096E+03 -0.72063515185E+02  0.97304234827E+03  0.99970924173E+03  0.12699999809E+01 0. -1.
       -4    1    3    3    0  502 -0.21774387096E+03  0.72063515185E+02 -0.93755895670E+03  0.96520668965E+03  0.12699999809E+01 0.  1.
</event>
<event>
 5   0  0.3787698E-05  0.1998420E+04  0.7818609E-02  0.8607360E-01
       -1   -1    0    0    0  501  0.00000000000E+00  0.00000000000E+00  0.96487049660E+03  0.96487049662E+03  0.50400001928E-02 0.  1.
        1   -1    0    0  501    0  0.00000000000E+00  0.00000000000E+00 -0.10347713954E+04  0.10347713954E+04  0.50400001928E-02 0. -1.
    10030    2    1    2    0    0  0.00000000000E+00  0.00000000000E+00 -0.69900898781E+02  0.19996418920E+04  0.19984197659E+04 0.  0.
        4    1    3    3  502    0 -0.79967596444E+03  0.59213357567E+03  0.56291705315E+02  0.99663142060E+03  0.12699999809E+01 0.  1.
       -4    1    3    3    0  502  0.79967596444E+03 -0.59213357567E+03 -0.12619260410E+03  0.10030104714E+04  0.12699999809E+01 0. -1.
</event>
<event>
 5   0  0.3787698E-05  0.1995981E+04  0.7818609E-02  0.8608502E-01
        1   -1    0    0  501    0  0.00000000000E+00  0.00000000000E+00  0.21782144725E+04  0.21782144725E+04  0.50400001928E-02 0.  1.
       -1   -1    0    0    0  501  0.00000000000E+00  0.00000000000E+00 -0.45724845627E+03  0.45724845630E+03  0.50400001928E-02 0. -1.
    10030    2    1    2    0    0  0.00000000000E+00  0.00000000000E+00  0.17209660162E+04  0.26354629288E+04  0.19959811673E+04 0.  0.
        4    1    3    3  502    0 -0.92679374959E+03  0.29424989195E+03  0.11570672081E+04  0.15114019288E+04  0.12699999809E+01 0.  1.
       -4    1    3    3    0  502  0.92679374959E+03 -0.29424989195E+03  0.56389880810E+03  0.11240610001E+04  0.12699999809E+01 0. -1.
</event>
<event>
 5   0  0.7857136E-05  0.2005444E+04  0.7818609E-02  0.8604080E-01
       -2   -1    0    0    0  501  0.00000000000E+00  0.00000000000E+00  0.53549844417E+03  0.53549844418E+03  0.25500000920E-02 0.  1.
        2   -1    0    0  501    0  0.00000000000E+00  0.00000000000E+00 -0.18775984093E+04  0.18775984093E+04  0.25500000920E-02 0. -1.
    10030    2    1    2    0    0  0.00000000000E+00  0.00000000000E+00 -0.13420999651E+04  0.24130968535E+04  0.20054436187E+04 0.  0.
        4    1    3    3  502    0 -0.46293160726E+03  0.40814921151E+03  0.27988466506E+03  0.67766399528E+03  0.12699999809E+01 0.  1.
       -4    1    3    3    0  502  0.46293160726E+03 -0.40814921151E+03 -0.16219846302E+04  0.17354328582E+04  0.12699999809E+01 0. -1.
</event>
<event>
 5   0  0.3549426E-05  0.1991294E+04  0.7818609E-02  0.8610702E-01
        1   -1    0    0  501    0  0.00000000000E+00  0.00000000000E+00  0.99153696154E+03  0.99153696155E+03  0.50400001928E-02 0. -1.
       -1   -1    0    0    0  501  0.00000000000E+00  0.00000000000E+00 -0.99977361436E+03  0.99977361437E+03  0.50400001928E-02 0.  1.
    10030    2    1    2    0    0  0.00000000000E+00  0.00000000000E+00 -0.82366528179E+01  0.19913105759E+04  0.19912935412E+04 0.  0.
        5    1    3    3  502    0  0.16918912233E+03 -0.39737064627E+03  0.89297463481E+03  0.99194464465E+03  0.46999998093E+01 0. -1.
       -5    1    3    3    0  502 -0.16918912233E+03  0.39737064627E+03 -0.90121128763E+03  0.99936593127E+03  0.46999998093E+01 0.  1.
</event>
<event>
 5   0  0.3772949E-05  0.2009266E+04  0.7818609E-02  0.8602301E-01
       -1   -1    0    0    0  501  0.00000000000E+00  0.00000000000E+00  0.70306998292E+03  0.70306998294E+03  0.50400001928E-02 0.  1.
        1   -1    0    0  501    0  0.00000000000E+00  0.00000000000E+00 -0.14355439413E+04  0.14355439413E+04  0.50400001928E-02 0. -1.
    10030    2    1    2    0    0  0.00000000000E+00  0.00000000000E+00 -0.73247395839E+03  0.21386139243E+04  0.20092663878E+04 0.  0.
        2    1    3    3  502    0  0.14894179875E+03  0.93490991590E+03 -0.83667026101E+01  0.94673661172E+03  0.25500000920E-02 0.  1.
       -2    1    3    3    0  502 -0.14894179875E+03 -0.93490991590E+03 -0.72410725578E+03  0.11918773125E+04  0.25500000920E-02 0. -1.
</event>
<event>
 5   0  0.3787698E-05  0.1975929E+04  0.7818609E-02  0.8617958E-01
        1   -1    0    0  501    0  0.00000000000E+00  0.00000000000E+00  0.87629066332E+03  0.87629066334E+03  0.50400001928E-02 0.  1.
       -1   -1    0    0    0  501  0.00000000000E+00  0.00000000000E+00 -0.11138697765E+04  0.11138697765E+04  0.50400001928E-02 0. -1.
    10030    2    1    2    0    0  0.00000000000E+00  0.00000000000E+00 -0.23757911322E+03  0.19901604399E+04  0.19759288301E+04 0.  0.
        4    1    3    3  502    0  0.45887189415E+03 -0.79338617470E+03 -0.49029170693E+03  0.10394289818E+04  0.12699999809E+01 0. -1.
       -4    1    3    3    0  502 -0.45887189415E+03  0.79338617470E+03  0.25271259371E+03  0.95073145807E+03  0.12699999809E+01 0.  1.
</event>
<event>
 5   0  0.3787698E-05  0.1908228E+04  0.7818609E-02  0.8650772E-01
        1   -1    0    0  501    0  0.00000000000E+00  0.00000000000E+00  0.98765131670E+03  0.98765131671E+03  0.50400001928E-02 0. -1.
       -1   -1    0    0    0  501  0.00000000000E+00  0.00000000000E+00 -0.92171546664E+03  0.92171546665E+03  0.50400001928E-02 0.  1.
    10030    2    1    2    0    0  0.00000000000E+00  0.00000000000E+00  0.65935850058E+02  0.19093667834E+04  0.19082279678E+04 0.  0.
        4    1    3    3  502    0  0.28145767139E+03 -0.63899092457E+03 -0.61765397887E+03  0.93221557216E+03  0.12699999809E+01 0.  1.
       -4    1    3    3    0  502 -0.28145767139E+03  0.63899092457E+03  0.68358982893E+03  0.97715121121E+03  0.12699999809E+01 0. -1.
</event>
<event>
 5   0  0.7935008E-05  0.2040979E+04  0.7818609E-02  0.8587698E-01
       -2   -1    0    0    0  501  0.00000000000E+00  0.00000000000E+00  0.16343891519E+04  0.16343891519E+04  0.25500000920E-02 0.  1.
        2   -1    0    0  501    0  0.00000000000E+00  0.00000000000E+00 -0.63717911291E+03  0.63717911292E+03  0.25500000920E-02 0. -1.
    10030    2    1    2    0    0  0.00000000000E+00  0.00000000000E+00  0.99721003895E+03  0.22715682648E+04  0.20409788141E+04 0.  0.
        3    1    3    3  502    0 -0.14431078396E+03  0.65287332258E+03  0.13566319489E+04  0.15124547705E+04  0.10100000352E+00 0.  1.
       -3    1    3    3    0  502  0.14431078396E+03 -0.65287332258E+03 -0.35942190995E+03  0.75911349432E+03  0.10100000352E+00 0. -1.
</event>
<event>
 5   0  0.3772949E-05  0.1988398E+04  0.7818609E-02  0.8612064E-01
        1   -1    0    0  501    0  0.00000000000E+00  0.00000000000E+00  0.11252781882E+04  0.11252781883E+04  0.50400001928E-02 0.  1.
       -1   -1    0    0    0  501  0.00000000000E+00  0.00000000000E+00 -0.87838843140E+03  0.87838843141E+03  0.50400001928E-02 0. -1.
    10030    2    1    2    0    0  0.00000000000E+00  0.00000000000E+00  0.24688975685E+03  0.20036666197E+04  0.19883976893E+04 0.  0.
        2    1    3    3  502    0  0.33551407074E+03 -0.93394541014E+03  0.62920168056E+02  0.99437551677E+03  0.25500000920E-02 0. -1.
       -2    1    3    3    0  502 -0.33551407074E+03  0.93394541014E+03  0.18396958880E+03  0.10092911029E+04  0.25500000920E-02 0.  1.
</event>
<event>
 5   0  0.7935008E-05  0.1991127E+04  0.7818609E-02  0.8610781E-01
       -2   -1    0    0    0  501  0.00000000000E+00  0.00000000000E+00  0.31617722160E+03  0.31617722161E+03  0.25500000920E-02 0. -1.
        2   -1    0    0  501    0  0.00000000000E+00  0.00000000000E+00 -0.31347806727E+04  0.31347806727E+04  0.25500000920E-02 0.  1.
    10030    2    1    2    0    0  0.00000000000E+00  0.00000000000E+00 -0.28186034511E+04  0.34509578943E+04  0.19911265589E+04 0.  0.
        3    1    3    3  502    0  0.50819734580E+03  0.17616166335E+03  0.42684723993E+02  0.53955488115E+03  0.10100000352E+00 0. -1.
       -3    1    3    3    0  502 -0.50819734580E+03 -0.17616166335E+03 -0.28612881751E+04  0.29114030131E+04  0.10100000352E+00 0.  1.
</event>
<event>
 5   0  0.3549426E-05  0.1963431E+04  0.7818609E-02  0.8623911E-01
        1   -1    0    0  501    0  0.00000000000E+00  0.00000000000E+00  0.17387642640E+04  0.17387642640E+04  0.50400001928E-02 0. -1.
       -1   -1    0    0    0  501  0.00000000000E+00  0.00000000000E+00 -0.55428179283E+03  0.55428179285E+03  0.50400001928E-02 0.  1.
    10030    2    1    2    0    0  0.00000000000E+00  0.00000000000E+00  0.11844824712E+04  0.22930460569E+04  0.19634310516E+04 0.  0.
        5    1    3    3  502    0 -0.16034235845E+03 -0.96723843091E+03  0.53404122870E+03  0.11164595730E+04  0.46999998093E+01 0. -1.
       -5    1    3    3    0  502  0.16034235845E+03  0.96723843091E+03  0.65044124248E+03  0.11765864839E+04  0.46999998093E+01 0.  1.
</event>
<event>
 5   0  0.7935008E-05  0.1987857E+04  0.7818609E-02  0.8612319E-01
        2   -1    0    0  501    0  0.00000000000E+00  0.00000000000E+00  0.12451235374E+04  0.12451235374E+04  0.25500000920E-02 0. -1.
       -2   -1    0    0    0  501  0.00000000000E+00  0.00000000000E+00 -0.79341017677E+03  0.79341017678E+03  0.25500000920E-02 0.  1.
    10030    2    1    2    0    0  0.00000000000E+00  0.00000000000E+00  0.45171336058E+03  0.20385337141E+04  0.19878568217E+04 0.  0.
        3    1    3    3  502    0  0.34084445601E+03 -0.92832990450E+03  0.12370643068E+03  0.99663165010E+03  0.10100000352E+00 0.  1.
       -3    1    3    3    0  502 -0.34084445601E+03  0.92832990450E+03  0.32800692990E+03  0.10419020640E+04  0.10100000352E+00 0. -1.
</event>
<event>
 5   0  0.3970042E-05  0.1975690E+04  0.7818609E-02  0.8618072E-01
       -1   -1    0    0    0  501  0.00000000000E+00  0.00000000000E+00  0.63934856882E+03  0.63934856884E+03  0.50400001928E-02 0.  1.
        1   -1    0    0  501    0  0.00000000000E+00  0.00000000000E+00 -0.15262994812E+04  0.15262994813E+04  0.50400001928E-02 0. -1.
    10030    2    1    2    0    0  0.00000000000E+00  0.00000000000E+00 -0.88695091243E+03  0.21656480501E+04  0.19756896406E+04 0.  0.
        3    1    3    3  502    0 -0.91543909145E+03  0.36340820470E+03 -0.36040562960E+03  0.10488024034E+04  0.10100000352E+00 0. -1.
       -3    1    3    3    0  502  0.91543909145E+03 -0.36340820470E+03 -0.52654528283E+03  0.11168456467E+04  0.10100000352E+00 0.  1.
</event>
<event>
 5   0  0.3549426E-05  0.2004659E+04  0.7818609E-02  0.8604445E-01
        1   -1    0    0  501    0  0.00000000000E+00  0.00000000000E+00  0.22881042600E+04  0.22881042601E+04  0.50400001928E-02 0.  1.
       -1   -1    0    0    0  501  0.00000000000E+00  0.00000000000E+00 -0.43908170146E+03  0.43908170149E+03  0.50400001928E-02 0. -1.
    10030    2    1    2    0    0  0.00000000000E+00  0.00000000000E+00  0.18490225586E+04  0.27271859615E+04  0.20046592844E+04 0.  0.
        5    1    3    3  502    0 -0.83463985649E+03 -0.54494817372E+03  0.78150221424E+03  0.12666333341E+04  0.46999998093E+01 0. -1.
       -5    1    3    3    0  502  0.83463985649E+03  0.54494817372E+03  0.10675203444E+04  0.14605526275E+04  0.46999998093E+01 0.  1.
</event>
<event>
 5   0  0.8011197E-05  0.2000159E+04  0.7818609E-02  0.8606546E-01
       -2   -1    0    0    0  501  0.00000000000E+00  0.00000000000E+00  0.44436605168E+03  0.44436605169E+03  0.25500000920E-02 0. -1.
        2   -1    0    0  501    0  0.00000000000E+00  0.00000000000E+00 -0.22507545502E+04  0.22507545502E+04  0.25500000920E-02 0.  1.
    10030    2    1    2    0    0  0.00000000000E+00  0.00000000000E+00 -0.18063884985E+04  0.26951206019E+04  0.20001589065E+04 0.  0.
        5    1    3    3  502    0 -0.25700841732E+03  0.25469658580E+03 -0.21594464811E+04  0.21895558618E+04  0.46999998093E+01 0.  1.
       -5    1    3    3    0  502  0.25700841732E+03 -0.25469658580E+03  0.35305798254E+03  0.50556474009E+03  0.46999998093E+01 0. -1.
</event>
<event>
 5   0  0.3818907E-05  0.1999735E+04  0.7818609E-02  0.8606744E-01
        1   -1    0    0  501    0  0.00000000000E+00  0.00000000000E+00  0.95301842601E+03  0.95301842602E+03  0.50400001928E-02 0. -1.
       -1   -1    0    0    0  501  0.00000000000E+00  0.00000000000E+00 -0.10490198336E+04  0.10490198337E+04  0.50400001928E-02 0.  1.
    10030    2    1    2    0    0  0.00000000000E+00  0.00000000000E+00 -0.96001407633E+02  0.20020382597E+04  0.19997352132E+04 0.  0.
        1    1    3    3  502    0  0.88900438168E+03  0.11890112041E+03 -0.49040210036E+03  0.10222330885E+04  0.50400001928E-02 0.  1.
       -1    1    3    3    0  502 -0.88900438168E+03 -0.11890112041E+03  0.39440069273E+03  0.97980517121E+03  0.50400001928E-02 0. -1.
</event>
<event>
 5   0  0.3772949E-05  0.1957425E+04  0.7818609E-02  0.8626789E-01
       -1   -1    0    0    0  501  0.00000000000E+00  0.00000000000E+00  0.83269172709E+03  0.83269172710E+03  0.50400001928E-02 0.  1.
        1   -1    0    0  501    0  0.00000000000E+00  0.00000000000E+00 -0.11503389673E+04  0.11503389674E+04  0.50400001928E-02 0. -1.
    10030    2    1    2    0    0  0.00000000000E+00  0.00000000000E+00 -0.31764724026E+03  0.19830306945E+04  0.19574245748E+04 0.  0.
        2    1    3    3  502    0  0.96038156626E+03 -0.11308805139E+03 -0.59990656278E+01  0.96703549519E+03  0.25500000920E-02 0.  1.
       -2    1    3    3    0  502 -0.96038156626E+03  0.11308805139E+03 -0.31164817463E+03  0.10159951993E+04  0.25500000920E-02 0. -1.
</event>
<event>
 5   0  0.7843846E-05  0.1892289E+04  0.7818609E-02  0.8658704E-01
        2   -1    0    0  501    0  0.00000000000E+00  0.00000000000E+00  0.17866028558E+04  0.17866028558E+04  0.25500000920E-02 0. -1.
       -2   -1    0    0    0  501  0.00000000000E+00  0.00000000000E+00 -0.50105690160E+03  0.50105690161E+03  0.25500000920E-02 0.  1.
    10030    2    1    2    0    0  0.00000000000E+00  0.00000000000E+00  0.12855459542E+04  0.22876597574E+04  0.18922892922E+04 0.  0.
        2    1    3    3  502    0  0.35412894486E+03 -0.87688562558E+03  0.60744424082E+03  0.11239769640E+04  0.25500000920E-02 0.  1.
       -2    1    3    3    0  502 -0.35412894486E+03  0.87688562558E+03  0.67810171336E+03  0.11636827934E+04  0.25500000920E-02 0. -1.
</event>
<event>
 5   0  0.7843846E-05  0.2042282E+04  0.7818609E-02  0.8587104E-01
        2   -1    0    0  501    0  0.00000000000E+00  0.00000000000E+00  0.16776789732E+04  0.16776789732E+04  0.25500000920E-02 0.  1.
       -2   -1    0    0    0  501  0.00000000000E+00  0.00000000000E+00 -0.62153037459E+03  0.62153037460E+03  0.25500000920E-02 0. -1.
    10030    2    1    2    0    0  0.00000000000E+00  0.00000000000E+00  0.10561485986E+04  0.22992093478E+04  0.20422815091E+04 0.  0.
        2    1    3    3  502    0  0.88532245214E+03 -0.50758218783E+03  0.56855505068E+03  0.11681996265E+04  0.25500000920E-02 0. -1.
       -2    1    3    3    0  502 -0.88532245214E+03  0.50758218783E+03  0.48759354789E+03  0.11310097213E+04  0.25500000920E-02 0.  1.
</event>
<event>
 5   0  0.7857136E-05  0.2076807E+04  0.7818609E-02  0.8571530E-01
       -2   -1    0    0    0  501  0.00000000000E+00  0.00000000000E+00  0.13792108841E+04  0.13792108841E+04  0.25500000920E-02 0. -1.
        2   -1    0    0  501    0  0.00000000000E+00  0.00000000000E+00 -0.78181034580E+03  0.78181034581E+03  0.25500000920E-02 0.  1.
    10030    2    1    2    0    0  0.00000000000E+00  0.00000000000E+00  0.59740053832E+03  0.21610212299E+04  0.20768065276E+04 0.  0.
        4    1    3    3  502    0 -0.29479370541E+03 -0.62193827206E+03 -0.51036954081E+03  0.85684842539E+03  0.12699999809E+01 0.  1.
       -4    1    3    3    0  502  0.29479370541E+03  0.62193827206E+03  0.11077700791E+04  0.13041728045E+04  0.12699999809E+01 0. -1.
</event>
<event>
 5   0  0.8022574E-05  0.1997437E+04  0.7818609E-02  0.8607820E-01
       -2   -1    0    0    0  501  0.00000000000E+00  0.00000000000E+00  0.11038453319E+04  0.11038453319E+04  0.25500000920E-02 0.  1.
        2   -1    0    0  501    0  0.00000000000E+00  0.00000000000E+00 -0.90360399111E+03  0.90360399111E+03  0.25500000920E-02 0. -1.
    10030    2    1    2    0    0  0.00000000000E+00  0.00000000000E+00  0.20024134082E+03  0.20074493230E+04  0.19974374058E+04 0.  0.
        1    1    3    3  502    0  0.77917914801E+03 -0.46734325059E+03  0.51681823056E+03  0.10452898842E+04  0.50400001928E-02 0.  1.
       -1    1    3    3    0  502 -0.77917914801E+03  0.46734325059E+03 -0.31657688974E+03  0.96215943882E+03  0.50400001928E-02 0. -1.
</event>
<event>
 5   0  0.2859625E-05  0.1982854E+04  0.7818609E-02  0.8614679E-01
       -4   -1    0    0    0  501  0.00000000000E+00  0.00000000000E+00  0.10800100350E+04  0.10800107817E+04  0.12699999809E+01 0. -1.
        4   -1    0    0  501    0  0.00000000000E+00  0.00000000000E+00 -0.91010828261E+03  0.91010916871E+03  0.12699999809E+01 0.  1.
    10030    2    1    2    0    0  0.00000000000E+00  0.00000000000E+00  0.16990175237E+03  0.19901199504E+04  0.19828542083E+04 0.  0.
        2    1    3    3  502    0 -0.47211363830E+03 -0.16339178784E+03 -0.77453950486E+03  0.92168303033E+03  0.25500000920E-02 0.  1.
       -2    1    3    3    0  502  0.47211363830E+03  0.16339178784E+03  0.94444125723E+03  0.10684369201E+04  0.25500000920E-02 0. -1.
</event>
<event>
 5   0  0.7843846E-05  0.2004530E+04  0.7818609E-02  0.8604506E-01
        2   -1    0    0  501    0  0.00000000000E+00  0.00000000000E+00  0.79077235094E+03  0.79077235094E+03  0.25500000920E-02 0. -1.
       -2   -1    0    0    0  501  0.00000000000E+00  0.00000000000E+00 -0.12703215063E+04  0.12703215063E+04  0.25500000920E-02 0.  1.
    10030    2    1    2    0    0  0.00000000000E+00  0.00000000000E+00 -0.47954915531E+03  0.20610938572E+04  0.20045299937E+04 0.  0.
        2    1    3    3  502    0 -0.46350274351E+03 -0.51044290919E+03  0.50817778802E+03  0.85652286661E+03  0.25500000920E-02 0. -1.
       -2    1    3    3    0  502  0.46350274351E+03  0.51044290919E+03 -0.98772694333E+03  0.12045709906E+04  0.25500000920E-02 0.  1.
</event>
<event>
 5   0  0.8022574E-05  0.1996876E+04  0.7818609E-02  0.8608083E-01
       -2   -1    0    0    0  501  0.00000000000E+00  0.00000000000E+00  0.14030621882E+04  0.14030621882E+04  0.25500000920E-02 0.  1.
        2   -1    0    0  501    0  0.00000000000E+00  0.00000000000E+00 -0.71050201349E+03  0.71050201350E+03  0.25500000920E-02 0. -1.
    10030    2    1    2    0    0  0.00000000000E+00  0.00000000000E+00  0.69256017473E+03  0.21135642017E+04  0.19968760701E+04 0.  0.
        1    1    3    3  502    0  0.64723641772E+03  0.49217000500E+03 -0.26700279091E+03  0.85582520682E+03  0.50400001928E-02 0. -1.
       -1    1    3    3    0  502 -0.64723641772E+03 -0.49217000500E+03  0.95956296564E+03  0.12577389949E+04  0.50400001928E-02 0.  1.
</event>
<event>
 5   0  0.2859625E-05  0.2037919E+04  0.7818609E-02  0.8589095E-01
        3   -1    0    0  501    0  0.00000000000E+00  0.00000000000E+00  0.10737893488E+04  0.10737893535E+04  0.10100000352E+00 0.  1.
       -3   -1    0    0    0  501  0.00000000000E+00  0.00000000000E+00 -0.96692950233E+03  0.96692950761E+03  0.10100000352E+00 0. -1.
    10030    2    1    2    0    0  0.00000000000E+00  0.00000000000E+00  0.10685984646E+03  0.20407188612E+04  0.20379191455E+04 0.  0.
        4    1    3    3  502    0 -0.25175250923E+03 -0.10667219746E+03  0.10363683333E+04  0.10718298460E+04  0.12699999809E+01 0.  1.
       -4    1    3    3    0  502  0.25175250923E+03  0.10667219746E+03 -0.92950848686E+03  0.96888901514E+03  0.12699999809E+01 0. -1.
</event>
<event>
 5   0  0.2859625E-05  0.2009365E+04  0.7818609E-02  0.8602255E-01
       -3   -1    0    0    0  501  0.00000000000E+00  0.00000000000E+00  0.85801693738E+03  0.85801694333E+03  0.10100000352E+00 0. -1.
        3   -1    0    0  501    0  0.00000000000E+00  0.00000000000E+00 -0.11764179009E+04  0.11764179052E+04  0.10100000352E+00 0.  1.
    10030    2    1    2    0    0  0.00000000000E+00  0.00000000000E+00 -0.31840096350E+03  0.20344348485E+04  0.20093645711E+04 0.  0.
        4    1    3    3  502    0 -0.23082504345E+03  0.41713401905E+03 -0.10546008512E+04  0.11573528238E+04  0.12699999809E+01 0.  1.
       -4    1    3    3    0  502  0.23082504345E+03 -0.41713401905E+03  0.73619988771E+03  0.87708202472E+03  0.12699999809E+01 0. -1.
</event>
<event>
 5   0  0.3970042E-05  0.1978667E+04  0.7818609E-02  0.8616660E-01
        1   -1    0    0  501    0  0.00000000000E+00  0.00000000000E+00  0.16088721339E+04  0.16088721339E+04  0.50400001928E-02 0.  1.
       -1   -1    0    0    0  501  0.00000000000E+00  0.00000000000E+00 -0.60836430651E+03  0.60836430653E+03  0.50400001928E-02 0. -1.
    10030    2    1    2    0    0  0.00000000000E+00  0.00000000000E+00  0.10005078274E+04  0.22172364404E+04  0.19786666015E+04 0.  0.
        3    1    3    3  502    0  0.18443154516E+03  0.79428727557E+03 -0.12753903286E+03  0.82533234887E+03  0.10100000352E+00 0. -1.
       -3    1    3    3    0  502 -0.18443154516E+03 -0.79428727557E+03  0.11280468602E+04  0.13919040915E+04  0.10100000352E+00 0.  1.
</event>
<event>
 5   0  0.8011197E-05  0.1831253E+04  0.7818609E-02  0.8689854E-01
       -2   -1    0    0    0  501  0.00000000000E+00  0.00000000000E+00  0.49552862513E+03  0.49552862514E+03  0.25500000920E-02 0. -1.
        2   -1    0    0  501    0  0.00000000000E+00  0.00000000000E+00 -0.16918733574E+04  0.16918733574E+04  0.25500000920E-02 0.  1.
    10030    2    1    2    0    0  0.00000000000E+00  0.00000000000E+00 -0.11963447322E+04  0.21874019825E+04  0.18312527719E+04 0.  0.
        5    1    3    3  502    0  0.57730504498E+03  0.69709378023E+03 -0.43296727188E+03  0.10033462024E+04  0.46999998093E+01 0. -1.
       -5    1    3    3    0  502 -0.57730504498E+03 -0.69709378023E+03 -0.76337746036E+03  0.11840557801E+04  0.46999998093E+01 0.  1.
</event>
<event>
 5   0  0.3787698E-05  0.2228632E+04  0.7818609E-02  0.8506604E-01
        1   -1    0    0  501    0  0.00000000000E+00  0.00000000000E+00  0.10021775259E+04  0.10021775259E+04  0.50400001928E-02 0. -1.
       -1   -1    0    0    0  501  0.00000000000E+00  0.00000000000E+00 -0.12390023439E+04  0.12390023439E+04  0.50400001928E-02 0.  1.
    10030    2    1    2    0    0  0.00000000000E+00  0.00000000000E+00 -0.23682481799E+03  0.22411798699E+04  0.22286321398E+04 0.  0.
        4    1    3    3  502    0 -0.89327070363E+03  0.62546437920E+03 -0.34896386322E+03  0.11449522393E+04  0.12699999809E+01 0.  1.
       -4    1    3    3    0  502  0.89327070363E+03 -0.62546437920E+03  0.11213904523E+03  0.10962276305E+04  0.12699999809E+01 0. -1.
</event>
<event>
 5   0  0.8022574E-05  0.2001926E+04  0.7818609E-02  0.8605721E-01
       -2   -1    0    0    0  501  0.00000000000E+00  0.00000000000E+00  0.60913946812E+03  0.60913946812E+03  0.25500000920E-02 0. -1.
        2   -1    0    0  501    0  0.00000000000E+00  0.00000000000E+00 -0.16448241100E+04  0.16448241100E+04  0.25500000920E-02 0.  1.
    10030    2    1    2    0    0  0.00000000000E+00  0.00000000000E+00 -0.10356846419E+04  0.22539635781E+04  0.20019263558E+04 0.  0.
        1    1    3    3  502    0  0.53553922435E+03 -0.45139707654E+03 -0.13229696987E+04  0.14969336676E+04  0.50400001928E-02 0.  1.
       -1    1    3    3    0  502 -0.53553922435E+03  0.45139707654E+03  0.28728505681E+03  0.75702991051E+03  0.50400001928E-02 0. -1.
</event>
<event>
 5   0  0.7843846E-05  0.2020743E+04  0.7818609E-02  0.8596983E-01
        2   -1    0    0  501    0  0.00000000000E+00  0.00000000000E+00  0.12988662707E+04  0.12988662707E+04  0.25500000920E-02 0. -1.
       -2   -1    0    0    0  501  0.00000000000E+00  0.00000000000E+00 -0.78595531229E+03  0.78595531230E+03  0.25500000920E-02 0.  1.
    10030    2    1    2    0    0  0.00000000000E+00  0.00000000000E+00  0.51291095845E+03  0.20848215830E+04  0.20207432746E+04 0.  0.
        2    1    3    3  502    0  0.96828251695E+03  0.27155091774E+03  0.15568578654E+03  0.10176192793E+04  0.25500000920E-02 0.  1.
       -2    1    3    3    0  502 -0.96828251695E+03 -0.27155091774E+03  0.35722517191E+03  0.10672023037E+04  0.25500000920E-02 0. -1.
</event>
<event>
 5   0  0.3549426E-05  0.1974971E+04  0.7818609E-02  0.8618413E-01
       -1   -1    0    0    0  501  0.00000000000E+00  0.00000000000E+00  0.66454272523E+03  0.66454272525E+03  0.50400001928E-02 0.  1.
        1   -1    0    0  501    0  0.00000000000E+00  0.00000000000E+00 -0.14673666721E+04  0.14673666721E+04  0.50400001928E-02 0. -1.
    10030    2    1    2    0    0  0.00000000000E+00  0.00000000000E+00 -0.80282394682E+03  0.21319093973E+04  0.19749712374E+04 0.  0.
        5    1    3    3  502    0 -0.47797570456E+03 -0.12588814438E+02 -0.13340625202E+04  0.14171676507E+04  0.46999998093E+01 0. -1.
       -5    1    3    3    0  502  0.47797570456E+03  0.12588814438E+02  0.53123857341E+03  0.71474174657E+03  0.46999998093E+01 0.  1.
</event>
<event>
 5   0  0.7857136E-05  0.1999528E+04  0.7818609E-02  0.8606841E-01
       -2   -1    0    0    0  501  0.00000000000E+00  0.00000000000E+00  0.41778256743E+03  0.41778256744E+03  0.25500000920E-02 0.  1.
        2   -1    0    0  501    0  0.00000000000E+00  0.00000000000E+00 -0.23924593186E+04  0.23924593186E+04  0.25500000920E-02 0. -1.
    10030    2    1    2    0    0  0.00000000000E+00  0.00000000000E+00 -0.19746767512E+04  0.28102418861E+04  0.19995277409E+04 0.  0.
        4    1    3    3  502    0  0.17718860799E+03  0.58659692351E+03  0.12291101827E+03  0.62498038752E+03  0.12699999809E+01 0.  1.
       -4    1    3    3    0  502 -0.17718860799E+03 -0.58659692351E+03 -0.20975877695E+04  0.21852614985E+04  0.12699999809E+01 0. -1.
</event>
<event>
 5   0  0.8011197E-05  0.1975311E+04  0.7818609E-02  0.8618251E-01
       -2   -1    0    0    0  501  0.00000000000E+00  0.00000000000E+00  0.53491154596E+03  0.53491154597E+03  0.25500000920E-02 0.  1.
        2   -1    0    0  501    0  0.00000000000E+00  0.00000000000E+00 -0.18235981045E+04  0.18235981045E+04  0.25500000920E-02 0. -1.
    10030    2    1    2    0    0  0.00000000000E+00  0.00000000000E+00 -0.12886865585E+04  0.23585096505E+04  0.19753112983E+04 0.  0.
        5    1    3    3  502    0  0.26923459983E+03 -0.83238193163E+02 -0.17745616159E+04  0.17968046319E+04  0.46999998093E+01 0. -1.
       -5    1    3    3    0  502 -0.26923459983E+03  0.83238193163E+02  0.48587505736E+03  0.56170501859E+03  0.46999998093E+01 0.  1.
</event>
<event>
 5   0  0.3787698E-05  0.2004830E+04  0.7818609E-02  0.8604366E-01
       -1   -1    0    0    0  501  0.00000000000E+00  0.00000000000E+00  0.80417202062E+03  0.80417202064E+03  0.50400001928E-02 0.  1.
        1   -1    0    0  501    0  0.00000000000E+00  0.00000000000E+00 -0.12495284585E+04  0.12495284585E+04  0.50400001928E-02 0. -1.
    10030    2    1    2    0    0  0.00000000000E+00  0.00000000000E+00 -0.44535643783E+03  0.20537004791E+04  0.20048299931E+04 0.  0.
        4    1    3    3  502    0  0.57338045760E+03 -0.30297537949E+03  0.56033338666E+03  0.85704979251E+03  0.12699999809E+01 0.  1.
       -4    1    3    3    0  502 -0.57338045760E+03  0.30297537949E+03 -0.10056898245E+04  0.11966506866E+04  0.12699999809E+01 0. -1.
</event>
<event>
 5   0  0.8022574E-05  0.2003323E+04  0.7818609E-02  0.8605069E-01
       -2   -1    0    0    0  501  0.00000000000E+00  0.00000000000E+00  0.79617731337E+03  0.79617731337E+03  0.25500000920E-02 0. -1.
        2   -1    0    0  501    0  0.00000000000E+00  0.00000000000E+00 -0.12601789019E+04  0.12601789019E+04  0.25500000920E-02 0.  1.
    10030    2    1    2    0    0  0.00000000000E+00  0.00000000000E+00 -0.46400158855E+03  0.20563562153E+04  0.20033230918E+04 0.  0.
        1    1    3    3  502    0 -0.35797141245E+03  0.48966604246E+03 -0.10502285332E+04  0.12128051522E+04  0.50400001928E-02 0.  1.
       -1    1    3    3    0  502  0.35797141245E+03 -0.48966604246E+03  0.58622694468E+03  0.84355106305E+03  0.50400001928E-02 0. -1.
</event>
<event>
 5   0  0.3549426E-05  0.1961353E+04  0.7818609E-02  0.8624906E-01
       -1   -1    0    0    0  501  0.00000000000E+00  0.00000000000E+00  0.14304808674E+04  0.14304808674E+04  0.50400001928E-02 0.  1.
        1   -1    0    0  501    0  0.00000000000E+00  0.00000000000E+00 -0.67230997189E+03  0.67230997191E+03  0.50400001928E-02 0. -1.
    10030    2    1    2    0    0  0.00000000000E+00  0.00000000000E+00  0.75817089549E+03  0.21027908393E+04  0.19613531572E+04 0.  0.
        5    1    3    3  502    0  0.65473221480E+03  0.54587392913E+03 -0.14069759503E+03  0.86398525615E+03  0.46999998093E+01 0. -1.
       -5    1    3    3    0  502 -0.65473221480E+03 -0.54587392913E+03  0.89886849051E+03  0.12388055831E+04  0.46999998093E+01 0.  1.
</event>
<event>
 5   0  0.3970042E-05  0.1992997E+04  0.7818609E-02  0.8609902E-01
        1   -1    0    0  501    0  0.00000000000E+00  0.00000000000E+00  0.94986694986E+03  0.94986694987E+03  0.50400001928E-02 0.  1.
       -1   -1    0    0    0  501  0.00000000000E+00  0.00000000000E+00 -0.10454192102E+04  0.10454192102E+04  0.50400001928E-02 0. -1.
    10030    2    1    2    0    0  0.00000000000E+00  0.00000000000E+00 -0.95552260312E+02  0.19952861601E+04  0.19929968956E+04 0.  0.
        3    1    3    3  502    0 -0.17458841003E+03 -0.98091325997E+03 -0.66160496742E+02  0.99852348897E+03  0.10100000352E+00 0.  1.
       -3    1    3    3    0  502  0.17458841003E+03  0.98091325997E+03 -0.29391763570E+02  0.99676267108E+03  0.10100000352E+00 0. -1.
</event>
<event>
 5   0  0.3970042E-05  0.1929420E+04  0.7818609E-02  0.8640349E-01
        1   -1    0    0  501    0  0.00000000000E+00  0.00000000000E+00  0.12747116740E+04  0.12747116740E+04  0.50400001928E-02 0. -1.
       -1   -1    0    0    0  501  0.00000000000E+00  0.00000000000E+00 -0.73009840144E+03  0.73009840145E+03  0.50400001928E-02 0.  1.
    10030    2    1    2    0    0  0.00000000000E+00  0.00000000000E+00  0.54461327258E+03  0.20048100755E+04  0.19294195557E+04 0.  0.
        3    1    3    3  502    0  0.19853446521E+03 -0.79461726011E+03 -0.25734855162E+03  0.85852245816E+03  0.10100000352E+00 0.  1.
       -3    1    3    3    0  502 -0.19853446521E+03  0.79461726011E+03  0.80196182420E+03  0.11462876173E+04  0.10100000352E+00 0. -1.
</event>
<event>
 5   0  0.3818907E-05  0.1995099E+04  0.7818609E-02  0.8608915E-01
        1   -1    0    0  501    0  0.00000000000E+00  0.00000000000E+00  0.14314670457E+04  0.14314670457E+04  0.50400001928E-02 0.  1.
       -1   -1    0    0    0  501  0.00000000000E+00  0.00000000000E+00 -0.69516465567E+03  0.69516465568E+03  0.50400001928E-02 0. -1.
    10030    2    1    2    0    0  0.00000000000E+00  0.00000000000E+00  0.73630239000E+03  0.21266317014E+04  0.19950992917E+04 0.  0.
        1    1    3    3  502    0  0.20633889609E+03 -0.96213492010E+03  0.19356683481E+03  0.10028696147E+04  0.50400001928E-02 0. -1.
       -1    1    3    3    0  502 -0.20633889609E+03  0.96213492010E+03  0.54273555520E+03  0.11237620867E+04  0.50400001928E-02 0.  1.
</event>
<event>
 5   0  0.7935008E-05  0.2016543E+04  0.7818609E-02  0.8598925E-01
       -2   -1    0    0    0  501  0.00000000000E+00  0.00000000000E+00  0.64182050162E+03  0.64182050162E+03  0.25500000920E-02 0. -1.
        2   -1    0    0  501    0  0.00000000000E+00  0.00000000000E+00 -0.15839502206E+04  0.15839502206E+04  0.25500000920E-02 0.  1.
    10030    2    1    2    0    0  0.00000000000E+00  0.00000000000E+00 -0.94212971893E+03  0.22257707222E+04  0.20165433049E+04 0.  0.
        3    1    3    3  502    0  0.18246349562E+03 -0.51769405822E+03  0.46244846590E+03  0.71774553914E+03  0.10100000352E+00 0. -1.
       -3    1    3    3    0  502 -0.18246349562E+03  0.51769405822E+03 -0.14045781848E+04  0.15080251830E+04  0.10100000352E+00 0.  1.
</event>
<event>
 5   0  0.2859625E-05  0.2000055E+04  0.7818609E-02  0.8606595E-01
       -3   -1    0    0    0  501  0.00000000000E+00  0.00000000000E+00  0.13900573893E+04  0.13900573930E+04  0.10100000352E+00 0. -1.
        3   -1    0    0  501    0  0.00000000000E+00  0.00000000000E+00 -0.71943426934E+03  0.71943427643E+03  0.10100000352E+00 0.  1.
    10030    2    1    2    0    0  0.00000000000E+00  0.00000000000E+00  0.67062311999E+03  0.21094916694E+04  0.20000549328E+04 0.  0.
        2    1    3    3  502    0 -0.56646454172E+03 -0.36846862432E+03  0.11128058317E+04  0.13019170570E+04  0.25500000920E-02 0. -1.
       -2    1    3    3    0  502  0.56646454172E+03  0.36846862432E+03 -0.44218271173E+03  0.80757461246E+03  0.25500000920E-02 0.  1.
</event>
<event>
 5   0  0.7935008E-05  0.2011949E+04  0.7818609E-02  0.8601054E-01
       -2   -1    0    0    0  501  0.00000000000E+00  0.00000000000E+00  0.81427538867E+03  0.81427538868E+03  0.25500000920E-02 0.  1.
        2   -1    0    0  501    0  0.00000000000E+00  0.00000000000E+00 -0.12428040102E+04  0.12428040102E+04  0.25500000920E-02 0. -1.
    10030    2    1    2    0    0  0.00000000000E+00  0.00000000000E+00 -0.42852862149E+03  0.20570793988E+04  0.20119490236E+04 0.  0.
        3    1    3    3  502    0 -0.86861424329E+03 -0.18719195193E+03  0.26796476118E+03  0.92808224525E+03  0.10100000352E+00 0. -1.
       -3    1    3    3    0  502  0.86861424329E+03  0.18719195193E+03 -0.69649338266E+03  0.11289971536E+04  0.10100000352E+00 0.  1.
</event>
<event>
 5   0  0.8011197E-05  0.2013227E+04  0.7818609E-02  0.8600461E-01
       -2   -1    0    0    0  501  0.00000000000E+00  0.00000000000E+00  0.51006175882E+03  0.51006175882E+03  0.25500000920E-02 0.  1.
        2   -1    0    0  501    0  0.00000000000E+00  0.00000000000E+00 -0.19865649364E+04  0.19865649364E+04  0.25500000920E-02 0. -1.
    10030    2    1    2    0    0  0.00000000000E+00  0.00000000000E+00 -0.14765031776E+04  0.24966266952E+04  0.20132270666E+04 0.  0.
        5    1    3    3  502    0 -0.70557628441E+03 -0.70658483106E+03 -0.89584193779E+03  0.13415121632E+04  0.46999998093E+01 0.  1.
       -5    1    3    3    0  502  0.70557628441E+03  0.70658483106E+03 -0.58066123978E+03  0.11551145320E+04  0.46999998093E+01 0. -1.
</event>
<event>
 5   0  0.3772949E-05  0.2042249E+04  0.7818609E-02  0.8587119E-01
        1   -1    0    0  501    0  0.00000000000E+00  0.00000000000E+00  0.16330480014E+04  0.16330480014E+04  0.50400001928E-02 0. -1.
       -1   -1    0    0    0  501  0.00000000000E+00  0.00000000000E+00 -0.63849658855E+03  0.63849658857E+03  0.50400001928E-02 0.  1.
    10030    2    1    2    0    0  0.00000000000E+00  0.00000000000E+00  0.99455141286E+03  0.22715445900E+04  0.20422493265E+04 0.  0.
        2    1    3    3  502    0  0.66883250511E+03 -0.16170948159E+03  0.13364424612E+04  0.15031850613E+04  0.25500000920E-02 0. -1.
       -2    1    3    3    0  502 -0.66883250511E+03  0.16170948159E+03 -0.34189104839E+03  0.76835952867E+03  0.25500000920E-02 0.  1.
</event>
<event>
 5   0  0.3787698E-05  0.1996998E+04  0.7818609E-02  0.8608026E-01
        1   -1    0    0  501    0  0.00000000000E+00  0.00000000000E+00  0.15094776554E+04  0.15094776555E+04  0.50400001928E-02 0. -1.
       -1   -1    0    0    0  501  0.00000000000E+00  0.00000000000E+00 -0.66049326027E+03  0.66049326029E+03  0.50400001928E-02 0.  1.
    10030    2    1    2    0    0  0.00000000000E+00  0.00000000000E+00  0.84898439517E+03  0.21699709157E+04  0.19969975643E+04 0.  0.
        4    1    3    3  502    0 -0.41229152444E+03  0.84630164522E+03  0.78616980439E+03  0.12264890338E+04  0.12699999809E+01 0. -1.
       -4    1    3    3    0  502  0.41229152444E+03 -0.84630164522E+03  0.62814590779E+02  0.94348188193E+03  0.12699999809E+01 0.  1.
</event>
<event>
 5   0  0.7843846E-05  0.1998801E+04  0.7818609E-02  0.8607181E-01
       -2   -1    0    0    0  501  0.00000000000E+00  0.00000000000E+00  0.56637853044E+03  0.56637853045E+03  0.25500000920E-02 0. -1.
        2   -1    0    0  501    0  0.00000000000E+00  0.00000000000E+00 -0.17634873015E+04  0.17634873015E+04  0.25500000920E-02 0.  1.
    10030    2    1    2    0    0  0.00000000000E+00  0.00000000000E+00 -0.11971087710E+04  0.23298658319E+04  0.19988009869E+04 0.  0.
        2    1    3    3  502    0 -0.46567347341E+03  0.23376622230E+03  0.39552031614E+03  0.65416721946E+03  0.25500000920E-02 0. -1.
       -2    1    3    3    0  502  0.46567347341E+03 -0.23376622230E+03 -0.15926290872E+04  0.16756986125E+04  0.25500000920E-02 0.  1.
</event>
<event>
 5   0  0.7935008E-05  0.1985494E+04  0.7818609E-02  0.8613433E-01
        2   -1    0    0  501    0  0.00000000000E+00  0.00000000000E+00  0.62481743841E+03  0.62481743842E+03  0.25500000920E-02 0.  1.
       -2   -1    0    0    0  501  0.00000000000E+00  0.00000000000E+00 -0.15773353555E+04  0.15773353555E+04  0.25500000920E-02 0. -1.
    10030    2    1    2    0    0  0.00000000000E+00  0.00000000000E+00 -0.95251791709E+03  0.22021527939E+04  0.19854940306E+04 0.  0.
        3    1    3    3  502    0  0.24716543616E+03  0.68150282295E+03  0.27599138284E+03  0.77569846211E+03  0.10100000352E+00 0.  1.
       -3    1    3    3    0  502 -0.24716543616E+03 -0.68150282295E+03 -0.12285092999E+04  0.14264543318E+04  0.10100000352E+00 0. -1.
</event>
<event>
 5   0  0.3818907E-05  0.1996408E+04  0.7818609E-02  0.8608302E-01
       -1   -1    0    0    0  501  0.00000000000E+00  0.00000000000E+00  0.64398041253E+03  0.64398041255E+03  0.50400001928E-02 0.  1.
        1   -1    0    0  501    0  0.00000000000E+00  0.00000000000E+00 -0.15472687979E+04  0.15472687979E+04  0.50400001928E-02 0. -1.
    10030    2    1    2    0    0  0.00000000000E+00  0.00000000000E+00 -0.90328838537E+03  0.21912492105E+04  0.19964075724E+04 0.  0.
        1    1    3    3  502    0  0.54913818770E+03 -0.83017317645E+03 -0.36899187634E+03  0.10615532285E+04  0.50400001928E-02 0. -1.
       -1    1    3    3    0  502 -0.54913818770E+03  0.83017317645E+03 -0.53429650903E+03  0.11296959820E+04  0.50400001928E-02 0.  1.
</event>
<event>
 5   0  0.8011197E-05  0.1930485E+04  0.7818609E-02  0.8639829E-01
       -2   -1    0    0    0  501  0.00000000000E+00  0.00000000000E+00  0.99721611061E+03  0.99721611062E+03  0.25500000920E-02 0. -1.
        2   -1    0    0  501    0  0.00000000000E+00  0.00000000000E+00 -0.93429380950E+03  0.93429380951E+03  0.25500000920E-02 0.  1.
    10030    2    1    2    0    0  0.00000000000E+00  0.00000000000E+00  0.62922301112E+02  0.19315099201E+04  0.19304847463E+04 0.  0.
        5    1    3    3  502    0 -0.36645761105E+02  0.28931419264E+03 -0.88914982347E+03  0.93576445351E+03  0.46999998093E+01 0.  1.
       -5    1    3    3    0  502  0.36645761105E+02 -0.28931419264E+03  0.95207212459E+03  0.99574546661E+03  0.46999998093E+01 0. -1.
</event>
<event>
 5   0  0.3787698E-05  0.2023866E+04  0.7818609E-02  0.8595543E-01
       -1   -1    0    0    0  501  0.00000000000E+00  0.00000000000E+00  0.53059472764E+03  0.53059472766E+03  0.50400001928E-02 0.  1.
        1   -1    0    0  501    0  0.00000000000E+00  0.00000000000E+00 -0.19299256480E+04  0.19299256480E+04  0.50400001928E-02 0. -1.
    10030    2    1    2    0    0  0.00000000000E+00  0.00000000000E+00 -0.13993309204E+04  0.24605203757E+04  0.20238659774E+04 0.  0.
        4    1    3    3  502    0 -0.69359006296E+03 -0.23370991246E+03 -0.15492315004E+04  0.17134197831E+04  0.12699999809E+01 0. -1.
       -4    1    3    3    0  502  0.69359006296E+03  0.23370991246E+03  0.14990057999E+03  0.74710059255E+03  0.12699999809E+01 0.  1.
</event>
<event>
 5   0  0.3549426E-05  0.1995936E+04  0.7818609E-02  0.8608523E-01
        1   -1    0    0  501    0  0.00000000000E+00  0.00000000000E+00  0.13103625650E+04  0.13103625650E+04  0.50400001928E-02 0. -1.
       -1   -1    0    0    0  501  0.00000000000E+00  0.00000000000E+00 -0.76004907991E+03  0.76004907993E+03  0.50400001928E-02 0.  1.
    10030    2    1    2    0    0  0.00000000000E+00  0.00000000000E+00  0.55031348512E+03  0.20704116450E+04  0.19959357324E+04 0.  0.
        5    1    3    3  502    0 -0.64296310067E+03  0.72738568460E+03  0.51492277279E+03  0.10989354098E+04  0.46999998093E+01 0.  1.
       -5    1    3    3    0  502  0.64296310067E+03 -0.72738568460E+03  0.35390712331E+02  0.97147623517E+03  0.46999998093E+01 0. -1.
</event>
<event>
 5   0  0.7843846E-05  0.1994769E+04  0.7818609E-02  0.8609070E-01
        2   -1    0    0  501    0  0.00000000000E+00  0.00000000000E+00  0.11812142415E+04  0.11812142415E+04  0.25500000920E-02 0. -1.
       -2   -1    0    0    0  501  0.00000000000E+00  0.00000000000E+00 -0.84216400718E+03  0.84216400719E+03  0.25500000920E-02 0.  1.
    10030    2    1    2    0    0  0.00000000000E+00  0.00000000000E+00  0.33905023433E+03  0.20233782487E+04  0.19947692789E+04 0.  0.
        2    1    3    3  502    0  0.63623344906E+03 -0.56381603469E+03 -0.35958292715E+03  0.92302838752E+03  0.25500000920E-02 0.  1.
       -2    1    3    3    0  502 -0.63623344906E+03  0.56381603469E+03  0.69863316148E+03  0.11003498612E+04  0.25500000920E-02 0. -1.
</event>
<event>
 5   0  0.3818907E-05  0.1990309E+04  0.7818609E-02  0.8611165E-01
        1   -1    0    0  501    0  0.00000000000E+00  0.00000000000E+00  0.59052016798E+03  0.59052016800E+03  0.50400001928E-02 0.  1.
       -1   -1    0    0    0  501  0.00000000000E+00  0.00000000000E+00 -0.16770510937E+04  0.16770510937E+04  0.50400001928E-02 0. -1.
    10030    2    1    2    0    0  0.00000000000E+00  0.00000000000E+00 -0.10865309257E+04  0.22675712617E+04  0.19903090148E+04 0.  0.
        1    1    3    3  502    0 -0.55460097725E+03  0.62734644481E+03 -0.11559396493E+04  0.14273549939E+04  0.50400001928E-02 0. -1.
       -1    1    3    3    0  502  0.55460097725E+03 -0.62734644481E+03  0.69408723556E+02  0.84021626782E+03  0.50400001928E-02 0.  1.
</event>
<event>
 5   0  0.3772949E-05  0.2000640E+04  0.7818609E-02  0.8606322E-01
       -1   -1    0    0    0  501  0.00000000000E+00  0.00000000000E+00  0.79448520856E+03  0.79448520858E+03  0.50400001928E-02 0.  1.
        1   -1    0    0  501    0  0.00000000000E+00  0.00000000000E+00 -0.12594820921E+04  0.12594820921E+04  0.50400001928E-02 0. -1.
    10030    2    1    2    0    0  0.00000000000E+00  0.00000000000E+00 -0.46499688356E+03  0.20539673007E+04  0.20006397903E+04 0.  0.
        2    1    3    3  502    0 -0.51014755931E+03 -0.23880472410E+03  0.61619320763E+03  0.83484866751E+03  0.25500000920E-02 0.  1.
       -2    1    3    3    0  502  0.51014755931E+03  0.23880472410E+03 -0.10811900912E+04  0.12191186332E+04  0.25500000920E-02 0. -1.
</event>
<event>
 5   0  0.8011197E-05  0.1988755E+04  0.7818609E-02  0.8611896E-01
        2   -1    0    0  501    0  0.00000000000E+00  0.00000000000E+00  0.10347356199E+04  0.10347356199E+04  0.25500000920E-02 0.  1.
       -2   -1    0    0    0  501  0.00000000000E+00  0.00000000000E+00 -0.95559377191E+03  0.95559377191E+03  0.25500000920E-02 0. -1.
    10030    2    1    2    0    0  0.00000000000E+00  0.00000000000E+00  0.79141848034E+02  0.19903293919E+04  0.19887553032E+04 0.  0.
        5    1    3    3  502    0 -0.69036986948E+03  0.68298210942E+03 -0.17434976322E+03  0.98665852675E+03  0.46999998093E+01 0. -1.
       -5    1    3    3    0  502  0.69036986948E+03 -0.68298210942E+03  0.25349161126E+03  0.10036708651E+04  0.46999998093E+01 0.  1.
</event>
<event>
 5   0  0.7857136E-05  0.2009592E+04  0.7818609E-02  0.8602149E-01
       -2   -1    0    0    0  501  0.00000000000E+00  0.00000000000E+00  0.67565661544E+03  0.67565661545E+03  0.25500000920E-02 0. -1.
        2   -1    0    0  501    0  0.00000000000E+00  0.00000000000E+00 -0.14942728537E+04  0.14942728537E+04  0.25500000920E-02 0.  1.
    10030    2    1    2    0    0  0.00000000000E+00  0.00000000000E+00 -0.81861623822E+03  0.21699294691E+04  0.20095923356E+04 0.  0.
        4    1    3    3  502    0 -0.10003754313E+03  0.51534898116E+03 -0.13344153703E+04  0.14339658559E+04  0.12699999809E+01 0.  1.
       -4    1    3    3    0  502  0.10003754313E+03 -0.51534898116E+03  0.51579913209E+03  0.73596361322E+03  0.12699999809E+01 0. -1.
</event>
<event>
 5   0  0.3772949E-05  0.2011370E+04  0.7818609E-02  0.8601323E-01
       -1   -1    0    0    0  501  0.00000000000E+00  0.00000000000E+00  0.45613743247E+03  0.45613743249E+03  0.50400001928E-02 0. -1.
        1   -1    0    0  501    0  0.00000000000E+00  0.00000000000E+00 -0.22173198396E+04  0.22173198396E+04  0.50400001928E-02 0.  1.
    10030    2    1    2    0    0  0.00000000000E+00  0.00000000000E+00 -0.17611824071E+04  0.26734572721E+04  0.20113702579E+04 0.  0.
        2    1    3    3  502    0 -0.60566673975E+03 -0.15993269411E+03 -0.19263311808E+04  0.20256264425E+04  0.25500000920E-02 0.  1.
       -2    1    3    3    0  502  0.60566673975E+03  0.15993269411E+03  0.16514877373E+03  0.64783082958E+03  0.25500000920E-02 0. -1.
</event>
<event>
 5   0  0.3970042E-05  0.2003933E+04  0.7818609E-02  0.8604784E-01
       -1   -1    0    0    0  501  0.00000000000E+00  0.00000000000E+00  0.83754681067E+03  0.83754681069E+03  0.50400001928E-02 0. -1.
        1   -1    0    0  501    0  0.00000000000E+00  0.00000000000E+00 -0.11986640981E+04  0.11986640981E+04  0.50400001928E-02 0.  1.
    10030    2    1    2    0    0  0.00000000000E+00  0.00000000000E+00 -0.36111728743E+03  0.20362109088E+04  0.20039334245E+04 0.  0.
        3    1    3    3  502    0  0.24649192969E+03  0.24313158258E+03  0.77483385226E+03  0.84866880858E+03  0.10100000352E+00 0. -1.
       -3    1    3    3    0  502 -0.24649192969E+03 -0.24313158258E+03 -0.11359511397E+04  0.11875421002E+04  0.10100000352E+00 0.  1.
</event>
<event>
 5   0  0.3772949E-05  0.1999557E+04  0.7818609E-02  0.8606828E-01
        1   -1    0    0  501    0  0.00000000000E+00  0.00000000000E+00  0.11527358999E+04  0.11527358999E+04  0.50400001928E-02 0.  1.
       -1   -1    0    0    0  501  0.00000000000E+00  0.00000000000E+00 -0.86711726189E+03  0.86711726190E+03  0.50400001928E-02 0. -1.
    10030    2    1    2    0    0  0.00000000000E+00  0.00000000000E+00  0.28561863802E+03  0.20198531618E+04  0.19995571482E+04 0.  0.
        2    1    3    3  502    0  0.41647811619E+02  0.89810491167E+03 -0.29892815674E+03  0.94746240848E+03  0.25500000920E-02 0. -1.
       -2    1    3    3    0  502 -0.41647811619E+02 -0.89810491167E+03  0.58454679476E+03  0.10723907533E+04  0.25500000920E-02 0.  1.
</event>
<event>
 5   0  0.7935008E-05  0.1980893E+04  0.7818609E-02  0.8615606E-01
        2   -1    0    0  501    0  0.00000000000E+00  0.00000000000E+00  0.12196522862E+04  0.12196522862E+04  0.25500000920E-02 0. -1.
       -2   -1    0    0    0  501  0.00000000000E+00  0.00000000000E+00 -0.80431430031E+03  0.80431430031E+03  0.25500000920E-02 0.  1.
    10030    2    1    2    0    0  0.00000000000E+00  0.00000000000E+00  0.41533798586E+03  0.20239665865E+04  0.19808925010E+04 0.  0.
        3    1    3    3  502    0  0.54796219896E+03  0.18141609527E+03 -0.61469872034E+03  0.84322529499E+03  0.10100000352E+00 0.  1.
       -3    1    3    3    0  502 -0.54796219896E+03 -0.18141609527E+03  0.10300367062E+04  0.11807412915E+04  0.10100000352E+00 0. -1.
</event>
<event>
 5   0  0.3549426E-05  0.1993146E+04  0.7818609E-02  0.8609832E-01
       -1   -1    0    0    0  501  0.00000000000E+00  0.00000000000E+00  0.80484526104E+03  0.80484526106E+03  0.50400001928E-02 0. -1.
        1   -1    0    0  501    0  0.00000000000E+00  0.00000000000E+00 -0.12339729922E+04  0.12339729922E+04  0.50400001928E-02 0.  1.
    10030    2    1    2    0    0  0.00000000000E+00  0.00000000000E+00 -0.42912773115E+03  0.20388182533E+04  0.19931455692E+04 0.  0.
        5    1    3    3  502    0 -0.99160816202E+03  0.79433782309E+02 -0.15371330599E+03  0.10066013825E+04  0.46999998093E+01 0. -1.
       -5    1    3    3    0  502  0.99160816202E+03 -0.79433782309E+02 -0.27541442516E+03  0.10322168708E+04  0.46999998093E+01 0.  1.
</event>
<event>
 5   0  0.3787698E-05  0.2002701E+04  0.7818609E-02  0.8605359E-01
        1   -1    0    0  501    0  0.00000000000E+00  0.00000000000E+00  0.83585285267E+03  0.83585285269E+03  0.50400001928E-02 0. -1.
       -1   -1    0    0    0  501  0.00000000000E+00  0.00000000000E+00 -0.11996168689E+04  0.11996168689E+04  0.50400001928E-02 0.  1.
    10030    2    1    2    0    0  0.00000000000E+00  0.00000000000E+00 -0.36376401618E+03  0.20354697216E+04  0.20027013576E+04 0.  0.
        4    1    3    3  502    0 -0.49720209334E+03  0.41095189117E+03 -0.96031862380E+03  0.11568512655E+04  0.12699999809E+01 0.  1.
       -4    1    3    3    0  502  0.49720209334E+03 -0.41095189117E+03  0.59655460761E+03  0.87861845601E+03  0.12699999809E+01 0. -1.
</event>
<event>
 5   0  0.3970042E-05  0.2010188E+04  0.7818609E-02  0.8601872E-01
        1   -1    0    0  501    0  0.00000000000E+00  0.00000000000E+00  0.73133021725E+03  0.73133021727E+03  0.50400001928E-02 0.  1.
       -1   -1    0    0    0  501  0.00000000000E+00  0.00000000000E+00 -0.13813381497E+04  0.13813381497E+04  0.50400001928E-02 0. -1.
    10030    2    1    2    0    0  0.00000000000E+00  0.00000000000E+00 -0.65000793243E+03  0.21126683670E+04  0.20101883784E+04 0.  0.
        3    1    3    3  502    0  0.81295947738E+03 -0.11420514872E+03  0.28444535093E+03  0.86882397281E+03  0.10100000352E+00 0.  1.
       -3    1    3    3    0  502 -0.81295947738E+03  0.11420514872E+03 -0.93445328337E+03  0.12438443941E+04  0.10100000352E+00 0. -1.
</event>
<event>
 5   0  0.8022574E-05  0.1996941E+04  0.7818609E-02  0.8608052E-01
       -2   -1    0    0    0  501  0.00000000000E+00  0.00000000000E+00  0.67903782987E+03  0.67903782987E+03  0.25500000920E-02 0.  1.
        2   -1    0    0  501    0  0.00000000000E+00  0.00000000000E+00 -0.14681705039E+04  0.14681705039E+04  0.25500000920E-02 0. -1.
    10030    2    1    2    0    0  0.00000000000E+00  0.00000000000E+00 -0.78913267403E+03  0.21472083338E+04  0.19969409734E+04 0.  0.
        1    1    3    3  502    0 -0.20043687830E+03 -0.37313267513E+03 -0.13667841225E+04  0.14309094217E+04  0.50400001928E-02 0. -1.
       -1    1    3    3    0  502  0.20043687830E+03  0.37313267513E+03  0.57765144852E+03  0.71629891207E+03  0.50400001928E-02 0.  1.
</event>
<event>
 5   0  0.3818907E-05  0.2002566E+04  0.7818609E-02  0.8605422E-01
       -1   -1    0    0    0  501  0.00000000000E+00  0.00000000000E+00  0.10911117936E+04  0.10911117936E+04  0.50400001928E-02 0. -1.
        1   -1    0    0  501    0  0.00000000000E+00  0.00000000000E+00 -0.91884928069E+03  0.91884928070E+03  0.50400001928E-02 0.  1.
    10030    2    1    2    0    0  0.00000000000E+00  0.00000000000E+00  0.17226251295E+03  0.20099610743E+04  0.20025656411E+04 0.  0.
        1    1    3    3  502    0 -0.49215880891E+03 -0.74031317908E+02 -0.78590777014E+03  0.93024295343E+03  0.50400001928E-02 0.  1.
       -1    1    3    3    0  502  0.49215880891E+03  0.74031317908E+02  0.95817028308E+03  0.10797181209E+04  0.50400001928E-02 0. -1.
</event>
<event>
 5   0  0.7935008E-05  0.1995640E+04  0.7818609E-02  0.8608662E-01
        2   -1    0    0  501    0  0.00000000000E+00  0.00000000000E+00  0.16172335292E+04  0.16172335292E+04  0.25500000920E-02 0.  1.
       -2   -1    0    0    0  501  0.00000000000E+00  0.00000000000E+00 -0.61564663531E+03  0.61564663531E+03  0.25500000920E-02 0. -1.
    10030    2    1    2    0    0  0.00000000000E+00  0.00000000000E+00  0.10015868938E+04  0.22328801645E+04  0.19956396275E+04 0.  0.
        3    1    3    3  502    0 -0.83812346726E+01 -0.95291168932E+03  0.16976120962E+03  0.96795134755E+03  0.10100000352E+00 0. -1.
       -3    1    3    3    0  502  0.83812346726E+01  0.95291168932E+03  0.83182568422E+03  0.12649288169E+04  0.10100000352E+00 0.  1.
</event>
<event>
 5   0  0.7935008E-05  0.2002736E+04  0.7818609E-02  0.8605343E-01
       -2   -1    0    0    0  501  0.00000000000E+00  0.00000000000E+00  0.54033842712E+03  0.54033842713E+03  0.25500000920E-02 0. -1.
        2   -1    0    0  501    0  0.00000000000E+00  0.00000000000E+00 -0.18557583723E+04  0.18557583723E+04  0.25500000920E-02 0.  1.
    10030    2    1    2    0    0  0.00000000000E+00  0.00000000000E+00 -0.13154199452E+04  0.23960967994E+04  0.20027356890E+04 0.  0.
        3    1    3    3  502    0  0.25040283043E+03 -0.64124520021E+03 -0.15277577511E+04  0.16756911232E+04  0.10100000352E+00 0.  1.
       -3    1    3    3    0  502 -0.25040283043E+03  0.64124520021E+03  0.21233780591E+03  0.72040567620E+03  0.10100000352E+00 0. -1.
</event>
<event>
 5   0  0.7857136E-05  0.1994225E+04  0.7818609E-02  0.8609326E-01
       -2   -1    0    0    0  501  0.00000000000E+00  0.00000000000E+00  0.90558517885E+03  0.90558517885E+03  0.25500000920E-02 0. -1.
        2   -1    0    0  501    0  0.00000000000E+00  0.00000000000E+00 -0.10978901389E+04  0.10978901389E+04  0.25500000920E-02 0.  1.
    10030    2    1    2    0    0  0.00000000000E+00  0.00000000000E+00 -0.19230496004E+03  0.20034753177E+04  0.19942246993E+04 0.  0.
        4    1    3    3  502    0 -0.74439005808E+03  0.61703380672E+03  0.14866654800E+03  0.97823853563E+03  0.12699999809E+01 0.  1.
       -4    1    3    3    0  502  0.74439005808E+03 -0.61703380672E+03 -0.34097150804E+03  0.10252367821E+04  0.12699999809E+01 0. -1.
</event>
<event>
 5   0  0.3970042E-05  0.2005143E+04  0.7818609E-02  0.8604220E-01
       -1   -1    0    0    0  501  0.00000000000E+00  0.00000000000E+00  0.10850563150E+04  0.10850563150E+04  0.50400001928E-02 0. -1.
        1   -1    0    0  501    0  0.00000000000E+00  0.00000000000E+00 -0.92635673029E+03  0.92635673031E+03  0.50400001928E-02 0.  1.
    10030    2    1    2    0    0  0.00000000000E+00  0.00000000000E+00  0.15869958473E+03  0.20114130453E+04  0.20051426086E+04 0.  0.
        3    1    3    3  502    0 -0.21043288647E+03  0.52445238597E+03  0.91008016633E+03  0.10712507756E+04  0.10100000352E+00 0. -1.
       -3    1    3    3    0  502  0.21043288647E+03 -0.52445238597E+03 -0.75138058160E+03  0.94016226975E+03  0.10100000352E+00 0.  1.
</event>
<event>
 5   0  0.7857136E-05  0.1997962E+04  0.7818609E-02  0.8607574E-01
       -2   -1    0    0    0  501  0.00000000000E+00  0.00000000000E+00  0.86214087152E+03  0.86214087152E+03  0.25500000920E-02 0. -1.
        2   -1    0    0  501    0  0.00000000000E+00  0.00000000000E+00 -0.11575402876E+04  0.11575402876E+04  0.25500000920E-02 0.  1.
    10030    2    1    2    0    0  0.00000000000E+00  0.00000000000E+00 -0.29539941608E+03  0.20196811591E+04  0.19979617538E+04 0.  0.
        4    1    3    3  502    0 -0.90909105396E+03 -0.24010284423E+03 -0.48880720409E+03  0.10597311054E+04  0.12699999809E+01 0. -1.
       -4    1    3    3    0  502  0.90909105396E+03  0.24010284423E+03  0.19340778801E+03  0.95995005368E+03  0.12699999809E+01 0.  1.
</event>
<event>
 5   0  0.3549426E-05  0.2000084E+04  0.7818609E-02  0.8606581E-01
        1   -1    0    0  501    0  0.00000000000E+00  0.00000000000E+00  0.10585240193E+04  0.10585240193E+04  0.50400001928E-02 0. -1.
       -1   -1    0    0    0  501  0.00000000000E+00  0.00000000000E+00 -0.94479103076E+03  0.94479103078E+03  0.50400001928E-02 0.  1.
    10030    2    1    2    0    0  0.00000000000E+00  0.00000000000E+00  0.11373298854E+03  0.20033150501E+04  0.20000839975E+04 0.  0.
        5    1    3    3  502    0 -0.20174866413E+02 -0.99982574843E+03  0.55031364155E+02  0.10015533403E+04  0.46999998093E+01 0. -1.
       -5    1    3    3    0  502  0.20174866413E+02  0.99982574843E+03  0.58701624386E+02  0.10017617098E+04  0.46999998093E+01 0.  1.
</event>
<event>
 5   0  0.8022574E-05  0.1999417E+04  0.7818609E-02  0.8606893E-01
       -2   -1    0    0    0  501  0.00000000000E+00  0.00000000000E+00  0.12783313530E+04  0.12783313530E+04  0.25500000920E-02 0.  1.
        2   -1    0    0  501    0  0.00000000000E+00  0.00000000000E+00 -0.78181408047E+03  0.78181408047E+03  0.25500000920E-02 0. -1.
    10030    2    1    2    0    0  0.00000000000E+00  0.00000000000E+00  0.49651727252E+03  0.20601454335E+04  0.19994173664E+04 0.  0.
        1    1    3    3  502    0 -0.22240991584E+03  0.90360835409E+03  0.62465262720E+03  0.11207877288E+04  0.50400001928E-02 0. -1.
       -1    1    3    3    0  502  0.22240991584E+03 -0.90360835409E+03 -0.12813535468E+03  0.93935770471E+03  0.50400001928E-02 0.  1.
</event>
<event>
 5   0  0.3772949E-05  0.2095799E+04  0.7818609E-02  0.8563096E-01
        1   -1    0    0  501    0  0.00000000000E+00  0.00000000000E+00  0.13488743233E+04  0.13488743233E+04  0.50400001928E-02 0. -1.
       -1   -1    0    0    0  501  0.00000000000E+00  0.00000000000E+00 -0.81408117274E+03  0.81408117276E+03  0.50400001928E-02 0.  1.
    10030    2    1    2    0    0  0.00000000000E+00  0.00000000000E+00  0.53479315054E+03  0.21629554961E+04  0.20957988367E+04 0.  0.
        2    1    3    3  502    0 -0.31985340283E+03 -0.93270468752E+03  0.63351602421E+03  0.11720011887E+04  0.25500000920E-02 0. -1.
       -2    1    3    3    0  502  0.31985340283E+03  0.93270468752E+03 -0.98722873665E+02  0.99095430733E+03  0.25500000920E-02 0.  1.
</event>
<event>
 5   0  0.8011197E-05  0.2021098E+04  0.7818609E-02  0.8596820E-01
        2   -1    0    0  501    0  0.00000000000E+00  0.00000000000E+00  0.14024491225E+04  0.14024491225E+04  0.25500000920E-02 0.  1.
       -2   -1    0    0    0  501  0.00000000000E+00  0.00000000000E+00 -0.72816108708E+03  0.72816108708E+03  0.25500000920E-02 0. -1.
    10030    2    1    2    0    0  0.00000000000E+00  0.00000000000E+00  0.67428803544E+03  0.21306102096E+04  0.20210976004E+04 0.  0.
        5    1    3    3  502    0  0.31479162669E+03 -0.79496132031E+03 -0.23067858500E+03  0.88560260195E+03  0.46999998093E+01 0. -1.
       -5    1    3    3    0  502 -0.31479162669E+03  0.79496132031E+03  0.90496662044E+03  0.12450076077E+04  0.46999998093E+01 0.  1.
</event>
<event>
 5   0  0.3970042E-05  0.1999440E+04  0.7818609E-02  0.8606883E-01
        1   -1    0    0  501    0  0.00000000000E+00  0.00000000000E+00  0.10749583762E+04  0.10749583762E+04  0.50400001928E-02 0.  1.
       -1   -1    0    0    0  501  0.00000000000E+00  0.00000000000E+00 -0.92974758248E+03  0.92974758249E+03  0.50400001928E-02 0. -1.
    10030    2    1    2    0    0  0.00000000000E+00  0.00000000000E+00  0.14521079372E+03  0.20047059587E+04  0.19994398731E+04 0.  0.
        3    1    3    3  502    0  0.61629513158E+01 -0.48884300879E+03  0.94693106957E+03  0.10656847235E+04  0.10100000352E+00 0.  1.
       -3    1    3    3    0  502 -0.61629513158E+01  0.48884300879E+03 -0.80172027586E+03  0.93902123519E+03  0.10100000352E+00 0. -1.
</event>
<event>
 5   0  0.3970042E-05  0.1982736E+04  0.7818609E-02  0.8614735E-01
        1   -1    0    0  501    0  0.00000000000E+00  0.00000000000E+00  0.10528323464E+04  0.10528323464E+04  0.50400001928E-02 0. -1.
       -1   -1    0    0    0  501  0.00000000000E+00  0.00000000000E+00 -0.93349211500E+03  0.93349211502E+03  0.50400001928E-02 0.  1.
    10030    2    1    2    0    0  0.00000000000E+00  0.00000000000E+00  0.11934023142E+03  0.19863244615E+04  0.19827361840E+04 0.  0.
        3    1    3    3  502    0 -0.19220786732E+03  0.95179259222E+03 -0.14058581880E+03  0.98113066689E+03  0.10100000352E+00 0. -1.
       -3    1    3    3    0  502  0.19220786732E+03 -0.95179259222E+03  0.25992605022E+03  0.10051937946E+04  0.10100000352E+00 0.  1.
</event>
<event>
 5   0  0.2859625E-05  0.1997154E+04  0.7818609E-02  0.8607952E-01
       -3   -1    0    0    0  501  0.00000000000E+00  0.00000000000E+00  0.62101387063E+03  0.62101387884E+03  0.10100000352E+00 0.  1.
        3   -1    0    0  501    0  0.00000000000E+00  0.00000000000E+00 -0.16056907938E+04  0.16056907969E+04  0.10100000352E+00 0. -1.
    10030    2    1    2    0    0  0.00000000000E+00  0.00000000000E+00 -0.98467692313E+03  0.22267046758E+04  0.19971542430E+04 0.  0.
        4    1    3    3  502    0 -0.10944768753E+03  0.30664337833E+03 -0.15448463777E+04  0.15787846279E+04  0.12699999809E+01 0. -1.
       -4    1    3    3    0  502  0.10944768753E+03 -0.30664337833E+03  0.56016945453E+03  0.64792004790E+03  0.12699999809E+01 0.  1.
</event>
<event>
 5   0  0.3818907E-05  0.2000604E+04  0.7818609E-02  0.8606338E-01
       -1   -1    0    0    0  501  0.00000000000E+00  0.00000000000E+00  0.27878410729E+04  0.27878410729E+04  0.50400001928E-02 0. -1.
        1   -1    0    0  501    0  0.00000000000E+00  0.00000000000E+00 -0.35891710606E+03  0.35891710610E+03  0.50400001928E-02 0.  1.
    10030    2    1    2    0    0  0.00000000000E+00  0.00000000000E+00  0.24289239668E+04  0.31467581790E+04  0.20006037590E+04 0.  0.
        1    1    3    3  502    0  0.30025961517E+03  0.56142443658E+03  0.92723679406E+00  0.63667424503E+03  0.50400001928E-02 0.  1.
       -1    1    3    3    0  502 -0.30025961517E+03 -0.56142443658E+03  0.24279967300E+04  0.25100839340E+04  0.50400001928E-02 0. -1.
</event>
<event>
 5   0  0.3772949E-05  0.2031295E+04  0.7818609E-02  0.8592127E-01
       -1   -1    0    0    0  501  0.00000000000E+00  0.00000000000E+00  0.79329503672E+03  0.79329503674E+03  0.50400001928E-02 0. -1.
        1   -1    0    0  501    0  0.00000000000E+00  0.00000000000E+00 -0.13003229909E+04  0.13003229909E+04  0.50400001928E-02 0.  1.
    10030    2    1    2    0    0  0.00000000000E+00  0.00000000000E+00 -0.50702795420E+03  0.20936180277E+04  0.20312949317E+04 0.  0.
        2    1    3    3  502    0 -0.26902941736E+03  0.94056308892E+02  0.75123729998E+03  0.80348048983E+03  0.25500000920E-02 0. -1.
       -2    1    3    3    0  502  0.26902941736E+03 -0.94056308892E+02 -0.12582652542E+04  0.12901375378E+04  0.25500000920E-02 0.  1.
</event>
<event>
 5   0  0.3549426E-05  0.2000718E+04  0.7818609E-02  0.8606285E-01
       -1   -1    0    0    0  501  0.00000000000E+00  0.00000000000E+00  0.53601644087E+03  0.53601644090E+03  0.50400001928E-02 0.  1.
        1   -1    0    0  501    0  0.00000000000E+00  0.00000000000E+00 -0.18669548117E+04  0.18669548118E+04  0.50400001928E-02 0. -1.
    10030    2    1    2    0    0  0.00000000000E+00  0.00000000000E+00 -0.13309383709E+04  0.24029712527E+04  0.20007183445E+04 0.  0.
        5    1    3    3  502    0 -0.64953400910E+03  0.44212713898E+03 -0.14090813804E+04  0.16133515620E+04  0.46999998093E+01 0. -1.
       -5    1    3    3    0  502  0.64953400910E+03 -0.44212713898E+03  0.78143009486E+02  0.78961969069E+03  0.46999998093E+01 0.  1.
</event>
<event>
 5   0  0.8011197E-05  0.1993281E+04  0.7818609E-02  0.8609768E-01
       -2   -1    0    0    0  501  0.00000000000E+00  0.00000000000E+00  0.15631080543E+04  0.15631080543E+04  0.25500000920E-02 0.  1.
        2   -1    0    0  501    0  0.00000000000E+00  0.00000000000E+00 -0.63545981719E+03  0.63545981719E+03  0.25500000920E-02 0. -1.
    10030    2    1    2    0    0  0.00000000000E+00  0.00000000000E+00  0.92764823714E+03  0.21985678715E+04  0.19932810725E+04 0.  0.
        5    1    3    3  502    0  0.20091955333E+03  0.52027315794E+03 -0.44720601870E+03  0.71489029853E+03  0.46999998093E+01 0. -1.
       -5    1    3    3    0  502 -0.20091955333E+03 -0.52027315794E+03  0.13748542558E+04  0.14836775730E+04  0.46999998093E+01 0.  1.
</event>
<event>
 5   0  0.3549426E-05  0.1991992E+04  0.7818609E-02  0.8610374E-01
       -1   -1    0    0    0  501  0.00000000000E+00  0.00000000000E+00  0.10817088397E+04  0.10817088398E+04  0.50400001928E-02 0. -1.
        1   -1    0    0  501    0  0.00000000000E+00  0.00000000000E+00 -0.91707490868E+03  0.91707490870E+03  0.50400001928E-02 0.  1.
    10030    2    1    2    0    0  0.00000000000E+00  0.00000000000E+00  0.16463393107E+03  0.19987837485E+04  0.19919920035E+04 0.  0.
        5    1    3    3  502    0  0.81578767151E+03 -0.30190518048E+03  0.56907886077E+03  0.10394850181E+04  0.46999998093E+01 0. -1.
       -5    1    3    3    0  502 -0.81578767151E+03  0.30190518048E+03 -0.40444492970E+03  0.95929873040E+03  0.46999998093E+01 0.  1.
</event>
<event>
 5   0  0.8022574E-05  0.2001614E+04  0.7818609E-02  0.8605866E-01
       -2   -1    0    0    0  501  0.00000000000E+00  0.00000000000E+00  0.59908619249E+03  0.59908619250E+03  0.25500000920E-02 0.  1.
        2   -1    0    0  501    0  0.00000000000E+00  0.00000000000E+00 -0.16719041779E+04  0.16719041779E+04  0.25500000920E-02 0. -1.
    10030    2    1    2    0    0  0.00000000000E+00  0.00000000000E+00 -0.10728179854E+04  0.22709903704E+04  0.20016140569E+04 0.  0.
        1    1    3    3  502    0  0.43470540680E+03  0.36645431718E+03 -0.14708763906E+04  0.15769384623E+04  0.50400001928E-02 0. -1.
       -1    1    3    3    0  502 -0.43470540680E+03 -0.36645431718E+03  0.39805840517E+03  0.69405190817E+03  0.50400001928E-02 0.  1.
</event>
<event>
 5   0  0.3818907E-05  0.1990931E+04  0.7818609E-02  0.8610872E-01
       -1   -1    0    0    0  501  0.00000000000E+00  0.00000000000E+00  0.51738476433E+03  0.51738476436E+03  0.50400001928E-02 0. -1.
        1   -1    0    0  501    0  0.00000000000E+00  0.00000000000E+00 -0.19153094617E+04  0.19153094617E+04  0.50400001928E-02 0.  1.
    10030    2    1    2    0    0  0.00000000000E+00  0.00000000000E+00 -0.13979246973E+04  0.24326942260E+04  0.19909313745E+04 0.  0.
        1    1    3    3  502    0  0.22316507765E+03 -0.22460824072E+03  0.45421754740E+03  0.55368320732E+03  0.50400001928E-02 0. -1.
       -1    1    3    3    0  502 -0.22316507765E+03  0.22460824072E+03 -0.18521422447E+04  0.18790110187E+04  0.50400001928E-02 0.  1.
</event>
<event>
 5   0  0.7857136E-05  0.2002528E+04  0.7818609E-02  0.8605440E-01
       -2   -1    0    0    0  501  0.00000000000E+00  0.00000000000E+00  0.91821566981E+03  0.91821566981E+03  0.25500000920E-02 0. -1.
        2   -1    0    0  501    0  0.00000000000E+00  0.00000000000E+00 -0.10918234516E+04  0.10918234516E+04  0.25500000920E-02 0.  1.
    10030    2    1    2    0    0  0.00000000000E+00  0.00000000000E+00 -0.17360778176E+03  0.20100391214E+04  0.20025278044E+04 0.  0.
        4    1    3    3  502    0  0.61472688697E+03 -0.67800962159E+03  0.32084949349E+03  0.96981039534E+03  0.12699999809E+01 0. -1.
       -4    1    3    3    0  502 -0.61472688697E+03  0.67800962159E+03 -0.49445727525E+03  0.10402287260E+04  0.12699999809E+01 0.  1.
</event>
<event>
 5   0  0.7935008E-05  0.2010882E+04  0.7818609E-02  0.8601550E-01
        2   -1    0    0  501    0  0.00000000000E+00  0.00000000000E+00  0.88533056840E+03  0.88533056840E+03  0.25500000920E-02 0.  1.
       -2   -1    0    0    0  501  0.00000000000E+00  0.00000000000E+00 -0.11418462224E+04  0.11418462224E+04  0.25500000920E-02 0. -1.
    10030    2    1    2    0    0  0.00000000000E+00  0.00000000000E+00 -0.25651565399E+03  0.20271767908E+04  0.20108817619E+04 0.  0.
        3    1    3    3  502    0  0.14678647844E+03 -0.52180361734E+03 -0.98192922940E+03  0.11216105862E+04  0.10100000352E+00 0. -1.
       -3    1    3    3    0  502 -0.14678647844E+03  0.52180361734E+03  0.72541357541E+03  0.90556620460E+03  0.10100000352E+00 0.  1.
</event>
<event>
 5   0  0.3970042E-05  0.1999543E+04  0.7818609E-02  0.8606834E-01
        1   -1    0    0  501    0  0.00000000000E+00  0.00000000000E+00  0.18600552549E+04  0.18600552549E+04  0.50400001928E-02 0. -1.
       -1   -1    0    0    0  501  0.00000000000E+00  0.00000000000E+00 -0.53737296931E+03  0.53737296933E+03  0.50400001928E-02 0.  1.
    10030    2    1    2    0    0  0.00000000000E+00  0.00000000000E+00  0.13226822856E+04  0.23974282243E+04  0.19995433633E+04 0.  0.
        3    1    3    3  502    0 -0.32688831831E+03 -0.14844579970E+03 -0.45741879883E+03  0.58148439001E+03  0.10100000352E+00 0.  1.
       -3    1    3    3    0  502  0.32688831831E+03  0.14844579970E+03  0.17801010845E+04  0.18159438343E+04  0.10100000352E+00 0. -1.
</event>
<event>
 5   0  0.3549426E-05  0.2075274E+04  0.7818609E-02  0.8572214E-01
        1   -1    0    0  501    0  0.00000000000E+00  0.00000000000E+00  0.71703069121E+03  0.71703069123E+03  0.50400001928E-02 0.  1.
       -1   -1    0    0    0  501  0.00000000000E+00  0.00000000000E+00 -0.15015958267E+04  0.15015958267E+04  0.50400001928E-02 0. -1.
    10030    2    1    2    0    0  0.00000000000E+00  0.00000000000E+00 -0.78456513544E+03  0.22186265179E+04  0.20752737588E+04 0.  0.
        5    1    3    3  502    0  0.74668763609E+03 -0.23933793597E+03  0.33425160935E+03  0.85239151910E+03  0.46999998093E+01 0.  1.
       -5    1    3    3    0  502 -0.74668763609E+03  0.23933793597E+03 -0.11188167448E+04  0.13662349988E+04  0.46999998093E+01 0. -1.
</event>
<event>
 5   0  0.2859625E-05  0.1994501E+04  0.7818609E-02  0.8609196E-01
       -3   -1    0    0    0  501  0.00000000000E+00  0.00000000000E+00  0.10095791702E+04  0.10095791752E+04  0.10100000352E+00 0. -1.
        3   -1    0    0  501    0  0.00000000000E+00  0.00000000000E+00 -0.98507191688E+03  0.98507192206E+03  0.10100000352E+00 0.  1.
    10030    2    1    2    0    0  0.00000000000E+00  0.00000000000E+00  0.24507253315E+02  0.19946510973E+04  0.19945005376E+04 0.  0.
        1    1    3    3  502    0 -0.10349119356E+02 -0.32102603632E+03 -0.93192742263E+03  0.98572488116E+03  0.50400001928E-02 0.  1.
       -1    1    3    3    0  502  0.10349119356E+02  0.32102603632E+03  0.95643467594E+03  0.10089262162E+04  0.50400001928E-02 0. -1.
</event>
<event>
 5   0  0.3772949E-05  0.1998361E+04  0.7818609E-02  0.8607387E-01
       -1   -1    0    0    0  501  0.00000000000E+00  0.00000000000E+00  0.54626807711E+03  0.54626807713E+03  0.50400001928E-02 0. -1.
        1   -1    0    0  501    0  0.00000000000E+00  0.00000000000E+00 -0.18276036540E+04  0.18276036540E+04  0.50400001928E-02 0.  1.
    10030    2    1    2    0    0  0.00000000000E+00  0.00000000000E+00 -0.12813355769E+04  0.23738717311E+04  0.19983608621E+04 0.  0.
        2    1    3    3  502    0 -0.66417842268E+03  0.49145022783E+03 -0.13081262171E+04  0.15472073240E+04  0.25500000920E-02 0.  1.
       -2    1    3    3    0  502  0.66417842268E+03 -0.49145022783E+03  0.26790640223E+02  0.82666440712E+03  0.25500000920E-02 0. -1.
</event>
<event>
 5   0  0.7935008E-05  0.1990053E+04  0.7818609E-02  0.8611285E-01
       -2   -1    0    0    0  501  0.00000000000E+00  0.00000000000E+00  0.16084018513E+04  0.16084018513E+04  0.25500000920E-02 0. -1.
        2   -1    0    0  501    0  0.00000000000E+00  0.00000000000E+00 -0.61556634614E+03  0.61556634614E+03  0.25500000920E-02 0.  1.
    10030    2    1    2    0    0  0.00000000000E+00  0.00000000000E+00  0.99283550516E+03  0.22239681974E+04  0.19900533166E+04 0.  0.
        3    1    3    3  502    0  0.62590845154E+03  0.34636734039E+03  0.12693387000E+04  0.14570355073E+04  0.10100000352E+00 0. -1.
       -3    1    3    3    0  502 -0.62590845154E+03 -0.34636734039E+03 -0.27650319481E+03  0.76693269010E+03  0.10100000352E+00 0.  1.
</event>
<event>
 5   0  0.7843846E-05  0.1997655E+04  0.7818609E-02  0.8607718E-01
        2   -1    0    0  501    0  0.00000000000E+00  0.00000000000E+00  0.89661215940E+03  0.89661215941E+03  0.25500000920E-02 0. -1.
       -2   -1    0    0    0  501  0.00000000000E+00  0.00000000000E+00 -0.11126956903E+04  0.11126956903E+04  0.25500000920E-02 0.  1.
    10030    2    1    2    0    0  0.00000000000E+00  0.00000000000E+00 -0.21608353085E+03  0.20093078497E+04  0.19976551110E+04 0.  0.
        2    1    3    3  502    0 -0.32188817877E+03  0.85051919921E+03  0.30748006774E+03  0.95996817652E+03  0.25500000920E-02 0. -1.
       -2    1    3    3    0  502  0.32188817877E+03 -0.85051919921E+03 -0.52356359860E+03  0.10493396731E+04  0.25500000920E-02 0.  1.
</event>
<event>
 5   0  0.7935008E-05  0.1993708E+04  0.7818609E-02  0.8609568E-01
       -2   -1    0    0    0  501  0.00000000000E+00  0.00000000000E+00  0.60103927488E+03  0.60103927488E+03  0.25500000920E-02 0.  1.
        2   -1    0    0  501    0  0.00000000000E+00  0.00000000000E+00 -0.16533319649E+04  0.16533319649E+04  0.25500000920E-02 0. -1.
    10030    2    1    2    0    0  0.00000000000E+00  0.00000000000E+00 -0.10522926900E+04  0.22543712398E+04  0.19937075466E+04 0.  0.
        3    1    3    3  502    0  0.45908677088E+03 -0.51895156615E+03 -0.13365398587E+04  0.15054601274E+04  0.10100000352E+00 0. -1.
       -3    1    3    3    0  502 -0.45908677088E+03  0.51895156615E+03  0.28424716862E+03  0.74891111240E+03  0.10100000352E+00 0.  1.
</event>
<event>
 5   0  0.7843846E-05  0.1977050E+04  0.7818609E-02  0.8617427E-01
       -2   -1    0    0    0  501  0.00000000000E+00  0.00000000000E+00  0.38400477644E+03  0.38400477645E+03  0.25500000920E-02 0.  1.
        2   -1    0    0  501    0  0.00000000000E+00  0.00000000000E+00 -0.25447110359E+04  0.25447110359E+04  0.25500000920E-02 0. -1.
    10030    2    1    2    0    0  0.00000000000E+00  0.00000000000E+00 -0.21607062595E+04  0.29287158124E+04  0.19770495112E+04 0.  0.
        2    1    3    3  502    0 -0.30709705153E+03  0.81135836031E+03 -0.37835532533E+03  0.94644795954E+03  0.25500000920E-02 0.  1.
       -2    1    3    3    0  502  0.30709705153E+03 -0.81135836031E+03 -0.17823509342E+04  0.19822678528E+04  0.25500000920E-02 0. -1.
</event>
<event>
 5   0  0.7935008E-05  0.1996779E+04  0.7818609E-02  0.8608128E-01
       -2   -1    0    0    0  501  0.00000000000E+00  0.00000000000E+00  0.90740264096E+03  0.90740264097E+03  0.25500000920E-02 0.  1.
        2   -1    0    0  501    0  0.00000000000E+00  0.00000000000E+00 -0.10984998229E+04  0.10984998229E+04  0.25500000920E-02 0. -1.
    10030    2    1    2    0    0  0.00000000000E+00  0.00000000000E+00 -0.19109718189E+03  0.20059024638E+04  0.19967790467E+04 0.  0.
        3    1    3    3  502    0  0.77629008000E+02  0.71324123454E+03 -0.79301352846E+03  0.10693969273E+04  0.10100000352E+00 0. -1.
       -3    1    3    3    0  502 -0.77629008000E+02 -0.71324123454E+03  0.60191634657E+03  0.93650553656E+03  0.10100000352E+00 0.  1.
</event>
<event>
 5   0  0.8011197E-05  0.1924442E+04  0.7818609E-02  0.8642785E-01
        2   -1    0    0  501    0  0.00000000000E+00  0.00000000000E+00  0.21576921546E+04  0.21576921546E+04  0.25500000920E-02 0.  1.
       -2   -1    0    0    0  501  0.00000000000E+00  0.00000000000E+00 -0.42910179468E+03  0.42910179468E+03  0.25500000920E-02 0. -1.
    10030    2    1    2    0    0  0.00000000000E+00  0.00000000000E+00  0.17285903599E+04  0.25867939493E+04  0.19244423358E+04 0.  0.
        5    1    3    3  502    0 -0.11872739177E+03  0.95050365844E+03  0.74187831756E+03  0.12115935483E+04  0.46999998093E+01 0. -1.
       -5    1    3    3    0  502  0.11872739177E+03 -0.95050365844E+03  0.98671204237E+03  0.13752004010E+04  0.46999998093E+01 0.  1.
</event>
<event>
 5   0  0.7857136E-05  0.1913587E+04  0.7818609E-02  0.8648122E-01
        2   -1    0    0  501    0  0.00000000000E+00  0.00000000000E+00  0.14502794086E+04  0.14502794086E+04  0.25500000920E-02 0. -1.
       -2   -1    0    0    0  501  0.00000000000E+00  0.00000000000E+00 -0.63122614077E+03  0.63122614078E+03  0.25500000920E-02 0.  1.
    10030    2    1    2    0    0  0.00000000000E+00  0.00000000000E+00  0.81905326780E+03  0.20815055494E+04  0.19135874938E+04 0.  0.
        4    1    3    3  502    0 -0.42702170157E+03  0.60435556404E+03 -0.25020943031E+03  0.78115270806E+03  0.12699999809E+01 0.  1.
       -4    1    3    3    0  502  0.42702170157E+03 -0.60435556404E+03  0.10692626981E+04  0.13003528413E+04  0.12699999809E+01 0. -1.
</event>
<event>
 5   0  0.7857136E-05  0.2001785E+04  0.7818609E-02  0.8605786E-01
       -2   -1    0    0    0  501  0.00000000000E+00  0.00000000000E+00  0.72747271294E+03  0.72747271295E+03  0.25500000920E-02 0.  1.
        2   -1    0    0  501    0  0.00000000000E+00  0.00000000000E+00 -0.13770771458E+04  0.13770771459E+04  0.25500000920E-02 0. -1.
    10030    2    1    2    0    0  0.00000000000E+00  0.00000000000E+00 -0.64960443291E+03  0.21045498588E+04  0.20017852504E+04 0.  0.
        4    1    3    3  502    0 -0.39185753339E+02  0.20085221110E+03  0.70524321779E+03  0.73433421757E+03  0.12699999809E+01 0.  1.
       -4    1    3    3    0  502  0.39185753339E+02 -0.20085221110E+03 -0.13548476507E+04  0.13702156412E+04  0.12699999809E+01 0. -1.
</event>
<event>
 5   0  0.3818907E-05  0.2052189E+04  0.7818609E-02  0.8582602E-01
        1   -1    0    0  501    0  0.00000000000E+00  0.00000000000E+00  0.13958099463E+04  0.13958099463E+04  0.50400001928E-02 0.  1.
       -1   -1    0    0    0  501  0.00000000000E+00  0.00000000000E+00 -0.75430745646E+03  0.75430745648E+03  0.50400001928E-02 0. -1.
    10030    2    1    2    0    0  0.00000000000E+00  0.00000000000E+00  0.64150248984E+03  0.21501174028E+04  0.20521889292E+04 0.  0.
        1    1    3    3  502    0  0.36566662693E+03 -0.17108150208E+03  0.13091057035E+04  0.13699411321E+04  0.50400001928E-02 0.  1.
       -1    1    3    3    0  502 -0.36566662693E+03  0.17108150208E+03 -0.66760321368E+03  0.78017627069E+03  0.50400001928E-02 0. -1.
</event>
<event>
 5   0  0.7843846E-05  0.2002224E+04  0.7818609E-02  0.8605582E-01
       -2   -1    0    0    0  501  0.00000000000E+00  0.00000000000E+00  0.61896974604E+03  0.61896974605E+03  0.25500000920E-02 0.  1.
        2   -1    0    0  501    0  0.00000000000E+00  0.00000000000E+00 -0.16191826247E+04  0.16191826247E+04  0.25500000920E-02 0. -1.
    10030    2    1    2    0    0  0.00000000000E+00  0.00000000000E+00 -0.10002128786E+04  0.22381523707E+04  0.20022238217E+04 0.  0.
        2    1    3    3  502    0 -0.45378442301E+02 -0.52335244085E+03 -0.14527391791E+04  0.15448003440E+04  0.25500000920E-02 0. -1.
       -2    1    3    3    0  502  0.45378442301E+02  0.52335244085E+03  0.45252630044E+03  0.69335202673E+03  0.25500000920E-02 0.  1.
</event>
<event>
 5   0  0.3549426E-05  0.2071201E+04  0.7818609E-02  0.8574037E-01
        1   -1    0    0  501    0  0.00000000000E+00  0.00000000000E+00  0.15014464351E+04  0.15014464351E+04  0.50400001928E-02 0. -1.
       -1   -1    0    0    0  501  0.00000000000E+00  0.00000000000E+00 -0.71429045831E+03  0.71429045833E+03  0.50400001928E-02 0.  1.
    10030    2    1    2    0    0  0.00000000000E+00  0.00000000000E+00  0.78715597678E+03  0.22157368934E+04  0.20712014506E+04 0.  0.
        5    1    3    3  502    0 -0.83817746651E+03  0.17759789199E+03 -0.22870526323E+03  0.88679798378E+03  0.46999998093E+01 0.  1.
       -5    1    3    3    0  502  0.83817746651E+03 -0.17759789199E+03  0.10158612400E+04  0.13289389096E+04  0.46999998093E+01 0. -1.
</event>
<event>
 5   0  0.3787698E-05  0.1997885E+04  0.7818609E-02  0.8607610E-01
        1   -1    0    0  501    0  0.00000000000E+00  0.00000000000E+00  0.99939184815E+03  0.99939184816E+03  0.50400001928E-02 0.  1.
       -1   -1    0    0    0  501  0.00000000000E+00  0.00000000000E+00 -0.99849375178E+03  0.99849375179E+03  0.50400001928E-02 0. -1.
    10030    2    1    2    0    0  0.00000000000E+00  0.00000000000E+00  0.89809637280E+00  0.19978856000E+04  0.19978853981E+04 0.  0.
        4    1    3    3  502    0  0.73949276817E+03  0.30707851444E+03 -0.59682660589E+03  0.99867431058E+03  0.12699999809E+01 0. -1.
       -4    1    3    3    0  502 -0.73949276817E+03 -0.30707851444E+03  0.59772470227E+03  0.99921128937E+03  0.12699999809E+01 0.  1.
</event>
<event>
 5   0  0.3549426E-05  0.2011821E+04  0.7818609E-02  0.8601114E-01
       -1   -1    0    0    0  501  0.00000000000E+00  0.00000000000E+00  0.81328820398E+03  0.81328820400E+03  0.50400001928E-02 0.  1.
        1   -1    0    0  501    0  0.00000000000E+00  0.00000000000E+00 -0.12441542623E+04  0.12441542623E+04  0.50400001928E-02 0. -1.
    10030    2    1    2    0    0  0.00000000000E+00  0.00000000000E+00 -0.43086605835E+03  0.20574424663E+04  0.20118210512E+04 0.  0.
        5    1    3    3  502    0  0.18751898007E+02 -0.52708641585E+03  0.66053128736E+03  0.84527829443E+03  0.46999998093E+01 0.  1.
       -5    1    3    3    0  502 -0.18751898007E+02  0.52708641585E+03 -0.10913973457E+04  0.12121641719E+04  0.46999998093E+01 0. -1.
</event>
<event>
 5   0  0.8022574E-05  0.1993614E+04  0.7818609E-02  0.8609612E-01
        2   -1    0    0  501    0  0.00000000000E+00  0.00000000000E+00  0.72559175721E+03  0.72559175721E+03  0.25500000920E-02 0. -1.
       -2   -1    0    0    0  501  0.00000000000E+00  0.00000000000E+00 -0.13693980176E+04  0.13693980176E+04  0.25500000920E-02 0.  1.
    10030    2    1    2    0    0  0.00000000000E+00  0.00000000000E+00 -0.64380626036E+03  0.20949897748E+04  0.19936137177E+04 0.  0.
        1    1    3    3  502    0  0.81147800916E+03  0.35169615803E+03 -0.80510828627E+03  0.11959874998E+04  0.50400001928E-02 0. -1.
       -1    1    3    3    0  502 -0.81147800916E+03 -0.35169615803E+03  0.16130202592E+03  0.89900227503E+03  0.50400001928E-02 0.  1.
</event>
<event>
 5   0  0.7935008E-05  0.2004885E+04  0.7818609E-02  0.8604340E-01
       -2   -1    0    0    0  501  0.00000000000E+00  0.00000000000E+00  0.58878708270E+03  0.58878708271E+03  0.25500000920E-02 0.  1.
        2   -1    0    0  501    0  0.00000000000E+00  0.00000000000E+00 -0.17067132862E+04  0.17067132862E+04  0.25500000920E-02 0. -1.
    10030    2    1    2    0    0  0.00000000000E+00  0.00000000000E+00 -0.11179262035E+04  0.22955003689E+04  0.20048847715E+04 0.  0.
        3    1    3    3  502    0  0.31058776668E+03 -0.57082560182E+03 -0.14328742165E+04  0.15733515688E+04  0.10100000352E+00 0. -1.
       -3    1    3    3    0  502 -0.31058776668E+03  0.57082560182E+03  0.31494801296E+03  0.72214880016E+03  0.10100000352E+00 0.  1.
</event>
<event>
 5   0  0.8011197E-05  0.2046406E+04  0.7818609E-02  0.8585226E-01
       -2   -1    0    0    0  501  0.00000000000E+00  0.00000000000E+00  0.90814553178E+03  0.90814553179E+03  0.25500000920E-02 0. -1.
        2   -1    0    0  501    0  0.00000000000E+00  0.00000000000E+00 -0.11528379558E+04  0.11528379558E+04  0.25500000920E-02 0.  1.
    10030    2    1    2    0    0  0.00000000000E+00  0.00000000000E+00 -0.24469242404E+03  0.20609834876E+04  0.20464062534E+04 0.  0.
        5    1    3    3  502    0 -0.78942687122E+03  0.65091245014E+03 -0.11591750579E+03  0.10297284889E+04  0.46999998093E+01 0.  1.
       -5    1    3    3    0  502  0.78942687122E+03 -0.65091245014E+03 -0.12877491825E+03  0.10312549987E+04  0.46999998093E+01 0. -1.
</event>
<event>
 5   0  0.3549426E-05  0.1893798E+04  0.7818609E-02  0.8657950E-01
       -1   -1    0    0    0  501  0.00000000000E+00  0.00000000000E+00  0.10168228122E+04  0.10168228122E+04  0.50400001928E-02 0. -1.
        1   -1    0    0  501    0  0.00000000000E+00  0.00000000000E+00 -0.88178375753E+03  0.88178375754E+03  0.50400001928E-02 0.  1.
    10030    2    1    2    0    0  0.00000000000E+00  0.00000000000E+00  0.13503905469E+03  0.18986065698E+04  0.18937981309E+04 0.  0.
        5    1    3    3  502    0 -0.33182776946E+03 -0.88220118807E+03  0.15834284400E+03  0.95576312497E+03  0.46999998093E+01 0.  1.
       -5    1    3    3    0  502  0.33182776946E+03  0.88220118807E+03 -0.23303789307E+02  0.94284344480E+03  0.46999998093E+01 0. -1.
</event>
<event>
 5   0  0.7935008E-05  0.2024472E+04  0.7818609E-02  0.8595264E-01
       -2   -1    0    0    0  501  0.00000000000E+00  0.00000000000E+00  0.11915996637E+04  0.11915996637E+04  0.25500000920E-02 0.  1.
        2   -1    0    0  501    0  0.00000000000E+00  0.00000000000E+00 -0.85987088439E+03  0.85987088439E+03  0.25500000920E-02 0. -1.
    10030    2    1    2    0    0  0.00000000000E+00  0.00000000000E+00  0.33172877930E+03  0.20514705481E+04  0.20244721353E+04 0.  0.
        3    1    3    3  502    0  0.44327790284E+03  0.75279439173E+03 -0.35225378635E+03  0.94195405173E+03  0.10100000352E+00 0. -1.
       -3    1    3    3    0  502 -0.44327790284E+03 -0.75279439173E+03  0.68398256565E+03  0.11095164964E+04  0.10100000352E+00 0.  1.
</event>
<event>
 5   0  0.7857136E-05  0.2020250E+04  0.7818609E-02  0.8597211E-01
       -2   -1    0    0    0  501  0.00000000000E+00  0.00000000000E+00  0.86639975677E+03  0.86639975677E+03  0.25500000920E-02 0. -1.
        2   -1    0    0  501    0  0.00000000000E+00  0.00000000000E+00 -0.11776925553E+04  0.11776925553E+04  0.25500000920E-02 0.  1.
    10030    2    1    2    0    0  0.00000000000E+00  0.00000000000E+00 -0.31129279849E+03  0.20440923120E+04  0.20202500275E+04 0.  0.
        4    1    3    3  502    0 -0.34900717341E+03  0.27927276858E+03 -0.10721798994E+04  0.11616241372E+04  0.12699999809E+01 0.  1.
       -4    1    3    3    0  502  0.34900717341E+03 -0.27927276858E+03  0.76088710096E+03  0.88246817487E+03  0.12699999809E+01 0. -1.
</event>
<event>
 5   0  0.8011197E-05  0.1949425E+04  0.7818609E-02  0.8630638E-01
       -2   -1    0    0    0  501  0.00000000000E+00  0.00000000000E+00  0.29198327486E+03  0.29198327487E+03  0.25500000920E-02 0.  1.
        2   -1    0    0  501    0  0.00000000000E+00  0.00000000000E+00 -0.32538302584E+04  0.32538302584E+04  0.25500000920E-02 0. -1.
    10030    2    1    2    0    0  0.00000000000E+00  0.00000000000E+00 -0.29618469835E+04  0.35458135333E+04  0.19494245455E+04 0.  0.
        5    1    3    3  502    0 -0.42652762761E+01 -0.94484295295E+03 -0.10455421434E+04  0.14092291729E+04  0.46999998093E+01 0.  1.
       -5    1    3    3    0  502  0.42652762761E+01  0.94484295295E+03 -0.19163048402E+04  0.21365843603E+04  0.46999998093E+01 0. -1.
</event>
<event>
 5   0  0.3549426E-05  0.1997669E+04  0.7818609E-02  0.8607711E-01
        1   -1    0    0  501    0  0.00000000000E+00  0.00000000000E+00  0.14488085589E+04  0.14488085589E+04  0.50400001928E-02 0.  1.
       -1   -1    0    0    0  501  0.00000000000E+00  0.00000000000E+00 -0.68861433668E+03  0.68861433670E+03  0.50400001928E-02 0. -1.
    10030    2    1    2    0    0  0.00000000000E+00  0.00000000000E+00  0.76019422219E+03  0.21374228956E+04  0.19976689864E+04 0.  0.
        5    1    3    3  502    0 -0.24550618914E+03  0.93413779257E+03  0.10781096289E+03  0.97187036076E+03  0.46999998093E+01 0. -1.
       -5    1    3    3    0  502  0.24550618914E+03 -0.93413779257E+03  0.65238325930E+03  0.11655525348E+04  0.46999998093E+01 0.  1.
</event>
<event>
 5   0  0.7935008E-05  0.1930614E+04  0.7818609E-02  0.8639766E-01
        2   -1    0    0  501    0  0.00000000000E+00  0.00000000000E+00  0.52346501147E+03  0.52346501147E+03  0.25500000920E-02 0. -1.
       -2   -1    0    0    0  501  0.00000000000E+00  0.00000000000E+00 -0.17800947648E+04  0.17800947648E+04  0.25500000920E-02 0.  1.
    10030    2    1    2    0    0  0.00000000000E+00  0.00000000000E+00 -0.12566297533E+04  0.23035597762E+04  0.19306137122E+04 0.  0.
        3    1    3    3  502    0 -0.33015923512E+03  0.81283697166E+03 -0.11087189300E+04  0.14138482023E+04  0.10100000352E+00 0.  1.
       -3    1    3    3    0  502  0.33015923512E+03 -0.81283697166E+03 -0.14791082328E+03  0.88971157399E+03  0.10100000352E+00 0. -1.
</event>
<event>
 5   0  0.8022574E-05  0.2000265E+04  0.7818609E-02  0.8606497E-01
        2   -1    0    0  501    0  0.00000000000E+00  0.00000000000E+00  0.20098613368E+04  0.20098613368E+04  0.25500000920E-02 0.  1.
       -2   -1    0    0    0  501  0.00000000000E+00  0.00000000000E+00 -0.49767867278E+03  0.49767867279E+03  0.25500000920E-02 0. -1.
    10030    2    1    2    0    0  0.00000000000E+00  0.00000000000E+00  0.15121826640E+04  0.25075400096E+04  0.20002651050E+04 0.  0.
        1    1    3    3  502    0 -0.10492827713E+02 -0.99359040762E+03  0.89865604705E+03  0.13397442623E+04  0.50400001928E-02 0. -1.
       -1    1    3    3    0  502  0.10492827713E+02  0.99359040762E+03  0.61352661698E+03  0.11677957473E+04  0.50400001928E-02 0.  1.
</event>
<event>
 5   0  0.7857136E-05  0.2003413E+04  0.7818609E-02  0.8605027E-01
       -2   -1    0    0    0  501  0.00000000000E+00  0.00000000000E+00  0.14151366388E+04  0.14151366388E+04  0.25500000920E-02 0. -1.
        2   -1    0    0  501    0  0.00000000000E+00  0.00000000000E+00 -0.70905943957E+03  0.70905943958E+03  0.25500000920E-02 0.  1.
    10030    2    1    2    0    0  0.00000000000E+00  0.00000000000E+00  0.70607719920E+03  0.21241960784E+04  0.20034130797E+04 0.  0.
        4    1    3    3  502    0 -0.66535445848E+03  0.36737150019E+03  0.10448767211E+04  0.12920632143E+04  0.12699999809E+01 0. -1.
       -4    1    3    3    0  502  0.66535445848E+03 -0.36737150019E+03 -0.33879952186E+03  0.83213286408E+03  0.12699999809E+01 0.  1.
</event>
<event>
 5   0  0.8022574E-05  0.1969763E+04  0.7818609E-02  0.8620889E-01
       -2   -1    0    0    0  501  0.00000000000E+00  0.00000000000E+00  0.50343406586E+03  0.50343406586E+03  0.25500000920E-02 0.  1.
        2   -1    0    0  501    0  0.00000000000E+00  0.00000000000E+00 -0.19267508392E+04  0.19267508392E+04  0.25500000920E-02 0. -1.
    10030    2    1    2    0    0  0.00000000000E+00  0.00000000000E+00 -0.14233167734E+04  0.24301849051E+04  0.19697634466E+04 0.  0.
        1    1    3    3  502    0  0.24288850210E+03  0.92428637190E+03 -0.41790309278E+03  0.10430451173E+04  0.50400001928E-02 0. -1.
       -1    1    3    3    0  502 -0.24288850210E+03 -0.92428637190E+03 -0.10054136806E+04  0.13871397878E+04  0.50400001928E-02 0.  1.
</event>
<event>
 5   0  0.7935008E-05  0.1997820E+04  0.7818609E-02  0.8607640E-01
       -2   -1    0    0    0  501  0.00000000000E+00  0.00000000000E+00  0.85394298411E+03  0.85394298411E+03  0.25500000920E-02 0. -1.
        2   -1    0    0  501    0  0.00000000000E+00  0.00000000000E+00 -0.11684874770E+04  0.11684874770E+04  0.25500000920E-02 0.  1.
    10030    2    1    2    0    0  0.00000000000E+00  0.00000000000E+00 -0.31454449293E+03  0.20224304612E+04  0.19978204955E+04 0.  0.
        3    1    3    3  502    0 -0.73115248619E+03  0.10244338857E+03 -0.83842268078E+03  0.11171531711E+04  0.10100000352E+00 0.  1.
       -3    1    3    3    0  502  0.73115248619E+03 -0.10244338857E+03  0.52387818785E+03  0.90527729002E+03  0.10100000352E+00 0. -1.
</event>
<event>
 5   0  0.7843846E-05  0.2025912E+04  0.7818609E-02  0.8594601E-01
       -2   -1    0    0    0  501  0.00000000000E+00  0.00000000000E+00  0.10487551733E+04  0.10487551733E+04  0.25500000920E-02 0.  1.
        2   -1    0    0  501    0  0.00000000000E+00  0.00000000000E+00 -0.97837924121E+03  0.97837924121E+03  0.25500000920E-02 0. -1.
    10030    2    1    2    0    0  0.00000000000E+00  0.00000000000E+00  0.70375932099E+02  0.20271344145E+04  0.20259124272E+04 0.  0.
        2    1    3    3  502    0 -0.22462455736E+03  0.29436817274E+03  0.97860951478E+03  0.10463199297E+04  0.25500000920E-02 0.  1.
       -2    1    3    3    0  502  0.22462455736E+03 -0.29436817274E+03 -0.90823358268E+03  0.98081448481E+03  0.25500000920E-02 0. -1.
</event>
<event>
 5   0  0.8022574E-05  0.2009640E+04  0.7818609E-02  0.8602127E-01
        2   -1    0    0  501    0  0.00000000000E+00  0.00000000000E+00  0.12868378229E+04  0.12868378229E+04  0.25500000920E-02 0.  1.
       -2   -1    0    0    0  501  0.00000000000E+00  0.00000000000E+00 -0.78460800767E+03  0.78460800768E+03  0.25500000920E-02 0. -1.
    10030    2    1    2    0    0  0.00000000000E+00  0.00000000000E+00  0.50222981519E+03  0.20714458305E+04  0.20096400279E+04 0.  0.
        1    1    3    3  502    0  0.13186207065E+03 -0.54779305533E+03 -0.60645712886E+03  0.82780135680E+03  0.50400001928E-02 0. -1.
       -1    1    3    3    0  502 -0.13186207065E+03  0.54779305533E+03  0.11086869441E+04  0.12436444737E+04  0.50400001928E-02 0.  1.
</event>
<event>
 5   0  0.7843846E-05  0.1998801E+04  0.7818609E-02  0.8607182E-01
       -2   -1    0    0    0  501  0.00000000000E+00  0.00000000000E+00  0.45521559805E+03  0.45521559806E+03  0.25500000920E-02 0. -1.
        2   -1    0    0  501    0  0.00000000000E+00  0.00000000000E+00 -0.21941272186E+04  0.21941272186E+04  0.25500000920E-02 0.  1.
    10030    2    1    2    0    0  0.00000000000E+00  0.00000000000E+00 -0.17389116205E+04  0.26493428166E+04  0.19988005744E+04 0.  0.
        2    1    3    3  502    0  0.58980537074E+03  0.29559853506E+03  0.12557313694E+03  0.67157835136E+03  0.25500000920E-02 0. -1.
       -2    1    3    3    0  502 -0.58980537074E+03 -0.29559853506E+03 -0.18644847575E+04  0.19777644653E+04  0.25500000920E-02 0.  1.
</event>
<event>
 5   0  0.3818907E-05  0.2002319E+04  0.7818609E-02  0.8605537E-01
       -1   -1    0    0    0  501  0.00000000000E+00  0.00000000000E+00  0.18096260211E+04  0.18096260211E+04  0.50400001928E-02 0.  1.
        1   -1    0    0  501    0  0.00000000000E+00  0.00000000000E+00 -0.55388272616E+03  0.55388272618E+03  0.50400001928E-02 0. -1.
    10030    2    1    2    0    0  0.00000000000E+00  0.00000000000E+00  0.12557432950E+04  0.23635087473E+04  0.20023192492E+04 0.  0.
        1    1    3    3  502    0  0.62659093671E+03 -0.49182278471E+03 -0.88005429975E+02  0.80140552111E+03  0.50400001928E-02 0. -1.
       -1    1    3    3    0  502 -0.62659093671E+03  0.49182278471E+03  0.13437487250E+04  0.15621032262E+04  0.50400001928E-02 0.  1.
</event>
<event>
 5   0  0.3772949E-05  0.1996165E+04  0.7818609E-02  0.8608416E-01
       -1   -1    0    0    0  501  0.00000000000E+00  0.00000000000E+00  0.97652697176E+03  0.97652697177E+03  0.50400001928E-02 0. -1.
        1   -1    0    0  501    0  0.00000000000E+00  0.00000000000E+00 -0.10201141871E+04  0.10201141871E+04  0.50400001928E-02 0.  1.
    10030    2    1    2    0    0  0.00000000000E+00  0.00000000000E+00 -0.43587215337E+02  0.19966411589E+04  0.19961653418E+04 0.  0.
        2    1    3    3  502    0  0.10538106353E+03 -0.21285374986E+03  0.94784817951E+03  0.97715303754E+03  0.25500000920E-02 0. -1.
       -2    1    3    3    0  502 -0.10538106353E+03  0.21285374986E+03 -0.99143539485E+03  0.10194881213E+04  0.25500000920E-02 0.  1.
</event>
<event>
 5   0  0.3787698E-05  0.2007770E+04  0.7818609E-02  0.8602996E-01
       -1   -1    0    0    0  501  0.00000000000E+00  0.00000000000E+00  0.96101239308E+03  0.96101239310E+03  0.50400001928E-02 0. -1.
        1   -1    0    0  501    0  0.00000000000E+00  0.00000000000E+00 -0.10486707385E+04  0.10486707385E+04  0.50400001928E-02 0.  1.
    10030    2    1    2    0    0  0.00000000000E+00  0.00000000000E+00 -0.87658345410E+02  0.20096831316E+04  0.20077704809E+04 0.  0.
        4    1    3    3  502    0 -0.58164663690E+03  0.71261930560E+03  0.35860467092E+03  0.98728820910E+03  0.12699999809E+01 0. -1.
       -4    1    3    3    0  502  0.58164663690E+03 -0.71261930560E+03 -0.44626301633E+03  0.10223949225E+04  0.12699999809E+01 0.  1.
</event>
<event>
 5   0  0.3549426E-05  0.2016554E+04  0.7818609E-02  0.8598920E-01
        1   -1    0    0  501    0  0.00000000000E+00  0.00000000000E+00  0.90487446834E+03  0.90487446836E+03  0.50400001928E-02 0. -1.
       -1   -1    0    0    0  501  0.00000000000E+00  0.00000000000E+00 -0.11234958447E+04  0.11234958447E+04  0.50400001928E-02 0.  1.
    10030    2    1    2    0    0  0.00000000000E+00  0.00000000000E+00 -0.21862137633E+03  0.20283703130E+04  0.20165541948E+04 0.  0.
        5    1    3    3  502    0  0.62141396035E+03 -0.52426020579E+03  0.49050264004E+03  0.94953620435E+03  0.46999998093E+01 0. -1.
       -5    1    3    3    0  502 -0.62141396035E+03  0.52426020579E+03 -0.70912401637E+03  0.10788341087E+04  0.46999998093E+01 0.  1.
</event>
<event>
 5   0  0.7935008E-05  0.1997325E+04  0.7818609E-02  0.8607872E-01
       -2   -1    0    0    0  501  0.00000000000E+00  0.00000000000E+00  0.44399910742E+03  0.44399910743E+03  0.25500000920E-02 0. -1.
        2   -1    0    0  501    0  0.00000000000E+00  0.00000000000E+00 -0.22462353642E+04  0.22462353642E+04  0.25500000920E-02 0.  1.
    10030    2    1    2    0    0  0.00000000000E+00  0.00000000000E+00 -0.18022362568E+04  0.26902344716E+04  0.19973247075E+04 0.  0.
        3    1    3    3  502    0 -0.43129328028E+03 -0.73811844611E+03 -0.20579772262E+03  0.87930964224E+03  0.10100000352E+00 0.  1.
       -3    1    3    3    0  502  0.43129328028E+03  0.73811844611E+03 -0.15964385341E+04  0.18109248294E+04  0.10100000352E+00 0. -1.
</event>
<event>
 5   0  0.2859625E-05  0.1989504E+04  0.7818609E-02  0.8611543E-01
        3   -1    0    0  501    0  0.00000000000E+00  0.00000000000E+00  0.72781992553E+03  0.72781993254E+03  0.10100000352E+00 0.  1.
       -3   -1    0    0    0  501  0.00000000000E+00  0.00000000000E+00 -0.13595835088E+04  0.13595835126E+04  0.10100000352E+00 0. -1.
    10030    2    1    2    0    0  0.00000000000E+00  0.00000000000E+00 -0.63176358329E+03  0.20874034451E+04  0.19895044402E+04 0.  0.
        3    1    3    3  502    0 -0.47933009555E+03  0.25784354935E+03  0.55773177271E+03  0.77929800265E+03  0.10100000352E+00 0.  1.
       -3    1    3    3    0  502  0.47933009555E+03 -0.25784354935E+03 -0.11894953560E+04  0.13081054425E+04  0.10100000352E+00 0. -1.
</event>
<event>
 5   0  0.7935008E-05  0.1999638E+04  0.7818609E-02  0.8606790E-01
        2   -1    0    0  501    0  0.00000000000E+00  0.00000000000E+00  0.53578684876E+03  0.53578684877E+03  0.25500000920E-02 0. -1.
       -2   -1    0    0    0  501  0.00000000000E+00  0.00000000000E+00 -0.18657382033E+04  0.18657382033E+04  0.25500000920E-02 0.  1.
    10030    2    1    2    0    0  0.00000000000E+00  0.00000000000E+00 -0.13299513546E+04  0.24015250521E+04  0.19996379598E+04 0.  0.
        3    1    3    3  502    0  0.86279575965E+03 -0.49278821164E+03 -0.53134142608E+03  0.11267566133E+04  0.10100000352E+00 0.  1.
       -3    1    3    3    0  502 -0.86279575965E+03  0.49278821164E+03 -0.79860992848E+03  0.12747684388E+04  0.10100000352E+00 0. -1.
</event>
<event>
 5   0  0.3970042E-05  0.1992745E+04  0.7818609E-02  0.8610020E-01
        1   -1    0    0  501    0  0.00000000000E+00  0.00000000000E+00  0.12166489435E+04  0.12166489435E+04  0.50400001928E-02 0.  1.
       -1   -1    0    0    0  501  0.00000000000E+00  0.00000000000E+00 -0.81597720555E+03  0.81597720557E+03  0.50400001928E-02 0. -1.
    10030    2    1    2    0    0  0.00000000000E+00  0.00000000000E+00  0.40067173792E+03  0.20326261490E+04  0.19927446450E+04 0.  0.
        3    1    3    3  502    0  0.36378749003E+03 -0.37250601561E+03  0.10668405003E+04  0.11871186684E+04  0.10100000352E+00 0.  1.
       -3    1    3    3    0  502 -0.36378749003E+03  0.37250601561E+03 -0.66616876241E+03  0.84550748062E+03  0.10100000352E+00 0. -1.
</event>
<event>
 5   0  0.3787698E-05  0.1999807E+04  0.7818609E-02  0.8606711E-01
        1   -1    0    0  501    0  0.00000000000E+00  0.00000000000E+00  0.17322234055E+04  0.17322234055E+04  0.50400001928E-02 0.  1.
       -1   -1    0    0    0  501  0.00000000000E+00  0.00000000000E+00 -0.57718159443E+03  0.57718159445E+03  0.50400001928E-02 0. -1.
    10030    2    1    2    0    0  0.00000000000E+00  0.00000000000E+00  0.11550418111E+04  0.23094050000E+04  0.19998074579E+04 0.  0.
        4    1    3    3  502    0 -0.15730287303E+03  0.45889630618E+01 -0.56278997531E+03  0.58437951851E+03  0.12699999809E+01 0. -1.
       -4    1    3    3    0  502  0.15730287303E+03 -0.45889630618E+01  0.17178317864E+04  0.17250254814E+04  0.12699999809E+01 0.  1.
</event>
<event>
 5   0  0.3549426E-05  0.1990786E+04  0.7818609E-02  0.8610941E-01
       -1   -1    0    0    0  501  0.00000000000E+00  0.00000000000E+00  0.14532985245E+04  0.14532985245E+04  0.50400001928E-02 0.  1.
        1   -1    0    0  501    0  0.00000000000E+00  0.00000000000E+00 -0.68176452283E+03  0.68176452284E+03  0.50400001928E-02 0. -1.
    10030    2    1    2    0    0  0.00000000000E+00  0.00000000000E+00  0.77153400164E+03  0.21350630473E+04  0.19907861513E+04 0.  0.
        5    1    3    3  502    0  0.31059236677E+03 -0.89741500153E+03  0.65882498926E+02  0.95193691856E+03  0.46999998093E+01 0. -1.
       -5    1    3    3    0  502 -0.31059236677E+03  0.89741500153E+03  0.70565150271E+03  0.11831261288E+04  0.46999998093E+01 0.  1.
</event>
<event>
 5   0  0.7857136E-05  0.2011085E+04  0.7818609E-02  0.8601455E-01
        2   -1    0    0  501    0  0.00000000000E+00  0.00000000000E+00  0.94811941710E+03  0.94811941710E+03  0.25500000920E-02 0.  1.
       -2   -1    0    0    0  501  0.00000000000E+00  0.00000000000E+00 -0.10664438701E+04  0.10664438701E+04  0.25500000920E-02 0. -1.
    10030    2    1    2    0    0  0.00000000000E+00  0.00000000000E+00 -0.11832445301E+03  0.20145632872E+04  0.20110854189E+04 0.  0.
        4    1    3    3  502    0 -0.64274074256E+03 -0.98690034380E+02  0.70914468641E+03  0.96215548858E+03  0.12699999809E+01 0.  1.
       -4    1    3    3    0  502  0.64274074256E+03  0.98690034380E+02 -0.82746913942E+03  0.10524077986E+04  0.12699999809E+01 0. -1.
</event>
<event>
 5   0  0.7857136E-05  0.2037285E+04  0.7818609E-02  0.8589384E-01
       -2   -1    0    0    0  501  0.00000000000E+00  0.00000000000E+00  0.89968924987E+03  0.89968924988E+03  0.25500000920E-02 0.  1.
        2   -1    0    0  501    0  0.00000000000E+00  0.00000000000E+00 -0.11533231341E+04  0.11533231341E+04  0.25500000920E-02 0. -1.
    10030    2    1    2    0    0  0.00000000000E+00  0.00000000000E+00 -0.25363388425E+03  0.20530123840E+04  0.20372848847E+04 0.  0.
        4    1    3    3  502    0 -0.47033935258E+03  0.84490218247E+03 -0.44952654597E+03  0.10663744806E+04  0.12699999809E+01 0.  1.
       -4    1    3    3    0  502  0.47033935258E+03 -0.84490218247E+03  0.19589266172E+03  0.98663790336E+03  0.12699999809E+01 0. -1.
</event>
<event>
 5   0  0.7935008E-05  0.1963813E+04  0.7818609E-02  0.8623728E-01
       -2   -1    0    0    0  501  0.00000000000E+00  0.00000000000E+00  0.52959059767E+03  0.52959059767E+03  0.25500000920E-02 0.  1.
        2   -1    0    0  501    0  0.00000000000E+00  0.00000000000E+00 -0.18205397496E+04  0.18205397496E+04  0.25500000920E-02 0. -1.
    10030    2    1    2    0    0  0.00000000000E+00  0.00000000000E+00 -0.12909491520E+04  0.23501303473E+04  0.19638133660E+04 0.  0.
        3    1    3    3  502    0 -0.98131426915E+03 -0.28405549780E+01 -0.68614467868E+03  0.11974056513E+04  0.10100000352E+00 0. -1.
       -3    1    3    3    0  502  0.98131426915E+03  0.28405549780E+01 -0.60480447328E+03  0.11527246960E+04  0.10100000352E+00 0.  1.
</event>
<event>
 5   0  0.3818907E-05  0.1991856E+04  0.7818609E-02  0.8610438E-01
       -1   -1    0    0    0  501  0.00000000000E+00  0.00000000000E+00  0.69575459138E+03  0.69575459140E+03  0.50400001928E-02 0.  1.
        1   -1    0    0  501    0  0.00000000000E+00  0.00000000000E+00 -0.14256074403E+04  0.14256074403E+04  0.50400001928E-02 0. -1.
    10030    2    1    2    0    0  0.00000000000E+00  0.00000000000E+00 -0.72985284895E+03  0.21213620317E+04  0.19918563424E+04 0.  0.
        1    1    3    3  502    0  0.41557742838E+03  0.88411000907E+03 -0.57121517604E+03  0.11316544899E+04  0.50400001928E-02 0.  1.
       -1    1    3    3    0  502 -0.41557742838E+03 -0.88411000907E+03 -0.15863767291E+03  0.98970754185E+03  0.50400001928E-02 0. -1.
</event>
<event>
 5   0  0.7857136E-05  0.1992607E+04  0.7818609E-02  0.8610085E-01
       -2   -1    0    0    0  501  0.00000000000E+00  0.00000000000E+00  0.75728782433E+03  0.75728782434E+03  0.25500000920E-02 0. -1.
        2   -1    0    0  501    0  0.00000000000E+00  0.00000000000E+00 -0.13107569631E+04  0.13107569631E+04  0.25500000920E-02 0.  1.
    10030    2    1    2    0    0  0.00000000000E+00  0.00000000000E+00 -0.55346913880E+03  0.20680447875E+04  0.19926066233E+04 0.  0.
        4    1    3    3  502    0 -0.27437149493E+03  0.29935569522E+03  0.66750335589E+03  0.78131676836E+03  0.12699999809E+01 0. -1.
       -4    1    3    3    0  502  0.27437149493E+03 -0.29935569522E+03 -0.12209724947E+04  0.12867280191E+04  0.12699999809E+01 0.  1.
</event>
<event>
 5   0  0.3787698E-05  0.2010398E+04  0.7818609E-02  0.8601775E-01
       -1   -1    0    0    0  501  0.00000000000E+00  0.00000000000E+00  0.67481500735E+03  0.67481500737E+03  0.50400001928E-02 0. -1.
        1   -1    0    0  501    0  0.00000000000E+00  0.00000000000E+00 -0.14973367186E+04  0.14973367186E+04  0.50400001928E-02 0.  1.
    10030    2    1    2    0    0  0.00000000000E+00  0.00000000000E+00 -0.82252171127E+03  0.21721517260E+04  0.20103982579E+04 0.  0.
        4    1    3    3  502    0 -0.33834407953E+03 -0.25868875351E+03  0.57250652693E+03  0.71355583077E+03  0.12699999809E+01 0. -1.
       -4    1    3    3    0  502  0.33834407953E+03  0.25868875351E+03 -0.13950282382E+04  0.14585958952E+04  0.12699999809E+01 0.  1.
</event>
<event>
 5   0  0.8022574E-05  0.2003638E+04  0.7818609E-02  0.8604922E-01
       -2   -1    0    0    0  501  0.00000000000E+00  0.00000000000E+00  0.13237193479E+04  0.13237193479E+04  0.25500000920E-02 0.  1.
        2   -1    0    0  501    0  0.00000000000E+00  0.00000000000E+00 -0.75819792266E+03  0.75819792266E+03  0.25500000920E-02 0. -1.
    10030    2    1    2    0    0  0.00000000000E+00  0.00000000000E+00  0.56552142524E+03  0.20819172706E+04  0.20036379511E+04 0.  0.
        1    1    3    3  502    0  0.28821684807E+03 -0.95251814537E+03  0.16301288749E+03  0.10084309447E+04  0.50400001928E-02 0. -1.
       -1    1    3    3    0  502 -0.28821684807E+03  0.95251814537E+03  0.40250853775E+03  0.10734863258E+04  0.50400001928E-02 0.  1.
</event>
<event>
 5   0  0.8011197E-05  0.1994348E+04  0.7818609E-02  0.8609268E-01
        2   -1    0    0  501    0  0.00000000000E+00  0.00000000000E+00  0.10423005783E+04  0.10423005783E+04  0.25500000920E-02 0.  1.
       -2   -1    0    0    0  501  0.00000000000E+00  0.00000000000E+00 -0.95400112219E+03  0.95400112219E+03  0.25500000920E-02 0. -1.
    10030    2    1    2    0    0  0.00000000000E+00  0.00000000000E+00  0.88299456091E+02  0.19963017005E+04  0.19943479349E+04 0.  0.
        5    1    3    3  502    0 -0.53326039923E+03 -0.74871025011E+03  0.43105152800E+03  0.10152641045E+04  0.46999998093E+01 0.  1.
       -5    1    3    3    0  502  0.53326039923E+03  0.74871025011E+03 -0.34275207191E+03  0.98103759602E+03  0.46999998093E+01 0. -1.
</event>
<event>
 5   0  0.3787698E-05  0.1993216E+04  0.7818609E-02  0.8609799E-01
       -1   -1    0    0    0  501  0.00000000000E+00  0.00000000000E+00  0.55024896633E+03  0.55024896636E+03  0.50400001928E-02 0. -1.
        1   -1    0    0  501    0  0.00000000000E+00  0.00000000000E+00 -0.18050502670E+04  0.18050502670E+04  0.50400001928E-02 0.  1.
    10030    2    1    2    0    0  0.00000000000E+00  0.00000000000E+00 -0.12548013006E+04  0.23552992333E+04  0.19932155364E+04 0.  0.
        4    1    3    3  502    0  0.47657654540E+03 -0.36286680656E+03 -0.15686029215E+04  0.16790813742E+04  0.12699999809E+01 0.  1.
       -4    1    3    3    0  502 -0.47657654540E+03  0.36286680656E+03  0.31380162083E+03  0.67621785917E+03  0.12699999809E+01 0. -1.
</event>
<event>
 5   0  0.3818907E-05  0.1995843E+04  0.7818609E-02  0.8608567E-01
       -1   -1    0    0    0  501  0.00000000000E+00  0.00000000000E+00  0.88385165774E+03  0.88385165775E+03  0.50400001928E-02 0.  1.
        1   -1    0    0  501    0  0.00000000000E+00  0.00000000000E+00 -0.11267129325E+04  0.11267129326E+04  0.50400001928E-02 0. -1.
    10030    2    1    2    0    0  0.00000000000E+00  0.00000000000E+00 -0.24286127481E+03  0.20105645903E+04  0.19958427726E+04 0.  0.
        1    1    3    3  502    0  0.26344755803E+03  0.36147696043E+02 -0.10903652106E+04  0.11223223976E+04  0.50400001928E-02 0. -1.
       -1    1    3    3    0  502 -0.26344755803E+03 -0.36147696043E+02  0.84750393575E+03  0.88824219270E+03  0.50400001928E-02 0.  1.
</event>
<event>
 5   0  0.3787698E-05  0.2008259E+04  0.7818609E-02  0.8602769E-01
        1   -1    0    0  501    0  0.00000000000E+00  0.00000000000E+00  0.15413464022E+04  0.15413464022E+04  0.50400001928E-02 0. -1.
       -1   -1    0    0    0  501  0.00000000000E+00  0.00000000000E+00 -0.65415277253E+03  0.65415277255E+03  0.50400001928E-02 0.  1.
    10030    2    1    2    0    0  0.00000000000E+00  0.00000000000E+00  0.88719362970E+03  0.21954991748E+04  0.20082589698E+04 0.  0.
        4    1    3    3  502    0 -0.88871405917E+03  0.10242333349E+02  0.95445099151E+03  0.13041839949E+04  0.12699999809E+01 0. -1.
       -4    1    3    3    0  502  0.88871405917E+03 -0.10242333349E+02 -0.67257361808E+02  0.89131517993E+03  0.12699999809E+01 0.  1.
</event>
<event>
 5   0  0.7857136E-05  0.2004051E+04  0.7818609E-02  0.8604729E-01
        2   -1    0    0  501    0  0.00000000000E+00  0.00000000000E+00  0.12188944460E+04  0.12188944460E+04  0.25500000920E-02 0.  1.
       -2   -1    0    0    0  501  0.00000000000E+00  0.00000000000E+00 -0.82374247874E+03  0.82374247874E+03  0.25500000920E-02 0. -1.
    10030    2    1    2    0    0  0.00000000000E+00  0.00000000000E+00  0.39515196722E+03  0.20426369247E+04  0.20040510295E+04 0.  0.
        4    1    3    3  502    0  0.65688737624E+03  0.66269183039E+01  0.96878731442E+03  0.11705107495E+04  0.12699999809E+01 0.  1.
       -4    1    3    3    0  502 -0.65688737624E+03 -0.66269183039E+01 -0.57363534720E+03  0.87212617525E+03  0.12699999809E+01 0. -1.
</event>
<event>
 5   0  0.3818907E-05  0.2000230E+04  0.7818609E-02  0.8606513E-01
        1   -1    0    0  501    0  0.00000000000E+00  0.00000000000E+00  0.70420174611E+03  0.70420174613E+03  0.50400001928E-02 0.  1.
       -1   -1    0    0    0  501  0.00000000000E+00  0.00000000000E+00 -0.14203743292E+04  0.14203743293E+04  0.50400001928E-02 0. -1.
    10030    2    1    2    0    0  0.00000000000E+00  0.00000000000E+00 -0.71617258313E+03  0.21245760754E+04  0.20002300696E+04 0.  0.
        1    1    3    3  502    0  0.48037681230E+03  0.49663114780E+03  0.40993065029E+03  0.80339748371E+03  0.50400001928E-02 0.  1.
       -1    1    3    3    0  502 -0.48037681230E+03 -0.49663114780E+03 -0.11261032334E+04  0.13211785917E+04  0.50400001928E-02 0. -1.
</event>
<event>
 5   0  0.8022574E-05  0.2001057E+04  0.7818609E-02  0.8606127E-01
       -2   -1    0    0    0  501  0.00000000000E+00  0.00000000000E+00  0.13910158649E+04  0.13910158649E+04  0.25500000920E-02 0.  1.
        2   -1    0    0  501    0  0.00000000000E+00  0.00000000000E+00 -0.71965893967E+03  0.71965893967E+03  0.25500000920E-02 0. -1.
    10030    2    1    2    0    0  0.00000000000E+00  0.00000000000E+00  0.67135692527E+03  0.21106748046E+04  0.20010567233E+04 0.  0.
        1    1    3    3  502    0 -0.57914294540E+03  0.15107490354E+03  0.11813640360E+04  0.13243304585E+04  0.50400001928E-02 0.  1.
       -1    1    3    3    0  502  0.57914294540E+03 -0.15107490354E+03 -0.51000711072E+03  0.78634434614E+03  0.50400001928E-02 0. -1.
</event>
<event>
 5   0  0.2859625E-05  0.2003582E+04  0.7818609E-02  0.8604948E-01
        3   -1    0    0  501    0  0.00000000000E+00  0.00000000000E+00  0.78157983439E+03  0.78157984091E+03  0.10100000352E+00 0.  1.
       -3   -1    0    0    0  501  0.00000000000E+00  0.00000000000E+00 -0.12840468209E+04  0.12840468249E+04  0.10100000352E+00 0. -1.
    10030    2    1    2    0    0  0.00000000000E+00  0.00000000000E+00 -0.50246698655E+03  0.20656266658E+04  0.20035819050E+04 0.  0.
        4    1    3    3  502    0 -0.16778245103E+03  0.73529363480E+03 -0.93102764140E+03  0.11981743455E+04  0.12699999809E+01 0. -1.
       -4    1    3    3    0  502  0.16778245103E+03 -0.73529363480E+03  0.42856065485E+03  0.86745232033E+03  0.12699999809E+01 0.  1.
</event>
<event>
 5   0  0.3549426E-05  0.2001053E+04  0.7818609E-02  0.8606128E-01
       -1   -1    0    0    0  501  0.00000000000E+00  0.00000000000E+00  0.36290494569E+03  0.36290494572E+03  0.50400001928E-02 0. -1.
        1   -1    0    0  501    0  0.00000000000E+00  0.00000000000E+00 -0.27584450481E+04  0.27584450481E+04  0.50400001928E-02 0.  1.
    10030    2    1    2    0    0  0.00000000000E+00  0.00000000000E+00 -0.23955401025E+04  0.31213499939E+04  0.20010530732E+04 0.  0.
        5    1    3    3  502    0  0.11260076755E+03  0.76453129578E+03 -0.21890373962E+04  0.23214421912E+04  0.46999998093E+01 0.  1.
       -5    1    3    3    0  502 -0.11260076755E+03 -0.76453129578E+03 -0.20650270624E+03  0.79990780267E+03  0.46999998093E+01 0. -1.
</event>
<event>
 5   0  0.7935008E-05  0.2039734E+04  0.7818609E-02  0.8588266E-01
       -2   -1    0    0    0  501  0.00000000000E+00  0.00000000000E+00  0.85960741200E+03  0.85960741201E+03  0.25500000920E-02 0.  1.
        2   -1    0    0  501    0  0.00000000000E+00  0.00000000000E+00 -0.12100041505E+04  0.12100041505E+04  0.25500000920E-02 0. -1.
    10030    2    1    2    0    0  0.00000000000E+00  0.00000000000E+00 -0.35039673849E+03  0.20696115625E+04  0.20397338418E+04 0.  0.
        3    1    3    3  502    0  0.59961230558E+03 -0.39901884256E+02 -0.10112838681E+04  0.11763597024E+04  0.10100000352E+00 0. -1.
       -3    1    3    3    0  502 -0.59961230558E+03  0.39901884256E+02  0.66088712958E+03  0.89325186012E+03  0.10100000352E+00 0.  1.
</event>
<event>
 5   0  0.3818907E-05  0.1939085E+04  0.7818609E-02  0.8635642E-01
        1   -1    0    0  501    0  0.00000000000E+00  0.00000000000E+00  0.12619769115E+04  0.12619769115E+04  0.50400001928E-02 0. -1.
       -1   -1    0    0    0  501  0.00000000000E+00  0.00000000000E+00 -0.74487275210E+03  0.74487275212E+03  0.50400001928E-02 0.  1.
    10030    2    1    2    0    0  0.00000000000E+00  0.00000000000E+00  0.51710415942E+03  0.20068496636E+04  0.19390845419E+04 0.  0.
        1    1    3    3  502    0  0.69469797316E+03 -0.11752861472E+03  0.94785625757E+03  0.11810375668E+04  0.50400001928E-02 0. -1.
       -1    1    3    3    0  502 -0.69469797316E+03  0.11752861472E+03 -0.43075209815E+03  0.82581209683E+03  0.50400001928E-02 0.  1.
</event>
<event>
 5   0  0.3549426E-05  0.1995616E+04  0.7818609E-02  0.8608673E-01
        1   -1    0    0  501    0  0.00000000000E+00  0.00000000000E+00  0.11829426563E+04  0.11829426563E+04  0.50400001928E-02 0.  1.
       -1   -1    0    0    0  501  0.00000000000E+00  0.00000000000E+00 -0.84164719802E+03  0.84164719803E+03  0.50400001928E-02 0. -1.
    10030    2    1    2    0    0  0.00000000000E+00  0.00000000000E+00  0.34129545829E+03  0.20245898544E+04  0.19956155663E+04 0.  0.
        5    1    3    3  502    0  0.62487822589E+03  0.77732448608E+03  0.14034555270E+03  0.10071867344E+04  0.46999998093E+01 0.  1.
       -5    1    3    3    0  502 -0.62487822589E+03 -0.77732448608E+03  0.20094990558E+03  0.10174031199E+04  0.46999998093E+01 0. -1.
</event>
<event>
 5   0  0.2859625E-05  0.2002547E+04  0.7818609E-02  0.8605431E-01
        3   -1    0    0  501    0  0.00000000000E+00  0.00000000000E+00  0.23401244500E+04  0.23401244522E+04  0.10100000352E+00 0.  1.
       -3   -1    0    0    0  501  0.00000000000E+00  0.00000000000E+00 -0.42841697225E+03  0.42841698415E+03  0.10100000352E+00 0. -1.
    10030    2    1    2    0    0  0.00000000000E+00  0.00000000000E+00  0.19117074778E+04  0.27685414363E+04  0.20025474287E+04 0.  0.
        5    1    3    3  502    0  0.18801317917E+03  0.42844870064E+03  0.21796753650E+04  0.22293326426E+04  0.46999998093E+01 0.  1.
       -5    1    3    3    0  502 -0.18801317917E+03 -0.42844870064E+03 -0.26796788725E+03  0.53920879371E+03  0.46999998093E+01 0. -1.
</event>
<event>
 5   0  0.8011197E-05  0.1995631E+04  0.7818609E-02  0.8608666E-01
        2   -1    0    0  501    0  0.00000000000E+00  0.00000000000E+00  0.18325953643E+04  0.18325953643E+04  0.25500000920E-02 0.  1.
       -2   -1    0    0    0  501  0.00000000000E+00  0.00000000000E+00 -0.54329254189E+03  0.54329254189E+03  0.25500000920E-02 0. -1.
    10030    2    1    2    0    0  0.00000000000E+00  0.00000000000E+00  0.12893028224E+04  0.23758879062E+04  0.19956306209E+04 0.  0.
        5    1    3    3  502    0  0.88575026895E+03  0.45876593481E+03  0.61564552811E+03  0.11722035780E+04  0.46999998093E+01 0. -1.
       -5    1    3    3    0  502 -0.88575026895E+03 -0.45876593481E+03  0.67365729428E+03  0.12036843282E+04  0.46999998093E+01 0.  1.
</event>
<event>
 5   0  0.3818907E-05  0.2004117E+04  0.7818609E-02  0.8604698E-01
       -1   -1    0    0    0  501  0.00000000000E+00  0.00000000000E+00  0.41464714165E+03  0.41464714168E+03  0.50400001928E-02 0. -1.
        1   -1    0    0  501    0  0.00000000000E+00  0.00000000000E+00 -0.24216289589E+04  0.24216289590E+04  0.50400001928E-02 0.  1.
    10030    2    1    2    0    0  0.00000000000E+00  0.00000000000E+00 -0.20069818173E+04  0.28362761006E+04  0.20041172880E+04 0.  0.
        1    1    3    3  502    0  0.23889057191E+03  0.84777042214E+03 -0.32722951838E+03  0.93960765841E+03  0.50400001928E-02 0. -1.
       -1    1    3    3    0  502 -0.23889057191E+03 -0.84777042214E+03 -0.16797522989E+04  0.18966684422E+04  0.50400001928E-02 0.  1.
</event>
<event>
 5   0  0.3549426E-05  0.1997640E+04  0.7818609E-02  0.8607725E-01
       -1   -1    0    0    0  501  0.00000000000E+00  0.00000000000E+00  0.64515048128E+03  0.64515048130E+03  0.50400001928E-02 0. -1.
        1   -1    0    0  501    0  0.00000000000E+00  0.00000000000E+00 -0.15463699788E+04  0.15463699788E+04  0.50400001928E-02 0.  1.
    10030    2    1    2    0    0  0.00000000000E+00  0.00000000000E+00 -0.90121949755E+03  0.21915204601E+04  0.19976399437E+04 0.  0.
        5    1    3    3  502    0 -0.37875963205E+02 -0.61127177913E+03  0.41497375569E+03  0.73980611275E+03  0.46999998093E+01 0. -1.
       -5    1    3    3    0  502  0.37875963205E+02  0.61127177913E+03 -0.13161932532E+04  0.14517143474E+04  0.46999998093E+01 0.  1.
</event>
<event>
 5   0  0.3970042E-05  0.2014824E+04  0.7818609E-02  0.8599721E-01
        1   -1    0    0  501    0  0.00000000000E+00  0.00000000000E+00  0.18305038814E+04  0.18305038814E+04  0.50400001928E-02 0. -1.
       -1   -1    0    0    0  501  0.00000000000E+00  0.00000000000E+00 -0.55442595055E+03  0.55442595058E+03  0.50400001928E-02 0.  1.
    10030    2    1    2    0    0  0.00000000000E+00  0.00000000000E+00  0.12760779309E+04  0.23849298320E+04  0.20148239173E+04 0.  0.
        3    1    3    3  502    0  0.52816660940E+03 -0.53790270698E+03 -0.15298187675E+03  0.76922217485E+03  0.10100000352E+00 0.  1.
       -3    1    3    3    0  502 -0.52816660940E+03  0.53790270698E+03  0.14290598076E+04  0.16157076571E+04  0.10100000352E+00 0. -1.
</event>
<event>
 5   0  0.7857136E-05  0.2001107E+04  0.7818609E-02  0.8606103E-01
        2   -1    0    0  501    0  0.00000000000E+00  0.00000000000E+00  0.16335285254E+04  0.16335285254E+04  0.25500000920E-02 0. -1.
       -2   -1    0    0    0  501  0.00000000000E+00  0.00000000000E+00 -0.61284942674E+03  0.61284942674E+03  0.25500000920E-02 0.  1.
    10030    2    1    2    0    0  0.00000000000E+00  0.00000000000E+00  0.10206790987E+04  0.22463779522E+04  0.20011067142E+04 0.  0.
        4    1    3    3  502    0 -0.28631076590E+03  0.78599391162E+03 -0.10589304106E+03  0.84319347295E+03  0.12699999809E+01 0.  1.
       -4    1    3    3    0  502  0.28631076590E+03 -0.78599391162E+03  0.11265721398E+04  0.14031844792E+04  0.12699999809E+01 0. -1.
</event>
<event>
 5   0  0.3772949E-05  0.2019139E+04  0.7818609E-02  0.8597725E-01
       -1   -1    0    0    0  501  0.00000000000E+00  0.00000000000E+00  0.76607795563E+03  0.76607795564E+03  0.50400001928E-02 0.  1.
        1   -1    0    0  501    0  0.00000000000E+00  0.00000000000E+00 -0.13304522460E+04  0.13304522460E+04  0.50400001928E-02 0. -1.
    10030    2    1    2    0    0  0.00000000000E+00  0.00000000000E+00 -0.56437429033E+03  0.20965302016E+04  0.20191385655E+04 0.  0.
        2    1    3    3  502    0 -0.10009400550E+04 -0.87628746236E+02 -0.18008003164E+03  0.10207784327E+04  0.25500000920E-02 0.  1.
       -2    1    3    3    0  502  0.10009400550E+04  0.87628746236E+02 -0.38429425869E+03  0.10757517689E+04  0.25500000920E-02 0. -1.
</event>
<event>
 5   0  0.2859625E-05  0.2001667E+04  0.7818609E-02  0.8605842E-01
        3   -1    0    0  501    0  0.00000000000E+00  0.00000000000E+00  0.69801750411E+03  0.69801751142E+03  0.10100000352E+00 0. -1.
       -3   -1    0    0    0  501  0.00000000000E+00  0.00000000000E+00 -0.14350180267E+04  0.14350180303E+04  0.10100000352E+00 0.  1.
    10030    2    1    2    0    0  0.00000000000E+00  0.00000000000E+00 -0.73700052259E+03  0.21330355417E+04  0.20016670182E+04 0.  0.
        2    1    3    3  502    0  0.47026847264E+03  0.11887609306E+03  0.56438751551E+03  0.74418897434E+03  0.25500000920E-02 0. -1.
       -2    1    3    3    0  502 -0.47026847264E+03 -0.11887609306E+03 -0.13013880381E+04  0.13888465673E+04  0.25500000920E-02 0.  1.
</event>
<event>
 5   0  0.8022574E-05  0.2001592E+04  0.7818609E-02  0.8605877E-01
        2   -1    0    0  501    0  0.00000000000E+00  0.00000000000E+00  0.11220402913E+04  0.11220402913E+04  0.25500000920E-02 0.  1.
       -2   -1    0    0    0  501  0.00000000000E+00  0.00000000000E+00 -0.89265275922E+03  0.89265275922E+03  0.25500000920E-02 0. -1.
    10030    2    1    2    0    0  0.00000000000E+00  0.00000000000E+00  0.22938753205E+03  0.20146930505E+04  0.20015917286E+04 0.  0.
        1    1    3    3  502    0 -0.47888351647E+03 -0.41543565355E+03  0.89415008415E+03  0.10960933252E+04  0.50400001928E-02 0.  1.
       -1    1    3    3    0  502  0.47888351647E+03  0.41543565355E+03 -0.66476255210E+03  0.91859972528E+03  0.50400001928E-02 0. -1.
</event>
<event>
 5   0  0.7857136E-05  0.2004841E+04  0.7818609E-02  0.8604361E-01
        2   -1    0    0  501    0  0.00000000000E+00  0.00000000000E+00  0.18804444995E+04  0.18804444995E+04  0.25500000920E-02 0.  1.
       -2   -1    0    0    0  501  0.00000000000E+00  0.00000000000E+00 -0.53436656070E+03  0.53436656070E+03  0.25500000920E-02 0. -1.
    10030    2    1    2    0    0  0.00000000000E+00  0.00000000000E+00  0.13460779388E+04  0.24148110602E+04  0.20048408015E+04 0.  0.
        4    1    3    3  502    0 -0.80847230979E+03 -0.38831311111E+03  0.12122827786E+04  0.15079939311E+04  0.12699999809E+01 0.  1.
       -4    1    3    3    0  502  0.80847230979E+03  0.38831311111E+03  0.13379516025E+03  0.90681712917E+03  0.12699999809E+01 0. -1.
</event>
<event>
 5   0  0.7857136E-05  0.1998160E+04  0.7818609E-02  0.8607481E-01
       -2   -1    0    0    0  501  0.00000000000E+00  0.00000000000E+00  0.68424445472E+03  0.68424445473E+03  0.25500000920E-02 0. -1.
        2   -1    0    0  501    0  0.00000000000E+00  0.00000000000E+00 -0.14587787577E+04  0.14587787577E+04  0.25500000920E-02 0.  1.
    10030    2    1    2    0    0  0.00000000000E+00  0.00000000000E+00 -0.77453430299E+03  0.21430232124E+04  0.19981604296E+04 0.  0.
        4    1    3    3  502    0  0.83360590325E+03  0.22551706003E+03 -0.92608714875E+03  0.12662526471E+04  0.12699999809E+01 0. -1.
       -4    1    3    3    0  502 -0.83360590325E+03 -0.22551706003E+03  0.15155284577E+03  0.87677056534E+03  0.12699999809E+01 0.  1.
</event>
<event>
 5   0  0.7843846E-05  0.2007213E+04  0.7818609E-02  0.8603256E-01
        2   -1    0    0  501    0  0.00000000000E+00  0.00000000000E+00  0.97312142167E+03  0.97312142167E+03  0.25500000920E-02 0. -1.
       -2   -1    0    0    0  501  0.00000000000E+00  0.00000000000E+00 -0.10350463874E+04  0.10350463874E+04  0.25500000920E-02 0.  1.
    10030    2    1    2    0    0  0.00000000000E+00  0.00000000000E+00 -0.61924965695E+02  0.20081678090E+04  0.20072128058E+04 0.  0.
        2    1    3    3  502    0  0.35813854948E+03 -0.93647308059E+03 -0.75489395657E+02  0.10054569609E+04  0.25500000920E-02 0. -1.
       -2    1    3    3    0  502 -0.35813854948E+03  0.93647308059E+03  0.13564429962E+02  0.10027108482E+04  0.25500000920E-02 0.  1.
</event>
<event>
 5   0  0.7935008E-05  0.2007334E+04  0.7818609E-02  0.8603199E-01
        2   -1    0    0  501    0  0.00000000000E+00  0.00000000000E+00  0.12787875854E+04  0.12787875854E+04  0.25500000920E-02 0. -1.
       -2   -1    0    0    0  501  0.00000000000E+00  0.00000000000E+00 -0.78773632335E+03  0.78773632335E+03  0.25500000920E-02 0.  1.
    10030    2    1    2    0    0  0.00000000000E+00  0.00000000000E+00  0.49105126200E+03  0.20665239087E+04  0.20073339840E+04 0.  0.
        3    1    3    3  502    0  0.12051191280E+03  0.98755265353E+03  0.10908830354E+03  0.10008414624E+04  0.10100000352E+00 0.  1.
       -3    1    3    3    0  502 -0.12051191280E+03 -0.98755265353E+03  0.38196295846E+03  0.10656824463E+04  0.10100000352E+00 0. -1.
</event>
<event>
 5   0  0.3970042E-05  0.2008783E+04  0.7818609E-02  0.8602525E-01
       -1   -1    0    0    0  501  0.00000000000E+00  0.00000000000E+00  0.10806354129E+04  0.10806354130E+04  0.50400001928E-02 0.  1.
        1   -1    0    0  501    0  0.00000000000E+00  0.00000000000E+00 -0.93352736497E+03  0.93352736499E+03  0.50400001928E-02 0. -1.
    10030    2    1    2    0    0  0.00000000000E+00  0.00000000000E+00  0.14710804798E+03  0.20141627779E+04  0.20087834424E+04 0.  0.
        3    1    3    3  502    0 -0.64972893145E+03 -0.76588908958E+03  0.81879116995E+02  0.10076894273E+04  0.10100000352E+00 0.  1.
       -3    1    3    3    0  502  0.64972893145E+03  0.76588908958E+03  0.65228930981E+02  0.10064733506E+04  0.10100000352E+00 0. -1.
</event>
<event>
 5   0  0.3787698E-05  0.1994380E+04  0.7818609E-02  0.8609253E-01
       -1   -1    0    0    0  501  0.00000000000E+00  0.00000000000E+00  0.10931892114E+04  0.10931892114E+04  0.50400001928E-02 0.  1.
        1   -1    0    0  501    0  0.00000000000E+00  0.00000000000E+00 -0.90962127674E+03  0.90962127675E+03  0.50400001928E-02 0. -1.
    10030    2    1    2    0    0  0.00000000000E+00  0.00000000000E+00  0.18356793469E+03  0.20028104882E+04  0.19943802709E+04 0.  0.
        4    1    3    3  502    0  0.96036508512E+02 -0.46320667909E+03  0.97333461281E+03  0.10822039179E+04  0.12699999809E+01 0.  1.
       -4    1    3    3    0  502 -0.96036508512E+02  0.46320667909E+03 -0.78976667811E+03  0.92060657030E+03  0.12699999809E+01 0. -1.
</event>
<event>
 5   0  0.7935008E-05  0.1976508E+04  0.7818609E-02  0.8617683E-01
       -2   -1    0    0    0  501  0.00000000000E+00  0.00000000000E+00  0.64609300003E+03  0.64609300004E+03  0.25500000920E-02 0. -1.
        2   -1    0    0  501    0  0.00000000000E+00  0.00000000000E+00 -0.15116186702E+04  0.15116186702E+04  0.25500000920E-02 0.  1.
    10030    2    1    2    0    0  0.00000000000E+00  0.00000000000E+00 -0.86552567019E+03  0.21577116703E+04  0.19765082763E+04 0.  0.
        3    1    3    3  502    0  0.20771157059E+03  0.89079977403E+03 -0.24326372539E+02  0.91501918918E+03  0.10100000352E+00 0. -1.
       -3    1    3    3    0  502 -0.20771157059E+03 -0.89079977403E+03 -0.84119929765E+03  0.12426924811E+04  0.10100000352E+00 0.  1.
</event>
<event>
 5   0  0.7843846E-05  0.2100278E+04  0.7818609E-02  0.8561121E-01
       -2   -1    0    0    0  501  0.00000000000E+00  0.00000000000E+00  0.12149901515E+04  0.12149901515E+04  0.25500000920E-02 0. -1.
        2   -1    0    0  501    0  0.00000000000E+00  0.00000000000E+00 -0.90765501398E+03  0.90765501398E+03  0.25500000920E-02 0.  1.
    10030    2    1    2    0    0  0.00000000000E+00  0.00000000000E+00  0.30733513756E+03  0.21226451655E+04  0.21002779844E+04 0.  0.
        2    1    3    3  502    0 -0.41717996444E+03  0.77025651679E+03  0.73902278055E+03  0.11460754314E+04  0.25500000920E-02 0. -1.
       -2    1    3    3    0  502  0.41717996444E+03 -0.77025651679E+03 -0.43168764299E+03  0.97656973407E+03  0.25500000920E-02 0.  1.
</event>
<event>
 5   0  0.3818907E-05  0.1952495E+04  0.7818609E-02  0.8629159E-01
       -1   -1    0    0    0  501  0.00000000000E+00  0.00000000000E+00  0.75302455762E+03  0.75302455764E+03  0.50400001928E-02 0.  1.
        1   -1    0    0  501    0  0.00000000000E+00  0.00000000000E+00 -0.12656413671E+04  0.12656413671E+04  0.50400001928E-02 0. -1.
    10030    2    1    2    0    0  0.00000000000E+00  0.00000000000E+00 -0.51261680944E+03  0.20186659247E+04  0.19524948456E+04 0.  0.
        1    1    3    3  502    0  0.70729451601E+03  0.38768568465E+03  0.31232509530E+03  0.86493507712E+03  0.50400001928E-02 0.  1.
       -1    1    3    3    0  502 -0.70729451601E+03 -0.38768568465E+03 -0.82494190474E+03  0.11537308476E+04  0.50400001928E-02 0. -1.
</event>
<event>
 5   0  0.8022574E-05  0.1996583E+04  0.7818609E-02  0.8608220E-01
        2   -1    0    0  501    0  0.00000000000E+00  0.00000000000E+00  0.19435340970E+04  0.19435340970E+04  0.25500000920E-02 0. -1.
       -2   -1    0    0    0  501  0.00000000000E+00  0.00000000000E+00 -0.51276989970E+03  0.51276989970E+03  0.25500000920E-02 0.  1.
    10030    2    1    2    0    0  0.00000000000E+00  0.00000000000E+00  0.14307641973E+04  0.24563039967E+04  0.19965828648E+04 0.  0.
        1    1    3    3  502    0  0.86642796126E+03 -0.40243359513E+03  0.35895738760E+03  0.10205393754E+04  0.50400001928E-02 0.  1.
       -1    1    3    3    0  502 -0.86642796126E+03  0.40243359513E+03  0.10718068098E+04  0.14357646214E+04  0.50400001928E-02 0. -1.
</event>
<event>
 5   0  0.3772949E-05  0.2012801E+04  0.7818609E-02  0.8600659E-01
        1   -1    0    0  501    0  0.00000000000E+00  0.00000000000E+00  0.11041571052E+04  0.11041571052E+04  0.50400001928E-02 0. -1.
       -1   -1    0    0    0  501  0.00000000000E+00  0.00000000000E+00 -0.91729916828E+03  0.91729916829E+03  0.50400001928E-02 0.  1.
    10030    2    1    2    0    0  0.00000000000E+00  0.00000000000E+00  0.18685793688E+03  0.20214562735E+04  0.20128014251E+04 0.  0.
        2    1    3    3  502    0  0.25909876762E+03 -0.75651274463E+03 -0.52026211773E+03  0.95400019671E+03  0.25500000920E-02 0.  1.
       -2    1    3    3    0  502 -0.25909876762E+03  0.75651274463E+03  0.70712005462E+03  0.10674560768E+04  0.25500000920E-02 0. -1.
</event>
<event>
 5   0  0.8011197E-05  0.2001089E+04  0.7818609E-02  0.8606111E-01
       -2   -1    0    0    0  501  0.00000000000E+00  0.00000000000E+00  0.33929270179E+03  0.33929270180E+03  0.25500000920E-02 0. -1.
        2   -1    0    0  501    0  0.00000000000E+00  0.00000000000E+00 -0.29505195811E+04  0.29505195811E+04  0.25500000920E-02 0.  1.
    10030    2    1    2    0    0  0.00000000000E+00  0.00000000000E+00 -0.26112268793E+04  0.32898122829E+04  0.20010894636E+04 0.  0.
        5    1    3    3  502    0  0.68995595154E+03  0.70187863952E+03 -0.10097151399E+04  0.14100424083E+04  0.46999998093E+01 0. -1.
       -5    1    3    3    0  502 -0.68995595154E+03 -0.70187863952E+03 -0.16015117394E+04  0.18797698745E+04  0.46999998093E+01 0.  1.
</event>
<event>
 5   0  0.3772949E-05  0.2002332E+04  0.7818609E-02  0.8605531E-01
        1   -1    0    0  501    0  0.00000000000E+00  0.00000000000E+00  0.15110920699E+04  0.15110920700E+04  0.50400001928E-02 0. -1.
       -1   -1    0    0    0  501  0.00000000000E+00  0.00000000000E+00 -0.66331749417E+03  0.66331749419E+03  0.50400001928E-02 0.  1.
    10030    2    1    2    0    0  0.00000000000E+00  0.00000000000E+00  0.84777457577E+03  0.21744095641E+04  0.20023324452E+04 0.  0.
        2    1    3    3  502    0 -0.34765841428E+03 -0.55867083332E+03  0.12432882694E+04  0.14066787813E+04  0.25500000920E-02 0. -1.
       -2    1    3    3    0  502  0.34765841428E+03  0.55867083332E+03 -0.39551369362E+03  0.76773078281E+03  0.25500000920E-02 0.  1.
</event>
<event>
 5   0  0.3970042E-05  0.2017484E+04  0.7818609E-02  0.8598490E-01
       -1   -1    0    0    0  501  0.00000000000E+00  0.00000000000E+00  0.43635285923E+03  0.43635285926E+03  0.50400001928E-02 0.  1.
        1   -1    0    0  501    0  0.00000000000E+00  0.00000000000E+00 -0.23319674525E+04  0.23319674525E+04  0.50400001928E-02 0. -1.
    10030    2    1    2    0    0  0.00000000000E+00  0.00000000000E+00 -0.18956145933E+04  0.27683203118E+04  0.20174842409E+04 0.  0.
        3    1    3    3  502    0 -0.90904088523E+03 -0.87357497499E+02 -0.35989605531E+03  0.98158639162E+03  0.10100000352E+00 0.  1.
       -3    1    3    3    0  502  0.90904088523E+03  0.87357497499E+02 -0.15357185380E+04  0.17867339202E+04  0.10100000352E+00 0. -1.
</event>
<event>
 5   0  0.3549426E-05  0.1995222E+04  0.7818609E-02  0.8608858E-01
       -1   -1    0    0    0  501  0.00000000000E+00  0.00000000000E+00  0.13683115589E+04  0.13683115589E+04  0.50400001928E-02 0.  1.
        1   -1    0    0  501    0  0.00000000000E+00  0.00000000000E+00 -0.72733990229E+03  0.72733990231E+03  0.50400001928E-02 0. -1.
    10030    2    1    2    0    0  0.00000000000E+00  0.00000000000E+00  0.64097165659E+03  0.20956514612E+04  0.19952218880E+04 0.  0.
        5    1    3    3  502    0 -0.80460705008E+03  0.58773665059E+03  0.37171193010E+03  0.10634936410E+04  0.46999998093E+01 0.  1.
       -5    1    3    3    0  502  0.80460705008E+03 -0.58773665059E+03  0.26925972648E+03  0.10321578202E+04  0.46999998093E+01 0. -1.
</event>
<event>
 5   0  0.8022574E-05  0.1988485E+04  0.7818609E-02  0.8612023E-01
       -2   -1    0    0    0  501  0.00000000000E+00  0.00000000000E+00  0.48190291113E+03  0.48190291114E+03  0.25500000920E-02 0.  1.
        2   -1    0    0  501    0  0.00000000000E+00  0.00000000000E+00 -0.20512811764E+04  0.20512811764E+04  0.25500000920E-02 0. -1.
    10030    2    1    2    0    0  0.00000000000E+00  0.00000000000E+00 -0.15693782652E+04  0.25331840875E+04  0.19884852229E+04 0.  0.
        1    1    3    3  502    0 -0.76360796864E+03 -0.40883471180E+03 -0.16284147269E+03  0.88134005730E+03  0.50400001928E-02 0.  1.
       -1    1    3    3    0  502  0.76360796864E+03  0.40883471180E+03 -0.14065367926E+04  0.16518440302E+04  0.50400001928E-02 0. -1.
</event>
<event>
 5   0  0.3970042E-05  0.1994646E+04  0.7818609E-02  0.8609128E-01
       -1   -1    0    0    0  501  0.00000000000E+00  0.00000000000E+00  0.13457325195E+04  0.13457325195E+04  0.50400001928E-02 0. -1.
        1   -1    0    0  501    0  0.00000000000E+00  0.00000000000E+00 -0.73911623603E+03  0.73911623604E+03  0.50400001928E-02 0.  1.
    10030    2    1    2    0    0  0.00000000000E+00  0.00000000000E+00  0.60661628345E+03  0.20848487555E+04  0.19946455871E+04 0.  0.
        3    1    3    3  502    0 -0.82325010397E+03 -0.24241661291E+03 -0.22774952067E+03  0.88790562689E+03  0.10100000352E+00 0.  1.
       -3    1    3    3    0  502  0.82325010397E+03  0.24241661291E+03  0.83436580412E+03  0.11969431286E+04  0.10100000352E+00 0. -1.
</event>
<event>
 5   0  0.7843846E-05  0.1988467E+04  0.7818609E-02  0.8612032E-01
       -2   -1    0    0    0  501  0.00000000000E+00  0.00000000000E+00  0.50629368272E+03  0.50629368273E+03  0.25500000920E-02 0.  1.
        2   -1    0    0  501    0  0.00000000000E+00  0.00000000000E+00 -0.19524242030E+04  0.19524242030E+04  0.25500000920E-02 0. -1.
    10030    2    1    2    0    0  0.00000000000E+00  0.00000000000E+00 -0.14461305203E+04  0.24587178857E+04  0.19884667862E+04 0.  0.
        2    1    3    3  502    0  0.75265221709E+03 -0.41933073702E+02  0.78515849999E+02  0.75789740814E+03  0.25500000920E-02 0.  1.
       -2    1    3    3    0  502 -0.75265221709E+03  0.41933073702E+02 -0.15246463703E+04  0.17008204776E+04  0.25500000920E-02 0. -1.
</event>
<event>
 5   0  0.3787698E-05  0.1992217E+04  0.7818609E-02  0.8610268E-01
        1   -1    0    0  501    0  0.00000000000E+00  0.00000000000E+00  0.17524439157E+04  0.17524439157E+04  0.50400001928E-02 0. -1.
       -1   -1    0    0    0  501  0.00000000000E+00  0.00000000000E+00 -0.56619894630E+03  0.56619894632E+03  0.50400001928E-02 0.  1.
    10030    2    1    2    0    0  0.00000000000E+00  0.00000000000E+00  0.11862449694E+04  0.23186428621E+04  0.19922167538E+04 0.  0.
        4    1    3    3  502    0 -0.44465638073E+03 -0.25505794965E+03  0.15871466686E+04  0.16678758992E+04  0.12699999809E+01 0. -1.
       -4    1    3    3    0  502  0.44465638073E+03  0.25505794965E+03 -0.40090169919E+03  0.65076696283E+03  0.12699999809E+01 0.  1.
</event>
<event>
 5   0  0.3549426E-05  0.1995935E+04  0.7818609E-02  0.8608524E-01
       -1   -1    0    0    0  501  0.00000000000E+00  0.00000000000E+00  0.84279458025E+03  0.84279458026E+03  0.50400001928E-02 0. -1.
        1   -1    0    0  501    0  0.00000000000E+00  0.00000000000E+00 -0.11817098726E+04  0.11817098726E+04  0.50400001928E-02 0.  1.
    10030    2    1    2    0    0  0.00000000000E+00  0.00000000000E+00 -0.33891529235E+03  0.20245044529E+04  0.19959345441E+04 0.  0.
        5    1    3    3  502    0 -0.44999734814E+03 -0.49633039955E+03  0.58077493143E+03  0.88665838395E+03  0.46999998093E+01 0. -1.
       -5    1    3    3    0  502  0.44999734814E+03  0.49633039955E+03 -0.91969022378E+03  0.11378460689E+04  0.46999998093E+01 0.  1.
</event>
<event>
 5   0  0.8011197E-05  0.2010700E+04  0.7818609E-02  0.8601634E-01
        2   -1    0    0  501    0  0.00000000000E+00  0.00000000000E+00  0.10967156005E+04  0.10967156005E+04  0.25500000920E-02 0.  1.
       -2   -1    0    0    0  501  0.00000000000E+00  0.00000000000E+00 -0.92159631584E+03  0.92159631585E+03  0.25500000920E-02 0. -1.
    10030    2    1    2    0    0  0.00000000000E+00  0.00000000000E+00  0.17511928470E+03  0.20183119164E+04  0.20107004322E+04 0.  0.
        5    1    3    3  502    0  0.16112701935E+03 -0.44879890427E+03 -0.80084699444E+03  0.93207315772E+03  0.46999998093E+01 0. -1.
       -5    1    3    3    0  502 -0.16112701935E+03  0.44879890427E+03  0.97596627914E+03  0.10862387587E+04  0.46999998093E+01 0.  1.
</event>
<event>
 5   0  0.3549426E-05  0.1996894E+04  0.7818609E-02  0.8608074E-01
       -1   -1    0    0    0  501  0.00000000000E+00  0.00000000000E+00  0.55837243799E+03  0.55837243802E+03  0.50400001928E-02 0. -1.
        1   -1    0    0  501    0  0.00000000000E+00  0.00000000000E+00 -0.17853604067E+04  0.17853604067E+04  0.50400001928E-02 0.  1.
    10030    2    1    2    0    0  0.00000000000E+00  0.00000000000E+00 -0.12269879687E+04  0.23437328447E+04  0.19968936306E+04 0.  0.
        5    1    3    3  502    0 -0.44391123015E+03  0.42260641856E+03  0.31157920546E+03  0.68757330993E+03  0.46999998093E+01 0. -1.
       -5    1    3    3    0  502  0.44391123015E+03 -0.42260641856E+03 -0.15385671742E+04  0.16561595348E+04  0.46999998093E+01 0.  1.
</event>
<event>
 5   0  0.3772949E-05  0.2020021E+04  0.7818609E-02  0.8597317E-01
        1   -1    0    0  501    0  0.00000000000E+00  0.00000000000E+00  0.15490204879E+04  0.15490204879E+04  0.50400001928E-02 0.  1.
       -1   -1    0    0    0  501  0.00000000000E+00  0.00000000000E+00 -0.65855901000E+03  0.65855901002E+03  0.50400001928E-02 0. -1.
    10030    2    1    2    0    0  0.00000000000E+00  0.00000000000E+00  0.89046147791E+03  0.22075794979E+04  0.20200211870E+04 0.  0.
        2    1    3    3  502    0  0.10936062064E+03  0.14896880129E+03 -0.63992548812E+03  0.66607513049E+03  0.25500000920E-02 0. -1.
       -2    1    3    3    0  502 -0.10936062064E+03 -0.14896880129E+03  0.15303869660E+04  0.15415043675E+04  0.25500000920E-02 0.  1.
</event>
<event>
 5   0  0.8022574E-05  0.1997297E+04  0.7818609E-02  0.8607885E-01
       -2   -1    0    0    0  501  0.00000000000E+00  0.00000000000E+00  0.13934752691E+04  0.13934752691E+04  0.25500000920E-02 0.  1.
        2   -1    0    0  501    0  0.00000000000E+00  0.00000000000E+00 -0.71569190114E+03  0.71569190114E+03  0.25500000920E-02 0. -1.
    10030    2    1    2    0    0  0.00000000000E+00  0.00000000000E+00  0.67778336796E+03  0.21091671702E+04  0.19972971382E+04 0.  0.
        1    1    3    3  502    0 -0.26751216729E+03 -0.75736128237E+03  0.96554315036E+03  0.12559587760E+04  0.50400001928E-02 0.  1.
       -1    1    3    3    0  502  0.26751216729E+03  0.75736128237E+03 -0.28775978240E+03  0.85320839428E+03  0.50400001928E-02 0. -1.
</event>
<event>
 5   0  0.3787698E-05  0.2006997E+04  0.7818609E-02  0.8603356E-01
        1   -1    0    0  501    0  0.00000000000E+00  0.00000000000E+00  0.11884493444E+04  0.11884493444E+04  0.50400001928E-02 0.  1.
       -1   -1    0    0    0  501  0.00000000000E+00  0.00000000000E+00 -0.84733033859E+03  0.84733033861E+03  0.50400001928E-02 0. -1.
    10030    2    1    2    0    0  0.00000000000E+00  0.00000000000E+00  0.34111900576E+03  0.20357796830E+04  0.20069969461E+04 0.  0.
        4    1    3    3  502    0 -0.63740822961E+03  0.73491655379E+03  0.42029347830E+03  0.10597357279E+04  0.12699999809E+01 0. -1.
       -4    1    3    3    0  502  0.63740822961E+03 -0.73491655379E+03 -0.79174472535E+02  0.97604395506E+03  0.12699999809E+01 0.  1.
</event>
<event>
 5   0  0.8022574E-05  0.2022239E+04  0.7818609E-02  0.8596293E-01
        2   -1    0    0  501    0  0.00000000000E+00  0.00000000000E+00  0.10138793507E+04  0.10138793507E+04  0.25500000920E-02 0.  1.
       -2   -1    0    0    0  501  0.00000000000E+00  0.00000000000E+00 -0.10083668323E+04  0.10083668323E+04  0.25500000920E-02 0. -1.
    10030    2    1    2    0    0  0.00000000000E+00  0.00000000000E+00  0.55125184000E+01  0.20222461829E+04  0.20222386695E+04 0.  0.
        1    1    3    3  502    0 -0.24824931915E+02  0.60264708353E+03 -0.80876540915E+03  0.10089109334E+04  0.50400001928E-02 0. -1.
       -1    1    3    3    0  502  0.24824931915E+02 -0.60264708353E+03  0.81427792755E+03  0.10133352495E+04  0.50400001928E-02 0.  1.
</event>
<event>
 5   0  0.8022574E-05  0.1972919E+04  0.7818609E-02  0.8619388E-01
       -2   -1    0    0    0  501  0.00000000000E+00  0.00000000000E+00  0.42273641367E+03  0.42273641368E+03  0.25500000920E-02 0.  1.
        2   -1    0    0  501    0  0.00000000000E+00  0.00000000000E+00 -0.23019131905E+04  0.23019131905E+04  0.25500000920E-02 0. -1.
    10030    2    1    2    0    0  0.00000000000E+00  0.00000000000E+00 -0.18791767769E+04  0.27246496042E+04  0.19729191841E+04 0.  0.
        1    1    3    3  502    0 -0.25318627339E+03  0.14668106955E+03  0.36142451881E+03  0.46502291129E+03  0.50400001928E-02 0.  1.
       -1    1    3    3    0  502  0.25318627339E+03 -0.14668106955E+03 -0.22406012957E+04  0.22596266929E+04  0.50400001928E-02 0. -1.
</event>
<event>
 5   0  0.3787698E-05  0.1975306E+04  0.7818609E-02  0.8618254E-01
        1   -1    0    0  501    0  0.00000000000E+00  0.00000000000E+00  0.19257872159E+04  0.19257872159E+04  0.50400001928E-02 0. -1.
       -1   -1    0    0    0  501  0.00000000000E+00  0.00000000000E+00 -0.50652444300E+03  0.50652444302E+03  0.50400001928E-02 0.  1.
    10030    2    1    2    0    0  0.00000000000E+00  0.00000000000E+00  0.14192627729E+04  0.24323116589E+04  0.19753058466E+04 0.  0.
        4    1    3    3  502    0  0.42755489399E+03  0.15616142796E+02 -0.38649276151E+03  0.57656336936E+03  0.12699999809E+01 0.  1.
       -4    1    3    3    0  502 -0.42755489399E+03 -0.15616142796E+02  0.18057555344E+04  0.18557482895E+04  0.12699999809E+01 0. -1.
</event>
<event>
 5   0  0.3970042E-05  0.1999195E+04  0.7818609E-02  0.8606997E-01
        1   -1    0    0  501    0  0.00000000000E+00  0.00000000000E+00  0.17766783139E+04  0.17766783139E+04  0.50400001928E-02 0. -1.
       -1   -1    0    0    0  501  0.00000000000E+00  0.00000000000E+00 -0.56239524961E+03  0.56239524963E+03  0.50400001928E-02 0.  1.
    10030    2    1    2    0    0  0.00000000000E+00  0.00000000000E+00  0.12142830642E+04  0.23390735635E+04  0.19991952819E+04 0.  0.
        3    1    3    3  502    0  0.55757595495E+03 -0.73281528872E+03  0.10622221908E+04  0.14057827662E+04  0.10100000352E+00 0. -1.
       -3    1    3    3    0  502 -0.55757595495E+03  0.73281528872E+03  0.15206087349E+03  0.93329079732E+03  0.10100000352E+00 0.  1.
</event>
<event>
 5   0  0.7857136E-05  0.1750145E+04  0.7818609E-02  0.8733271E-01
        2   -1    0    0  501    0  0.00000000000E+00  0.00000000000E+00  0.20367640082E+04  0.20367640082E+04  0.25500000920E-02 0.  1.
       -2   -1    0    0    0  501  0.00000000000E+00  0.00000000000E+00 -0.37596491053E+03  0.37596491053E+03  0.25500000920E-02 0. -1.
    10030    2    1    2    0    0  0.00000000000E+00  0.00000000000E+00  0.16607990977E+04  0.24127289187E+04  0.17501449061E+04 0.  0.
        4    1    3    3  502    0  0.60553827854E+03  0.55307847176E+03  0.40958503835E+03  0.91669728877E+03  0.12699999809E+01 0. -1.
       -4    1    3    3    0  502 -0.60553827854E+03 -0.55307847176E+03  0.12512140593E+04  0.14960316300E+04  0.12699999809E+01 0.  1.
</event>
<event>
 5   0  0.3787698E-05  0.1970982E+04  0.7818609E-02  0.8620309E-01
       -1   -1    0    0    0  501  0.00000000000E+00  0.00000000000E+00  0.46305025913E+03  0.46305025916E+03  0.50400001928E-02 0. -1.
        1   -1    0    0  501    0  0.00000000000E+00  0.00000000000E+00 -0.20973797295E+04  0.20973797295E+04  0.50400001928E-02 0.  1.
    10030    2    1    2    0    0  0.00000000000E+00  0.00000000000E+00 -0.16343294704E+04  0.25604299887E+04  0.19709817120E+04 0.  0.
        4    1    3    3  502    0  0.89721511642E+03 -0.40489566067E+03 -0.87885524207E+03  0.13195922138E+04  0.12699999809E+01 0. -1.
       -4    1    3    3    0  502 -0.89721511642E+03  0.40489566067E+03 -0.75547422833E+03  0.12408377749E+04  0.12699999809E+01 0.  1.
</event>
<event>
 5   0  0.3818907E-05  0.2004576E+04  0.7818609E-02  0.8604484E-01
        1   -1    0    0  501    0  0.00000000000E+00  0.00000000000E+00  0.14430004000E+04  0.14430004000E+04  0.50400001928E-02 0.  1.
       -1   -1    0    0    0  501  0.00000000000E+00  0.00000000000E+00 -0.69617512780E+03  0.69617512782E+03  0.50400001928E-02 0. -1.
    10030    2    1    2    0    0  0.00000000000E+00  0.00000000000E+00  0.74682527220E+03  0.21391755278E+04  0.20045757535E+04 0.  0.
        1    1    3    3  502    0 -0.58636149555E+03 -0.38109542977E+03  0.11396262239E+04  0.13370869307E+04  0.50400001928E-02 0.  1.
       -1    1    3    3    0  502  0.58636149555E+03  0.38109542977E+03 -0.39280095166E+03  0.80208859716E+03  0.50400001928E-02 0. -1.
</event>
<event>
 5   0  0.3549426E-05  0.2002296E+04  0.7818609E-02  0.8605548E-01
       -1   -1    0    0    0  501  0.00000000000E+00  0.00000000000E+00  0.73865169270E+03  0.73865169272E+03  0.50400001928E-02 0.  1.
        1   -1    0    0  501    0  0.00000000000E+00  0.00000000000E+00 -0.13569277289E+04  0.13569277289E+04  0.50400001928E-02 0. -1.
    10030    2    1    2    0    0  0.00000000000E+00  0.00000000000E+00 -0.61827603616E+03  0.20955794216E+04  0.20022956463E+04 0.  0.
        5    1    3    3  502    0  0.32906023804E+03  0.73311901377E+03  0.31578196951E+03  0.86341442591E+03  0.46999998093E+01 0.  1.
       -5    1    3    3    0  502 -0.32906023804E+03 -0.73311901377E+03 -0.93405800567E+03  0.12321649957E+04  0.46999998093E+01 0. -1.
</event>
<event>
 5   0  0.7857136E-05  0.1993694E+04  0.7818609E-02  0.8609575E-01
       -2   -1    0    0    0  501  0.00000000000E+00  0.00000000000E+00  0.83563325609E+03  0.83563325609E+03  0.25500000920E-02 0. -1.
        2   -1    0    0  501    0  0.00000000000E+00  0.00000000000E+00 -0.11891628691E+04  0.11891628691E+04  0.25500000920E-02 0.  1.
    10030    2    1    2    0    0  0.00000000000E+00  0.00000000000E+00 -0.35352961301E+03  0.20247961252E+04  0.19936940992E+04 0.  0.
        4    1    3    3  502    0  0.67564898371E+03  0.60789819611E+03 -0.59261639534E+03  0.10850057930E+04  0.12699999809E+01 0.  1.
       -4    1    3    3    0  502 -0.67564898371E+03 -0.60789819611E+03  0.23908678233E+03  0.93979033215E+03  0.12699999809E+01 0. -1.
</event>
<event>
 5   0  0.7843846E-05  0.2010318E+04  0.7818609E-02  0.8601812E-01
       -2   -1    0    0    0  501  0.00000000000E+00  0.00000000000E+00  0.10021908448E+04  0.10021908448E+04  0.25500000920E-02 0. -1.
        2   -1    0    0  501    0  0.00000000000E+00  0.00000000000E+00 -0.10081360856E+04  0.10081360856E+04  0.25500000920E-02 0.  1.
    10030    2    1    2    0    0  0.00000000000E+00  0.00000000000E+00 -0.59452408259E+01  0.20103269304E+04  0.20103181393E+04 0.  0.
        2    1    3    3  502    0  0.95772554437E+03  0.29207281005E+03  0.85345434339E+02  0.10049022778E+04  0.25500000920E-02 0. -1.
       -2    1    3    3    0  502 -0.95772554437E+03 -0.29207281005E+03 -0.91290675165E+02  0.10054246526E+04  0.25500000920E-02 0.  1.
</event>
<event>
 5   0  0.3549426E-05  0.1997014E+04  0.7818609E-02  0.8608018E-01
        1   -1    0    0  501    0  0.00000000000E+00  0.00000000000E+00  0.88415158709E+03  0.88415158710E+03  0.50400001928E-02 0.  1.
       -1   -1    0    0    0  501  0.00000000000E+00  0.00000000000E+00 -0.11276526911E+04  0.11276526911E+04  0.50400001928E-02 0. -1.
    10030    2    1    2    0    0  0.00000000000E+00  0.00000000000E+00 -0.24350110399E+03  0.20118042782E+04  0.19970136870E+04 0.  0.
        5    1    3    3  502    0  0.22303425731E+01 -0.68533380815E+03 -0.85328741707E+03  0.10944445665E+04  0.46999998093E+01 0. -1.
       -5    1    3    3    0  502 -0.22303425731E+01  0.68533380815E+03  0.60978631308E+03  0.91735971169E+03  0.46999998093E+01 0.  1.
</event>
<event>
 5   0  0.3818907E-05  0.2006264E+04  0.7818609E-02  0.8603698E-01
        1   -1    0    0  501    0  0.00000000000E+00  0.00000000000E+00  0.92538974755E+03  0.92538974756E+03  0.50400001928E-02 0. -1.
       -1   -1    0    0    0  501  0.00000000000E+00  0.00000000000E+00 -0.10874054667E+04  0.10874054667E+04  0.50400001928E-02 0.  1.
    10030    2    1    2    0    0  0.00000000000E+00  0.00000000000E+00 -0.16201571915E+03  0.20127952143E+04  0.20062640607E+04 0.  0.
        1    1    3    3  502    0  0.97618586107E+03 -0.22380851699E+03 -0.13815628967E+03  0.10109976499E+04  0.50400001928E-02 0.  1.
       -1    1    3    3    0  502 -0.97618586107E+03  0.22380851699E+03 -0.23859429485E+02  0.10017975644E+04  0.50400001928E-02 0. -1.
</event>
<event>
 5   0  0.7935008E-05  0.2002559E+04  0.7818609E-02  0.8605425E-01
       -2   -1    0    0    0  501  0.00000000000E+00  0.00000000000E+00  0.95571492902E+03  0.95571492902E+03  0.25500000920E-02 0.  1.
        2   -1    0    0  501    0  0.00000000000E+00  0.00000000000E+00 -0.10490159892E+04  0.10490159892E+04  0.25500000920E-02 0. -1.
    10030    2    1    2    0    0  0.00000000000E+00  0.00000000000E+00 -0.93301060203E+02  0.20047309182E+04  0.20025586051E+04 0.  0.
        3    1    3    3  502    0 -0.56981892715E+03 -0.40090767552E+03  0.67325378295E+03  0.96886079521E+03  0.10100000352E+00 0.  1.
       -3    1    3    3    0  502  0.56981892715E+03  0.40090767552E+03 -0.76655484316E+03  0.10358701230E+04  0.10100000352E+00 0. -1.
</event>
<event>
 5   0  0.7857136E-05  0.1961411E+04  0.7818609E-02  0.8624878E-01
        2   -1    0    0  501    0  0.00000000000E+00  0.00000000000E+00  0.12819691051E+04  0.12819691051E+04  0.25500000920E-02 0. -1.
       -2   -1    0    0    0  501  0.00000000000E+00  0.00000000000E+00 -0.75023938180E+03  0.75023938180E+03  0.25500000920E-02 0.  1.
    10030    2    1    2    0    0  0.00000000000E+00  0.00000000000E+00  0.53172972331E+03  0.20322084869E+04  0.19614114397E+04 0.  0.
        4    1    3    3  502    0 -0.89943037180E+03 -0.18920810385E+03 -0.88545339105E+02  0.92337240064E+03  0.12699999809E+01 0.  1.
       -4    1    3    3    0  502  0.89943037180E+03  0.18920810385E+03  0.62027506241E+03  0.11088360863E+04  0.12699999809E+01 0. -1.
</event>
<event>
 5   0  0.7857136E-05  0.2003383E+04  0.7818609E-02  0.8605040E-01
       -2   -1    0    0    0  501  0.00000000000E+00  0.00000000000E+00  0.13147067512E+04  0.13147067513E+04  0.25500000920E-02 0. -1.
        2   -1    0    0  501    0  0.00000000000E+00  0.00000000000E+00 -0.76320162034E+03  0.76320162035E+03  0.25500000920E-02 0.  1.
    10030    2    1    2    0    0  0.00000000000E+00  0.00000000000E+00  0.55150513090E+03  0.20779083716E+04  0.20033834609E+04 0.  0.
        4    1    3    3  502    0  0.37207082725E+03 -0.61340845601E+03 -0.44930708305E+03  0.84651349793E+03  0.12699999809E+01 0.  1.
       -4    1    3    3    0  502 -0.37207082725E+03  0.61340845601E+03  0.10008122140E+04  0.12313948737E+04  0.12699999809E+01 0. -1.
</event>
<event>
 5   0  0.3970042E-05  0.2016571E+04  0.7818609E-02  0.8598912E-01
       -1   -1    0    0    0  501  0.00000000000E+00  0.00000000000E+00  0.12313867210E+04  0.12313867210E+04  0.50400001928E-02 0. -1.
        1   -1    0    0  501    0  0.00000000000E+00  0.00000000000E+00 -0.82560580578E+03  0.82560580580E+03  0.50400001928E-02 0.  1.
    10030    2    1    2    0    0  0.00000000000E+00  0.00000000000E+00  0.40578091524E+03  0.20569925268E+04  0.20165713735E+04 0.  0.
        3    1    3    3  502    0 -0.58027008624E+03  0.62233942086E+03  0.75467729056E+03  0.11373467153E+04  0.10100000352E+00 0. -1.
       -3    1    3    3    0  502  0.58027008624E+03 -0.62233942086E+03 -0.34889637531E+03  0.91964581152E+03  0.10100000352E+00 0.  1.
</event>
<event>
 5   0  0.3970042E-05  0.1988839E+04  0.7818609E-02  0.8611857E-01
       -1   -1    0    0    0  501  0.00000000000E+00  0.00000000000E+00  0.86120369628E+03  0.86120369630E+03  0.50400001928E-02 0. -1.
        1   -1    0    0  501    0  0.00000000000E+00  0.00000000000E+00 -0.11482415443E+04  0.11482415443E+04  0.50400001928E-02 0.  1.
    10030    2    1    2    0    0  0.00000000000E+00  0.00000000000E+00 -0.28703784803E+03  0.20094452406E+04  0.19888387187E+04 0.  0.
        3    1    3    3  502    0  0.39800150110E+02  0.87571816295E+03 -0.61785466752E+03  0.10724787892E+04  0.10100000352E+00 0.  1.
       -3    1    3    3    0  502 -0.39800150110E+02 -0.87571816295E+03  0.33081681949E+03  0.93696645144E+03  0.10100000352E+00 0. -1.
</event>
<event>
 5   0  0.3818907E-05  0.2022029E+04  0.7818609E-02  0.8596390E-01
       -1   -1    0    0    0  501  0.00000000000E+00  0.00000000000E+00  0.76824406354E+03  0.76824406356E+03  0.50400001928E-02 0.  1.
        1   -1    0    0  501    0  0.00000000000E+00  0.00000000000E+00 -0.13305015029E+04  0.13305015029E+04  0.50400001928E-02 0. -1.
    10030    2    1    2    0    0  0.00000000000E+00  0.00000000000E+00 -0.56225743934E+03  0.20987455665E+04  0.20220285667E+04 0.  0.
        1    1    3    3  502    0  0.34002538715E+03  0.84010542570E+02 -0.12655183183E+04  0.13130923993E+04  0.50400001928E-02 0. -1.
       -1    1    3    3    0  502 -0.34002538715E+03 -0.84010542570E+02  0.70326087894E+03  0.78565316715E+03  0.50400001928E-02 0.  1.
</event>
<event>
 5   0  0.3772949E-05  0.2000066E+04  0.7818609E-02  0.8606590E-01
       -1   -1    0    0    0  501  0.00000000000E+00  0.00000000000E+00  0.11098131642E+04  0.11098131642E+04  0.50400001928E-02 0. -1.
        1   -1    0    0  501    0  0.00000000000E+00  0.00000000000E+00 -0.90111227441E+03  0.90111227442E+03  0.50400001928E-02 0.  1.
    10030    2    1    2    0    0  0.00000000000E+00  0.00000000000E+00  0.20870088982E+03  0.20109254387E+04  0.20000662635E+04 0.  0.
        2    1    3    3  502    0 -0.22433415604E+03  0.84298299559E+03 -0.38730363096E+03  0.95443713621E+03  0.25500000920E-02 0.  1.
       -2    1    3    3    0  502  0.22433415604E+03 -0.84298299559E+03  0.59600452078E+03  0.10564883025E+04  0.25500000920E-02 0. -1.
</event>
<event>
 5   0  0.7935008E-05  0.2023143E+04  0.7818609E-02  0.8595877E-01
        2   -1    0    0  501    0  0.00000000000E+00  0.00000000000E+00  0.10031435924E+04  0.10031435924E+04  0.25500000920E-02 0.  1.
       -2   -1    0    0    0  501  0.00000000000E+00  0.00000000000E+00 -0.10200697632E+04  0.10200697632E+04  0.25500000920E-02 0. -1.
    10030    2    1    2    0    0  0.00000000000E+00  0.00000000000E+00 -0.16926170806E+02  0.20232133556E+04  0.20231425523E+04 0.  0.
        3    1    3    3  502    0 -0.13532834074E+01 -0.81151557416E+03  0.59547615517E+03  0.10065541317E+04  0.10100000352E+00 0.  1.
       -3    1    3    3    0  502  0.13532834074E+01  0.81151557416E+03 -0.61240232598E+03  0.10166592239E+04  0.10100000352E+00 0. -1.
</event>
<event>
 5   0  0.7935008E-05  0.1992761E+04  0.7818609E-02  0.8610013E-01
        2   -1    0    0  501    0  0.00000000000E+00  0.00000000000E+00  0.15609349211E+04  0.15609349211E+04  0.25500000920E-02 0.  1.
       -2   -1    0    0    0  501  0.00000000000E+00  0.00000000000E+00 -0.63601225803E+03  0.63601225803E+03  0.25500000920E-02 0. -1.
    10030    2    1    2    0    0  0.00000000000E+00  0.00000000000E+00  0.92492266304E+03  0.21969471791E+04  0.19927606417E+04 0.  0.
        3    1    3    3  502    0  0.54752060242E+03  0.18850172995E+03 -0.43146105538E+03  0.72212904995E+03  0.10100000352E+00 0. -1.
       -3    1    3    3    0  502 -0.54752060242E+03 -0.18850172995E+03  0.13563837184E+04  0.14748181292E+04  0.10100000352E+00 0.  1.
</event>
<event>
 5   0  0.3970042E-05  0.1926787E+04  0.7818609E-02  0.8641637E-01
       -1   -1    0    0    0  501  0.00000000000E+00  0.00000000000E+00  0.95456319542E+03  0.95456319543E+03  0.50400001928E-02 0. -1.
        1   -1    0    0  501    0  0.00000000000E+00  0.00000000000E+00 -0.97230504575E+03  0.97230504576E+03  0.50400001928E-02 0.  1.
    10030    2    1    2    0    0  0.00000000000E+00  0.00000000000E+00 -0.17741850329E+02  0.19268682412E+04  0.19267865594E+04 0.  0.
        3    1    3    3  502    0  0.38374055564E+03  0.13862189026E+03  0.86389384111E+03  0.95539804344E+03  0.10100000352E+00 0. -1.
       -3    1    3    3    0  502 -0.38374055564E+03 -0.13862189026E+03 -0.88163569144E+03  0.97147019775E+03  0.10100000352E+00 0.  1.
</event>
<event>
 5   0  0.7843846E-05  0.2009876E+04  0.7818609E-02  0.8602017E-01
        2   -1    0    0  501    0  0.00000000000E+00  0.00000000000E+00  0.77617568984E+03  0.77617568985E+03  0.25500000920E-02 0.  1.
       -2   -1    0    0    0  501  0.00000000000E+00  0.00000000000E+00 -0.13011239954E+04  0.13011239954E+04  0.25500000920E-02 0. -1.
    10030    2    1    2    0    0  0.00000000000E+00  0.00000000000E+00 -0.52494830553E+03  0.20772996852E+04  0.20098764287E+04 0.  0.
        2    1    3    3  502    0  0.94029710351E+03  0.29352686380E+03 -0.46810604476E+03  0.10906144744E+04  0.25500000920E-02 0. -1.
       -2    1    3    3    0  502 -0.94029710351E+03 -0.29352686380E+03 -0.56842260770E+02  0.98668521082E+03  0.25500000920E-02 0.  1.
</event>
<event>
 5   0  0.8022574E-05  0.2023088E+04  0.7818609E-02  0.8595902E-01
       -2   -1    0    0    0  501  0.00000000000E+00  0.00000000000E+00  0.10387697053E+04  0.10387697053E+04  0.25500000920E-02 0. -1.
        2   -1    0    0  501    0  0.00000000000E+00  0.00000000000E+00 -0.98503234438E+03  0.98503234438E+03  0.25500000920E-02 0.  1.
    10030    2    1    2    0    0  0.00000000000E+00  0.00000000000E+00  0.53737360925E+02  0.20238020497E+04  0.20230884885E+04 0.  0.
        1    1    3    3  502    0  0.27657464034E+03  0.40361088681E+03  0.91252070072E+03  0.10354174563E+04  0.50400001928E-02 0. -1.
       -1    1    3    3    0  502 -0.27657464034E+03 -0.40361088681E+03 -0.85878333979E+03  0.98838459334E+03  0.50400001928E-02 0.  1.
</event>
<event>
 5   0  0.7857136E-05  0.1980731E+04  0.7818609E-02  0.8615683E-01
       -2   -1    0    0    0  501  0.00000000000E+00  0.00000000000E+00  0.73148935880E+03  0.73148935880E+03  0.25500000920E-02 0. -1.
        2   -1    0    0  501    0  0.00000000000E+00  0.00000000000E+00 -0.13408587178E+04  0.13408587178E+04  0.25500000920E-02 0.  1.
    10030    2    1    2    0    0  0.00000000000E+00  0.00000000000E+00 -0.60936935901E+03  0.20723480766E+04  0.19807310607E+04 0.  0.
        4    1    3    3  502    0  0.83131511701E+03 -0.24524098216E+03  0.19663845754E+03  0.88876108094E+03  0.12699999809E+01 0. -1.
       -4    1    3    3    0  502 -0.83131511701E+03  0.24524098216E+03 -0.80600781656E+03  0.11835869957E+04  0.12699999809E+01 0.  1.
</event>
<event>
 5   0  0.3549426E-05  0.1991875E+04  0.7818609E-02  0.8610429E-01
       -1   -1    0    0    0  501  0.00000000000E+00  0.00000000000E+00  0.65201162568E+03  0.65201162570E+03  0.50400001928E-02 0. -1.
        1   -1    0    0  501    0  0.00000000000E+00  0.00000000000E+00 -0.15212783414E+04  0.15212783414E+04  0.50400001928E-02 0.  1.
    10030    2    1    2    0    0  0.00000000000E+00  0.00000000000E+00 -0.86926671568E+03  0.21732899671E+04  0.19918746592E+04 0.  0.
        5    1    3    3  502    0 -0.11866822410E+03 -0.85372309344E+03  0.10975186987E+03  0.86890323433E+03  0.46999998093E+01 0. -1.
       -5    1    3    3    0  502  0.11866822410E+03  0.85372309344E+03 -0.97901858555E+03  0.13043867327E+04  0.46999998093E+01 0.  1.
</event>
<event>
 5   0  0.8022574E-05  0.1998871E+04  0.7818609E-02  0.8607148E-01
       -2   -1    0    0    0  501  0.00000000000E+00  0.00000000000E+00  0.55418676140E+03  0.55418676140E+03  0.25500000920E-02 0. -1.
        2   -1    0    0  501    0  0.00000000000E+00  0.00000000000E+00 -0.18024099862E+04  0.18024099862E+04  0.25500000920E-02 0.  1.
    10030    2    1    2    0    0  0.00000000000E+00  0.00000000000E+00 -0.12482232248E+04  0.23565967476E+04  0.19988714346E+04 0.  0.
        1    1    3    3  502    0 -0.39248958298E+03  0.91702001111E+03 -0.55050443168E+03  0.11393107139E+04  0.50400001928E-02 0.  1.
       -1    1    3    3    0  502  0.39248958298E+03 -0.91702001111E+03 -0.69771879314E+03  0.12172860337E+04  0.50400001928E-02 0. -1.
</event>
<event>
 5   0  0.7935008E-05  0.2005685E+04  0.7818609E-02  0.8603967E-01
        2   -1    0    0  501    0  0.00000000000E+00  0.00000000000E+00  0.11807637286E+04  0.11807637286E+04  0.25500000920E-02 0. -1.
       -2   -1    0    0    0  501  0.00000000000E+00  0.00000000000E+00 -0.85173128260E+03  0.85173128261E+03  0.25500000920E-02 0.  1.
    10030    2    1    2    0    0  0.00000000000E+00  0.00000000000E+00  0.32903244602E+03  0.20324950112E+04  0.20056853243E+04 0.  0.
        3    1    3    3  502    0  0.22097445434E+02  0.56181029191E+03  0.10060222352E+04  0.11524755308E+04  0.10100000352E+00 0. -1.
       -3    1    3    3    0  502 -0.22097445434E+02 -0.56181029191E+03 -0.67698978914E+03  0.88001948046E+03  0.10100000352E+00 0.  1.
</event>
<event>
 5   0  0.3787698E-05  0.2021466E+04  0.7818609E-02  0.8596650E-01
       -1   -1    0    0    0  501  0.00000000000E+00  0.00000000000E+00  0.17271535980E+04  0.17271535981E+04  0.50400001928E-02 0. -1.
        1   -1    0    0  501    0  0.00000000000E+00  0.00000000000E+00 -0.59148269490E+03  0.59148269492E+03  0.50400001928E-02 0.  1.
    10030    2    1    2    0    0  0.00000000000E+00  0.00000000000E+00  0.11356709032E+04  0.23186362930E+04  0.20214662646E+04 0.  0.
        4    1    3    3  502    0  0.65480408907E+03  0.56574265982E+03  0.11668617422E+04  0.14527219591E+04  0.12699999809E+01 0. -1.
       -4    1    3    3    0  502 -0.65480408907E+03 -0.56574265982E+03 -0.31190839080E+02  0.86591433383E+03  0.12699999809E+01 0.  1.
</event>
<event>
 5   0  0.8011197E-05  0.2011934E+04  0.7818609E-02  0.8601062E-01
        2   -1    0    0  501    0  0.00000000000E+00  0.00000000000E+00  0.15960734209E+04  0.15960734209E+04  0.25500000920E-02 0.  1.
       -2   -1    0    0    0  501  0.00000000000E+00  0.00000000000E+00 -0.63403683926E+03  0.63403683927E+03  0.25500000920E-02 0. -1.
    10030    2    1    2    0    0  0.00000000000E+00  0.00000000000E+00  0.96203658163E+03  0.22301102602E+04  0.20119337435E+04 0.  0.
        5    1    3    3  502    0  0.79637598211E+02  0.62574212568E+03 -0.38757246256E+03  0.74035792603E+03  0.46999998093E+01 0. -1.
       -5    1    3    3    0  502 -0.79637598211E+02 -0.62574212568E+03  0.13496090442E+04  0.14897523341E+04  0.46999998093E+01 0.  1.
</event>
<event>
 5   0  0.7843846E-05  0.1991459E+04  0.7818609E-02  0.8610624E-01
       -2   -1    0    0    0  501  0.00000000000E+00  0.00000000000E+00  0.12786636066E+04  0.12786636066E+04  0.25500000920E-02 0.  1.
        2   -1    0    0  501    0  0.00000000000E+00  0.00000000000E+00 -0.77540129811E+03  0.77540129812E+03  0.25500000920E-02 0. -1.
    10030    2    1    2    0    0  0.00000000000E+00  0.00000000000E+00  0.50326230851E+03  0.20540649047E+04  0.19914591841E+04 0.  0.
        2    1    3    3  502    0 -0.93185197542E+03  0.32874761359E+03  0.37818442275E+03  0.10580390140E+04  0.25500000920E-02 0. -1.
       -2    1    3    3    0  502  0.93185197542E+03 -0.32874761359E+03  0.12507788577E+03  0.99602589075E+03  0.25500000920E-02 0.  1.
</event>
<event>
 5   0  0.7843846E-05  0.1966783E+04  0.7818609E-02  0.8622310E-01
       -2   -1    0    0    0  501  0.00000000000E+00  0.00000000000E+00  0.62279884982E+03  0.62279884983E+03  0.25500000920E-02 0. -1.
        2   -1    0    0  501    0  0.00000000000E+00  0.00000000000E+00 -0.15527632625E+04  0.15527632625E+04  0.25500000920E-02 0.  1.
    10030    2    1    2    0    0  0.00000000000E+00  0.00000000000E+00 -0.92996441264E+03  0.21755621123E+04  0.19667833372E+04 0.  0.
        2    1    3    3  502    0 -0.21737405294E+03 -0.39621092495E+03 -0.14310938383E+04  0.15007545269E+04  0.25500000920E-02 0.  1.
       -2    1    3    3    0  502  0.21737405294E+03  0.39621092495E+03  0.50112942571E+03  0.67480758536E+03  0.25500000920E-02 0. -1.
</event>
<event>
 5   0  0.3970042E-05  0.1985001E+04  0.7818609E-02  0.8613665E-01
        1   -1    0    0  501    0  0.00000000000E+00  0.00000000000E+00  0.10849849215E+04  0.10849849215E+04  0.50400001928E-02 0.  1.
       -1   -1    0    0    0  501  0.00000000000E+00  0.00000000000E+00 -0.90789964159E+03  0.90789964160E+03  0.50400001928E-02 0. -1.
    10030    2    1    2    0    0  0.00000000000E+00  0.00000000000E+00  0.17708527994E+03  0.19928845631E+04  0.19850011803E+04 0.  0.
        3    1    3    3  502    0 -0.25672384737E+03  0.96805780916E+02 -0.86906876165E+03  0.91135010600E+03  0.10100000352E+00 0. -1.
       -3    1    3    3    0  502  0.25672384737E+03 -0.96805780916E+02  0.10461540416E+04  0.10815344571E+04  0.10100000352E+00 0.  1.
</event>
<event>
 5   0  0.3772949E-05  0.1951516E+04  0.7818609E-02  0.8629630E-01
        1   -1    0    0  501    0  0.00000000000E+00  0.00000000000E+00  0.14659400720E+04  0.14659400720E+04  0.50400001928E-02 0.  1.
       -1   -1    0    0    0  501  0.00000000000E+00  0.00000000000E+00 -0.64948341055E+03  0.64948341057E+03  0.50400001928E-02 0. -1.
    10030    2    1    2    0    0  0.00000000000E+00  0.00000000000E+00  0.81645666148E+03  0.21154234826E+04  0.19515160852E+04 0.  0.
        2    1    3    3  502    0 -0.59886228330E+03 -0.73207512583E+03  0.14822047830E+03  0.95736060835E+03  0.25500000920E-02 0. -1.
       -2    1    3    3    0  502  0.59886228330E+03  0.73207512583E+03  0.66823618319E+03  0.11580628743E+04  0.25500000920E-02 0.  1.
</event>
<event>
 5   0  0.8022574E-05  0.1977923E+04  0.7818609E-02  0.8617012E-01
        2   -1    0    0  501    0  0.00000000000E+00  0.00000000000E+00  0.10619641874E+04  0.10619641874E+04  0.25500000920E-02 0. -1.
       -2   -1    0    0    0  501  0.00000000000E+00  0.00000000000E+00 -0.92097753458E+03  0.92097753458E+03  0.25500000920E-02 0.  1.
    10030    2    1    2    0    0  0.00000000000E+00  0.00000000000E+00  0.14098665280E+03  0.19829417220E+04  0.19779233141E+04 0.  0.
        1    1    3    3  502    0  0.35490875980E+02  0.84282726515E+03 -0.44698270172E+03  0.95467844681E+03  0.50400001928E-02 0.  1.
       -1    1    3    3    0  502 -0.35490875980E+02 -0.84282726515E+03  0.58796935452E+03  0.10282632752E+04  0.50400001928E-02 0. -1.
</event>
<event>
 5   0  0.2859625E-05  0.1772817E+04  0.7818609E-02  0.8720890E-01
       -4   -1    0    0    0  501  0.00000000000E+00  0.00000000000E+00  0.60919651409E+03  0.60919783788E+03  0.12699999809E+01 0. -1.
        4   -1    0    0  501    0  0.00000000000E+00  0.00000000000E+00 -0.12897618613E+04  0.12897624866E+04  0.12699999809E+01 0.  1.
    10030    2    1    2    0    0  0.00000000000E+00  0.00000000000E+00 -0.68056534719E+03  0.18989603244E+04  0.17728172839E+04 0.  0.
        5    1    3    3  502    0 -0.21601084181E+03  0.81758550071E+03 -0.62487814350E+03  0.10514758766E+04  0.46999998093E+01 0.  1.
       -5    1    3    3    0  502  0.21601084181E+03 -0.81758550071E+03 -0.55687203691E+02  0.84748444788E+03  0.46999998093E+01 0. -1.
</event>
<event>
 5   0  0.3549426E-05  0.2049082E+04  0.7818609E-02  0.8584011E-01
        1   -1    0    0  501    0  0.00000000000E+00  0.00000000000E+00  0.31401786624E+04  0.31401786625E+04  0.50400001928E-02 0.  1.
       -1   -1    0    0    0  501  0.00000000000E+00  0.00000000000E+00 -0.33427527930E+03  0.33427527934E+03  0.50400001928E-02 0. -1.
    10030    2    1    2    0    0  0.00000000000E+00  0.00000000000E+00  0.28059033831E+04  0.34744539418E+04  0.20490818427E+04 0.  0.
        5    1    3    3  502    0 -0.72893063829E+03  0.25891626358E+03  0.25420270683E+04  0.26571227320E+04  0.46999998093E+01 0.  1.
       -5    1    3    3    0  502  0.72893063829E+03 -0.25891626358E+03  0.26387631488E+03  0.81733120982E+03  0.46999998093E+01 0. -1.
</event>
<event>
 5   0  0.8011197E-05  0.2009718E+04  0.7818609E-02  0.8602091E-01
       -2   -1    0    0    0  501  0.00000000000E+00  0.00000000000E+00  0.56642198169E+03  0.56642198169E+03  0.25500000920E-02 0.  1.
        2   -1    0    0  501    0  0.00000000000E+00  0.00000000000E+00 -0.17826664048E+04  0.17826664048E+04  0.25500000920E-02 0. -1.
    10030    2    1    2    0    0  0.00000000000E+00  0.00000000000E+00 -0.12162444231E+04  0.23490883865E+04  0.20097178287E+04 0.  0.
        5    1    3    3  502    0  0.94969446629E+03 -0.26791315639E+03 -0.38627700648E+03  0.10596834690E+04  0.46999998093E+01 0.  1.
       -5    1    3    3    0  502 -0.94969446629E+03  0.26791315639E+03 -0.82996741666E+03  0.12894049175E+04  0.46999998093E+01 0. -1.
</event>
<event>
 5   0  0.3772949E-05  0.1997186E+04  0.7818609E-02  0.8607937E-01
        1   -1    0    0  501    0  0.00000000000E+00  0.00000000000E+00  0.16056706070E+04  0.16056706070E+04  0.50400001928E-02 0.  1.
       -1   -1    0    0    0  501  0.00000000000E+00  0.00000000000E+00 -0.62104137214E+03  0.62104137216E+03  0.50400001928E-02 0. -1.
    10030    2    1    2    0    0  0.00000000000E+00  0.00000000000E+00  0.98462923487E+03  0.22267119792E+04  0.19971858972E+04 0.  0.
        2    1    3    3  502    0  0.56634757983E+03 -0.62794554204E+02  0.14066175860E+04  0.15176513995E+04  0.25500000920E-02 0.  1.
       -2    1    3    3    0  502 -0.56634757983E+03  0.62794554204E+02 -0.42198835109E+03  0.70906057969E+03  0.25500000920E-02 0. -1.
</event>
<event>
 5   0  0.3970042E-05  0.2018349E+04  0.7818609E-02  0.8598090E-01
        1   -1    0    0  501    0  0.00000000000E+00  0.00000000000E+00  0.22301027254E+04  0.22301027254E+04  0.50400001928E-02 0. -1.
       -1   -1    0    0    0  501  0.00000000000E+00  0.00000000000E+00 -0.45667559137E+03  0.45667559139E+03  0.50400001928E-02 0.  1.
    10030    2    1    2    0    0  0.00000000000E+00  0.00000000000E+00  0.17734271341E+04  0.26867783168E+04  0.20183493067E+04 0.  0.
        3    1    3    3  502    0  0.99934342395E+03 -0.13719857578E+03  0.84627685922E+03  0.13166986219E+04  0.10100000352E+00 0.  1.
       -3    1    3    3    0  502 -0.99934342395E+03  0.13719857578E+03  0.92715027485E+03  0.13700796950E+04  0.10100000352E+00 0. -1.
</event>
<event>
 5   0  0.3549426E-05  0.1990362E+04  0.7818609E-02  0.8611140E-01
       -1   -1    0    0    0  501  0.00000000000E+00  0.00000000000E+00  0.73360947595E+03  0.73360947597E+03  0.50400001928E-02 0. -1.
        1   -1    0    0  501    0  0.00000000000E+00  0.00000000000E+00 -0.13500167633E+04  0.13500167633E+04  0.50400001928E-02 0.  1.
    10030    2    1    2    0    0  0.00000000000E+00  0.00000000000E+00 -0.61640728732E+03  0.20836262393E+04  0.19903618669E+04 0.  0.
        5    1    3    3  502    0 -0.69751691130E+03  0.14102042586E+03  0.42005627181E+03  0.82636914484E+03  0.46999998093E+01 0. -1.
       -5    1    3    3    0  502  0.69751691130E+03 -0.14102042586E+03 -0.10364635591E+04  0.12572570944E+04  0.46999998093E+01 0.  1.
</event>
<event>
 5   0  0.7843846E-05  0.2004065E+04  0.7818609E-02  0.8604722E-01
        2   -1    0    0  501    0  0.00000000000E+00  0.00000000000E+00  0.14124108737E+04  0.14124108737E+04  0.25500000920E-02 0.  1.
       -2   -1    0    0    0  501  0.00000000000E+00  0.00000000000E+00 -0.71089032710E+03  0.71089032710E+03  0.25500000920E-02 0. -1.
    10030    2    1    2    0    0  0.00000000000E+00  0.00000000000E+00  0.70152054658E+03  0.21233012008E+04  0.20040650967E+04 0.  0.
        2    1    3    3  502    0  0.68620881582E+03 -0.23256450500E+03  0.10841132614E+04  0.13039441520E+04  0.25500000920E-02 0.  1.
       -2    1    3    3    0  502 -0.68620881582E+03  0.23256450500E+03 -0.38259271487E+03  0.81935704877E+03  0.25500000920E-02 0. -1.
</event>
<event>
 5   0  0.8022574E-05  0.2004334E+04  0.7818609E-02  0.8604597E-01
       -2   -1    0    0    0  501  0.00000000000E+00  0.00000000000E+00  0.11320906015E+04  0.11320906015E+04  0.25500000920E-02 0.  1.
        2   -1    0    0  501    0  0.00000000000E+00  0.00000000000E+00 -0.88715433932E+03  0.88715433932E+03  0.25500000920E-02 0. -1.
    10030    2    1    2    0    0  0.00000000000E+00  0.00000000000E+00  0.24493626219E+03  0.20192449408E+04  0.20043343929E+04 0.  0.
        1    1    3    3  502    0  0.19431995581E+03  0.21856010845E+03 -0.84320857998E+03  0.89248500021E+03  0.50400001928E-02 0. -1.
       -1    1    3    3    0  502 -0.19431995581E+03 -0.21856010845E+03  0.10881448422E+04  0.11267599406E+04  0.50400001928E-02 0.  1.
</event>
<event>
 5   0  0.3970042E-05  0.2002840E+04  0.7818609E-02  0.8605294E-01
        1   -1    0    0  501    0  0.00000000000E+00  0.00000000000E+00  0.13639099227E+04  0.13639099227E+04  0.50400001928E-02 0. -1.
       -1   -1    0    0    0  501  0.00000000000E+00  0.00000000000E+00 -0.73527014981E+03  0.73527014983E+03  0.50400001928E-02 0.  1.
    10030    2    1    2    0    0  0.00000000000E+00  0.00000000000E+00  0.62863977289E+03  0.20991800725E+04  0.20028402365E+04 0.  0.
        3    1    3    3  502    0  0.29296576687E+03  0.43353641706E+02  0.13169613875E+04  0.13498502825E+04  0.10100000352E+00 0. -1.
       -3    1    3    3    0  502 -0.29296576687E+03 -0.43353641706E+02 -0.68832161464E+03  0.74932979001E+03  0.10100000352E+00 0.  1.
</event>
<event>
 5   0  0.8022574E-05  0.1893569E+04  0.7818609E-02  0.8658064E-01
        2   -1    0    0  501    0  0.00000000000E+00  0.00000000000E+00  0.13047769212E+04  0.13047769212E+04  0.25500000920E-02 0.  1.
       -2   -1    0    0    0  501  0.00000000000E+00  0.00000000000E+00 -0.68701467359E+03  0.68701467359E+03  0.25500000920E-02 0. -1.
    10030    2    1    2    0    0  0.00000000000E+00  0.00000000000E+00  0.61776224759E+03  0.19917915948E+04  0.18935690012E+04 0.  0.
        1    1    3    3  502    0  0.22706742318E+02 -0.75301412247E+03  0.91208621957E+03  0.11829823062E+04  0.50400001928E-02 0.  1.
       -1    1    3    3    0  502 -0.22706742318E+02  0.75301412247E+03 -0.29432397199E+03  0.80880928858E+03  0.50400001928E-02 0. -1.
</event>
<event>
 5   0  0.8022574E-05  0.1997807E+04  0.7818609E-02  0.8607647E-01
       -2   -1    0    0    0  501  0.00000000000E+00  0.00000000000E+00  0.66558321778E+03  0.66558321778E+03  0.25500000920E-02 0. -1.
        2   -1    0    0  501    0  0.00000000000E+00  0.00000000000E+00 -0.14991486036E+04  0.14991486036E+04  0.25500000920E-02 0.  1.
    10030    2    1    2    0    0  0.00000000000E+00  0.00000000000E+00 -0.83356538587E+03  0.21647318214E+04  0.19978069492E+04 0.  0.
        1    1    3    3  502    0  0.37648164311E+02 -0.39575382057E+03  0.57617484533E+03  0.70001137361E+03  0.50400001928E-02 0. -1.
       -1    1    3    3    0  502 -0.37648164311E+02  0.39575382057E+03 -0.14097402312E+04  0.14647204478E+04  0.50400001928E-02 0.  1.
</event>
<event>
 5   0  0.8011197E-05  0.2004405E+04  0.7818609E-02  0.8604564E-01
       -2   -1    0    0    0  501  0.00000000000E+00  0.00000000000E+00  0.42400852677E+03  0.42400852678E+03  0.25500000920E-02 0.  1.
        2   -1    0    0  501    0  0.00000000000E+00  0.00000000000E+00 -0.23688424506E+04  0.23688424506E+04  0.25500000920E-02 0. -1.
    10030    2    1    2    0    0  0.00000000000E+00  0.00000000000E+00 -0.19448339238E+04  0.27928509774E+04  0.20044045476E+04 0.  0.
        5    1    3    3  502    0 -0.38267547688E+03  0.32366905944E+03  0.23682511720E+03  0.55435584851E+03  0.46999998093E+01 0.  1.
       -5    1    3    3    0  502  0.38267547688E+03 -0.32366905944E+03 -0.21816590410E+04  0.22384951289E+04  0.46999998093E+01 0. -1.
</event>
<event>
 5   0  0.7935008E-05  0.1989677E+04  0.7818609E-02  0.8611462E-01
        2   -1    0    0  501    0  0.00000000000E+00  0.00000000000E+00  0.17287634607E+04  0.17287634607E+04  0.25500000920E-02 0.  1.
       -2   -1    0    0    0  501  0.00000000000E+00  0.00000000000E+00 -0.57249225590E+03  0.57249225590E+03  0.25500000920E-02 0. -1.
    10030    2    1    2    0    0  0.00000000000E+00  0.00000000000E+00  0.11562712048E+04  0.23012557166E+04  0.19896770527E+04 0.  0.
        3    1    3    3  502    0  0.99082753334E+02 -0.47900748485E+03 -0.42379982433E+03  0.64720310866E+03  0.10100000352E+00 0. -1.
       -3    1    3    3    0  502 -0.99082753334E+02  0.47900748485E+03  0.15800710292E+04  0.16540526080E+04  0.10100000352E+00 0.  1.
</event>
<event>
 5   0  0.3818907E-05  0.2035534E+04  0.7818609E-02  0.8590185E-01
        1   -1    0    0  501    0  0.00000000000E+00  0.00000000000E+00  0.10498632793E+04  0.10498632793E+04  0.50400001928E-02 0. -1.
       -1   -1    0    0    0  501  0.00000000000E+00  0.00000000000E+00 -0.98665148525E+03  0.98665148527E+03  0.50400001928E-02 0.  1.
    10030    2    1    2    0    0  0.00000000000E+00  0.00000000000E+00  0.63211794031E+02  0.20365147646E+04  0.20355335063E+04 0.  0.
        1    1    3    3  502    0  0.55168589855E+03  0.49491515407E+03 -0.66626230985E+03  0.99659610974E+03  0.50400001928E-02 0.  1.
       -1    1    3    3    0  502 -0.55168589855E+03 -0.49491515407E+03  0.72947410388E+03  0.10399186548E+04  0.50400001928E-02 0. -1.
</event>
<event>
 5   0  0.3818907E-05  0.1993153E+04  0.7818609E-02  0.8609828E-01
        1   -1    0    0  501    0  0.00000000000E+00  0.00000000000E+00  0.19899252147E+04  0.19899252147E+04  0.50400001928E-02 0.  1.
       -1   -1    0    0    0  501  0.00000000000E+00  0.00000000000E+00 -0.49909663760E+03  0.49909663763E+03  0.50400001928E-02 0. -1.
    10030    2    1    2    0    0  0.00000000000E+00  0.00000000000E+00  0.14908285771E+04  0.24890218524E+04  0.19931532643E+04 0.  0.
        1    1    3    3  502    0  0.76267483323E+03  0.92955677868E+02 -0.47197289852E+02  0.76976700598E+03  0.50400001928E-02 0. -1.
       -1    1    3    3    0  502 -0.76267483323E+03 -0.92955677868E+02  0.15380258670E+04  0.17192548464E+04  0.50400001928E-02 0.  1.
</event>
<event>
 5   0  0.3818907E-05  0.1983975E+04  0.7818609E-02  0.8614150E-01
       -1   -1    0    0    0  501  0.00000000000E+00  0.00000000000E+00  0.62333404369E+03  0.62333404371E+03  0.50400001928E-02 0. -1.
        1   -1    0    0  501    0  0.00000000000E+00  0.00000000000E+00 -0.15786708605E+04  0.15786708605E+04  0.50400001928E-02 0.  1.
    10030    2    1    2    0    0  0.00000000000E+00  0.00000000000E+00 -0.95533681677E+03  0.22020049042E+04  0.19839750917E+04 0.  0.
        1    1    3    3  502    0  0.56714879510E+03 -0.73491415968E+02 -0.13772867922E+04  0.14913006578E+04  0.50400001928E-02 0.  1.
       -1    1    3    3    0  502 -0.56714879510E+03  0.73491415968E+02  0.42194997543E+03  0.71070424637E+03  0.50400001928E-02 0. -1.
</event>
<event>
 5   0  0.8011197E-05  0.1998142E+04  0.7818609E-02  0.8607490E-01
        2   -1    0    0  501    0  0.00000000000E+00  0.00000000000E+00  0.77141118384E+03  0.77141118384E+03  0.25500000920E-02 0.  1.
       -2   -1    0    0    0  501  0.00000000000E+00  0.00000000000E+00 -0.12939182204E+04  0.12939182204E+04  0.25500000920E-02 0. -1.
    10030    2    1    2    0    0  0.00000000000E+00  0.00000000000E+00 -0.52250703657E+03  0.20653294042E+04  0.19981421233E+04 0.  0.
        5    1    3    3  502    0 -0.79320337620E+03 -0.53738934289E+03  0.31395592929E+02  0.95862749550E+03  0.46999998093E+01 0.  1.
       -5    1    3    3    0  502  0.79320337620E+03  0.53738934289E+03 -0.55390262950E+03  0.11067019088E+04  0.46999998093E+01 0. -1.
</event>
<event>
 5   0  0.8022574E-05  0.2009398E+04  0.7818609E-02  0.8602239E-01
       -2   -1    0    0    0  501  0.00000000000E+00  0.00000000000E+00  0.37757367564E+03  0.37757367565E+03  0.25500000920E-02 0. -1.
        2   -1    0    0  501    0  0.00000000000E+00  0.00000000000E+00 -0.26734395293E+04  0.26734395293E+04  0.25500000920E-02 0.  1.
    10030    2    1    2    0    0  0.00000000000E+00  0.00000000000E+00 -0.22958658537E+04  0.30510132049E+04  0.20093983076E+04 0.  0.
        1    1    3    3  502    0  0.11623071324E+03  0.68701255321E+03 -0.22469702340E+04  0.23525244014E+04  0.50400001928E-02 0.  1.
       -1    1    3    3    0  502 -0.11623071324E+03 -0.68701255321E+03 -0.48895619674E+02  0.69848880350E+03  0.50400001928E-02 0. -1.
</event>
<event>
 5   0  0.3549426E-05  0.2000309E+04  0.7818609E-02  0.8606476E-01
       -1   -1    0    0    0  501  0.00000000000E+00  0.00000000000E+00  0.60112873418E+03  0.60112873420E+03  0.50400001928E-02 0. -1.
        1   -1    0    0  501    0  0.00000000000E+00  0.00000000000E+00 -0.16640515740E+04  0.16640515740E+04  0.50400001928E-02 0.  1.
    10030    2    1    2    0    0  0.00000000000E+00  0.00000000000E+00 -0.10629228398E+04  0.22651803082E+04  0.20003091924E+04 0.  0.
        5    1    3    3  502    0  0.69173501296E+03 -0.18916667074E+03  0.25799172463E+03  0.76214380365E+03  0.46999998093E+01 0. -1.
       -5    1    3    3    0  502 -0.69173501296E+03  0.18916667074E+03 -0.13209145644E+04  0.15030365045E+04  0.46999998093E+01 0.  1.
</event>
<event>
 5   0  0.3970042E-05  0.1949536E+04  0.7818609E-02  0.8630585E-01
        1   -1    0    0  501    0  0.00000000000E+00  0.00000000000E+00  0.11370272293E+04  0.11370272294E+04  0.50400001928E-02 0. -1.
       -1   -1    0    0    0  501  0.00000000000E+00  0.00000000000E+00 -0.83566393637E+03  0.83566393638E+03  0.50400001928E-02 0.  1.
    10030    2    1    2    0    0  0.00000000000E+00  0.00000000000E+00  0.30136329297E+03  0.19726911657E+04  0.19495359963E+04 0.  0.
        3    1    3    3  502    0  0.61590956236E+03 -0.20680143654E+03  0.88599080849E+03  0.10986769981E+04  0.10100000352E+00 0. -1.
       -3    1    3    3    0  502 -0.61590956236E+03  0.20680143654E+03 -0.58462751552E+03  0.87401416766E+03  0.10100000352E+00 0.  1.
</event>
<event>
 5   0  0.8022574E-05  0.2019767E+04  0.7818609E-02  0.8597434E-01
        2   -1    0    0  501    0  0.00000000000E+00  0.00000000000E+00  0.20101953112E+04  0.20101953112E+04  0.25500000920E-02 0. -1.
       -2   -1    0    0    0  501  0.00000000000E+00  0.00000000000E+00 -0.50734603908E+03  0.50734603908E+03  0.25500000920E-02 0.  1.
    10030    2    1    2    0    0  0.00000000000E+00  0.00000000000E+00  0.15028492721E+04  0.25175413503E+04  0.20197669459E+04 0.  0.
        1    1    3    3  502    0  0.96976774794E+03 -0.34314637000E+01  0.11026572345E+04  0.14684393882E+04  0.50400001928E-02 0. -1.
       -1    1    3    3    0  502 -0.96976774794E+03  0.34314637000E+01  0.40019203760E+03  0.10491019621E+04  0.50400001928E-02 0.  1.
</event>
<event>
 5   0  0.3818907E-05  0.2007039E+04  0.7818609E-02  0.8603337E-01
        1   -1    0    0  501    0  0.00000000000E+00  0.00000000000E+00  0.21942227648E+04  0.21942227648E+04  0.50400001928E-02 0. -1.
       -1   -1    0    0    0  501  0.00000000000E+00  0.00000000000E+00 -0.45895604081E+03  0.45895604084E+03  0.50400001928E-02 0.  1.
    10030    2    1    2    0    0  0.00000000000E+00  0.00000000000E+00  0.17352667240E+04  0.26531788057E+04  0.20070394045E+04 0.  0.
        1    1    3    3  502    0 -0.21599016479E+03  0.51333705992E+03  0.19711813191E+04  0.20483462796E+04  0.50400001928E-02 0. -1.
       -1    1    3    3    0  502  0.21599016479E+03 -0.51333705992E+03 -0.23591459510E+03  0.60483252605E+03  0.50400001928E-02 0.  1.
</event>
<event>
 5   0  0.3772949E-05  0.1999073E+04  0.7818609E-02  0.8607054E-01
       -1   -1    0    0    0  501  0.00000000000E+00  0.00000000000E+00  0.69914776977E+03  0.69914776979E+03  0.50400001928E-02 0. -1.
        1   -1    0    0  501    0  0.00000000000E+00  0.00000000000E+00 -0.14289867345E+04  0.14289867345E+04  0.50400001928E-02 0.  1.
    10030    2    1    2    0    0  0.00000000000E+00  0.00000000000E+00 -0.72983896476E+03  0.21281345043E+04  0.19990726735E+04 0.  0.
        2    1    3    3  502    0 -0.54245670034E+03 -0.83950134758E+03 -0.35730923687E+03  0.10614573355E+04  0.25500000920E-02 0. -1.
       -2    1    3    3    0  502  0.54245670034E+03  0.83950134758E+03 -0.37252972790E+03  0.10666771688E+04  0.25500000920E-02 0.  1.
</event>
<event>
 5   0  0.3787698E-05  0.1979045E+04  0.7818609E-02  0.8616481E-01
       -1   -1    0    0    0  501  0.00000000000E+00  0.00000000000E+00  0.60569573439E+03  0.60569573441E+03  0.50400001928E-02 0.  1.
        1   -1    0    0  501    0  0.00000000000E+00  0.00000000000E+00 -0.16165787809E+04  0.16165787809E+04  0.50400001928E-02 0. -1.
    10030    2    1    2    0    0  0.00000000000E+00  0.00000000000E+00 -0.10108830465E+04  0.22222745153E+04  0.19790450949E+04 0.  0.
        4    1    3    3  502    0  0.70518734283E+03 -0.21878424162E+03 -0.12451926624E+04  0.14476401874E+04  0.12699999809E+01 0. -1.
       -4    1    3    3    0  502 -0.70518734283E+03  0.21878424162E+03  0.23430961593E+03  0.77463432785E+03  0.12699999809E+01 0.  1.
</event>
<event>
 5   0  0.3787698E-05  0.1972150E+04  0.7818609E-02  0.8619753E-01
       -1   -1    0    0    0  501  0.00000000000E+00  0.00000000000E+00  0.68337511076E+03  0.68337511078E+03  0.50400001928E-02 0.  1.
        1   -1    0    0  501    0  0.00000000000E+00  0.00000000000E+00 -0.14228546336E+04  0.14228546336E+04  0.50400001928E-02 0. -1.
    10030    2    1    2    0    0  0.00000000000E+00  0.00000000000E+00 -0.73947952285E+03  0.21062297444E+04  0.19721495307E+04 0.  0.
        4    1    3    3  502    0 -0.87284221057E+00  0.67794309390E+03 -0.11344766800E+04  0.13216075631E+04  0.12699999809E+01 0. -1.
       -4    1    3    3    0  502  0.87284221057E+00 -0.67794309390E+03  0.39499715712E+03  0.78462218134E+03  0.12699999809E+01 0.  1.
</event>
<event>
 5   0  0.3818907E-05  0.2005786E+04  0.7818609E-02  0.8603920E-01
        1   -1    0    0  501    0  0.00000000000E+00  0.00000000000E+00  0.17444282635E+04  0.17444282635E+04  0.50400001928E-02 0. -1.
       -1   -1    0    0    0  501  0.00000000000E+00  0.00000000000E+00 -0.57657531399E+03  0.57657531401E+03  0.50400001928E-02 0.  1.
    10030    2    1    2    0    0  0.00000000000E+00  0.00000000000E+00  0.11678529495E+04  0.23210035775E+04  0.20057859046E+04 0.  0.
        1    1    3    3  502    0  0.42184650300E+03 -0.79151319674E+03  0.64692082502E+02  0.89924005597E+03  0.50400001928E-02 0.  1.
       -1    1    3    3    0  502 -0.42184650300E+03  0.79151319674E+03  0.11031608670E+04  0.14217635216E+04  0.50400001928E-02 0. -1.
</event>
<event>
 5   0  0.3970042E-05  0.1988145E+04  0.7818609E-02  0.8612183E-01
        1   -1    0    0  501    0  0.00000000000E+00  0.00000000000E+00  0.15344285254E+04  0.15344285254E+04  0.50400001928E-02 0. -1.
       -1   -1    0    0    0  501  0.00000000000E+00  0.00000000000E+00 -0.64400524211E+03  0.64400524212E+03  0.50400001928E-02 0.  1.
    10030    2    1    2    0    0  0.00000000000E+00  0.00000000000E+00  0.89042328332E+03  0.21784337676E+04  0.19881448781E+04 0.  0.
        3    1    3    3  502    0  0.53198095563E+03  0.50225135547E+03  0.11826182165E+04  0.13906279220E+04  0.10100000352E+00 0. -1.
       -3    1    3    3    0  502 -0.53198095563E+03 -0.50225135547E+03 -0.29219493313E+03  0.78780584561E+03  0.10100000352E+00 0.  1.
</event>
<event>
 5   0  0.3787698E-05  0.2013906E+04  0.7818609E-02  0.8600147E-01
       -1   -1    0    0    0  501  0.00000000000E+00  0.00000000000E+00  0.73865631603E+03  0.73865631605E+03  0.50400001928E-02 0. -1.
        1   -1    0    0  501    0  0.00000000000E+00  0.00000000000E+00 -0.13727007362E+04  0.13727007362E+04  0.50400001928E-02 0.  1.
    10030    2    1    2    0    0  0.00000000000E+00  0.00000000000E+00 -0.63404442019E+03  0.21113570523E+04  0.20139057265E+04 0.  0.
        4    1    3    3  502    0 -0.26886278711E+03 -0.16967541954E+03 -0.13187006461E+04  0.13564844095E+04  0.12699999809E+01 0.  1.
       -4    1    3    3    0  502  0.26886278711E+03  0.16967541954E+03  0.68465622589E+03  0.75487264279E+03  0.12699999809E+01 0. -1.
</event>
<event>
 5   0  0.7935008E-05  0.1978439E+04  0.7818609E-02  0.8616768E-01
        2   -1    0    0  501    0  0.00000000000E+00  0.00000000000E+00  0.13409061823E+04  0.13409061823E+04  0.25500000920E-02 0.  1.
       -2   -1    0    0    0  501  0.00000000000E+00  0.00000000000E+00 -0.72977162614E+03  0.72977162614E+03  0.25500000920E-02 0. -1.
    10030    2    1    2    0    0  0.00000000000E+00  0.00000000000E+00  0.61113455618E+03  0.20706778085E+04  0.19784390667E+04 0.  0.
        3    1    3    3  502    0 -0.65565839573E+03 -0.73848369831E+03  0.24535994137E+03  0.10175694648E+04  0.10100000352E+00 0. -1.
       -3    1    3    3    0  502  0.65565839573E+03  0.73848369831E+03  0.36577461481E+03  0.10531083437E+04  0.10100000352E+00 0.  1.
</event>
<event>
 5   0  0.3772949E-05  0.2014929E+04  0.7818609E-02  0.8599672E-01
        1   -1    0    0  501    0  0.00000000000E+00  0.00000000000E+00  0.15826107968E+04  0.15826107968E+04  0.50400001928E-02 0. -1.
       -1   -1    0    0    0  501  0.00000000000E+00  0.00000000000E+00 -0.64133572669E+03  0.64133572671E+03  0.50400001928E-02 0.  1.
    10030    2    1    2    0    0  0.00000000000E+00  0.00000000000E+00  0.94127507015E+03  0.22239465235E+04  0.20149291258E+04 0.  0.
        2    1    3    3  502    0 -0.50508902257E+03  0.78391962655E+03  0.49855626145E+02  0.93387926687E+03  0.25500000920E-02 0.  1.
       -2    1    3    3    0  502  0.50508902257E+03 -0.78391962655E+03  0.89141944400E+03  0.12900672567E+04  0.25500000920E-02 0. -1.
</event>
<event>
 5   0  0.3970042E-05  0.2003560E+04  0.7818609E-02  0.8604958E-01
       -1   -1    0    0    0  501  0.00000000000E+00  0.00000000000E+00  0.90633199641E+03  0.90633199642E+03  0.50400001928E-02 0.  1.
        1   -1    0    0  501    0  0.00000000000E+00  0.00000000000E+00 -0.11072794349E+04  0.11072794350E+04  0.50400001928E-02 0. -1.
    10030    2    1    2    0    0  0.00000000000E+00  0.00000000000E+00 -0.20094743854E+03  0.20136114314E+04  0.20035596132E+04 0.  0.
        3    1    3    3  502    0  0.81970676977E+03  0.56580407117E+03  0.73460804918E+01  0.99604588773E+03  0.10100000352E+00 0. -1.
       -3    1    3    3    0  502 -0.81970676977E+03 -0.56580407117E+03 -0.20829351903E+03  0.10175655437E+04  0.10100000352E+00 0.  1.
</event>
<event>
 5   0  0.3772949E-05  0.2000015E+04  0.7818609E-02  0.8606614E-01
        1   -1    0    0  501    0  0.00000000000E+00  0.00000000000E+00  0.86636230079E+03  0.86636230081E+03  0.50400001928E-02 0. -1.
       -1   -1    0    0    0  501  0.00000000000E+00  0.00000000000E+00 -0.11542683000E+04  0.11542683000E+04  0.50400001928E-02 0.  1.
    10030    2    1    2    0    0  0.00000000000E+00  0.00000000000E+00 -0.28790599918E+03  0.20206306008E+04  0.20000145401E+04 0.  0.
        2    1    3    3  502    0 -0.36619532915E+03  0.24258491270E+03 -0.10515830338E+04  0.11396373703E+04  0.25500000920E-02 0.  1.
       -2    1    3    3    0  502  0.36619532915E+03 -0.24258491270E+03  0.76367703458E+03  0.88099323046E+03  0.25500000920E-02 0. -1.
</event>
<event>
 5   0  0.8022574E-05  0.1946927E+04  0.7818609E-02  0.8631844E-01
        2   -1    0    0  501    0  0.00000000000E+00  0.00000000000E+00  0.21894444759E+04  0.21894444759E+04  0.25500000920E-02 0.  1.
       -2   -1    0    0    0  501  0.00000000000E+00  0.00000000000E+00 -0.43281817360E+03  0.43281817361E+03  0.25500000920E-02 0. -1.
    10030    2    1    2    0    0  0.00000000000E+00  0.00000000000E+00  0.17566263023E+04  0.26222626495E+04  0.19469271782E+04 0.  0.
        1    1    3    3  502    0  0.81572896504E+03 -0.24872145408E+03  0.15105622012E+04  0.17346683458E+04  0.50400001928E-02 0.  1.
       -1    1    3    3    0  502 -0.81572896504E+03  0.24872145408E+03  0.24606410109E+03  0.88759430372E+03  0.50400001928E-02 0. -1.
</event>
<event>
 5   0  0.3818907E-05  0.2006694E+04  0.7818609E-02  0.8603497E-01
       -1   -1    0    0    0  501  0.00000000000E+00  0.00000000000E+00  0.97018069450E+03  0.97018069451E+03  0.50400001928E-02 0.  1.
        1   -1    0    0  501    0  0.00000000000E+00  0.00000000000E+00 -0.10376471704E+04  0.10376471704E+04  0.50400001928E-02 0. -1.
    10030    2    1    2    0    0  0.00000000000E+00  0.00000000000E+00 -0.67466475873E+02  0.20078278649E+04  0.20066940498E+04 0.  0.
        1    1    3    3  502    0 -0.15984147567E+03  0.53330332329E+03  0.80145002691E+03  0.97585033568E+03  0.50400001928E-02 0.  1.
       -1    1    3    3    0  502  0.15984147567E+03 -0.53330332329E+03 -0.86891650278E+03  0.10319775292E+04  0.50400001928E-02 0. -1.
</event>
<event>
 5   0  0.7843846E-05  0.2010697E+04  0.7818609E-02  0.8601636E-01
        2   -1    0    0  501    0  0.00000000000E+00  0.00000000000E+00  0.22223505781E+04  0.22223505781E+04  0.25500000920E-02 0. -1.
       -2   -1    0    0    0  501  0.00000000000E+00  0.00000000000E+00 -0.45480022931E+03  0.45480022932E+03  0.25500000920E-02 0.  1.
    10030    2    1    2    0    0  0.00000000000E+00  0.00000000000E+00  0.17675503488E+04  0.26771508074E+04  0.20106969464E+04 0.  0.
        2    1    3    3  502    0 -0.52707356266E+03  0.33811602484E+03 -0.16342563743E+03  0.64717611643E+03  0.25500000920E-02 0.  1.
       -2    1    3    3    0  502  0.52707356266E+03 -0.33811602484E+03  0.19309759862E+04  0.20299746910E+04  0.25500000920E-02 0. -1.
</event>
<event>
 5   0  0.3549426E-05  0.2005416E+04  0.7818609E-02  0.8604093E-01
       -1   -1    0    0    0  501  0.00000000000E+00  0.00000000000E+00  0.12720696039E+04  0.12720696039E+04  0.50400001928E-02 0. -1.
        1   -1    0    0  501    0  0.00000000000E+00  0.00000000000E+00 -0.79038359292E+03  0.79038359294E+03  0.50400001928E-02 0.  1.
    10030    2    1    2    0    0  0.00000000000E+00  0.00000000000E+00  0.48168601095E+03  0.20624531968E+04  0.20054156118E+04 0.  0.
        5    1    3    3  502    0  0.42208115871E+03 -0.24371991484E+03 -0.66034957699E+03  0.82075304158E+03  0.46999998093E+01 0.  1.
       -5    1    3    3    0  502 -0.42208115871E+03  0.24371991484E+03  0.11420355879E+04  0.12417001553E+04  0.46999998093E+01 0. -1.
</event>
<event>
 5   0  0.3787698E-05  0.2007513E+04  0.7818609E-02  0.8603116E-01
       -1   -1    0    0    0  501  0.00000000000E+00  0.00000000000E+00  0.51541705567E+03  0.51541705569E+03  0.50400001928E-02 0. -1.
        1   -1    0    0  501    0  0.00000000000E+00  0.00000000000E+00 -0.19547803393E+04  0.19547803393E+04  0.50400001928E-02 0.  1.
    10030    2    1    2    0    0  0.00000000000E+00  0.00000000000E+00 -0.14393632836E+04  0.24701973950E+04  0.20075130156E+04 0.  0.
        4    1    3    3  502    0 -0.69099287197E+03 -0.72433501474E+03 -0.62931781892E+03  0.11824444565E+04  0.12699999809E+01 0.  1.
       -4    1    3    3    0  502  0.69099287197E+03  0.72433501474E+03 -0.81004546467E+03  0.12877529384E+04  0.12699999809E+01 0. -1.
</event>
<event>
 5   0  0.3970042E-05  0.2002320E+04  0.7818609E-02  0.8605537E-01
       -1   -1    0    0    0  501  0.00000000000E+00  0.00000000000E+00  0.14973976051E+04  0.14973976051E+04  0.50400001928E-02 0.  1.
        1   -1    0    0  501    0  0.00000000000E+00  0.00000000000E+00 -0.66937553846E+03  0.66937553848E+03  0.50400001928E-02 0. -1.
    10030    2    1    2    0    0  0.00000000000E+00  0.00000000000E+00  0.82802206666E+03  0.21667731436E+04  0.20023199827E+04 0.  0.
        3    1    3    3  502    0 -0.11182629615E+03 -0.90762271252E+03 -0.26932192601E+02  0.91488221209E+03  0.10100000352E+00 0. -1.
       -3    1    3    3    0  502  0.11182629615E+03  0.90762271252E+03  0.85495425926E+03  0.12518909315E+04  0.10100000352E+00 0.  1.
</event>
<event>
 5   0  0.2859625E-05  0.2013483E+04  0.7818609E-02  0.8600343E-01
        3   -1    0    0  501    0  0.00000000000E+00  0.00000000000E+00  0.12269691825E+04  0.12269691867E+04  0.10100000352E+00 0. -1.
       -3   -1    0    0    0  501  0.00000000000E+00  0.00000000000E+00 -0.82604237003E+03  0.82604237620E+03  0.10100000352E+00 0.  1.
    10030    2    1    2    0    0  0.00000000000E+00  0.00000000000E+00  0.40092681248E+03  0.20530115629E+04  0.20134830936E+04 0.  0.
        5    1    3    3  502    0  0.70759560724E+03 -0.51535042850E+02  0.92873975269E+03  0.11687288061E+04  0.46999998093E+01 0. -1.
       -5    1    3    3    0  502 -0.70759560724E+03  0.51535042850E+02 -0.52781294021E+03  0.88428275675E+03  0.46999998093E+01 0.  1.
</event>
<event>
 5   0  0.7935008E-05  0.2003060E+04  0.7818609E-02  0.8605191E-01
       -2   -1    0    0    0  501  0.00000000000E+00  0.00000000000E+00  0.95250711597E+03  0.95250711598E+03  0.25500000920E-02 0.  1.
        2   -1    0    0  501    0  0.00000000000E+00  0.00000000000E+00 -0.10530759210E+04  0.10530759210E+04  0.25500000920E-02 0. -1.
    10030    2    1    2    0    0  0.00000000000E+00  0.00000000000E+00 -0.10056880504E+03  0.20055830370E+04  0.20030599676E+04 0.  0.
        3    1    3    3  502    0 -0.40890408159E+03  0.53558406566E+02  0.86354876229E+03  0.95696788133E+03  0.10100000352E+00 0.  1.
       -3    1    3    3    0  502  0.40890408159E+03 -0.53558406566E+02 -0.96411756732E+03  0.10486151557E+04  0.10100000352E+00 0. -1.
</event>
<event>
 5   0  0.7857136E-05  0.1994905E+04  0.7818609E-02  0.8609006E-01
        2   -1    0    0  501    0  0.00000000000E+00  0.00000000000E+00  0.25797569912E+04  0.25797569912E+04  0.25500000920E-02 0. -1.
       -2   -1    0    0    0  501  0.00000000000E+00  0.00000000000E+00 -0.38566091694E+03  0.38566091695E+03  0.25500000920E-02 0.  1.
    10030    2    1    2    0    0  0.00000000000E+00  0.00000000000E+00  0.21940960742E+04  0.29654179081E+04  0.19949049569E+04 0.  0.
        4    1    3    3  502    0 -0.28282150753E+02 -0.63866327521E+03 -0.41086772443E+02  0.64060939341E+03  0.12699999809E+01 0.  1.
       -4    1    3    3    0  502  0.28282150753E+02  0.63866327521E+03  0.22351828467E+04  0.23248085147E+04  0.12699999809E+01 0. -1.
</event>
<event>
 5   0  0.3787698E-05  0.2012086E+04  0.7818609E-02  0.8600991E-01
       -1   -1    0    0    0  501  0.00000000000E+00  0.00000000000E+00  0.53411114667E+03  0.53411114670E+03  0.50400001928E-02 0. -1.
        1   -1    0    0  501    0  0.00000000000E+00  0.00000000000E+00 -0.18949667906E+04  0.18949667906E+04  0.50400001928E-02 0.  1.
    10030    2    1    2    0    0  0.00000000000E+00  0.00000000000E+00 -0.13608556439E+04  0.24290779373E+04  0.20120863654E+04 0.  0.
        4    1    3    3  502    0  0.70432146317E+03 -0.28814743134E+03  0.11399299868E+03  0.76947623896E+03  0.12699999809E+01 0. -1.
       -4    1    3    3    0  502 -0.70432146317E+03  0.28814743134E+03 -0.14748486426E+04  0.16596016983E+04  0.12699999809E+01 0.  1.
</event>
<event>
 5   0  0.3549426E-05  0.2000537E+04  0.7818609E-02  0.8606369E-01
        1   -1    0    0  501    0  0.00000000000E+00  0.00000000000E+00  0.12902154257E+04  0.12902154257E+04  0.50400001928E-02 0. -1.
       -1   -1    0    0    0  501  0.00000000000E+00  0.00000000000E+00 -0.77548100157E+03  0.77548100159E+03  0.50400001928E-02 0.  1.
    10030    2    1    2    0    0  0.00000000000E+00  0.00000000000E+00  0.51473442417E+03  0.20656964273E+04  0.20005374784E+04 0.  0.
        5    1    3    3  502    0  0.45234088007E+03  0.82659349379E+03 -0.89192788563E+02  0.94649169002E+03  0.46999998093E+01 0.  1.
       -5    1    3    3    0  502 -0.45234088007E+03 -0.82659349379E+03  0.60392721273E+03  0.11192047373E+04  0.46999998093E+01 0. -1.
</event>
<event>
 5   0  0.7935008E-05  0.2021397E+04  0.7818609E-02  0.8596682E-01
        2   -1    0    0  501    0  0.00000000000E+00  0.00000000000E+00  0.14856033919E+04  0.14856033919E+04  0.25500000920E-02 0. -1.
       -2   -1    0    0    0  501  0.00000000000E+00  0.00000000000E+00 -0.68760694383E+03  0.68760694384E+03  0.25500000920E-02 0.  1.
    10030    2    1    2    0    0  0.00000000000E+00  0.00000000000E+00  0.79799644802E+03  0.21732103357E+04  0.20213967528E+04 0.  0.
        3    1    3    3  502    0  0.34811247003E+03  0.23441197508E+03  0.13874970668E+04  0.14495790376E+04  0.10100000352E+00 0. -1.
       -3    1    3    3    0  502 -0.34811247003E+03 -0.23441197508E+03 -0.58950061874E+03  0.72363129807E+03  0.10100000352E+00 0.  1.
</event>
<event>
 5   0  0.3787698E-05  0.1996101E+04  0.7818609E-02  0.8608446E-01
       -1   -1    0    0    0  501  0.00000000000E+00  0.00000000000E+00  0.68550999793E+03  0.68550999795E+03  0.50400001928E-02 0.  1.
        1   -1    0    0  501    0  0.00000000000E+00  0.00000000000E+00 -0.14530856662E+04  0.14530856663E+04  0.50400001928E-02 0. -1.
    10030    2    1    2    0    0  0.00000000000E+00  0.00000000000E+00 -0.76757566832E+03  0.21385956642E+04  0.19961009514E+04 0.  0.
        4    1    3    3  502    0 -0.14828447670E+03  0.15279015346E+03  0.66089370517E+03  0.69434517314E+03  0.12699999809E+01 0.  1.
       -4    1    3    3    0  502  0.14828447670E+03 -0.15279015346E+03 -0.14284693735E+04  0.14442504911E+04  0.12699999809E+01 0. -1.
</event>
<event>
 5   0  0.7935008E-05  0.1766409E+04  0.7818609E-02  0.8724369E-01
       -2   -1    0    0    0  501  0.00000000000E+00  0.00000000000E+00  0.64050763420E+03  0.64050763421E+03  0.25500000920E-02 0. -1.
        2   -1    0    0  501    0  0.00000000000E+00  0.00000000000E+00 -0.12178631022E+04  0.12178631022E+04  0.25500000920E-02 0.  1.
    10030    2    1    2    0    0  0.00000000000E+00  0.00000000000E+00 -0.57735546797E+03  0.18583707364E+04  0.17664094818E+04 0.  0.
        3    1    3    3  502    0 -0.63216011793E+03  0.47353073601E+03  0.12710985309E+03  0.80000918595E+03  0.10100000352E+00 0. -1.
       -3    1    3    3    0  502  0.63216011793E+03 -0.47353073601E+03 -0.70446532106E+03  0.10583615504E+04  0.10100000352E+00 0.  1.
</event>
<event>
 5   0  0.3549426E-05  0.2000841E+04  0.7818609E-02  0.8606228E-01
        1   -1    0    0  501    0  0.00000000000E+00  0.00000000000E+00  0.77277653963E+03  0.77277653964E+03  0.50400001928E-02 0.  1.
       -1   -1    0    0    0  501  0.00000000000E+00  0.00000000000E+00 -0.12951236306E+04  0.12951236306E+04  0.50400001928E-02 0. -1.
    10030    2    1    2    0    0  0.00000000000E+00  0.00000000000E+00 -0.52234709093E+03  0.20679001702E+04  0.20008409808E+04 0.  0.
        5    1    3    3  502    0  0.35312453482E+03  0.92146261405E+03 -0.43108796197E+03  0.10768700976E+04  0.46999998093E+01 0. -1.
       -5    1    3    3    0  502 -0.35312453482E+03 -0.92146261405E+03 -0.91259128961E+02  0.99103007260E+03  0.46999998093E+01 0.  1.
</event>
<event>
 5   0  0.3772949E-05  0.1969835E+04  0.7818609E-02  0.8620855E-01
       -1   -1    0    0    0  501  0.00000000000E+00  0.00000000000E+00  0.18685620493E+04  0.18685620493E+04  0.50400001928E-02 0.  1.
        1   -1    0    0  501    0  0.00000000000E+00  0.00000000000E+00 -0.51914922147E+03  0.51914922150E+03  0.50400001928E-02 0. -1.
    10030    2    1    2    0    0  0.00000000000E+00  0.00000000000E+00  0.13494128278E+04  0.23877112708E+04  0.19698350522E+04 0.  0.
        2    1    3    3  502    0 -0.27434141177E+03 -0.16958408273E+03 -0.45332466372E+03  0.55634990974E+03  0.25500000920E-02 0. -1.
       -2    1    3    3    0  502  0.27434141177E+03  0.16958408273E+03  0.18027374916E+04  0.18313613611E+04  0.25500000920E-02 0.  1.
</event>
<event>
 5   0  0.8011197E-05  0.1997082E+04  0.7818609E-02  0.8607986E-01
        2   -1    0    0  501    0  0.00000000000E+00  0.00000000000E+00  0.16818174537E+04  0.16818174537E+04  0.25500000920E-02 0. -1.
       -2   -1    0    0    0  501  0.00000000000E+00  0.00000000000E+00 -0.59286137715E+03  0.59286137716E+03  0.25500000920E-02 0.  1.
    10030    2    1    2    0    0  0.00000000000E+00  0.00000000000E+00  0.10889560765E+04  0.22746788308E+04  0.19970824837E+04 0.  0.
        5    1    3    3  502    0  0.82762833062E+03 -0.52010628578E+03  0.77674297960E+03  0.12485315168E+04  0.46999998093E+01 0. -1.
       -5    1    3    3    0  502 -0.82762833062E+03  0.52010628578E+03  0.31221309692E+03  0.10261473140E+04  0.46999998093E+01 0.  1.
</event>
<event>
 5   0  0.3818907E-05  0.2007974E+04  0.7818609E-02  0.8602902E-01
        1   -1    0    0  501    0  0.00000000000E+00  0.00000000000E+00  0.30033562130E+04  0.30033562130E+04  0.50400001928E-02 0.  1.
       -1   -1    0    0    0  501  0.00000000000E+00  0.00000000000E+00 -0.33562104514E+03  0.33562104518E+03  0.50400001928E-02 0. -1.
    10030    2    1    2    0    0  0.00000000000E+00  0.00000000000E+00  0.26677351679E+04  0.33389772582E+04  0.20079736564E+04 0.  0.
        1    1    3    3  502    0 -0.79375150963E+02 -0.28740346991E+03  0.29280355885E+04  0.29431774627E+04  0.50400001928E-02 0.  1.
       -1    1    3    3    0  502  0.79375150963E+02  0.28740346991E+03 -0.26030042066E+03  0.39579979551E+03  0.50400001928E-02 0. -1.
</event>
<event>
 5   0  0.3818907E-05  0.2001840E+04  0.7818609E-02  0.8605761E-01
        1   -1    0    0  501    0  0.00000000000E+00  0.00000000000E+00  0.16593141304E+04  0.16593141304E+04  0.50400001928E-02 0.  1.
       -1   -1    0    0    0  501  0.00000000000E+00  0.00000000000E+00 -0.60376787775E+03  0.60376787777E+03  0.50400001928E-02 0. -1.
    10030    2    1    2    0    0  0.00000000000E+00  0.00000000000E+00  0.10555462526E+04  0.22630820082E+04  0.20018397249E+04 0.  0.
        1    1    3    3  502    0 -0.59798804226E+03  0.51456474290E+03 -0.16863206517E+03  0.80672383549E+03  0.50400001928E-02 0. -1.
       -1    1    3    3    0  502  0.59798804226E+03 -0.51456474290E+03  0.12241783178E+04  0.14563581727E+04  0.50400001928E-02 0.  1.
</event>
<event>
 5   0  0.7935008E-05  0.2000965E+04  0.7818609E-02  0.8606170E-01
        2   -1    0    0  501    0  0.00000000000E+00  0.00000000000E+00  0.13276350819E+04  0.13276350819E+04  0.25500000920E-02 0.  1.
       -2   -1    0    0    0  501  0.00000000000E+00  0.00000000000E+00 -0.75394570082E+03  0.75394570082E+03  0.25500000920E-02 0. -1.
    10030    2    1    2    0    0  0.00000000000E+00  0.00000000000E+00  0.57368938111E+03  0.20815807828E+04  0.20009645297E+04 0.  0.
        3    1    3    3  502    0  0.30754840003E+03  0.94782522107E+03  0.37992631448E+03  0.10664439426E+04  0.10100000352E+00 0.  1.
       -3    1    3    3    0  502 -0.30754840003E+03 -0.94782522107E+03  0.19376306663E+03  0.10151368402E+04  0.10100000352E+00 0. -1.
</event>
<event>
 5   0  0.3787698E-05  0.1998412E+04  0.7818609E-02  0.8607364E-01
       -1   -1    0    0    0  501  0.00000000000E+00  0.00000000000E+00  0.57436218587E+03  0.57436218589E+03  0.50400001928E-02 0. -1.
        1   -1    0    0  501    0  0.00000000000E+00  0.00000000000E+00 -0.17382978264E+04  0.17382978264E+04  0.50400001928E-02 0.  1.
    10030    2    1    2    0    0  0.00000000000E+00  0.00000000000E+00 -0.11639356406E+04  0.23126600123E+04  0.19984119088E+04 0.  0.
        4    1    3    3  502    0  0.35892471128E+02 -0.98065225718E+03 -0.36409805467E+03  0.10466786161E+04  0.12699999809E+01 0.  1.
       -4    1    3    3    0  502 -0.35892471128E+02  0.98065225718E+03 -0.79983758589E+03  0.12659813963E+04  0.12699999809E+01 0. -1.
</event>
<event>
 5   0  0.3818907E-05  0.2002299E+04  0.7818609E-02  0.8605547E-01
       -1   -1    0    0    0  501  0.00000000000E+00  0.00000000000E+00  0.57094743084E+03  0.57094743086E+03  0.50400001928E-02 0. -1.
        1   -1    0    0  501    0  0.00000000000E+00  0.00000000000E+00 -0.17555033012E+04  0.17555033012E+04  0.50400001928E-02 0.  1.
    10030    2    1    2    0    0  0.00000000000E+00  0.00000000000E+00 -0.11845558704E+04  0.23264507321E+04  0.20022987786E+04 0.  0.
        1    1    3    3  502    0 -0.23521060951E+03 -0.80138202535E+03 -0.12337031660E+04  0.14898190102E+04  0.50400001928E-02 0.  1.
       -1    1    3    3    0  502  0.23521060951E+03  0.80138202535E+03  0.49147295602E+02  0.83663172189E+03  0.50400001928E-02 0. -1.
</event>
<event>
 5   0  0.8011197E-05  0.2010752E+04  0.7818609E-02  0.8601610E-01
       -2   -1    0    0    0  501  0.00000000000E+00  0.00000000000E+00  0.11215714022E+04  0.11215714022E+04  0.25500000920E-02 0.  1.
        2   -1    0    0  501    0  0.00000000000E+00  0.00000000000E+00 -0.90121820070E+03  0.90121820070E+03  0.25500000920E-02 0. -1.
    10030    2    1    2    0    0  0.00000000000E+00  0.00000000000E+00  0.22035320150E+03  0.20227896029E+04  0.20107516615E+04 0.  0.
        5    1    3    3  502    0 -0.20961675607E+03  0.19724719303E+03  0.10792258884E+04  0.11169584807E+04  0.46999998093E+01 0.  1.
       -5    1    3    3    0  502  0.20961675607E+03 -0.19724719303E+03 -0.85887268688E+03  0.90583112215E+03  0.46999998093E+01 0. -1.
</event>
<event>
 5   0  0.3549426E-05  0.2018300E+04  0.7818609E-02  0.8598113E-01
        1   -1    0    0  501    0  0.00000000000E+00  0.00000000000E+00  0.11446406866E+04  0.11446406866E+04  0.50400001928E-02 0.  1.
       -1   -1    0    0    0  501  0.00000000000E+00  0.00000000000E+00 -0.88969686389E+03  0.88969686390E+03  0.50400001928E-02 0. -1.
    10030    2    1    2    0    0  0.00000000000E+00  0.00000000000E+00  0.25494382269E+03  0.20343375505E+04  0.20182995111E+04 0.  0.
        5    1    3    3  502    0  0.91201443609E+03  0.17355370445E+03  0.52617796495E+03  0.10671347435E+04  0.46999998093E+01 0.  1.
       -5    1    3    3    0  502 -0.91201443609E+03 -0.17355370445E+03 -0.27123414226E+03  0.96720280701E+03  0.46999998093E+01 0. -1.
</event>
<event>
 5   0  0.7935008E-05  0.1998019E+04  0.7818609E-02  0.8607547E-01
       -2   -1    0    0    0  501  0.00000000000E+00  0.00000000000E+00  0.11562771506E+04  0.11562771506E+04  0.25500000920E-02 0. -1.
        2   -1    0    0  501    0  0.00000000000E+00  0.00000000000E+00 -0.86313241417E+03  0.86313241418E+03  0.25500000920E-02 0.  1.
    10030    2    1    2    0    0  0.00000000000E+00  0.00000000000E+00  0.29314473647E+03  0.20194095648E+04  0.19980193077E+04 0.  0.
        3    1    3    3  502    0  0.85839169654E+03 -0.20836747045E+03 -0.32507860325E+03  0.94123823548E+03  0.10100000352E+00 0.  1.
       -3    1    3    3    0  502 -0.85839169654E+03  0.20836747045E+03  0.61822333972E+03  0.10781713293E+04  0.10100000352E+00 0. -1.
</event>
<event>
 5   0  0.3772949E-05  0.1984533E+04  0.7818609E-02  0.8613887E-01
       -1   -1    0    0    0  501  0.00000000000E+00  0.00000000000E+00  0.15719198215E+04  0.15719198215E+04  0.50400001928E-02 0. -1.
        1   -1    0    0  501    0  0.00000000000E+00  0.00000000000E+00 -0.62636295836E+03  0.62636295838E+03  0.50400001928E-02 0.  1.
    10030    2    1    2    0    0  0.00000000000E+00  0.00000000000E+00  0.94555686312E+03  0.21982827799E+04  0.19845325391E+04 0.  0.
        2    1    3    3  502    0  0.34695700252E+03 -0.91014401280E+03  0.26304080029E+03  0.10089260371E+04  0.25500000920E-02 0.  1.
       -2    1    3    3    0  502 -0.34695700252E+03  0.91014401280E+03  0.68251606284E+03  0.11893567428E+04  0.25500000920E-02 0. -1.
</event>
<event>
 5   0  0.3787698E-05  0.1983419E+04  0.7818609E-02  0.8614412E-01
        1   -1    0    0  501    0  0.00000000000E+00  0.00000000000E+00  0.35605283065E+03  0.35605283068E+03  0.50400001928E-02 0. -1.
       -1   -1    0    0    0  501  0.00000000000E+00  0.00000000000E+00 -0.27621966106E+04  0.27621966106E+04  0.50400001928E-02 0.  1.
    10030    2    1    2    0    0  0.00000000000E+00  0.00000000000E+00 -0.24061437800E+04  0.31182494413E+04  0.19834191913E+04 0.  0.
        4    1    3    3  502    0  0.45402153907E+03  0.52825312619E+03 -0.23128637066E+04  0.24154765703E+04  0.12699999809E+01 0.  1.
       -4    1    3    3    0  502 -0.45402153907E+03 -0.52825312619E+03 -0.93280073362E+02  0.70277287103E+03  0.12699999809E+01 0. -1.
</event>
<event>
 5   0  0.3818907E-05  0.2000604E+04  0.7818609E-02  0.8606339E-01
        1   -1    0    0  501    0  0.00000000000E+00  0.00000000000E+00  0.12292775382E+04  0.12292775382E+04  0.50400001928E-02 0. -1.
       -1   -1    0    0    0  501  0.00000000000E+00  0.00000000000E+00 -0.81397703299E+03  0.81397703300E+03  0.50400001928E-02 0.  1.
    10030    2    1    2    0    0  0.00000000000E+00  0.00000000000E+00  0.41530050517E+03  0.20432545712E+04  0.20006035922E+04 0.  0.
        1    1    3    3  502    0 -0.26947867580E+03  0.35519357515E+03  0.11221856950E+04  0.12075106486E+04  0.50400001928E-02 0. -1.
       -1    1    3    3    0  502  0.26947867580E+03 -0.35519357515E+03 -0.70688518978E+03  0.83574392256E+03  0.50400001928E-02 0.  1.
</event>
<event>
 5   0  0.3787698E-05  0.2008914E+04  0.7818609E-02  0.8602465E-01
        1   -1    0    0  501    0  0.00000000000E+00  0.00000000000E+00  0.18920544694E+04  0.18920544694E+04  0.50400001928E-02 0. -1.
       -1   -1    0    0    0  501  0.00000000000E+00  0.00000000000E+00 -0.53324757495E+03  0.53324757497E+03  0.50400001928E-02 0.  1.
    10030    2    1    2    0    0  0.00000000000E+00  0.00000000000E+00  0.13588068944E+04  0.24253020443E+04  0.20089135945E+04 0.  0.
        4    1    3    3  502    0 -0.35905750027E+03  0.67542502037E+03  0.14653454179E+04  0.16529851945E+04  0.12699999809E+01 0. -1.
       -4    1    3    3    0  502  0.35905750027E+03 -0.67542502037E+03 -0.10653852347E+03  0.77231684983E+03  0.12699999809E+01 0.  1.
</event>
<event>
 5   0  0.7843846E-05  0.1965492E+04  0.7818609E-02  0.8622926E-01
       -2   -1    0    0    0  501  0.00000000000E+00  0.00000000000E+00  0.60928724080E+03  0.60928724081E+03  0.25500000920E-02 0.  1.
        2   -1    0    0  501    0  0.00000000000E+00  0.00000000000E+00 -0.15851147025E+04  0.15851147025E+04  0.25500000920E-02 0. -1.
    10030    2    1    2    0    0  0.00000000000E+00  0.00000000000E+00 -0.97582746169E+03  0.21944019433E+04  0.19654924711E+04 0.  0.
        2    1    3    3  502    0  0.25677171723E+03  0.93337831012E+03 -0.29889341409E+03  0.10131456251E+04  0.25500000920E-02 0.  1.
       -2    1    3    3    0  502 -0.25677171723E+03 -0.93337831012E+03 -0.67693404761E+03  0.11812563182E+04  0.25500000920E-02 0. -1.
</event>
<event>
 5   0  0.8022574E-05  0.1997025E+04  0.7818609E-02  0.8608013E-01
       -2   -1    0    0    0  501  0.00000000000E+00  0.00000000000E+00  0.61265348665E+03  0.61265348666E+03  0.25500000920E-02 0.  1.
        2   -1    0    0  501    0  0.00000000000E+00  0.00000000000E+00 -0.16273923616E+04  0.16273923616E+04  0.25500000920E-02 0. -1.
    10030    2    1    2    0    0  0.00000000000E+00  0.00000000000E+00 -0.10147388750E+04  0.22400458483E+04  0.19970253924E+04 0.  0.
        1    1    3    3  502    0  0.21191575935E+03 -0.71538041330E+03 -0.12517112391E+04  0.14572091308E+04  0.50400001928E-02 0. -1.
       -1    1    3    3    0  502 -0.21191575935E+03  0.71538041330E+03  0.23697236416E+03  0.78283671745E+03  0.50400001928E-02 0.  1.
</event>
<event>
 5   0  0.7935008E-05  0.2001188E+04  0.7818609E-02  0.8606066E-01
       -2   -1    0    0    0  501  0.00000000000E+00  0.00000000000E+00  0.73408506690E+03  0.73408506690E+03  0.25500000920E-02 0.  1.
        2   -1    0    0  501    0  0.00000000000E+00  0.00000000000E+00 -0.13638583089E+04  0.13638583089E+04  0.25500000920E-02 0. -1.
    10030    2    1    2    0    0  0.00000000000E+00  0.00000000000E+00 -0.62977324196E+03  0.20979433758E+04  0.20011876653E+04 0.  0.
        3    1    3    3  502    0  0.87980198263E+03  0.44705536244E+03 -0.48803246186E+03  0.11009476462E+04  0.10100000352E+00 0. -1.
       -3    1    3    3    0  502 -0.87980198263E+03 -0.44705536244E+03 -0.14174078010E+03  0.99699572952E+03  0.10100000352E+00 0.  1.
</event>
<event>
 5   0  0.8022574E-05  0.2000735E+04  0.7818609E-02  0.8606277E-01
        2   -1    0    0  501    0  0.00000000000E+00  0.00000000000E+00  0.23560339114E+04  0.23560339114E+04  0.25500000920E-02 0. -1.
       -2   -1    0    0    0  501  0.00000000000E+00  0.00000000000E+00 -0.42475399658E+03  0.42475399659E+03  0.25500000920E-02 0.  1.
    10030    2    1    2    0    0  0.00000000000E+00  0.00000000000E+00  0.19312799149E+04  0.27807879080E+04  0.20007346850E+04 0.  0.
        1    1    3    3  502    0 -0.12474247064E+03 -0.61818196050E+03 -0.11366978105E+03  0.64080452513E+03  0.50400001928E-02 0.  1.
       -1    1    3    3    0  502  0.12474247064E+03  0.61818196050E+03  0.20449496959E+04  0.21399833829E+04  0.50400001928E-02 0. -1.
</event>
<event>
 5   0  0.7857136E-05  0.2014749E+04  0.7818609E-02  0.8599756E-01
        2   -1    0    0  501    0  0.00000000000E+00  0.00000000000E+00  0.12268707421E+04  0.12268707421E+04  0.25500000920E-02 0. -1.
       -2   -1    0    0    0  501  0.00000000000E+00  0.00000000000E+00 -0.82714745856E+03  0.82714745857E+03  0.25500000920E-02 0.  1.
    10030    2    1    2    0    0  0.00000000000E+00  0.00000000000E+00  0.39972328351E+03  0.20540182006E+04  0.20147486357E+04 0.  0.
        4    1    3    3  502    0  0.62719845577E+03  0.78661010610E+03  0.14720178128E+03  0.10167612007E+04  0.12699999809E+01 0. -1.
       -4    1    3    3    0  502 -0.62719845577E+03 -0.78661010610E+03  0.25252150223E+03  0.10372569999E+04  0.12699999809E+01 0.  1.
</event>
<event>
 5   0  0.3970042E-05  0.2001070E+04  0.7818609E-02  0.8606121E-01
        1   -1    0    0  501    0  0.00000000000E+00  0.00000000000E+00  0.14744078864E+04  0.14744078864E+04  0.50400001928E-02 0.  1.
       -1   -1    0    0    0  501  0.00000000000E+00  0.00000000000E+00 -0.67896407316E+03  0.67896407318E+03  0.50400001928E-02 0. -1.
    10030    2    1    2    0    0  0.00000000000E+00  0.00000000000E+00  0.79544381326E+03  0.21533719596E+04  0.20010696980E+04 0.  0.
        3    1    3    3  502    0 -0.41180478065E+03  0.10183579301E+03 -0.57740056800E+03  0.71648107597E+03  0.10100000352E+00 0. -1.
       -3    1    3    3    0  502  0.41180478065E+03 -0.10183579301E+03  0.13728443813E+04  0.14368908836E+04  0.10100000352E+00 0.  1.
</event>
<event>
 5   0  0.3818907E-05  0.1990567E+04  0.7818609E-02  0.8611043E-01
        1   -1    0    0  501    0  0.00000000000E+00  0.00000000000E+00  0.17454820837E+04  0.17454820837E+04  0.50400001928E-02 0. -1.
       -1   -1    0    0    0  501  0.00000000000E+00  0.00000000000E+00 -0.56751630195E+03  0.56751630198E+03  0.50400001928E-02 0.  1.
    10030    2    1    2    0    0  0.00000000000E+00  0.00000000000E+00  0.11779657818E+04  0.23129983857E+04  0.19905672933E+04 0.  0.
        1    1    3    3  502    0  0.51096962675E+03 -0.11989348483E+03 -0.39364590190E+03  0.65606516694E+03  0.50400001928E-02 0.  1.
       -1    1    3    3    0  502 -0.51096962675E+03  0.11989348483E+03  0.15716116837E+04  0.16569332188E+04  0.50400001928E-02 0. -1.
</event>
<event>
 5   0  0.3549426E-05  0.2004800E+04  0.7818609E-02  0.8604380E-01
       -1   -1    0    0    0  501  0.00000000000E+00  0.00000000000E+00  0.49823522546E+03  0.49823522549E+03  0.50400001928E-02 0.  1.
        1   -1    0    0  501    0  0.00000000000E+00  0.00000000000E+00 -0.20167296358E+04  0.20167296358E+04  0.50400001928E-02 0. -1.
    10030    2    1    2    0    0  0.00000000000E+00  0.00000000000E+00 -0.15184944103E+04  0.25149648613E+04  0.20047999849E+04 0.  0.
        5    1    3    3  502    0 -0.90556732879E+03 -0.42425625450E+03 -0.67289709273E+03  0.12053456533E+04  0.46999998093E+01 0.  1.
       -5    1    3    3    0  502  0.90556732879E+03  0.42425625450E+03 -0.84559731758E+03  0.13096192080E+04  0.46999998093E+01 0. -1.
</event>
<event>
 5   0  0.3818907E-05  0.2016026E+04  0.7818609E-02  0.8599165E-01
        1   -1    0    0  501    0  0.00000000000E+00  0.00000000000E+00  0.14360552301E+04  0.14360552301E+04  0.50400001928E-02 0. -1.
       -1   -1    0    0    0  501  0.00000000000E+00  0.00000000000E+00 -0.70755636451E+03  0.70755636453E+03  0.50400001928E-02 0.  1.
    10030    2    1    2    0    0  0.00000000000E+00  0.00000000000E+00  0.72849886556E+03  0.21436115946E+04  0.20160258112E+04 0.  0.
        1    1    3    3  502    0  0.94707832097E+03  0.34507305285E+03  0.35620351545E+03  0.10690714206E+04  0.50400001928E-02 0. -1.
       -1    1    3    3    0  502 -0.94707832097E+03 -0.34507305285E+03  0.37229535011E+03  0.10745401740E+04  0.50400001928E-02 0.  1.
</event>
<event>
 5   0  0.3787698E-05  0.1992834E+04  0.7818609E-02  0.8609978E-01
        1   -1    0    0  501    0  0.00000000000E+00  0.00000000000E+00  0.22740533128E+04  0.22740533129E+04  0.50400001928E-02 0.  1.
       -1   -1    0    0    0  501  0.00000000000E+00  0.00000000000E+00 -0.43659800048E+03  0.43659800051E+03  0.50400001928E-02 0. -1.
    10030    2    1    2    0    0  0.00000000000E+00  0.00000000000E+00  0.18374553124E+04  0.27106513134E+04  0.19928342926E+04 0.  0.
        4    1    3    3  502    0  0.69573316382E+03  0.22071696306E+03 -0.38893576308E+01  0.72991599039E+03  0.12699999809E+01 0. -1.
       -4    1    3    3    0  502 -0.69573316382E+03 -0.22071696306E+03  0.18413446700E+04  0.19807353230E+04  0.12699999809E+01 0.  1.
</event>
<event>
 5   0  0.3970042E-05  0.2012103E+04  0.7818609E-02  0.8600983E-01
        1   -1    0    0  501    0  0.00000000000E+00  0.00000000000E+00  0.11938751389E+04  0.11938751389E+04  0.50400001928E-02 0. -1.
       -1   -1    0    0    0  501  0.00000000000E+00  0.00000000000E+00 -0.84777642299E+03  0.84777642300E+03  0.50400001928E-02 0.  1.
    10030    2    1    2    0    0  0.00000000000E+00  0.00000000000E+00  0.34609871593E+03  0.20416515619E+04  0.20121025767E+04 0.  0.
        3    1    3    3  502    0 -0.81501979965E+03 -0.57040600738E+03  0.32531610521E+03  0.10466378866E+04  0.10100000352E+00 0. -1.
       -3    1    3    3    0  502  0.81501979965E+03  0.57040600738E+03  0.20782610724E+02  0.99501367538E+03  0.10100000352E+00 0.  1.
</event>
<event>
 5   0  0.7857136E-05  0.2004514E+04  0.7818609E-02  0.8604513E-01
       -2   -1    0    0    0  501  0.00000000000E+00  0.00000000000E+00  0.47745651101E+03  0.47745651101E+03  0.25500000920E-02 0. -1.
        2   -1    0    0  501    0  0.00000000000E+00  0.00000000000E+00 -0.21038968839E+04  0.21038968839E+04  0.25500000920E-02 0.  1.
    10030    2    1    2    0    0  0.00000000000E+00  0.00000000000E+00 -0.16264403729E+04  0.25813533949E+04  0.20045141713E+04 0.  0.
        4    1    3    3  502    0  0.52365975287E+03  0.39329011861E+01 -0.19137044198E+04  0.19840617994E+04  0.12699999809E+01 0.  1.
       -4    1    3    3    0  502 -0.52365975287E+03 -0.39329011861E+01  0.28726404695E+03  0.59729159550E+03  0.12699999809E+01 0. -1.
</event>
<event>
 5   0  0.3772949E-05  0.2027708E+04  0.7818609E-02  0.8593775E-01
        1   -1    0    0  501    0  0.00000000000E+00  0.00000000000E+00  0.16024700178E+04  0.16024700178E+04  0.50400001928E-02 0. -1.
       -1   -1    0    0    0  501  0.00000000000E+00  0.00000000000E+00 -0.64144719990E+03  0.64144719992E+03  0.50400001928E-02 0.  1.
    10030    2    1    2    0    0  0.00000000000E+00  0.00000000000E+00  0.96102281788E+03  0.22439172177E+04  0.20277079729E+04 0.  0.
        2    1    3    3  502    0 -0.83682146358E+03  0.91496063459E+02 -0.14476560290E+03  0.85416554094E+03  0.25500000920E-02 0. -1.
       -2    1    3    3    0  502  0.83682146358E+03 -0.91496063459E+02  0.11057884208E+04  0.13897516768E+04  0.25500000920E-02 0.  1.
</event>
<event>
 5   0  0.3970042E-05  0.1957529E+04  0.7818609E-02  0.8626739E-01
       -1   -1    0    0    0  501  0.00000000000E+00  0.00000000000E+00  0.56487716169E+03  0.56487716171E+03  0.50400001928E-02 0.  1.
        1   -1    0    0  501    0  0.00000000000E+00  0.00000000000E+00 -0.16959083724E+04  0.16959083724E+04  0.50400001928E-02 0. -1.
    10030    2    1    2    0    0  0.00000000000E+00  0.00000000000E+00 -0.11310312108E+04  0.22607855342E+04  0.19575289606E+04 0.  0.
        3    1    3    3  502    0  0.56413176661E+03 -0.79638257630E+03 -0.65124475936E+03  0.11732815539E+04  0.10100000352E+00 0.  1.
       -3    1    3    3    0  502 -0.56413176661E+03  0.79638257630E+03 -0.47978645140E+03  0.10875039803E+04  0.10100000352E+00 0. -1.
</event>
<event>
 5   0  0.8011197E-05  0.1979260E+04  0.7818609E-02  0.8616379E-01
        2   -1    0    0  501    0  0.00000000000E+00  0.00000000000E+00  0.71239852595E+03  0.71239852596E+03  0.25500000920E-02 0.  1.
       -2   -1    0    0    0  501  0.00000000000E+00  0.00000000000E+00 -0.13747474142E+04  0.13747474142E+04  0.25500000920E-02 0. -1.
    10030    2    1    2    0    0  0.00000000000E+00  0.00000000000E+00 -0.66234888827E+03  0.20871459402E+04  0.19792604997E+04 0.  0.
        5    1    3    3  502    0  0.76192852953E+03 -0.61183158167E+03 -0.16620890690E+03  0.99122170031E+03  0.46999998093E+01 0. -1.
       -5    1    3    3    0  502 -0.76192852953E+03  0.61183158167E+03 -0.49613998138E+03  0.10959242399E+04  0.46999998093E+01 0.  1.
</event>
<event>
 5   0  0.3772949E-05  0.2192389E+04  0.7818609E-02  0.8521603E-01
       -1   -1    0    0    0  501  0.00000000000E+00  0.00000000000E+00  0.59152336858E+03  0.59152336860E+03  0.50400001928E-02 0.  1.
        1   -1    0    0  501    0  0.00000000000E+00  0.00000000000E+00 -0.20314361909E+04  0.20314361909E+04  0.50400001928E-02 0. -1.
    10030    2    1    2    0    0  0.00000000000E+00  0.00000000000E+00 -0.14399128223E+04  0.26229595595E+04  0.21923886323E+04 0.  0.
        2    1    3    3  502    0 -0.33921780508E+02 -0.13480327050E+03 -0.20208490479E+04  0.20256242206E+04  0.25500000920E-02 0. -1.
       -2    1    3    3    0  502  0.33921780508E+02  0.13480327050E+03  0.58093622554E+03  0.59733533888E+03  0.25500000920E-02 0.  1.
</event>
<event>
 5   0  0.3549426E-05  0.2000799E+04  0.7818609E-02  0.8606247E-01
       -1   -1    0    0    0  501  0.00000000000E+00  0.00000000000E+00  0.41674029867E+03  0.41674029870E+03  0.50400001928E-02 0.  1.
        1   -1    0    0  501    0  0.00000000000E+00  0.00000000000E+00 -0.24014947595E+04  0.24014947595E+04  0.50400001928E-02 0. -1.
    10030    2    1    2    0    0  0.00000000000E+00  0.00000000000E+00 -0.19847544608E+04  0.28182350582E+04  0.20007994836E+04 0.  0.
        5    1    3    3  502    0 -0.86402577818E+03 -0.44831491059E+03 -0.13174170039E+04  0.16380282222E+04  0.46999998093E+01 0.  1.
       -5    1    3    3    0  502  0.86402577818E+03  0.44831491059E+03 -0.66733745694E+03  0.11802068360E+04  0.46999998093E+01 0. -1.
</event>
<event>
 5   0  0.3549426E-05  0.2017253E+04  0.7818609E-02  0.8598597E-01
       -1   -1    0    0    0  501  0.00000000000E+00  0.00000000000E+00  0.99869979424E+03  0.99869979425E+03  0.50400001928E-02 0. -1.
        1   -1    0    0  501    0  0.00000000000E+00  0.00000000000E+00 -0.10186516916E+04  0.10186516917E+04  0.50400001928E-02 0.  1.
    10030    2    1    2    0    0  0.00000000000E+00  0.00000000000E+00 -0.19951897405E+02  0.20173514859E+04  0.20172528199E+04 0.  0.
        5    1    3    3  502    0 -0.26999682650E+03  0.46247149897E+03  0.84477456147E+03  0.10002221370E+04  0.46999998093E+01 0. -1.
       -5    1    3    3    0  502  0.26999682650E+03 -0.46247149897E+03 -0.86472645887E+03  0.10171293489E+04  0.46999998093E+01 0.  1.
</event>
<event>
 5   0  0.7843846E-05  0.2004554E+04  0.7818609E-02  0.8604494E-01
        2   -1    0    0  501    0  0.00000000000E+00  0.00000000000E+00  0.66412196142E+03  0.66412196142E+03  0.25500000920E-02 0.  1.
       -2   -1    0    0    0  501  0.00000000000E+00  0.00000000000E+00 -0.15126131428E+04  0.15126131428E+04  0.25500000920E-02 0. -1.
    10030    2    1    2    0    0  0.00000000000E+00  0.00000000000E+00 -0.84849118139E+03  0.21767351042E+04  0.20045544216E+04 0.  0.
        2    1    3    3  502    0  0.76816399435E+03 -0.53372739743E+03 -0.33295206047E+02  0.93597512132E+03  0.25500000920E-02 0.  1.
       -2    1    3    3    0  502 -0.76816399435E+03  0.53372739743E+03 -0.81519597535E+03  0.12407599829E+04  0.25500000920E-02 0. -1.
</event>
<event>
 5   0  0.7843846E-05  0.2002561E+04  0.7818609E-02  0.8605424E-01
       -2   -1    0    0    0  501  0.00000000000E+00  0.00000000000E+00  0.20711274944E+04  0.20711274944E+04  0.25500000920E-02 0. -1.
        2   -1    0    0  501    0  0.00000000000E+00  0.00000000000E+00 -0.48406600267E+03  0.48406600267E+03  0.25500000920E-02 0.  1.
    10030    2    1    2    0    0  0.00000000000E+00  0.00000000000E+00  0.15870614918E+04  0.25551934971E+04  0.20025607679E+04 0.  0.
        2    1    3    3  502    0  0.54210229004E+03 -0.30651624703E+03 -0.20688879876E+03  0.65622410624E+03  0.25500000920E-02 0.  1.
       -2    1    3    3    0  502 -0.54210229004E+03  0.30651624703E+03  0.17939502905E+04  0.18989693909E+04  0.25500000920E-02 0. -1.
</event>
<event>
 5   0  0.7935008E-05  0.1998386E+04  0.7818609E-02  0.8607376E-01
        2   -1    0    0  501    0  0.00000000000E+00  0.00000000000E+00  0.80176712650E+03  0.80176712651E+03  0.25500000920E-02 0. -1.
       -2   -1    0    0    0  501  0.00000000000E+00  0.00000000000E+00 -0.12452325065E+04  0.12452325065E+04  0.25500000920E-02 0.  1.
    10030    2    1    2    0    0  0.00000000000E+00  0.00000000000E+00 -0.44346538002E+03  0.20469996330E+04  0.19983858372E+04 0.  0.
        3    1    3    3  502    0 -0.59721172552E+03 -0.17471264846E+02 -0.10421021100E+04  0.12012260021E+04  0.10100000352E+00 0.  1.
       -3    1    3    3    0  502  0.59721172552E+03  0.17471264846E+02  0.59863672996E+03  0.84577363098E+03  0.10100000352E+00 0. -1.
</event>
<event>
 5   0  0.7857136E-05  0.2005526E+04  0.7818609E-02  0.8604041E-01
        2   -1    0    0  501    0  0.00000000000E+00  0.00000000000E+00  0.62339763836E+03  0.62339763836E+03  0.25500000920E-02 0.  1.
       -2   -1    0    0    0  501  0.00000000000E+00  0.00000000000E+00 -0.16129892890E+04  0.16129892890E+04  0.25500000920E-02 0. -1.
    10030    2    1    2    0    0  0.00000000000E+00  0.00000000000E+00 -0.98959165064E+03  0.22363869274E+04  0.20055260791E+04 0.  0.
        4    1    3    3  502    0 -0.67614850986E+03 -0.13933717332E+03 -0.13057980013E+04  0.14770584580E+04  0.12699999809E+01 0. -1.
       -4    1    3    3    0  502  0.67614850986E+03  0.13933717332E+03  0.31620635067E+03  0.75932846935E+03  0.12699999809E+01 0.  1.
</event>
<event>
 5   0  0.3818907E-05  0.1997409E+04  0.7818609E-02  0.8607833E-01
       -1   -1    0    0    0  501  0.00000000000E+00  0.00000000000E+00  0.49021557054E+03  0.49021557057E+03  0.50400001928E-02 0. -1.
        1   -1    0    0  501    0  0.00000000000E+00  0.00000000000E+00 -0.20346361420E+04  0.20346361420E+04  0.50400001928E-02 0.  1.
    10030    2    1    2    0    0  0.00000000000E+00  0.00000000000E+00 -0.15444205714E+04  0.25248517125E+04  0.19974086384E+04 0.  0.
        1    1    3    3  502    0  0.51834577783E+03  0.43407733879E+03  0.15694516737E+03  0.69407295512E+03  0.50400001928E-02 0. -1.
       -1    1    3    3    0  502 -0.51834577783E+03 -0.43407733879E+03 -0.17013657388E+04  0.18307787574E+04  0.50400001928E-02 0.  1.
</event>
<event>
 5   0  0.7857136E-05  0.1783048E+04  0.7818609E-02  0.8715367E-01
       -2   -1    0    0    0  501  0.00000000000E+00  0.00000000000E+00  0.46772001246E+03  0.46772001247E+03  0.25500000920E-02 0.  1.
        2   -1    0    0  501    0  0.00000000000E+00  0.00000000000E+00 -0.16993391045E+04  0.16993391045E+04  0.25500000920E-02 0. -1.
    10030    2    1    2    0    0  0.00000000000E+00  0.00000000000E+00 -0.12316190921E+04  0.21670591170E+04  0.17830478481E+04 0.  0.
        4    1    3    3  502    0  0.17783062151E+03  0.36827216834E+03  0.34699288661E+03  0.53633366124E+03  0.12699999809E+01 0.  1.
       -4    1    3    3    0  502 -0.17783062151E+03 -0.36827216834E+03 -0.15786119787E+04  0.16307254558E+04  0.12699999809E+01 0. -1.
</event>
<event>
 5   0  0.3787698E-05  0.2067856E+04  0.7818609E-02  0.8575537E-01
        1   -1    0    0  501    0  0.00000000000E+00  0.00000000000E+00  0.17749142596E+04  0.17749142596E+04  0.50400001928E-02 0. -1.
       -1   -1    0    0    0  501  0.00000000000E+00  0.00000000000E+00 -0.60228643363E+03  0.60228643365E+03  0.50400001928E-02 0.  1.
    10030    2    1    2    0    0  0.00000000000E+00  0.00000000000E+00  0.11726278260E+04  0.23772006932E+04  0.20678556811E+04 0.  0.
        4    1    3    3  502    0 -0.87393944193E+03 -0.25992303910E+03  0.11467645969E+04  0.14650599947E+04  0.12699999809E+01 0. -1.
       -4    1    3    3    0  502  0.87393944193E+03  0.25992303910E+03  0.25863229035E+02  0.91214069854E+03  0.12699999809E+01 0.  1.
</event>
<event>
 5   0  0.8022574E-05  0.1934456E+04  0.7818609E-02  0.8637893E-01
       -2   -1    0    0    0  501  0.00000000000E+00  0.00000000000E+00  0.76636078019E+03  0.76636078020E+03  0.25500000920E-02 0. -1.
        2   -1    0    0  501    0  0.00000000000E+00  0.00000000000E+00 -0.12207440744E+04  0.12207440744E+04  0.25500000920E-02 0.  1.
    10030    2    1    2    0    0  0.00000000000E+00  0.00000000000E+00 -0.45438329421E+03  0.19871048546E+04  0.19344563901E+04 0.  0.
        1    1    3    3  502    0 -0.27791614760E+03  0.37272772895E+03 -0.10984302449E+04  0.11927750618E+04  0.50400001928E-02 0. -1.
       -1    1    3    3    0  502  0.27791614760E+03 -0.37272772895E+03  0.64404695071E+03  0.79432979283E+03  0.50400001928E-02 0.  1.
</event>
<event>
 5   0  0.3970042E-05  0.1978667E+04  0.7818609E-02  0.8616660E-01
       -1   -1    0    0    0  501  0.00000000000E+00  0.00000000000E+00  0.49879760466E+03  0.49879760468E+03  0.50400001928E-02 0.  1.
        1   -1    0    0  501    0  0.00000000000E+00  0.00000000000E+00 -0.19622813978E+04  0.19622813978E+04  0.50400001928E-02 0. -1.
    10030    2    1    2    0    0  0.00000000000E+00  0.00000000000E+00 -0.14634837932E+04  0.24610790025E+04  0.19786674920E+04 0.  0.
        3    1    3    3  502    0 -0.26057269622E+03  0.95439628309E+03 -0.73583996095E+03  0.12329764205E+04  0.10100000352E+00 0. -1.
       -3    1    3    3    0  502  0.26057269622E+03 -0.95439628309E+03 -0.72764383221E+03  0.12281025820E+04  0.10100000352E+00 0.  1.
</event>
<event>
 5   0  0.7935008E-05  0.1992668E+04  0.7818609E-02  0.8610056E-01
        2   -1    0    0  501    0  0.00000000000E+00  0.00000000000E+00  0.86573354581E+03  0.86573354581E+03  0.25500000920E-02 0.  1.
       -2   -1    0    0    0  501  0.00000000000E+00  0.00000000000E+00 -0.11466359502E+04  0.11466359502E+04  0.25500000920E-02 0. -1.
    10030    2    1    2    0    0  0.00000000000E+00  0.00000000000E+00 -0.28090240436E+03  0.20123694960E+04  0.19926677665E+04 0.  0.
        3    1    3    3  502    0  0.84339608145E+03  0.15823501807E+03 -0.65174331926E+03  0.10775549339E+04  0.10100000352E+00 0. -1.
       -3    1    3    3    0  502 -0.84339608145E+03 -0.15823501807E+03  0.37084091490E+03  0.93481456210E+03  0.10100000352E+00 0.  1.
</event>
<event>
 5   0  0.3549426E-05  0.2010682E+04  0.7818609E-02  0.8601643E-01
        1   -1    0    0  501    0  0.00000000000E+00  0.00000000000E+00  0.11630776939E+04  0.11630776939E+04  0.50400001928E-02 0. -1.
       -1   -1    0    0    0  501  0.00000000000E+00  0.00000000000E+00 -0.86899645455E+03  0.86899645457E+03  0.50400001928E-02 0.  1.
    10030    2    1    2    0    0  0.00000000000E+00  0.00000000000E+00  0.29408123936E+03  0.20320741485E+04  0.20106818668E+04 0.  0.
        5    1    3    3  502    0  0.22644299447E+03 -0.21481594260E+03 -0.81877634703E+03  0.87626429540E+03  0.46999998093E+01 0.  1.
       -5    1    3    3    0  502 -0.22644299447E+03  0.21481594260E+03  0.11128575864E+04  0.11558098531E+04  0.46999998093E+01 0. -1.
</event>
<event>
 5   0  0.8022574E-05  0.2030937E+04  0.7818609E-02  0.8592292E-01
        2   -1    0    0  501    0  0.00000000000E+00  0.00000000000E+00  0.12984759932E+04  0.12984759932E+04  0.25500000920E-02 0. -1.
       -2   -1    0    0    0  501  0.00000000000E+00  0.00000000000E+00 -0.79414320833E+03  0.79414320834E+03  0.25500000920E-02 0.  1.
    10030    2    1    2    0    0  0.00000000000E+00  0.00000000000E+00  0.50433278487E+03  0.20926192015E+04  0.20309366225E+04 0.  0.
        1    1    3    3  502    0  0.86042441828E+03 -0.73920716240E+02  0.80260222362E+03  0.11789676761E+04  0.50400001928E-02 0. -1.
       -1    1    3    3    0  502 -0.86042441828E+03  0.73920716240E+02 -0.29826943875E+03  0.91365152546E+03  0.50400001928E-02 0.  1.
</event>
<event>
 5   0  0.7935008E-05  0.2010509E+04  0.7818609E-02  0.8601723E-01
       -2   -1    0    0    0  501  0.00000000000E+00  0.00000000000E+00  0.10017713447E+04  0.10017713447E+04  0.25500000920E-02 0.  1.
        2   -1    0    0  501    0  0.00000000000E+00  0.00000000000E+00 -0.10087496479E+04  0.10087496479E+04  0.25500000920E-02 0. -1.
    10030    2    1    2    0    0  0.00000000000E+00  0.00000000000E+00 -0.69783032168E+01  0.20105209925E+04  0.20105088820E+04 0.  0.
        3    1    3    3  502    0  0.27994786565E+02 -0.81892407845E+03 -0.58582944050E+03  0.10072817371E+04  0.10100000352E+00 0. -1.
       -3    1    3    3    0  502 -0.27994786565E+02  0.81892407845E+03  0.57885113728E+03  0.10032392554E+04  0.10100000352E+00 0.  1.
</event>
<event>
 5   0  0.3549426E-05  0.1994541E+04  0.7818609E-02  0.8609177E-01
       -1   -1    0    0    0  501  0.00000000000E+00  0.00000000000E+00  0.71580944909E+03  0.71580944911E+03  0.50400001928E-02 0. -1.
        1   -1    0    0  501    0  0.00000000000E+00  0.00000000000E+00 -0.13894044569E+04  0.13894044569E+04  0.50400001928E-02 0.  1.
    10030    2    1    2    0    0  0.00000000000E+00  0.00000000000E+00 -0.67359500776E+03  0.21052139060E+04  0.19945413897E+04 0.  0.
        5    1    3    3  502    0  0.41892831679E+02  0.86691682391E+03  0.18160381636E+03  0.88673661537E+03  0.46999998093E+01 0. -1.
       -5    1    3    3    0  502 -0.41892831679E+02 -0.86691682391E+03 -0.85519882412E+03  0.12184772906E+04  0.46999998093E+01 0.  1.
</event>
<event>
 5   0  0.3787698E-05  0.2024249E+04  0.7818609E-02  0.8595367E-01
       -1   -1    0    0    0  501  0.00000000000E+00  0.00000000000E+00  0.69725090017E+03  0.69725090019E+03  0.50400001928E-02 0.  1.
        1   -1    0    0  501    0  0.00000000000E+00  0.00000000000E+00 -0.14691928364E+04  0.14691928364E+04  0.50400001928E-02 0. -1.
    10030    2    1    2    0    0  0.00000000000E+00  0.00000000000E+00 -0.77194193627E+03  0.21664437366E+04  0.20242490240E+04 0.  0.
        4    1    3    3  502    0  0.29847072960E+03  0.51290539128E+03 -0.12634664881E+04  0.13958889269E+04  0.12699999809E+01 0. -1.
       -4    1    3    3    0  502 -0.29847072960E+03 -0.51290539128E+03  0.49152455183E+03  0.77055480972E+03  0.12699999809E+01 0.  1.
</event>
<event>
 5   0  0.3772949E-05  0.1999207E+04  0.7818609E-02  0.8606992E-01
        1   -1    0    0  501    0  0.00000000000E+00  0.00000000000E+00  0.85307424919E+03  0.85307424921E+03  0.50400001928E-02 0. -1.
       -1   -1    0    0    0  501  0.00000000000E+00  0.00000000000E+00 -0.11713010268E+04  0.11713010268E+04  0.50400001928E-02 0.  1.
    10030    2    1    2    0    0  0.00000000000E+00  0.00000000000E+00 -0.31822677762E+03  0.20243752760E+04  0.19992065867E+04 0.  0.
        2    1    3    3  502    0 -0.25906487049E+01  0.99238222034E+03 -0.37697376507E+02  0.99310134172E+03  0.25500000920E-02 0.  1.
       -2    1    3    3    0  502  0.25906487049E+01 -0.99238222034E+03 -0.28052940111E+03  0.10312739343E+04  0.25500000920E-02 0. -1.
</event>
<event>
 5   0  0.7857136E-05  0.2018446E+04  0.7818609E-02  0.8598045E-01
       -2   -1    0    0    0  501  0.00000000000E+00  0.00000000000E+00  0.52673072361E+03  0.52673072362E+03  0.25500000920E-02 0.  1.
        2   -1    0    0  501    0  0.00000000000E+00  0.00000000000E+00 -0.19336852727E+04  0.19336852727E+04  0.25500000920E-02 0. -1.
    10030    2    1    2    0    0  0.00000000000E+00  0.00000000000E+00 -0.14069545491E+04  0.24604159963E+04  0.20184463757E+04 0.  0.
        4    1    3    3  502    0 -0.86933617400E+03  0.45162782751E+03 -0.99910274215E+03  0.13992572960E+04  0.12699999809E+01 0. -1.
       -4    1    3    3    0  502  0.86933617400E+03 -0.45162782751E+03 -0.40785180691E+03  0.10611587003E+04  0.12699999809E+01 0.  1.
</event>
<event>
 5   0  0.8022574E-05  0.1980141E+04  0.7818609E-02  0.8615962E-01
       -2   -1    0    0    0  501  0.00000000000E+00  0.00000000000E+00  0.72543102886E+03  0.72543102887E+03  0.25500000920E-02 0.  1.
        2   -1    0    0  501    0  0.00000000000E+00  0.00000000000E+00 -0.13512513703E+04  0.13512513703E+04  0.25500000920E-02 0. -1.
    10030    2    1    2    0    0  0.00000000000E+00  0.00000000000E+00 -0.62582034145E+03  0.20766823992E+04  0.19801410776E+04 0.  0.
        1    1    3    3  502    0 -0.37260638488E+03 -0.86848001868E+03 -0.33114197137E+01  0.94504181200E+03  0.50400001928E-02 0. -1.
       -1    1    3    3    0  502  0.37260638488E+03  0.86848001868E+03 -0.62250892174E+03  0.11316405872E+04  0.50400001928E-02 0.  1.
</event>
<event>
 5   0  0.3818907E-05  0.1992343E+04  0.7818609E-02  0.8610209E-01
        1   -1    0    0  501    0  0.00000000000E+00  0.00000000000E+00  0.14409218306E+04  0.14409218306E+04  0.50400001928E-02 0.  1.
       -1   -1    0    0    0  501  0.00000000000E+00  0.00000000000E+00 -0.68869669233E+03  0.68869669235E+03  0.50400001928E-02 0. -1.
    10030    2    1    2    0    0  0.00000000000E+00  0.00000000000E+00  0.75222513827E+03  0.21296185230E+04  0.19923434429E+04 0.  0.
        1    1    3    3  502    0 -0.36044078610E+03 -0.73611536378E+03 -0.22909205752E+03  0.85103851847E+03  0.50400001928E-02 0. -1.
       -1    1    3    3    0  502  0.36044078610E+03  0.73611536378E+03  0.98131719579E+03  0.12785800045E+04  0.50400001928E-02 0.  1.
</event>
<event>
 5   0  0.8011197E-05  0.2011702E+04  0.7818609E-02  0.8601169E-01
       -2   -1    0    0    0  501  0.00000000000E+00  0.00000000000E+00  0.41664224983E+03  0.41664224984E+03  0.25500000920E-02 0.  1.
        2   -1    0    0  501    0  0.00000000000E+00  0.00000000000E+00 -0.24283103791E+04  0.24283103791E+04  0.25500000920E-02 0. -1.
    10030    2    1    2    0    0  0.00000000000E+00  0.00000000000E+00 -0.20116681292E+04  0.28449526289E+04  0.20117024627E+04 0.  0.
        5    1    3    3  502    0  0.49641222998E+02 -0.73564794666E+03 -0.19733716284E+04  0.21066228486E+04  0.46999998093E+01 0. -1.
       -5    1    3    3    0  502 -0.49641222998E+02  0.73564794666E+03 -0.38296500788E+02  0.73832978026E+03  0.46999998093E+01 0.  1.
</event>
<event>
 5   0  0.3787698E-05  0.2001052E+04  0.7818609E-02  0.8606129E-01
        1   -1    0    0  501    0  0.00000000000E+00  0.00000000000E+00  0.11198469641E+04  0.11198469641E+04  0.50400001928E-02 0.  1.
       -1   -1    0    0    0  501  0.00000000000E+00  0.00000000000E+00 -0.89391850547E+03  0.89391850548E+03  0.50400001928E-02 0. -1.
    10030    2    1    2    0    0  0.00000000000E+00  0.00000000000E+00  0.22592845860E+03  0.20137654696E+04  0.20010516480E+04 0.  0.
        4    1    3    3  502    0 -0.19387234128E+03  0.42525353150E+03 -0.77731648871E+03  0.90700032376E+03  0.12699999809E+01 0. -1.
       -4    1    3    3    0  502  0.19387234128E+03 -0.42525353150E+03  0.10032449473E+04  0.11067651458E+04  0.12699999809E+01 0.  1.
</event>
<event>
 5   0  0.3970042E-05  0.2002336E+04  0.7818609E-02  0.8605529E-01
        1   -1    0    0  501    0  0.00000000000E+00  0.00000000000E+00  0.11501048376E+04  0.11501048376E+04  0.50400001928E-02 0.  1.
       -1   -1    0    0    0  501  0.00000000000E+00  0.00000000000E+00 -0.87151793529E+03  0.87151793531E+03  0.50400001928E-02 0. -1.
    10030    2    1    2    0    0  0.00000000000E+00  0.00000000000E+00  0.27858690231E+03  0.20216227729E+04  0.20023356297E+04 0.  0.
        3    1    3    3  502    0 -0.27046948337E+03 -0.19989378126E+03 -0.81277736569E+03  0.87961259745E+03  0.10100000352E+00 0. -1.
       -3    1    3    3    0  502  0.27046948337E+03  0.19989378126E+03  0.10913642680E+04  0.11420101755E+04  0.10100000352E+00 0.  1.
</event>
<event>
 5   0  0.2859625E-05  0.2006194E+04  0.7818609E-02  0.8603730E-01
        3   -1    0    0  501    0  0.00000000000E+00  0.00000000000E+00  0.15656358557E+04  0.15656358589E+04  0.10100000352E+00 0. -1.
       -3   -1    0    0    0  501  0.00000000000E+00  0.00000000000E+00 -0.64268052068E+03  0.64268052861E+03  0.10100000352E+00 0.  1.
    10030    2    1    2    0    0  0.00000000000E+00  0.00000000000E+00  0.92295533500E+03  0.22083163875E+04  0.20061940876E+04 0.  0.
        5    1    3    3  502    0 -0.22917603584E+02 -0.43134423904E+03 -0.53504901560E+03  0.68766460444E+03  0.46999998093E+01 0.  1.
       -5    1    3    3    0  502  0.22917603584E+02  0.43134423904E+03  0.14580043506E+04  0.15206517831E+04  0.46999998093E+01 0. -1.
</event>
<event>
 5   0  0.3772949E-05  0.1979784E+04  0.7818609E-02  0.8616131E-01
       -1   -1    0    0    0  501  0.00000000000E+00  0.00000000000E+00  0.20423318881E+04  0.20423318881E+04  0.50400001928E-02 0.  1.
        1   -1    0    0  501    0  0.00000000000E+00  0.00000000000E+00 -0.47978784877E+03  0.47978784879E+03  0.50400001928E-02 0. -1.
    10030    2    1    2    0    0  0.00000000000E+00  0.00000000000E+00  0.15625440393E+04  0.25221197369E+04  0.19797838499E+04 0.  0.
        2    1    3    3  502    0  0.77939386794E+03 -0.60882672689E+03  0.72780856853E+03  0.12279373344E+04  0.25500000920E-02 0. -1.
       -2    1    3    3    0  502 -0.77939386794E+03  0.60882672689E+03  0.83473547081E+03  0.12941824025E+04  0.25500000920E-02 0.  1.
</event>
<event>
 5   0  0.7857136E-05  0.2002904E+04  0.7818609E-02  0.8605264E-01
       -2   -1    0    0    0  501  0.00000000000E+00  0.00000000000E+00  0.76867003560E+03  0.76867003560E+03  0.25500000920E-02 0. -1.
        2   -1    0    0  501    0  0.00000000000E+00  0.00000000000E+00 -0.13047286307E+04  0.13047286307E+04  0.25500000920E-02 0.  1.
    10030    2    1    2    0    0  0.00000000000E+00  0.00000000000E+00 -0.53605859513E+03  0.20733986663E+04  0.20029036952E+04 0.  0.
        4    1    3    3  502    0  0.47054080288E+03 -0.67104152857E+03  0.32772492725E+03  0.88267243136E+03  0.12699999809E+01 0.  1.
       -4    1    3    3    0  502 -0.47054080288E+03  0.67104152857E+03 -0.86378352237E+03  0.11907262350E+04  0.12699999809E+01 0. -1.
</event>
<event>
 5   0  0.3818907E-05  0.1964716E+04  0.7818609E-02  0.8623297E-01
        1   -1    0    0  501    0  0.00000000000E+00  0.00000000000E+00  0.14599266610E+04  0.14599266611E+04  0.50400001928E-02 0.  1.
       -1   -1    0    0    0  501  0.00000000000E+00  0.00000000000E+00 -0.66101074743E+03  0.66101074745E+03  0.50400001928E-02 0. -1.
    10030    2    1    2    0    0  0.00000000000E+00  0.00000000000E+00  0.79891591361E+03  0.21209374085E+04  0.19647159728E+04 0.  0.
        1    1    3    3  502    0 -0.14804400363E+03  0.37362547139E+03 -0.56820664096E+03  0.69596825124E+03  0.50400001928E-02 0. -1.
       -1    1    3    3    0  502  0.14804400363E+03 -0.37362547139E+03  0.13671225546E+04  0.14249691573E+04  0.50400001928E-02 0.  1.
</event>
<event>
 5   0  0.3970042E-05  0.2008593E+04  0.7818609E-02  0.8602613E-01
       -1   -1    0    0    0  501  0.00000000000E+00  0.00000000000E+00  0.14060159307E+04  0.14060159307E+04  0.50400001928E-02 0.  1.
        1   -1    0    0  501    0  0.00000000000E+00  0.00000000000E+00 -0.71735454205E+03  0.71735454207E+03  0.50400001928E-02 0. -1.
    10030    2    1    2    0    0  0.00000000000E+00  0.00000000000E+00  0.68866138860E+03  0.21233704727E+04  0.20085934522E+04 0.  0.
        3    1    3    3  502    0 -0.11592224626E+03  0.16916168345E+03  0.13836470214E+04  0.13987611420E+04  0.10100000352E+00 0.  1.
       -3    1    3    3    0  502  0.11592224626E+03 -0.16916168345E+03 -0.69498563275E+03  0.72460933078E+03  0.10100000352E+00 0. -1.
</event>
<event>
 5   0  0.7843846E-05  0.2007723E+04  0.7818609E-02  0.8603018E-01
        2   -1    0    0  501    0  0.00000000000E+00  0.00000000000E+00  0.25515113242E+04  0.25515113242E+04  0.25500000920E-02 0.  1.
       -2   -1    0    0    0  501  0.00000000000E+00  0.00000000000E+00 -0.39495720448E+03  0.39495720449E+03  0.25500000920E-02 0. -1.
    10030    2    1    2    0    0  0.00000000000E+00  0.00000000000E+00  0.21565541197E+04  0.29464685287E+04  0.20077228691E+04 0.  0.
        2    1    3    3  502    0 -0.86253901963E+03  0.50198593011E+03  0.91903183203E+03  0.13566808551E+04  0.25500000920E-02 0. -1.
       -2    1    3    3    0  502  0.86253901963E+03 -0.50198593011E+03  0.12375222877E+04  0.15897876735E+04  0.25500000920E-02 0.  1.
</event>
<event>
 5   0  0.7857136E-05  0.1984627E+04  0.7818609E-02  0.8613842E-01
       -2   -1    0    0    0  501  0.00000000000E+00  0.00000000000E+00  0.13782129663E+04  0.13782129663E+04  0.25500000920E-02 0.  1.
        2   -1    0    0  501    0  0.00000000000E+00  0.00000000000E+00 -0.71446552371E+03  0.71446552371E+03  0.25500000920E-02 0. -1.
    10030    2    1    2    0    0  0.00000000000E+00  0.00000000000E+00  0.66374744260E+03  0.20926784900E+04  0.19846265631E+04 0.  0.
        4    1    3    3  502    0  0.96379675168E+03 -0.23097603550E+03  0.38385182652E+03  0.10628254538E+04  0.12699999809E+01 0.  1.
       -4    1    3    3    0  502 -0.96379675168E+03  0.23097603550E+03  0.27989561609E+03  0.10298530363E+04  0.12699999809E+01 0. -1.
</event>
<event>
 5   0  0.3549426E-05  0.2017561E+04  0.7818609E-02  0.8598454E-01
        1   -1    0    0  501    0  0.00000000000E+00  0.00000000000E+00  0.13085080472E+04  0.13085080472E+04  0.50400001928E-02 0. -1.
       -1   -1    0    0    0  501  0.00000000000E+00  0.00000000000E+00 -0.77770864145E+03  0.77770864147E+03  0.50400001928E-02 0.  1.
    10030    2    1    2    0    0  0.00000000000E+00  0.00000000000E+00  0.53079940575E+03  0.20862166887E+04  0.20175609193E+04 0.  0.
        5    1    3    3  502    0 -0.68446427782E+03  0.41211450338E+03 -0.37141970007E+03  0.88108137826E+03  0.46999998093E+01 0.  1.
       -5    1    3    3    0  502  0.68446427782E+03 -0.41211450338E+03  0.90221910582E+03  0.12051353104E+04  0.46999998093E+01 0. -1.
</event>
<event>
 5   0  0.7857136E-05  0.2000891E+04  0.7818609E-02  0.8606204E-01
        2   -1    0    0  501    0  0.00000000000E+00  0.00000000000E+00  0.14973755433E+04  0.14973755433E+04  0.25500000920E-02 0.  1.
       -2   -1    0    0    0  501  0.00000000000E+00  0.00000000000E+00 -0.66843062845E+03  0.66843062846E+03  0.25500000920E-02 0. -1.
    10030    2    1    2    0    0  0.00000000000E+00  0.00000000000E+00  0.82894491484E+03  0.21658061718E+04  0.20008914768E+04 0.  0.
        4    1    3    3  502    0  0.72468494560E+02  0.63901404635E+02 -0.66336793529E+03  0.67036833360E+03  0.12699999809E+01 0. -1.
       -4    1    3    3    0  502 -0.72468494560E+02 -0.63901404635E+02  0.14923128501E+04  0.14954378382E+04  0.12699999809E+01 0.  1.
</event>
<event>
 5   0  0.3772949E-05  0.1958111E+04  0.7818609E-02  0.8626459E-01
       -1   -1    0    0    0  501  0.00000000000E+00  0.00000000000E+00  0.11810507294E+04  0.11810507294E+04  0.50400001928E-02 0. -1.
        1   -1    0    0  501    0  0.00000000000E+00  0.00000000000E+00 -0.81160781391E+03  0.81160781393E+03  0.50400001928E-02 0.  1.
    10030    2    1    2    0    0  0.00000000000E+00  0.00000000000E+00  0.36944291551E+03  0.19926585434E+04  0.19581113356E+04 0.  0.
        2    1    3    3  502    0 -0.26302927890E+03 -0.74578552117E+03 -0.40267071986E+03  0.88742557648E+03  0.25500000920E-02 0.  1.
       -2    1    3    3    0  502  0.26302927890E+03  0.74578552117E+03  0.77211363537E+03  0.11052329669E+04  0.25500000920E-02 0. -1.
</event>
<event>
 5   0  0.8011197E-05  0.1994894E+04  0.7818609E-02  0.8609012E-01
        2   -1    0    0  501    0  0.00000000000E+00  0.00000000000E+00  0.12883469754E+04  0.12883469754E+04  0.25500000920E-02 0. -1.
       -2   -1    0    0    0  501  0.00000000000E+00  0.00000000000E+00 -0.77223037936E+03  0.77223037937E+03  0.25500000920E-02 0.  1.
    10030    2    1    2    0    0  0.00000000000E+00  0.00000000000E+00  0.51611659606E+03  0.20605773548E+04  0.19948941562E+04 0.  0.
        5    1    3    3  502    0  0.94780274436E+03  0.29302957960E+03  0.15130051262E+03  0.10035488587E+04  0.46999998093E+01 0. -1.
       -5    1    3    3    0  502 -0.94780274436E+03 -0.29302957960E+03  0.36481608344E+03  0.10570284961E+04  0.46999998093E+01 0.  1.
</event>
<event>
 5   0  0.3787698E-05  0.2000326E+04  0.7818609E-02  0.8606468E-01
       -1   -1    0    0    0  501  0.00000000000E+00  0.00000000000E+00  0.62471981025E+03  0.62471981027E+03  0.50400001928E-02 0. -1.
        1   -1    0    0  501    0  0.00000000000E+00  0.00000000000E+00 -0.16012388756E+04  0.16012388756E+04  0.50400001928E-02 0.  1.
    10030    2    1    2    0    0  0.00000000000E+00  0.00000000000E+00 -0.97651906538E+03  0.22259586859E+04  0.20003256201E+04 0.  0.
        4    1    3    3  502    0  0.87019461834E+03 -0.13625598552E+03  0.39023256734E+02  0.88166251754E+03  0.12699999809E+01 0. -1.
       -4    1    3    3    0  502 -0.87019461834E+03  0.13625598552E+03 -0.10155423221E+04  0.13442961684E+04  0.12699999809E+01 0.  1.
</event>
<event>
 5   0  0.7935008E-05  0.1992437E+04  0.7818609E-02  0.8610165E-01
        2   -1    0    0  501    0  0.00000000000E+00  0.00000000000E+00  0.20085796491E+04  0.20085796491E+04  0.25500000920E-02 0. -1.
       -2   -1    0    0    0  501  0.00000000000E+00  0.00000000000E+00 -0.49410599828E+03  0.49410599828E+03  0.25500000920E-02 0.  1.
    10030    2    1    2    0    0  0.00000000000E+00  0.00000000000E+00  0.15144736508E+04  0.25026856474E+04  0.19924369527E+04 0.  0.
        3    1    3    3  502    0 -0.69204857648E+03 -0.12911739295E+03 -0.12815151417E+03  0.71555946934E+03  0.10100000352E+00 0.  1.
       -3    1    3    3    0  502  0.69204857648E+03  0.12911739295E+03  0.16426251650E+04  0.17871261780E+04  0.10100000352E+00 0. -1.
</event>
<event>
 5   0  0.2859625E-05  0.1908814E+04  0.7818609E-02  0.8650481E-01
       -4   -1    0    0    0  501  0.00000000000E+00  0.00000000000E+00  0.13740994396E+04  0.13741000265E+04  0.12699999809E+01 0.  1.
        4   -1    0    0  501    0  0.00000000000E+00  0.00000000000E+00 -0.66290039347E+03  0.66290161002E+03  0.12699999809E+01 0. -1.
    10030    2    1    2    0    0  0.00000000000E+00  0.00000000000E+00  0.71119904618E+03  0.20370016366E+04  0.19088141827E+04 0.  0.
        4    1    3    3  502    0  0.26834468511E+03 -0.46802388023E+03  0.11957675384E+04  0.13118372007E+04  0.12699999809E+01 0.  1.
       -4    1    3    3    0  502 -0.26834468511E+03  0.46802388023E+03 -0.48456849218E+03  0.72516443584E+03  0.12699999809E+01 0. -1.
</event>
<event>
 5   0  0.7843846E-05  0.2002008E+04  0.7818609E-02  0.8605683E-01
       -2   -1    0    0    0  501  0.00000000000E+00  0.00000000000E+00  0.11902190971E+04  0.11902190971E+04  0.25500000920E-02 0.  1.
        2   -1    0    0  501    0  0.00000000000E+00  0.00000000000E+00 -0.84186922537E+03  0.84186922537E+03  0.25500000920E-02 0. -1.
    10030    2    1    2    0    0  0.00000000000E+00  0.00000000000E+00  0.34834987177E+03  0.20320883225E+04  0.20020078215E+04 0.  0.
        2    1    3    3  502    0  0.19582765968E+03  0.98148602332E+03  0.15530684756E+03  0.10128097073E+04  0.25500000920E-02 0. -1.
       -2    1    3    3    0  502 -0.19582765968E+03 -0.98148602332E+03  0.19304302420E+03  0.10192786152E+04  0.25500000920E-02 0.  1.
</event>
<event>
 5   0  0.2859625E-05  0.2023248E+04  0.7818609E-02  0.8595828E-01
       -3   -1    0    0    0  501  0.00000000000E+00  0.00000000000E+00  0.63282766716E+03  0.63282767522E+03  0.10100000352E+00 0.  1.
        3   -1    0    0  501    0  0.00000000000E+00  0.00000000000E+00 -0.16171597390E+04  0.16171597422E+04  0.10100000352E+00 0. -1.
    10030    2    1    2    0    0  0.00000000000E+00  0.00000000000E+00 -0.98433207188E+03  0.22499874174E+04  0.20232483166E+04 0.  0.
        2    1    3    3  502    0  0.20160350192E+03 -0.88984650255E+03 -0.62644968308E+01  0.91241986717E+03  0.25500000920E-02 0.  1.
       -2    1    3    3    0  502 -0.20160350192E+03  0.88984650255E+03 -0.97806757505E+03  0.13375675502E+04  0.25500000920E-02 0. -1.
</event>
<event>
 5   0  0.7857136E-05  0.1982400E+04  0.7818609E-02  0.8614894E-01
       -2   -1    0    0    0  501  0.00000000000E+00  0.00000000000E+00  0.96330671059E+03  0.96330671060E+03  0.25500000920E-02 0.  1.
        2   -1    0    0  501    0  0.00000000000E+00  0.00000000000E+00 -0.10199006030E+04  0.10199006030E+04  0.25500000920E-02 0. -1.
    10030    2    1    2    0    0  0.00000000000E+00  0.00000000000E+00 -0.56593892437E+02  0.19832073136E+04  0.19823996520E+04 0.  0.
        4    1    3    3  502    0  0.92086278930E+03  0.36511464253E+03  0.60463749665E+01  0.99062361695E+03  0.12699999809E+01 0.  1.
       -4    1    3    3    0  502 -0.92086278930E+03 -0.36511464253E+03 -0.62640267403E+02  0.99258369668E+03  0.12699999809E+01 0. -1.
</event>
<event>
 5   0  0.8011197E-05  0.1956985E+04  0.7818609E-02  0.8627000E-01
       -2   -1    0    0    0  501  0.00000000000E+00  0.00000000000E+00  0.16724399649E+04  0.16724399649E+04  0.25500000920E-02 0.  1.
        2   -1    0    0  501    0  0.00000000000E+00  0.00000000000E+00 -0.57248569288E+03  0.57248569288E+03  0.25500000920E-02 0. -1.
    10030    2    1    2    0    0  0.00000000000E+00  0.00000000000E+00  0.10999542720E+04  0.22449256578E+04  0.19569853879E+04 0.  0.
        5    1    3    3  502    0 -0.84925226467E+02  0.76523117899E+03 -0.14272008337E+03  0.78305948918E+03  0.46999998093E+01 0. -1.
       -5    1    3    3    0  502  0.84925226467E+02 -0.76523117899E+03  0.12426743554E+04  0.14618661686E+04  0.46999998093E+01 0.  1.
</event>
<event>
 5   0  0.3787698E-05  0.2006631E+04  0.7818609E-02  0.8603527E-01
        1   -1    0    0  501    0  0.00000000000E+00  0.00000000000E+00  0.82201369996E+03  0.82201369998E+03  0.50400001928E-02 0.  1.
       -1   -1    0    0    0  501  0.00000000000E+00  0.00000000000E+00 -0.12246045294E+04  0.12246045294E+04  0.50400001928E-02 0. -1.
    10030    2    1    2    0    0  0.00000000000E+00  0.00000000000E+00 -0.40259082945E+03  0.20466182294E+04  0.20066307087E+04 0.  0.
        4    1    3    3  502    0  0.45126893129E+03  0.72796996166E+03 -0.73425635820E+03  0.11281480071E+04  0.12699999809E+01 0. -1.
       -4    1    3    3    0  502 -0.45126893129E+03 -0.72796996166E+03  0.33166552875E+03  0.91847022232E+03  0.12699999809E+01 0.  1.
</event>
<event>
 5   0  0.2859625E-05  0.2009907E+04  0.7818609E-02  0.8602003E-01
        4   -1    0    0  501    0  0.00000000000E+00  0.00000000000E+00  0.81737714312E+03  0.81737812975E+03  0.12699999809E+01 0.  1.
       -4   -1    0    0    0  501  0.00000000000E+00  0.00000000000E+00 -0.12355733213E+04  0.12355739740E+04  0.12699999809E+01 0. -1.
    10030    2    1    2    0    0  0.00000000000E+00  0.00000000000E+00 -0.41819617821E+03  0.20529521038E+04  0.20099065394E+04 0.  0.
        5    1    3    3  502    0 -0.91285185063E+03 -0.26165174321E+03 -0.54500110526E+03  0.10949011054E+04  0.46999998093E+01 0. -1.
       -5    1    3    3    0  502  0.91285185063E+03  0.26165174321E+03  0.12680492705E+03  0.95805099836E+03  0.46999998093E+01 0.  1.
</event>
<event>
 5   0  0.8011197E-05  0.2070093E+04  0.7818609E-02  0.8574533E-01
       -2   -1    0    0    0  501  0.00000000000E+00  0.00000000000E+00  0.37213178114E+03  0.37213178115E+03  0.25500000920E-02 0. -1.
        2   -1    0    0  501    0  0.00000000000E+00  0.00000000000E+00 -0.28788773444E+04  0.28788773444E+04  0.25500000920E-02 0.  1.
    10030    2    1    2    0    0  0.00000000000E+00  0.00000000000E+00 -0.25067455632E+04  0.32510091255E+04  0.20700934799E+04 0.  0.
        5    1    3    3  502    0  0.53247368482E+03 -0.15611568086E+03 -0.26255307727E+04  0.26835301860E+04  0.46999998093E+01 0.  1.
       -5    1    3    3    0  502 -0.53247368482E+03  0.15611568086E+03  0.11878520944E+03  0.56747893954E+03  0.46999998093E+01 0. -1.
</event>
<event>
 5   0  0.3970042E-05  0.1997479E+04  0.7818609E-02  0.8607800E-01
        1   -1    0    0  501    0  0.00000000000E+00  0.00000000000E+00  0.65418331937E+03  0.65418331939E+03  0.50400001928E-02 0. -1.
       -1   -1    0    0    0  501  0.00000000000E+00  0.00000000000E+00 -0.15247719666E+04  0.15247719666E+04  0.50400001928E-02 0.  1.
    10030    2    1    2    0    0  0.00000000000E+00  0.00000000000E+00 -0.87058864724E+03  0.21789552860E+04  0.19974787973E+04 0.  0.
        3    1    3    3  502    0  0.93061157293E+03 -0.61453261713E+02 -0.45528531730E+02  0.93374903504E+03  0.10100000352E+00 0. -1.
       -3    1    3    3    0  502 -0.93061157293E+03  0.61453261713E+02 -0.82506011551E+03  0.12452062510E+04  0.10100000352E+00 0.  1.
</event>
<event>
 5   0  0.8022574E-05  0.1828332E+04  0.7818609E-02  0.8691376E-01
       -2   -1    0    0    0  501  0.00000000000E+00  0.00000000000E+00  0.65079554842E+03  0.65079554842E+03  0.25500000920E-02 0. -1.
        2   -1    0    0  501    0  0.00000000000E+00  0.00000000000E+00 -0.12841198876E+04  0.12841198876E+04  0.25500000920E-02 0.  1.
    10030    2    1    2    0    0  0.00000000000E+00  0.00000000000E+00 -0.63332433915E+03  0.19349154360E+04  0.18283320338E+04 0.  0.
        1    1    3    3  502    0  0.49060216290E+03  0.77129166698E+03 -0.32816738571E+03  0.97122353291E+03  0.50400001928E-02 0.  1.
       -1    1    3    3    0  502 -0.49060216290E+03 -0.77129166698E+03 -0.30515695344E+03  0.96369190308E+03  0.50400001928E-02 0. -1.
</event>
<event>
 5   0  0.3818907E-05  0.1886411E+04  0.7818609E-02  0.8661650E-01
        1   -1    0    0  501    0  0.00000000000E+00  0.00000000000E+00  0.17171196255E+04  0.17171196255E+04  0.50400001928E-02 0.  1.
       -1   -1    0    0    0  501  0.00000000000E+00  0.00000000000E+00 -0.51809845113E+03  0.51809845116E+03  0.50400001928E-02 0. -1.
    10030    2    1    2    0    0  0.00000000000E+00  0.00000000000E+00  0.11990211744E+04  0.22352180767E+04  0.18864114275E+04 0.  0.
        1    1    3    3  502    0 -0.58833890301E+03  0.15702534556E+03 -0.25398074958E+03  0.65977711777E+03  0.50400001928E-02 0. -1.
       -1    1    3    3    0  502  0.58833890301E+03 -0.15702534556E+03  0.14530019240E+04  0.15754409589E+04  0.50400001928E-02 0.  1.
</event>
<event>
 5   0  0.8022574E-05  0.2173290E+04  0.7818609E-02  0.8529628E-01
       -2   -1    0    0    0  501  0.00000000000E+00  0.00000000000E+00  0.75016685311E+03  0.75016685312E+03  0.25500000920E-02 0.  1.
        2   -1    0    0  501    0  0.00000000000E+00  0.00000000000E+00 -0.15740462996E+04  0.15740462996E+04  0.25500000920E-02 0. -1.
    10030    2    1    2    0    0  0.00000000000E+00  0.00000000000E+00 -0.82387944645E+03  0.23242131527E+04  0.21732900029E+04 0.  0.
        1    1    3    3  502    0  0.73649421999E+02  0.17188327268E+03 -0.15567096893E+04  0.15679008749E+04  0.50400001928E-02 0. -1.
       -1    1    3    3    0  502 -0.73649421999E+02 -0.17188327268E+03  0.73283024280E+03  0.75631227782E+03  0.50400001928E-02 0.  1.
</event>
<event>
 5   0  0.8022574E-05  0.2006638E+04  0.7818609E-02  0.8603524E-01
       -2   -1    0    0    0  501  0.00000000000E+00  0.00000000000E+00  0.98168080597E+03  0.98168080597E+03  0.25500000920E-02 0. -1.
        2   -1    0    0  501    0  0.00000000000E+00  0.00000000000E+00 -0.10254337773E+04  0.10254337773E+04  0.25500000920E-02 0.  1.
    10030    2    1    2    0    0  0.00000000000E+00  0.00000000000E+00 -0.43752971282E+02  0.20071145832E+04  0.20066376424E+04 0.  0.
        1    1    3    3  502    0 -0.93612099708E+03 -0.13416644269E+03 -0.35710611312E+03  0.10108649423E+04  0.50400001928E-02 0.  1.
       -1    1    3    3    0  502  0.93612099708E+03  0.13416644269E+03  0.31335314184E+03  0.99624964093E+03  0.50400001928E-02 0. -1.
</event>
<event>
 5   0  0.8011197E-05  0.2013160E+04  0.7818609E-02  0.8600493E-01
       -2   -1    0    0    0  501  0.00000000000E+00  0.00000000000E+00  0.60165867764E+03  0.60165867764E+03  0.25500000920E-02 0.  1.
        2   -1    0    0  501    0  0.00000000000E+00  0.00000000000E+00 -0.16840163253E+04  0.16840163253E+04  0.25500000920E-02 0. -1.
    10030    2    1    2    0    0  0.00000000000E+00  0.00000000000E+00 -0.10823576477E+04  0.22856750030E+04  0.20131597407E+04 0.  0.
        5    1    3    3  502    0 -0.35494526802E+03  0.42177171875E+03  0.41502894681E+03  0.69003524745E+03  0.46999998093E+01 0. -1.
       -5    1    3    3    0  502  0.35494526802E+03 -0.42177171875E+03 -0.14973865945E+04  0.15956397555E+04  0.46999998093E+01 0.  1.
</event>
<event>
 5   0  0.7935008E-05  0.2004586E+04  0.7818609E-02  0.8604480E-01
        2   -1    0    0  501    0  0.00000000000E+00  0.00000000000E+00  0.17783574953E+04  0.17783574953E+04  0.25500000920E-02 0. -1.
       -2   -1    0    0    0  501  0.00000000000E+00  0.00000000000E+00 -0.56489813316E+03  0.56489813316E+03  0.25500000920E-02 0.  1.
    10030    2    1    2    0    0  0.00000000000E+00  0.00000000000E+00  0.12134593622E+04  0.23432556285E+04  0.20045855723E+04 0.  0.
        3    1    3    3  502    0 -0.46159193670E+02 -0.99613048380E+03  0.48876318516E+03  0.11105386411E+04  0.10100000352E+00 0.  1.
       -3    1    3    3    0  502  0.46159193670E+02  0.99613048380E+03  0.72469617699E+03  0.12327169874E+04  0.10100000352E+00 0. -1.
</event>
<event>
 5   0  0.3772949E-05  0.1996137E+04  0.7818609E-02  0.8608429E-01
       -1   -1    0    0    0  501  0.00000000000E+00  0.00000000000E+00  0.74194413942E+03  0.74194413944E+03  0.50400001928E-02 0.  1.
        1   -1    0    0  501    0  0.00000000000E+00  0.00000000000E+00 -0.13426082362E+04  0.13426082362E+04  0.50400001928E-02 0. -1.
    10030    2    1    2    0    0  0.00000000000E+00  0.00000000000E+00 -0.60066409676E+03  0.20845523756E+04  0.19961365809E+04 0.  0.
        2    1    3    3  502    0  0.14592463967E+03 -0.38593512669E+03  0.64871205149E+03  0.76880898032E+03  0.25500000920E-02 0.  1.
       -2    1    3    3    0  502 -0.14592463967E+03  0.38593512669E+03 -0.12493761482E+04  0.13157433953E+04  0.25500000920E-02 0. -1.
</event>
<event>
 5   0  0.3970042E-05  0.1950445E+04  0.7818609E-02  0.8630146E-01
       -1   -1    0    0    0  501  0.00000000000E+00  0.00000000000E+00  0.10803499037E+04  0.10803499037E+04  0.50400001928E-02 0.  1.
        1   -1    0    0  501    0  0.00000000000E+00  0.00000000000E+00 -0.88032483581E+03  0.88032483582E+03  0.50400001928E-02 0. -1.
    10030    2    1    2    0    0  0.00000000000E+00  0.00000000000E+00  0.20002506790E+03  0.19606747395E+04  0.19504449253E+04 0.  0.
        3    1    3    3  502    0  0.68111053059E+03 -0.62510817501E+03  0.41210351610E+03  0.10121764192E+04  0.10100000352E+00 0.  1.
       -3    1    3    3    0  502 -0.68111053059E+03  0.62510817501E+03 -0.21207844820E+03  0.94849832037E+03  0.10100000352E+00 0. -1.
</event>
<event>
 5   0  0.2859625E-05  0.1936905E+04  0.7818609E-02  0.8636701E-01
       -3   -1    0    0    0  501  0.00000000000E+00  0.00000000000E+00  0.67740746628E+03  0.67740747381E+03  0.10100000352E+00 0. -1.
        3   -1    0    0  501    0  0.00000000000E+00  0.00000000000E+00 -0.13845434921E+04  0.13845434958E+04  0.10100000352E+00 0.  1.
    10030    2    1    2    0    0  0.00000000000E+00  0.00000000000E+00 -0.70713602586E+03  0.20619509696E+04  0.19369048614E+04 0.  0.
        4    1    3    3  502    0 -0.41816103972E+03  0.81107476287E+03 -0.69884918887E+03  0.11493879797E+04  0.12699999809E+01 0.  1.
       -4    1    3    3    0  502  0.41816103972E+03 -0.81107476287E+03 -0.82868369894E+01  0.91256298998E+03  0.12699999809E+01 0. -1.
</event>
<event>
 5   0  0.3772949E-05  0.2000684E+04  0.7818609E-02  0.8606301E-01
        1   -1    0    0  501    0  0.00000000000E+00  0.00000000000E+00  0.17616106234E+04  0.17616106235E+04  0.50400001928E-02 0. -1.
       -1   -1    0    0    0  501  0.00000000000E+00  0.00000000000E+00 -0.56805042444E+03  0.56805042446E+03  0.50400001928E-02 0.  1.
    10030    2    1    2    0    0  0.00000000000E+00  0.00000000000E+00  0.11935601990E+04  0.23296610479E+04  0.20006835456E+04 0.  0.
        2    1    3    3  502    0  0.77630885229E+03 -0.19877037029E+03 -0.10044042720E+03  0.80762204878E+03  0.25500000920E-02 0.  1.
       -2    1    3    3    0  502 -0.77630885229E+03  0.19877037029E+03  0.12940006262E+04  0.15220389991E+04  0.25500000920E-02 0. -1.
</event>
<event>
 5   0  0.3818907E-05  0.1989310E+04  0.7818609E-02  0.8611635E-01
        1   -1    0    0  501    0  0.00000000000E+00  0.00000000000E+00  0.14727196272E+04  0.14727196272E+04  0.50400001928E-02 0. -1.
       -1   -1    0    0    0  501  0.00000000000E+00  0.00000000000E+00 -0.67177690033E+03  0.67177690035E+03  0.50400001928E-02 0.  1.
    10030    2    1    2    0    0  0.00000000000E+00  0.00000000000E+00  0.80094272689E+03  0.21444965276E+04  0.19893104597E+04 0.  0.
        1    1    3    3  502    0 -0.32246988544E+03 -0.69093245938E+03  0.10890189923E+04  0.13294122220E+04  0.50400001928E-02 0. -1.
       -1    1    3    3    0  502  0.32246988544E+03  0.69093245938E+03 -0.28807626542E+03  0.81508430556E+03  0.50400001928E-02 0.  1.
</event>
<event>
 5   0  0.7857136E-05  0.2031411E+04  0.7818609E-02  0.8592074E-01
        2   -1    0    0  501    0  0.00000000000E+00  0.00000000000E+00  0.12607250458E+04  0.12607250458E+04  0.25500000920E-02 0.  1.
       -2   -1    0    0    0  501  0.00000000000E+00  0.00000000000E+00 -0.81830479105E+03  0.81830479105E+03  0.25500000920E-02 0. -1.
    10030    2    1    2    0    0  0.00000000000E+00  0.00000000000E+00  0.44242025475E+03  0.20790298369E+04  0.20314106874E+04 0.  0.
        4    1    3    3  502    0 -0.93434802056E+03 -0.30936188885E+03 -0.35558924983E+02  0.98487412995E+03  0.12699999809E+01 0.  1.
       -4    1    3    3    0  502  0.93434802056E+03  0.30936188885E+03  0.47797917973E+03  0.10941557069E+04  0.12699999809E+01 0. -1.
</event>
<event>
 5   0  0.3970042E-05  0.2004737E+04  0.7818609E-02  0.8604409E-01
       -1   -1    0    0    0  501  0.00000000000E+00  0.00000000000E+00  0.87696176650E+03  0.87696176652E+03  0.50400001928E-02 0. -1.
        1   -1    0    0  501    0  0.00000000000E+00  0.00000000000E+00 -0.11457085128E+04  0.11457085129E+04  0.50400001928E-02 0.  1.
    10030    2    1    2    0    0  0.00000000000E+00  0.00000000000E+00 -0.26874674634E+03  0.20226702794E+04  0.20047369517E+04 0.  0.
        3    1    3    3  502    0 -0.67351714116E+03  0.42688770007E+03 -0.74716478159E+03  0.10927550819E+04  0.10100000352E+00 0.  1.
       -3    1    3    3    0  502  0.67351714116E+03 -0.42688770007E+03  0.47841803525E+03  0.92991519751E+03  0.10100000352E+00 0. -1.
</event>
<event>
 5   0  0.7843846E-05  0.1996418E+04  0.7818609E-02  0.8608297E-01
       -2   -1    0    0    0  501  0.00000000000E+00  0.00000000000E+00  0.83891243655E+03  0.83891243656E+03  0.25500000920E-02 0.  1.
        2   -1    0    0  501    0  0.00000000000E+00  0.00000000000E+00 -0.11877534199E+04  0.11877534199E+04  0.25500000920E-02 0. -1.
    10030    2    1    2    0    0  0.00000000000E+00  0.00000000000E+00 -0.34884098333E+03  0.20266658564E+04  0.19964179077E+04 0.  0.
        2    1    3    3  502    0 -0.84945711416E+02 -0.26749317552E+03 -0.11468763067E+04  0.11807174241E+04  0.25500000920E-02 0. -1.
       -2    1    3    3    0  502  0.84945711416E+02  0.26749317552E+03  0.79803532333E+03  0.84594843231E+03  0.25500000920E-02 0.  1.
</event>
<event>
 5   0  0.3549426E-05  0.2005711E+04  0.7818609E-02  0.8603955E-01
        1   -1    0    0  501    0  0.00000000000E+00  0.00000000000E+00  0.77332019631E+03  0.77332019633E+03  0.50400001928E-02 0. -1.
       -1   -1    0    0    0  501  0.00000000000E+00  0.00000000000E+00 -0.13005205092E+04  0.13005205092E+04  0.50400001928E-02 0.  1.
    10030    2    1    2    0    0  0.00000000000E+00  0.00000000000E+00 -0.52720031287E+03  0.20738407055E+04  0.20057106227E+04 0.  0.
        5    1    3    3  502    0 -0.24791346283E+03  0.70389818786E+03 -0.95625298649E+03  0.12130027239E+04  0.46999998093E+01 0.  1.
       -5    1    3    3    0  502  0.24791346283E+03 -0.70389818786E+03  0.42905267362E+03  0.86083798166E+03  0.46999998093E+01 0. -1.
</event>
<event>
 5   0  0.7857136E-05  0.2022800E+04  0.7818609E-02  0.8596035E-01
        2   -1    0    0  501    0  0.00000000000E+00  0.00000000000E+00  0.66258417118E+03  0.66258417118E+03  0.25500000920E-02 0.  1.
       -2   -1    0    0    0  501  0.00000000000E+00  0.00000000000E+00 -0.15438486222E+04  0.15438486222E+04  0.25500000920E-02 0. -1.
    10030    2    1    2    0    0  0.00000000000E+00  0.00000000000E+00 -0.88126445098E+03  0.22064327933E+04  0.20227997031E+04 0.  0.
        4    1    3    3  502    0  0.13426200343E+02 -0.50583008274E+03  0.51458595373E+03  0.72169567834E+03  0.12699999809E+01 0.  1.
       -4    1    3    3    0  502 -0.13426200343E+02  0.50583008274E+03 -0.13958504047E+04  0.14847371150E+04  0.12699999809E+01 0. -1.
</event>
<event>
 5   0  0.8022574E-05  0.1998751E+04  0.7818609E-02  0.8607205E-01
        2   -1    0    0  501    0  0.00000000000E+00  0.00000000000E+00  0.13939658960E+04  0.13939658960E+04  0.25500000920E-02 0.  1.
       -2   -1    0    0    0  501  0.00000000000E+00  0.00000000000E+00 -0.71648192023E+03  0.71648192023E+03  0.25500000920E-02 0. -1.
    10030    2    1    2    0    0  0.00000000000E+00  0.00000000000E+00  0.67748397575E+03  0.21104478162E+04  0.19987509719E+04 0.  0.
        1    1    3    3  502    0 -0.23663268204E+03 -0.69325896077E+03 -0.37906326653E+03  0.82479814073E+03  0.50400001928E-02 0. -1.
       -1    1    3    3    0  502  0.23663268204E+03  0.69325896077E+03  0.10565472423E+04  0.12856496755E+04  0.50400001928E-02 0.  1.
</event>
<event>
 5   0  0.8022574E-05  0.2015504E+04  0.7818609E-02  0.8599406E-01
       -2   -1    0    0    0  501  0.00000000000E+00  0.00000000000E+00  0.34706428892E+03  0.34706428893E+03  0.25500000920E-02 0.  1.
        2   -1    0    0  501    0  0.00000000000E+00  0.00000000000E+00 -0.29261549812E+04  0.29261549812E+04  0.25500000920E-02 0. -1.
    10030    2    1    2    0    0  0.00000000000E+00  0.00000000000E+00 -0.25790906923E+04  0.32732192702E+04  0.20155038058E+04 0.  0.
        1    1    3    3  502    0  0.32563565277E+03  0.54498129994E+03 -0.25605638190E+04  0.26380921642E+04  0.50400001928E-02 0. -1.
       -1    1    3    3    0  502 -0.32563565277E+03 -0.54498129994E+03 -0.18526873294E+02  0.63512710594E+03  0.50400001928E-02 0.  1.
</event>
<event>
 5   0  0.3787698E-05  0.1997367E+04  0.7818609E-02  0.8607853E-01
       -1   -1    0    0    0  501  0.00000000000E+00  0.00000000000E+00  0.58281900895E+03  0.58281900898E+03  0.50400001928E-02 0.  1.
        1   -1    0    0  501    0  0.00000000000E+00  0.00000000000E+00 -0.17112833324E+04  0.17112833324E+04  0.50400001928E-02 0. -1.
    10030    2    1    2    0    0  0.00000000000E+00  0.00000000000E+00 -0.11284643234E+04  0.22941023414E+04  0.19973667223E+04 0.  0.
        4    1    3    3  502    0  0.78359242843E+03  0.55713438794E+03 -0.25401153496E+03  0.99445426889E+03  0.12699999809E+01 0. -1.
       -4    1    3    3    0  502 -0.78359242843E+03 -0.55713438794E+03 -0.87445278847E+03  0.12996480725E+04  0.12699999809E+01 0.  1.
</event>
<event>
 5   0  0.7857136E-05  0.2053560E+04  0.7818609E-02  0.8581981E-01
        2   -1    0    0  501    0  0.00000000000E+00  0.00000000000E+00  0.16173877357E+04  0.16173877357E+04  0.25500000920E-02 0.  1.
       -2   -1    0    0    0  501  0.00000000000E+00  0.00000000000E+00 -0.65183926894E+03  0.65183926895E+03  0.25500000920E-02 0. -1.
    10030    2    1    2    0    0  0.00000000000E+00  0.00000000000E+00  0.96554846678E+03  0.22692270047E+04  0.20535596794E+04 0.  0.
        4    1    3    3  502    0 -0.33523518121E+03 -0.41163569864E+03  0.14539669666E+04  0.15478527475E+04  0.12699999809E+01 0.  1.
       -4    1    3    3    0  502  0.33523518121E+03  0.41163569864E+03 -0.48841849978E+03  0.72137425719E+03  0.12699999809E+01 0. -1.
</event>
<event>
 5   0  0.7857136E-05  0.2006461E+04  0.7818609E-02  0.8603606E-01
        2   -1    0    0  501    0  0.00000000000E+00  0.00000000000E+00  0.18478136903E+04  0.18478136903E+04  0.25500000920E-02 0.  1.
       -2   -1    0    0    0  501  0.00000000000E+00  0.00000000000E+00 -0.54468223884E+03  0.54468223884E+03  0.25500000920E-02 0. -1.
    10030    2    1    2    0    0  0.00000000000E+00  0.00000000000E+00  0.13031314515E+04  0.23924959292E+04  0.20064608621E+04 0.  0.
        4    1    3    3  502    0  0.84619543059E+03 -0.52064794430E+03  0.81742752336E+03  0.12865886512E+04  0.12699999809E+01 0.  1.
       -4    1    3    3    0  502 -0.84619543059E+03  0.52064794430E+03  0.48570392812E+03  0.11059072779E+04  0.12699999809E+01 0. -1.
</event>
<event>
 5   0  0.3772949E-05  0.2029875E+04  0.7818609E-02  0.8592779E-01
       -1   -1    0    0    0  501  0.00000000000E+00  0.00000000000E+00  0.99385403351E+03  0.99385403353E+03  0.50400001928E-02 0.  1.
        1   -1    0    0  501    0  0.00000000000E+00  0.00000000000E+00 -0.10364684586E+04  0.10364684586E+04  0.50400001928E-02 0. -1.
    10030    2    1    2    0    0  0.00000000000E+00  0.00000000000E+00 -0.42614425115E+02  0.20303224922E+04  0.20298752260E+04 0.  0.
        2    1    3    3  502    0  0.29874916758E+03 -0.15990585270E+03  0.93560490641E+03  0.99507662406E+03  0.25500000920E-02 0.  1.
       -2    1    3    3    0  502 -0.29874916758E+03  0.15990585270E+03 -0.97821933152E+03  0.10352458681E+04  0.25500000920E-02 0. -1.
</event>
<event>
 5   0  0.7857136E-05  0.2011340E+04  0.7818609E-02  0.8601337E-01
        2   -1    0    0  501    0  0.00000000000E+00  0.00000000000E+00  0.10028072639E+04  0.10028072639E+04  0.25500000920E-02 0. -1.
       -2   -1    0    0    0  501  0.00000000000E+00  0.00000000000E+00 -0.10085407356E+04  0.10085407356E+04  0.25500000920E-02 0.  1.
    10030    2    1    2    0    0  0.00000000000E+00  0.00000000000E+00 -0.57334716547E+01  0.20113479995E+04  0.20113398277E+04 0.  0.
        4    1    3    3  502    0 -0.53261102916E+03 -0.17357209529E+03  0.83234236994E+03  0.10032931846E+04  0.12699999809E+01 0. -1.
       -4    1    3    3    0  502  0.53261102916E+03  0.17357209529E+03 -0.83807584159E+03  0.10080548149E+04  0.12699999809E+01 0.  1.
</event>
<event>
 5   0  0.3549426E-05  0.1995984E+04  0.7818609E-02  0.8608500E-01
        1   -1    0    0  501    0  0.00000000000E+00  0.00000000000E+00  0.61960216394E+03  0.61960216396E+03  0.50400001928E-02 0.  1.
       -1   -1    0    0    0  501  0.00000000000E+00  0.00000000000E+00 -0.16074643811E+04  0.16074643811E+04  0.50400001928E-02 0. -1.
    10030    2    1    2    0    0  0.00000000000E+00  0.00000000000E+00 -0.98786221715E+03  0.22270665451E+04  0.19959843777E+04 0.  0.
        5    1    3    3  502    0 -0.40419807785E+03 -0.90514779553E+03 -0.36526494848E+03  0.10564606905E+04  0.46999998093E+01 0. -1.
       -5    1    3    3    0  502  0.40419807785E+03  0.90514779553E+03 -0.62259726867E+03  0.11706058546E+04  0.46999998093E+01 0.  1.
</event>
<event>
 5   0  0.3549426E-05  0.2013332E+04  0.7818609E-02  0.8600413E-01
        1   -1    0    0  501    0  0.00000000000E+00  0.00000000000E+00  0.77736397429E+03  0.77736397430E+03  0.50400001928E-02 0. -1.
       -1   -1    0    0    0  501  0.00000000000E+00  0.00000000000E+00 -0.13036066916E+04  0.13036066917E+04  0.50400001928E-02 0.  1.
    10030    2    1    2    0    0  0.00000000000E+00  0.00000000000E+00 -0.52624271736E+03  0.20809706660E+04  0.20133324403E+04 0.  0.
        5    1    3    3  502    0  0.88550232869E+02 -0.35696660691E+03  0.70542320631E+03  0.79555659270E+03  0.46999998093E+01 0. -1.
       -5    1    3    3    0  502 -0.88550232869E+02  0.35696660691E+03 -0.12316659237E+04  0.12854140733E+04  0.46999998093E+01 0.  1.
</event>
<event>
 5   0  0.3549426E-05  0.1997417E+04  0.7818609E-02  0.8607829E-01
       -1   -1    0    0    0  501  0.00000000000E+00  0.00000000000E+00  0.94291165789E+03  0.94291165790E+03  0.50400001928E-02 0. -1.
        1   -1    0    0  501    0  0.00000000000E+00  0.00000000000E+00 -0.10578068846E+04  0.10578068846E+04  0.50400001928E-02 0.  1.
    10030    2    1    2    0    0  0.00000000000E+00  0.00000000000E+00 -0.11489522674E+03  0.20007185425E+04  0.19974167751E+04 0.  0.
        5    1    3    3  502    0 -0.29263531578E+03  0.49461845809E+03  0.76067269038E+03  0.95337709172E+03  0.46999998093E+01 0. -1.
       -5    1    3    3    0  502  0.29263531578E+03 -0.49461845809E+03 -0.87556791712E+03  0.10473414508E+04  0.46999998093E+01 0.  1.
</event>
<event>
 5   0  0.3772949E-05  0.1768218E+04  0.7818609E-02  0.8723386E-01
       -1   -1    0    0    0  501  0.00000000000E+00  0.00000000000E+00  0.93428091227E+03  0.93428091228E+03  0.50400001928E-02 0.  1.
        1   -1    0    0  501    0  0.00000000000E+00  0.00000000000E+00 -0.83663120716E+03  0.83663120717E+03  0.50400001928E-02 0. -1.
    10030    2    1    2    0    0  0.00000000000E+00  0.00000000000E+00  0.97649705112E+02  0.17709121195E+04  0.17682178231E+04 0.  0.
        2    1    3    3  502    0  0.85833312292E+03  0.20595018714E+03  0.98874371578E+02  0.88821583573E+03  0.25500000920E-02 0. -1.
       -2    1    3    3    0  502 -0.85833312292E+03 -0.20595018714E+03 -0.12246664664E+01  0.88269628372E+03  0.25500000920E-02 0.  1.
</event>
<event>
 5   0  0.7935008E-05  0.1990570E+04  0.7818609E-02  0.8611042E-01
       -2   -1    0    0    0  501  0.00000000000E+00  0.00000000000E+00  0.57904449595E+03  0.57904449596E+03  0.25500000920E-02 0. -1.
        2   -1    0    0  501    0  0.00000000000E+00  0.00000000000E+00 -0.17107361200E+04  0.17107361200E+04  0.25500000920E-02 0.  1.
    10030    2    1    2    0    0  0.00000000000E+00  0.00000000000E+00 -0.11316916241E+04  0.22897806160E+04  0.19905701036E+04 0.  0.
        3    1    3    3  502    0  0.85700597993E+03 -0.12333143696E+03 -0.11304641977E+04  0.14239449446E+04  0.10100000352E+00 0.  1.
       -3    1    3    3    0  502 -0.85700597993E+03  0.12333143696E+03 -0.12274264038E+01  0.86583567133E+03  0.10100000352E+00 0. -1.
</event>
<event>
 5   0  0.8011197E-05  0.2005514E+04  0.7818609E-02  0.8604047E-01
       -2   -1    0    0    0  501  0.00000000000E+00  0.00000000000E+00  0.94524537234E+03  0.94524537235E+03  0.25500000920E-02 0.  1.
        2   -1    0    0  501    0  0.00000000000E+00  0.00000000000E+00 -0.10637677378E+04  0.10637677378E+04  0.25500000920E-02 0. -1.
    10030    2    1    2    0    0  0.00000000000E+00  0.00000000000E+00 -0.11852236541E+03  0.20090131101E+04  0.20055139305E+04 0.  0.
        5    1    3    3  502    0  0.70820229482E+03 -0.54204792165E+03  0.39994129205E+03  0.97741575946E+03  0.46999998093E+01 0.  1.
       -5    1    3    3    0  502 -0.70820229482E+03  0.54204792165E+03 -0.51846365747E+03  0.10315973506E+04  0.46999998093E+01 0. -1.
</event>
<event>
 5   0  0.7843846E-05  0.1964239E+04  0.7818609E-02  0.8623525E-01
        2   -1    0    0  501    0  0.00000000000E+00  0.00000000000E+00  0.81172075045E+03  0.81172075045E+03  0.25500000920E-02 0.  1.
       -2   -1    0    0    0  501  0.00000000000E+00  0.00000000000E+00 -0.11882883430E+04  0.11882883430E+04  0.25500000920E-02 0. -1.
    10030    2    1    2    0    0  0.00000000000E+00  0.00000000000E+00 -0.37656759258E+03  0.20000090935E+04  0.19642385859E+04 0.  0.
        2    1    3    3  502    0  0.65745495828E+03  0.16587089964E+03 -0.91171393853E+03  0.11362141010E+04  0.25500000920E-02 0. -1.
       -2    1    3    3    0  502 -0.65745495828E+03 -0.16587089964E+03  0.53514634595E+03  0.86379499252E+03  0.25500000920E-02 0.  1.
</event>
<event>
 5   0  0.3772949E-05  0.1964738E+04  0.7818609E-02  0.8623287E-01
        1   -1    0    0  501    0  0.00000000000E+00  0.00000000000E+00  0.11751047408E+04  0.11751047408E+04  0.50400001928E-02 0. -1.
       -1   -1    0    0    0  501  0.00000000000E+00  0.00000000000E+00 -0.82124490484E+03  0.82124490486E+03  0.50400001928E-02 0.  1.
    10030    2    1    2    0    0  0.00000000000E+00  0.00000000000E+00  0.35385983591E+03  0.19963496456E+04  0.19647379276E+04 0.  0.
        2    1    3    3  502    0 -0.40484187941E+02  0.86672861594E+03  0.64498372621E+03  0.10811389690E+04  0.25500000920E-02 0. -1.
       -2    1    3    3    0  502  0.40484187941E+02 -0.86672861594E+03 -0.29112389029E+03  0.91521067665E+03  0.25500000920E-02 0.  1.
</event>
<event>
 5   0  0.8022574E-05  0.1995266E+04  0.7818609E-02  0.8608837E-01
       -2   -1    0    0    0  501  0.00000000000E+00  0.00000000000E+00  0.34006543886E+03  0.34006543887E+03  0.25500000920E-02 0. -1.
        2   -1    0    0  501    0  0.00000000000E+00  0.00000000000E+00 -0.29267065578E+04  0.29267065578E+04  0.25500000920E-02 0.  1.
    10030    2    1    2    0    0  0.00000000000E+00  0.00000000000E+00 -0.25866411190E+04  0.32667719967E+04  0.19952661477E+04 0.  0.
        1    1    3    3  502    0  0.50795181899E+02 -0.21001819963E+03  0.30129455837E+03  0.37076435321E+03  0.50400001928E-02 0. -1.
       -1    1    3    3    0  502 -0.50795181899E+02  0.21001819963E+03 -0.28879356773E+04  0.28960076435E+04  0.50400001928E-02 0.  1.
</event>
<event>
 5   0  0.2859625E-05  0.2003938E+04  0.7818609E-02  0.8604782E-01
        3   -1    0    0  501    0  0.00000000000E+00  0.00000000000E+00  0.17793138734E+04  0.17793138762E+04  0.10100000352E+00 0.  1.
       -3   -1    0    0    0  501  0.00000000000E+00  0.00000000000E+00 -0.56422953908E+03  0.56422954812E+03  0.10100000352E+00 0. -1.
    10030    2    1    2    0    0  0.00000000000E+00  0.00000000000E+00  0.12150843343E+04  0.23435434243E+04  0.20039375845E+04 0.  0.
        3    1    3    3  502    0  0.59233033128E+03  0.86894360606E+02 -0.33207060831E+03  0.68459970082E+03  0.10100000352E+00 0. -1.
       -3    1    3    3    0  502 -0.59233033128E+03 -0.86894360606E+02  0.15471549426E+04  0.16589437235E+04  0.10100000352E+00 0.  1.
</event>
<event>
 5   0  0.2859625E-05  0.2007885E+04  0.7818609E-02  0.8602943E-01
        4   -1    0    0  501    0  0.00000000000E+00  0.00000000000E+00  0.73747818232E+03  0.73747927584E+03  0.12699999809E+01 0.  1.
       -4   -1    0    0    0  501  0.00000000000E+00  0.00000000000E+00 -0.13666823767E+04  0.13666829668E+04  0.12699999809E+01 0. -1.
    10030    2    1    2    0    0  0.00000000000E+00  0.00000000000E+00 -0.62920419440E+03  0.21041622426E+04  0.20078846643E+04 0.  0.
        3    1    3    3  502    0 -0.25401515440E+03 -0.72666444851E+03 -0.98996915045E+03  0.12540350268E+04  0.10100000352E+00 0. -1.
       -3    1    3    3    0  502  0.25401515440E+03  0.72666444851E+03  0.36076495605E+03  0.85012721584E+03  0.10100000352E+00 0.  1.
</event>
<event>
 5   0  0.3818907E-05  0.1998216E+04  0.7818609E-02  0.8607455E-01
        1   -1    0    0  501    0  0.00000000000E+00  0.00000000000E+00  0.68605245716E+03  0.68605245718E+03  0.50400001928E-02 0. -1.
       -1   -1    0    0    0  501  0.00000000000E+00  0.00000000000E+00 -0.14550149631E+04  0.14550149631E+04  0.50400001928E-02 0.  1.
    10030    2    1    2    0    0  0.00000000000E+00  0.00000000000E+00 -0.76896250589E+03  0.21410674202E+04  0.19982157948E+04 0.  0.
        1    1    3    3  502    0 -0.89839298318E+03 -0.21160066791E+03  0.25399293561E+02  0.92332546755E+03  0.50400001928E-02 0. -1.
       -1    1    3    3    0  502  0.89839298318E+03  0.21160066791E+03 -0.79436179945E+03  0.12177419527E+04  0.50400001928E-02 0.  1.
</event>
<event>
 5   0  0.3970042E-05  0.1957636E+04  0.7818609E-02  0.8626688E-01
       -1   -1    0    0    0  501  0.00000000000E+00  0.00000000000E+00  0.10509121005E+04  0.10509121005E+04  0.50400001928E-02 0.  1.
        1   -1    0    0  501    0  0.00000000000E+00  0.00000000000E+00 -0.91166938769E+03  0.91166938770E+03  0.50400001928E-02 0. -1.
    10030    2    1    2    0    0  0.00000000000E+00  0.00000000000E+00  0.13924271278E+03  0.19625814882E+04  0.19576357079E+04 0.  0.
        3    1    3    3  502    0  0.11293787448E+03  0.35449539124E+03  0.97726074790E+03  0.10456866287E+04  0.10100000352E+00 0.  1.
       -3    1    3    3    0  502 -0.11293787448E+03 -0.35449539124E+03 -0.83801803512E+03  0.91689485945E+03  0.10100000352E+00 0. -1.
</event>
<event>
 5   0  0.3772949E-05  0.2005432E+04  0.7818609E-02  0.8604085E-01
       -1   -1    0    0    0  501  0.00000000000E+00  0.00000000000E+00  0.13490386709E+04  0.13490386710E+04  0.50400001928E-02 0. -1.
        1   -1    0    0  501    0  0.00000000000E+00  0.00000000000E+00 -0.74530032781E+03  0.74530032783E+03  0.50400001928E-02 0.  1.
    10030    2    1    2    0    0  0.00000000000E+00  0.00000000000E+00  0.60373834313E+03  0.20943389988E+04  0.20054315882E+04 0.  0.
        2    1    3    3  502    0 -0.86222433166E+03  0.43763454092E+03  0.57912771437E+03  0.11270952484E+04  0.25500000920E-02 0.  1.
       -2    1    3    3    0  502  0.86222433166E+03 -0.43763454092E+03  0.24610628762E+02  0.96724375034E+03  0.25500000920E-02 0. -1.
</event>
<event>
 5   0  0.3970042E-05  0.2002390E+04  0.7818609E-02  0.8605504E-01
        1   -1    0    0  501    0  0.00000000000E+00  0.00000000000E+00  0.98638856332E+03  0.98638856333E+03  0.50400001928E-02 0.  1.
       -1   -1    0    0    0  501  0.00000000000E+00  0.00000000000E+00 -0.10162235837E+04  0.10162235837E+04  0.50400001928E-02 0. -1.
    10030    2    1    2    0    0  0.00000000000E+00  0.00000000000E+00 -0.29835020345E+02  0.20026121470E+04  0.20023898928E+04 0.  0.
        3    1    3    3  502    0  0.56234335483E+03  0.30070349367E+02  0.81297690568E+03  0.98897205926E+03  0.10100000352E+00 0.  1.
       -3    1    3    3    0  502 -0.56234335483E+03 -0.30070349367E+02 -0.84281192602E+03  0.10136400877E+04  0.10100000352E+00 0. -1.
</event>
<event>
 5   0  0.3787698E-05  0.2000969E+04  0.7818609E-02  0.8606168E-01
       -1   -1    0    0    0  501  0.00000000000E+00  0.00000000000E+00  0.88724786572E+03  0.88724786573E+03  0.50400001928E-02 0.  1.
        1   -1    0    0  501    0  0.00000000000E+00  0.00000000000E+00 -0.11281736523E+04  0.11281736523E+04  0.50400001928E-02 0. -1.
    10030    2    1    2    0    0  0.00000000000E+00  0.00000000000E+00 -0.24092578654E+03  0.20154215180E+04  0.20009694302E+04 0.  0.
        4    1    3    3  502    0 -0.10438368067E+03  0.98065633572E+03 -0.29015897096E+03  0.10279964216E+04  0.12699999809E+01 0. -1.
       -4    1    3    3    0  502  0.10438368067E+03 -0.98065633572E+03  0.49233184412E+02  0.98742509636E+03  0.12699999809E+01 0.  1.
</event>
<event>
 5   0  0.3772949E-05  0.2027819E+04  0.7818609E-02  0.8593724E-01
        1   -1    0    0  501    0  0.00000000000E+00  0.00000000000E+00  0.71858522956E+03  0.71858522958E+03  0.50400001928E-02 0. -1.
       -1   -1    0    0    0  501  0.00000000000E+00  0.00000000000E+00 -0.14306064570E+04  0.14306064570E+04  0.50400001928E-02 0.  1.
    10030    2    1    2    0    0  0.00000000000E+00  0.00000000000E+00 -0.71202122743E+03  0.21491916866E+04  0.20278191925E+04 0.  0.
        2    1    3    3  502    0  0.48737634101E+03 -0.86626726307E+03 -0.14388624810E+03  0.10043196310E+04  0.25500000920E-02 0. -1.
       -2    1    3    3    0  502 -0.48737634101E+03  0.86626726307E+03 -0.56813497933E+03  0.11448720556E+04  0.25500000920E-02 0.  1.
</event>
<event>
 5   0  0.7843846E-05  0.1999663E+04  0.7818609E-02  0.8606778E-01
       -2   -1    0    0    0  501  0.00000000000E+00  0.00000000000E+00  0.43605295837E+03  0.43605295837E+03  0.25500000920E-02 0.  1.
        2   -1    0    0  501    0  0.00000000000E+00  0.00000000000E+00 -0.22925277170E+04  0.22925277170E+04  0.25500000920E-02 0. -1.
    10030    2    1    2    0    0  0.00000000000E+00  0.00000000000E+00 -0.18564747586E+04  0.27285806753E+04  0.19996634648E+04 0.  0.
        2    1    3    3  502    0 -0.41108330891E+03 -0.44044784233E+02 -0.21704258159E+04  0.22094518895E+04  0.25500000920E-02 0. -1.
       -2    1    3    3    0  502  0.41108330891E+03  0.44044784233E+02  0.31395105728E+03  0.51912878581E+03  0.25500000920E-02 0.  1.
</event>
<event>
 5   0  0.3772949E-05  0.1833879E+04  0.7818609E-02  0.8688488E-01
        1   -1    0    0  501    0  0.00000000000E+00  0.00000000000E+00  0.76755286546E+03  0.76755286548E+03  0.50400001928E-02 0.  1.
       -1   -1    0    0    0  501  0.00000000000E+00  0.00000000000E+00 -0.10954005128E+04  0.10954005128E+04  0.50400001928E-02 0. -1.
    10030    2    1    2    0    0  0.00000000000E+00  0.00000000000E+00 -0.32784764734E+03  0.18629533783E+04  0.18338787337E+04 0.  0.
        2    1    3    3  502    0 -0.61742432153E+03 -0.32490967222E+03  0.44048697453E+03  0.82511081841E+03  0.25500000920E-02 0. -1.
       -2    1    3    3    0  502  0.61742432153E+03  0.32490967222E+03 -0.76833462187E+03  0.10378425599E+04  0.25500000920E-02 0.  1.
</event>
<event>
 5   0  0.3549426E-05  0.1999984E+04  0.7818609E-02  0.8606628E-01
       -1   -1    0    0    0  501  0.00000000000E+00  0.00000000000E+00  0.47570057251E+03  0.47570057254E+03  0.50400001928E-02 0. -1.
        1   -1    0    0  501    0  0.00000000000E+00  0.00000000000E+00 -0.21021300153E+04  0.21021300153E+04  0.50400001928E-02 0.  1.
    10030    2    1    2    0    0  0.00000000000E+00  0.00000000000E+00 -0.16264294428E+04  0.25778305879E+04  0.19999844518E+04 0.  0.
        5    1    3    3  502    0 -0.50500358762E+02 -0.61884885688E+03  0.19712364702E+03  0.65146298138E+03  0.46999998093E+01 0. -1.
       -5    1    3    3    0  502  0.50500358762E+02  0.61884885688E+03 -0.18235530898E+04  0.19263676065E+04  0.46999998093E+01 0.  1.
</event>
<event>
 5   0  0.2859625E-05  0.2005424E+04  0.7818609E-02  0.8604089E-01
       -3   -1    0    0    0  501  0.00000000000E+00  0.00000000000E+00  0.16720034896E+04  0.16720034927E+04  0.10100000352E+00 0.  1.
        3   -1    0    0  501    0  0.00000000000E+00  0.00000000000E+00 -0.60133339814E+03  0.60133340662E+03  0.10100000352E+00 0. -1.
    10030    2    1    2    0    0  0.00000000000E+00  0.00000000000E+00  0.10706700915E+04  0.22733368993E+04  0.20054241977E+04 0.  0.
        4    1    3    3  502    0 -0.72008581699E+03  0.58705105813E+03  0.10774702639E+03  0.93528795741E+03  0.12699999809E+01 0. -1.
       -4    1    3    3    0  502  0.72008581699E+03 -0.58705105813E+03  0.96292306511E+03  0.13380489419E+04  0.12699999809E+01 0.  1.
</event>
<event>
 5   0  0.7935008E-05  0.2005763E+04  0.7818609E-02  0.8603931E-01
        2   -1    0    0  501    0  0.00000000000E+00  0.00000000000E+00  0.18447461676E+04  0.18447461676E+04  0.25500000920E-02 0.  1.
       -2   -1    0    0    0  501  0.00000000000E+00  0.00000000000E+00 -0.54520823790E+03  0.54520823790E+03  0.25500000920E-02 0. -1.
    10030    2    1    2    0    0  0.00000000000E+00  0.00000000000E+00  0.12995379297E+04  0.23899544055E+04  0.20057625058E+04 0.  0.
        3    1    3    3  502    0 -0.99104457747E+03 -0.17528367503E+02  0.46791030025E+03  0.10960915370E+04  0.10100000352E+00 0.  1.
       -3    1    3    3    0  502  0.99104457747E+03  0.17528367503E+02  0.83162762943E+03  0.12938628685E+04  0.10100000352E+00 0. -1.
</event>
<event>
 5   0  0.7935008E-05  0.2009210E+04  0.7818609E-02  0.8602327E-01
       -2   -1    0    0    0  501  0.00000000000E+00  0.00000000000E+00  0.53801650994E+03  0.53801650994E+03  0.25500000920E-02 0. -1.
        2   -1    0    0  501    0  0.00000000000E+00  0.00000000000E+00 -0.18758377940E+04  0.18758377940E+04  0.25500000920E-02 0.  1.
    10030    2    1    2    0    0  0.00000000000E+00  0.00000000000E+00 -0.13378212841E+04  0.24138543039E+04  0.20092104948E+04 0.  0.
        3    1    3    3  502    0 -0.35944215207E+03  0.84021349516E+03 -0.16766228456E+03  0.92912218250E+03  0.10100000352E+00 0. -1.
       -3    1    3    3    0  502  0.35944215207E+03 -0.84021349516E+03 -0.11701589995E+04  0.14847321214E+04  0.10100000352E+00 0.  1.
</event>
<event>
 5   0  0.7857136E-05  0.2000874E+04  0.7818609E-02  0.8606212E-01
        2   -1    0    0  501    0  0.00000000000E+00  0.00000000000E+00  0.10260030690E+04  0.10260030690E+04  0.25500000920E-02 0. -1.
       -2   -1    0    0    0  501  0.00000000000E+00  0.00000000000E+00 -0.97550845015E+03  0.97550845015E+03  0.25500000920E-02 0.  1.
    10030    2    1    2    0    0  0.00000000000E+00  0.00000000000E+00  0.50494618813E+02  0.20015115191E+04  0.20008744725E+04 0.  0.
        4    1    3    3  502    0 -0.13573421574E+03 -0.37956377567E+03 -0.89067547814E+03  0.97764863698E+03  0.12699999809E+01 0.  1.
       -4    1    3    3    0  502  0.13573421574E+03  0.37956377567E+03  0.94117009695E+03  0.10238628821E+04  0.12699999809E+01 0. -1.
</event>
<event>
 5   0  0.7935008E-05  0.2024206E+04  0.7818609E-02  0.8595387E-01
       -2   -1    0    0    0  501  0.00000000000E+00  0.00000000000E+00  0.23417141969E+04  0.23417141969E+04  0.25500000920E-02 0. -1.
        2   -1    0    0  501    0  0.00000000000E+00  0.00000000000E+00 -0.43743685247E+03  0.43743685248E+03  0.25500000920E-02 0.  1.
    10030    2    1    2    0    0  0.00000000000E+00  0.00000000000E+00  0.19042773445E+04  0.27791510494E+04  0.20242056098E+04 0.  0.
        3    1    3    3  502    0 -0.20313196615E+03  0.64194430972E+03  0.19896060155E+04  0.21004492852E+04  0.10100000352E+00 0. -1.
       -3    1    3    3    0  502  0.20313196615E+03 -0.64194430972E+03 -0.85328671049E+02  0.67870176423E+03  0.10100000352E+00 0.  1.
</event>
<event>
 5   0  0.8022574E-05  0.1981632E+04  0.7818609E-02  0.8615257E-01
       -2   -1    0    0    0  501  0.00000000000E+00  0.00000000000E+00  0.92824231643E+03  0.92824231643E+03  0.25500000920E-02 0.  1.
        2   -1    0    0  501    0  0.00000000000E+00  0.00000000000E+00 -0.10576079032E+04  0.10576079032E+04  0.25500000920E-02 0. -1.
    10030    2    1    2    0    0  0.00000000000E+00  0.00000000000E+00 -0.12936558678E+03  0.19858502196E+04  0.19816320647E+04 0.  0.
        1    1    3    3  502    0 -0.69104734046E+03 -0.68892515773E+03 -0.23695599195E+03  0.10041476196E+04  0.50400001928E-02 0. -1.
       -1    1    3    3    0  502  0.69104734046E+03  0.68892515773E+03  0.10759040516E+03  0.98170260009E+03  0.50400001928E-02 0.  1.
</event>
<event>
 5   0  0.7935008E-05  0.2000628E+04  0.7818609E-02  0.8606327E-01
        2   -1    0    0  501    0  0.00000000000E+00  0.00000000000E+00  0.18039070080E+04  0.18039070080E+04  0.25500000920E-02 0. -1.
       -2   -1    0    0    0  501  0.00000000000E+00  0.00000000000E+00 -0.55470024605E+03  0.55470024606E+03  0.25500000920E-02 0.  1.
    10030    2    1    2    0    0  0.00000000000E+00  0.00000000000E+00  0.12492067620E+04  0.23586072541E+04  0.20006275628E+04 0.  0.
        3    1    3    3  502    0 -0.46496996478E+03 -0.70053137103E+03 -0.14294262041E+02  0.84091950036E+03  0.10100000352E+00 0.  1.
       -3    1    3    3    0  502  0.46496996478E+03  0.70053137103E+03  0.12635010240E+04  0.15176877537E+04  0.10100000352E+00 0. -1.
</event>
<event>
 5   0  0.8011197E-05  0.2046879E+04  0.7818609E-02  0.8585011E-01
        2   -1    0    0  501    0  0.00000000000E+00  0.00000000000E+00  0.21311602912E+04  0.21311602912E+04  0.25500000920E-02 0. -1.
       -2   -1    0    0    0  501  0.00000000000E+00  0.00000000000E+00 -0.49148283341E+03  0.49148283342E+03  0.25500000920E-02 0.  1.
    10030    2    1    2    0    0  0.00000000000E+00  0.00000000000E+00  0.16396774578E+04  0.26226431247E+04  0.20468792816E+04 0.  0.
        5    1    3    3  502    0 -0.14501819454E+03 -0.53672460032E+03 -0.28110290319E+03  0.62301244411E+03  0.46999998093E+01 0.  1.
       -5    1    3    3    0  502  0.14501819454E+03  0.53672460032E+03  0.19207803610E+04  0.19996306806E+04  0.46999998093E+01 0. -1.
</event>
<event>
 5   0  0.3970042E-05  0.2028104E+04  0.7818609E-02  0.8593593E-01
        1   -1    0    0  501    0  0.00000000000E+00  0.00000000000E+00  0.94517676634E+03  0.94517676635E+03  0.50400001928E-02 0. -1.
       -1   -1    0    0    0  501  0.00000000000E+00  0.00000000000E+00 -0.10879463192E+04  0.10879463192E+04  0.50400001928E-02 0.  1.
    10030    2    1    2    0    0  0.00000000000E+00  0.00000000000E+00 -0.14276955289E+03  0.20331230856E+04  0.20281041235E+04 0.  0.
        3    1    3    3  502    0 -0.18667251913E+03 -0.90129567415E+03 -0.49802116049E+03  0.10465207156E+04  0.10100000352E+00 0. -1.
       -3    1    3    3    0  502  0.18667251913E+03  0.90129567415E+03  0.35525160760E+03  0.98660237002E+03  0.10100000352E+00 0.  1.
</event>
<event>
 5   0  0.3818907E-05  0.1994826E+04  0.7818609E-02  0.8609044E-01
       -1   -1    0    0    0  501  0.00000000000E+00  0.00000000000E+00  0.96290921292E+03  0.96290921294E+03  0.50400001928E-02 0.  1.
        1   -1    0    0  501    0  0.00000000000E+00  0.00000000000E+00 -0.10331530366E+04  0.10331530366E+04  0.50400001928E-02 0. -1.
    10030    2    1    2    0    0  0.00000000000E+00  0.00000000000E+00 -0.70243823645E+02  0.19960622495E+04  0.19948258844E+04 0.  0.
        1    1    3    3  502    0 -0.12862844174E+03 -0.98583743460E+03 -0.11524559252E+03  0.10008507731E+04  0.50400001928E-02 0. -1.
       -1    1    3    3    0  502  0.12862844174E+03  0.98583743460E+03  0.45001768874E+02  0.99521147637E+03  0.50400001928E-02 0.  1.
</event>
<event>
 5   0  0.3970042E-05  0.1987310E+04  0.7818609E-02  0.8612577E-01
        1   -1    0    0  501    0  0.00000000000E+00  0.00000000000E+00  0.81928417914E+03  0.81928417916E+03  0.50400001928E-02 0. -1.
       -1   -1    0    0    0  501  0.00000000000E+00  0.00000000000E+00 -0.12051374579E+04  0.12051374579E+04  0.50400001928E-02 0.  1.
    10030    2    1    2    0    0  0.00000000000E+00  0.00000000000E+00 -0.38585327874E+03  0.20244216370E+04  0.19873097926E+04 0.  0.
        3    1    3    3  502    0 -0.36332944309E+03 -0.71602754290E+03  0.40336460367E+03  0.89855814509E+03  0.10100000352E+00 0. -1.
       -3    1    3    3    0  502  0.36332944309E+03  0.71602754290E+03 -0.78921788241E+03  0.11258634920E+04  0.10100000352E+00 0.  1.
</event>
<event>
 5   0  0.3818907E-05  0.1948030E+04  0.7818609E-02  0.8631311E-01
       -1   -1    0    0    0  501  0.00000000000E+00  0.00000000000E+00  0.58595230042E+03  0.58595230044E+03  0.50400001928E-02 0.  1.
        1   -1    0    0  501    0  0.00000000000E+00  0.00000000000E+00 -0.16190827829E+04  0.16190827829E+04  0.50400001928E-02 0. -1.
    10030    2    1    2    0    0  0.00000000000E+00  0.00000000000E+00 -0.10331304824E+04  0.22050350833E+04  0.19480300626E+04 0.  0.
        1    1    3    3  502    0  0.62855665590E+03  0.59108826803E+03 -0.50171155723E+01  0.86284064679E+03  0.50400001928E-02 0.  1.
       -1    1    3    3    0  502 -0.62855665590E+03 -0.59108826803E+03 -0.10281133669E+04  0.13421944365E+04  0.50400001928E-02 0. -1.
</event>
<event>
 5   0  0.3787698E-05  0.2008319E+04  0.7818609E-02  0.8602741E-01
        1   -1    0    0  501    0  0.00000000000E+00  0.00000000000E+00  0.10441531418E+04  0.10441531418E+04  0.50400001928E-02 0. -1.
       -1   -1    0    0    0  501  0.00000000000E+00  0.00000000000E+00 -0.96569734318E+03  0.96569734320E+03  0.50400001928E-02 0.  1.
    10030    2    1    2    0    0  0.00000000000E+00  0.00000000000E+00  0.78455798578E+02  0.20098504850E+04  0.20083186151E+04 0.  0.
        4    1    3    3  502    0 -0.67477958242E+03 -0.50115559448E+03  0.58905563811E+03  0.10263881198E+04  0.12699999809E+01 0. -1.
       -4    1    3    3    0  502  0.67477958242E+03  0.50115559448E+03 -0.51059983953E+03  0.98346236520E+03  0.12699999809E+01 0.  1.
</event>
<event>
 5   0  0.7857136E-05  0.2000177E+04  0.7818609E-02  0.8606538E-01
        2   -1    0    0  501    0  0.00000000000E+00  0.00000000000E+00  0.14390236363E+04  0.14390236363E+04  0.25500000920E-02 0. -1.
       -2   -1    0    0    0  501  0.00000000000E+00  0.00000000000E+00 -0.69503867301E+03  0.69503867301E+03  0.25500000920E-02 0.  1.
    10030    2    1    2    0    0  0.00000000000E+00  0.00000000000E+00  0.74398496331E+03  0.21340623093E+04  0.20001770708E+04 0.  0.
        4    1    3    3  502    0 -0.34244734288E+03 -0.32405836289E+03 -0.56902600022E+03  0.73896969290E+03  0.12699999809E+01 0.  1.
       -4    1    3    3    0  502  0.34244734288E+03  0.32405836289E+03  0.13130109635E+04  0.13950926164E+04  0.12699999809E+01 0. -1.
</event>
<event>
 5   0  0.8011197E-05  0.1999054E+04  0.7818609E-02  0.8607063E-01
        2   -1    0    0  501    0  0.00000000000E+00  0.00000000000E+00  0.20315641656E+04  0.20315641656E+04  0.25500000920E-02 0. -1.
       -2   -1    0    0    0  501  0.00000000000E+00  0.00000000000E+00 -0.49176612037E+03  0.49176612038E+03  0.25500000920E-02 0.  1.
    10030    2    1    2    0    0  0.00000000000E+00  0.00000000000E+00  0.15397980453E+04  0.25233302860E+04  0.19990542044E+04 0.  0.
        5    1    3    3  502    0  0.45297999417E+03  0.73492985856E+03  0.13409025860E+03  0.87367903693E+03  0.46999998093E+01 0. -1.
       -5    1    3    3    0  502 -0.45297999417E+03 -0.73492985856E+03  0.14057077867E+04  0.16496512491E+04  0.46999998093E+01 0.  1.
</event>
<event>
 5   0  0.3818907E-05  0.1977649E+04  0.7818609E-02  0.8617142E-01
       -1   -1    0    0    0  501  0.00000000000E+00  0.00000000000E+00  0.75261127150E+03  0.75261127151E+03  0.50400001928E-02 0.  1.
        1   -1    0    0  501    0  0.00000000000E+00  0.00000000000E+00 -0.12991758091E+04  0.12991758091E+04  0.50400001928E-02 0. -1.
    10030    2    1    2    0    0  0.00000000000E+00  0.00000000000E+00 -0.54656453763E+03  0.20517870807E+04  0.19776494711E+04 0.  0.
        1    1    3    3  502    0  0.26655927013E+03 -0.50528819836E+03  0.56407019118E+03  0.80283571700E+03  0.50400001928E-02 0.  1.
       -1    1    3    3    0  502 -0.26655927013E+03  0.50528819836E+03 -0.11106347288E+04  0.12489513636E+04  0.50400001928E-02 0. -1.
</event>
<event>
 5   0  0.7935008E-05  0.2015664E+04  0.7818609E-02  0.8599332E-01
        2   -1    0    0  501    0  0.00000000000E+00  0.00000000000E+00  0.12217930070E+04  0.12217930070E+04  0.25500000920E-02 0. -1.
       -2   -1    0    0    0  501  0.00000000000E+00  0.00000000000E+00 -0.83133969358E+03  0.83133969358E+03  0.25500000920E-02 0.  1.
    10030    2    1    2    0    0  0.00000000000E+00  0.00000000000E+00  0.39045331346E+03  0.20531327006E+04  0.20156636863E+04 0.  0.
        3    1    3    3  502    0  0.90472411725E+03 -0.11099757318E+03 -0.24274149824E+03  0.94327601197E+03  0.10100000352E+00 0.  1.
       -3    1    3    3    0  502 -0.90472411725E+03  0.11099757318E+03  0.63319481170E+03  0.11098566887E+04  0.10100000352E+00 0. -1.
</event>
<event>
 5   0  0.8022574E-05  0.2004758E+04  0.7818609E-02  0.8604399E-01
        2   -1    0    0  501    0  0.00000000000E+00  0.00000000000E+00  0.10672515250E+04  0.10672515250E+04  0.25500000920E-02 0.  1.
       -2   -1    0    0    0  501  0.00000000000E+00  0.00000000000E+00 -0.94144962026E+03  0.94144962026E+03  0.25500000920E-02 0. -1.
    10030    2    1    2    0    0  0.00000000000E+00  0.00000000000E+00  0.12580190474E+03  0.20087011453E+04  0.20047578836E+04 0.  0.
        1    1    3    3  502    0 -0.72965402357E+03 -0.25842799832E+03  0.70100800760E+03  0.10443142492E+04  0.50400001928E-02 0.  1.
       -1    1    3    3    0  502  0.72965402357E+03  0.25842799832E+03 -0.57520610286E+03  0.96438689602E+03  0.50400001928E-02 0. -1.
</event>
<event>
 5   0  0.7843846E-05  0.1989137E+04  0.7818609E-02  0.8611716E-01
       -2   -1    0    0    0  501  0.00000000000E+00  0.00000000000E+00  0.67908857993E+03  0.67908857993E+03  0.25500000920E-02 0. -1.
        2   -1    0    0  501    0  0.00000000000E+00  0.00000000000E+00 -0.14566087030E+04  0.14566087030E+04  0.25500000920E-02 0.  1.
    10030    2    1    2    0    0  0.00000000000E+00  0.00000000000E+00 -0.77752012302E+03  0.21356972829E+04  0.19891368335E+04 0.  0.
        2    1    3    3  502    0 -0.73382022071E+03  0.52284862517E+03 -0.84085925494E+03  0.12324394865E+04  0.25500000920E-02 0.  1.
       -2    1    3    3    0  502  0.73382022071E+03 -0.52284862517E+03  0.63339131918E+02  0.90325779643E+03  0.25500000920E-02 0. -1.
</event>
<event>
 5   0  0.2859625E-05  0.1975847E+04  0.7818609E-02  0.8617997E-01
        4   -1    0    0  501    0  0.00000000000E+00  0.00000000000E+00  0.15340703823E+04  0.15340709080E+04  0.12699999809E+01 0. -1.
       -4   -1    0    0    0  501  0.00000000000E+00  0.00000000000E+00 -0.63621020797E+03  0.63621147555E+03  0.12699999809E+01 0.  1.
    10030    2    1    2    0    0  0.00000000000E+00  0.00000000000E+00  0.89786017437E+03  0.21702823836E+04  0.19758473453E+04 0.  0.
        5    1    3    3  502    0 -0.71508463362E+02  0.31829744505E+03 -0.57532641815E+03  0.66139950203E+03  0.46999998093E+01 0.  1.
       -5    1    3    3    0  502  0.71508463362E+02 -0.31829744505E+03  0.14731865925E+04  0.15088828816E+04  0.46999998093E+01 0. -1.
</event>
<event>
 5   0  0.3787698E-05  0.2006048E+04  0.7818609E-02  0.8603798E-01
        1   -1    0    0  501    0  0.00000000000E+00  0.00000000000E+00  0.14542422547E+04  0.14542422547E+04  0.50400001928E-02 0.  1.
       -1   -1    0    0    0  501  0.00000000000E+00  0.00000000000E+00 -0.69180876050E+03  0.69180876052E+03  0.50400001928E-02 0. -1.
    10030    2    1    2    0    0  0.00000000000E+00  0.00000000000E+00  0.76243349417E+03  0.21460510152E+04  0.20060483860E+04 0.  0.
        4    1    3    3  502    0  0.44337946870E+03 -0.12798915579E+03 -0.57149099465E+03  0.73455438677E+03  0.12699999809E+01 0. -1.
       -4    1    3    3    0  502 -0.44337946870E+03  0.12798915579E+03  0.13339244888E+04  0.14114966284E+04  0.12699999809E+01 0.  1.
</event>
<event>
 5   0  0.8011197E-05  0.1996689E+04  0.7818609E-02  0.8608170E-01
       -2   -1    0    0    0  501  0.00000000000E+00  0.00000000000E+00  0.10115196004E+04  0.10115196004E+04  0.25500000920E-02 0. -1.
        2   -1    0    0  501    0  0.00000000000E+00  0.00000000000E+00 -0.98534100956E+03  0.98534100956E+03  0.25500000920E-02 0.  1.
    10030    2    1    2    0    0  0.00000000000E+00  0.00000000000E+00  0.26178590799E+02  0.19968606099E+04  0.19966890035E+04 0.  0.
        5    1    3    3  502    0 -0.55661677132E+03 -0.59227889462E+03  0.59284001947E+03  0.10060307638E+04  0.46999998093E+01 0. -1.
       -5    1    3    3    0  502  0.55661677132E+03  0.59227889462E+03 -0.56666142867E+03  0.99082984607E+03  0.46999998093E+01 0.  1.
</event>
<event>
 5   0  0.2859625E-05  0.1987882E+04  0.7818609E-02  0.8612307E-01
        4   -1    0    0  501    0  0.00000000000E+00  0.00000000000E+00  0.73519221982E+03  0.73519331674E+03  0.12699999809E+01 0.  1.
       -4   -1    0    0    0  501  0.00000000000E+00  0.00000000000E+00 -0.13437538822E+04  0.13437544824E+04  0.12699999809E+01 0. -1.
    10030    2    1    2    0    0  0.00000000000E+00  0.00000000000E+00 -0.60856166242E+03  0.20789477991E+04  0.19878824549E+04 0.  0.
        4    1    3    3  502    0  0.59368173875E+03  0.74348017860E+03 -0.60502495597E+03  0.11275094648E+04  0.12699999809E+01 0. -1.
       -4    1    3    3    0  502 -0.59368173875E+03 -0.74348017860E+03 -0.35367064541E+01  0.95143833436E+03  0.12699999809E+01 0.  1.
</event>
<event>
 5   0  0.3549426E-05  0.1999590E+04  0.7818609E-02  0.8606812E-01
        1   -1    0    0  501    0  0.00000000000E+00  0.00000000000E+00  0.17730894173E+04  0.17730894173E+04  0.50400001928E-02 0. -1.
       -1   -1    0    0    0  501  0.00000000000E+00  0.00000000000E+00 -0.56375598887E+03  0.56375598889E+03  0.50400001928E-02 0.  1.
    10030    2    1    2    0    0  0.00000000000E+00  0.00000000000E+00  0.12093334284E+04  0.23368454062E+04  0.19995897357E+04 0.  0.
        5    1    3    3  502    0  0.78048861118E+03 -0.59754440999E+03  0.39125892595E+03  0.10579827178E+04  0.46999998093E+01 0. -1.
       -5    1    3    3    0  502 -0.78048861118E+03  0.59754440999E+03  0.81807450247E+03  0.12788626884E+04  0.46999998093E+01 0.  1.
</event>
<event>
 5   0  0.3787698E-05  0.1999776E+04  0.7818609E-02  0.8606725E-01
        1   -1    0    0  501    0  0.00000000000E+00  0.00000000000E+00  0.20830904001E+04  0.20830904001E+04  0.50400001928E-02 0. -1.
       -1   -1    0    0    0  501  0.00000000000E+00  0.00000000000E+00 -0.47994842961E+03  0.47994842964E+03  0.50400001928E-02 0.  1.
    10030    2    1    2    0    0  0.00000000000E+00  0.00000000000E+00  0.16031419705E+04  0.25630388298E+04  0.19997759538E+04 0.  0.
        4    1    3    3  502    0 -0.75642112950E+03 -0.56628635068E+03  0.12206594918E+04  0.15436529286E+04  0.12699999809E+01 0. -1.
       -4    1    3    3    0  502  0.75642112950E+03  0.56628635068E+03  0.38248247871E+03  0.10193859012E+04  0.12699999809E+01 0.  1.
</event>
<event>
 5   0  0.3970042E-05  0.2001992E+04  0.7818609E-02  0.8605690E-01
        1   -1    0    0  501    0  0.00000000000E+00  0.00000000000E+00  0.12208259280E+04  0.12208259280E+04  0.50400001928E-02 0.  1.
       -1   -1    0    0    0  501  0.00000000000E+00  0.00000000000E+00 -0.82074991928E+03  0.82074991930E+03  0.50400001928E-02 0. -1.
    10030    2    1    2    0    0  0.00000000000E+00  0.00000000000E+00  0.40007600871E+03  0.20415758473E+04  0.20019917901E+04 0.  0.
        3    1    3    3  502    0 -0.47893194198E+03 -0.48390027664E+03 -0.54826749654E+03  0.87414675012E+03  0.10100000352E+00 0. -1.
       -3    1    3    3    0  502  0.47893194198E+03  0.48390027664E+03  0.94834350525E+03  0.11674290972E+04  0.10100000352E+00 0.  1.
</event>
<event>
 5   0  0.3549426E-05  0.1997620E+04  0.7818609E-02  0.8607734E-01
        1   -1    0    0  501    0  0.00000000000E+00  0.00000000000E+00  0.17199011181E+04  0.17199011181E+04  0.50400001928E-02 0.  1.
       -1   -1    0    0    0  501  0.00000000000E+00  0.00000000000E+00 -0.58004560260E+03  0.58004560262E+03  0.50400001928E-02 0. -1.
    10030    2    1    2    0    0  0.00000000000E+00  0.00000000000E+00  0.11398555155E+04  0.22999467208E+04  0.19976196640E+04 0.  0.
        5    1    3    3  502    0  0.22853135481E+03 -0.81397863457E+03  0.11822122612E+04  0.14534220716E+04  0.46999998093E+01 0.  1.
       -5    1    3    3    0  502 -0.22853135481E+03  0.81397863457E+03 -0.42356745717E+02  0.84652464912E+03  0.46999998093E+01 0. -1.
</event>
<event>
 5   0  0.3818907E-05  0.2003888E+04  0.7818609E-02  0.8604805E-01
       -1   -1    0    0    0  501  0.00000000000E+00  0.00000000000E+00  0.60110538849E+03  0.60110538851E+03  0.50400001928E-02 0. -1.
        1   -1    0    0  501    0  0.00000000000E+00  0.00000000000E+00 -0.16700754399E+04  0.16700754399E+04  0.50400001928E-02 0.  1.
    10030    2    1    2    0    0  0.00000000000E+00  0.00000000000E+00 -0.10689700515E+04  0.22711808285E+04  0.20038875679E+04 0.  0.
        1    1    3    3  502    0 -0.68530834893E+03  0.35137755271E+03  0.19192487407E+03  0.79369318693E+03  0.50400001928E-02 0. -1.
       -1    1    3    3    0  502  0.68530834893E+03 -0.35137755271E+03 -0.12608949255E+04  0.14774876415E+04  0.50400001928E-02 0.  1.
</event>
<event>
 5   0  0.2859625E-05  0.1997180E+04  0.7818609E-02  0.8607940E-01
        3   -1    0    0  501    0  0.00000000000E+00  0.00000000000E+00  0.61738600996E+03  0.61738601822E+03  0.10100000352E+00 0.  1.
       -3   -1    0    0    0  501  0.00000000000E+00  0.00000000000E+00 -0.16151680943E+04  0.16151680974E+04  0.10100000352E+00 0. -1.
    10030    2    1    2    0    0  0.00000000000E+00  0.00000000000E+00 -0.99778208429E+03  0.22325541156E+04  0.19971802101E+04 0.  0.
        4    1    3    3  502    0 -0.15219278785E+03 -0.77458627188E+03 -0.11825512603E+04  0.14218212382E+04  0.12699999809E+01 0. -1.
       -4    1    3    3    0  502  0.15219278785E+03  0.77458627188E+03  0.18476917600E+03  0.81073287744E+03  0.12699999809E+01 0.  1.
</event>
<event>
 5   0  0.8022574E-05  0.1997433E+04  0.7818609E-02  0.8607822E-01
       -2   -1    0    0    0  501  0.00000000000E+00  0.00000000000E+00  0.83684518399E+03  0.83684518399E+03  0.25500000920E-02 0. -1.
        2   -1    0    0  501    0  0.00000000000E+00  0.00000000000E+00 -0.11918981639E+04  0.11918981639E+04  0.25500000920E-02 0.  1.
    10030    2    1    2    0    0  0.00000000000E+00  0.00000000000E+00 -0.35505297988E+03  0.20287433479E+04  0.19974325903E+04 0.  0.
        1    1    3    3  502    0 -0.45712179957E+03  0.25126043606E+02  0.72399213178E+03  0.85659574165E+03  0.50400001928E-02 0. -1.
       -1    1    3    3    0  502  0.45712179957E+03 -0.25126043606E+02 -0.10790451117E+04  0.11721476062E+04  0.50400001928E-02 0.  1.
</event>
<event>
 5   0  0.3818907E-05  0.2023339E+04  0.7818609E-02  0.8595786E-01
        1   -1    0    0  501    0  0.00000000000E+00  0.00000000000E+00  0.18848224593E+04  0.18848224593E+04  0.50400001928E-02 0. -1.
       -1   -1    0    0    0  501  0.00000000000E+00  0.00000000000E+00 -0.54300889085E+03  0.54300889087E+03  0.50400001928E-02 0.  1.
    10030    2    1    2    0    0  0.00000000000E+00  0.00000000000E+00  0.13418135685E+04  0.24278313502E+04  0.20233391739E+04 0.  0.
        1    1    3    3  502    0  0.53521975483E+03 -0.78233015712E+03  0.10950972113E+04  0.14483571945E+04  0.50400001928E-02 0.  1.
       -1    1    3    3    0  502 -0.53521975483E+03  0.78233015712E+03  0.24671635715E+03  0.97947415566E+03  0.50400001928E-02 0. -1.
</event>
<event>
 5   0  0.7857136E-05  0.1984202E+04  0.7818609E-02  0.8614043E-01
       -2   -1    0    0    0  501  0.00000000000E+00  0.00000000000E+00  0.50670893636E+03  0.50670893637E+03  0.25500000920E-02 0.  1.
        2   -1    0    0  501    0  0.00000000000E+00  0.00000000000E+00 -0.19424640654E+04  0.19424640654E+04  0.25500000920E-02 0. -1.
    10030    2    1    2    0    0  0.00000000000E+00  0.00000000000E+00 -0.14357551291E+04  0.24491730018E+04  0.19842015024E+04 0.  0.
        4    1    3    3  502    0  0.12164291552E+03  0.15132882232E+02  0.49732456334E+03  0.51221024709E+03  0.12699999809E+01 0.  1.
       -4    1    3    3    0  502 -0.12164291552E+03 -0.15132882232E+02 -0.19330796924E+04  0.19369627547E+04  0.12699999809E+01 0. -1.
</event>
<event>
 5   0  0.8011197E-05  0.2001156E+04  0.7818609E-02  0.8606080E-01
        2   -1    0    0  501    0  0.00000000000E+00  0.00000000000E+00  0.14565509680E+04  0.14565509680E+04  0.25500000920E-02 0.  1.
       -2   -1    0    0    0  501  0.00000000000E+00  0.00000000000E+00 -0.68734748467E+03  0.68734748467E+03  0.25500000920E-02 0. -1.
    10030    2    1    2    0    0  0.00000000000E+00  0.00000000000E+00  0.76920348332E+03  0.21438984527E+04  0.20011563099E+04 0.  0.
        5    1    3    3  502    0 -0.21616660920E+03 -0.96867612426E+03  0.52042472265E+03  0.11206807835E+04  0.46999998093E+01 0.  1.
       -5    1    3    3    0  502  0.21616660920E+03  0.96867612426E+03  0.24877876067E+03  0.10232176691E+04  0.46999998093E+01 0. -1.
</event>
<event>
 5   0  0.3772949E-05  0.1988467E+04  0.7818609E-02  0.8612032E-01
        1   -1    0    0  501    0  0.00000000000E+00  0.00000000000E+00  0.63920663312E+03  0.63920663314E+03  0.50400001928E-02 0.  1.
       -1   -1    0    0    0  501  0.00000000000E+00  0.00000000000E+00 -0.15464479552E+04  0.15464479552E+04  0.50400001928E-02 0. -1.
    10030    2    1    2    0    0  0.00000000000E+00  0.00000000000E+00 -0.90724132206E+03  0.21856545883E+04  0.19884665355E+04 0.  0.
        2    1    3    3  502    0 -0.29047721693E+03 -0.91735762766E+03 -0.17865829915E+03  0.97869342413E+03  0.25500000920E-02 0.  1.
       -2    1    3    3    0  502  0.29047721693E+03  0.91735762766E+03 -0.72858302291E+03  0.12069611642E+04  0.25500000920E-02 0. -1.
</event>
<event>
 5   0  0.3818907E-05  0.2041605E+04  0.7818609E-02  0.8587412E-01
        1   -1    0    0  501    0  0.00000000000E+00  0.00000000000E+00  0.66707023954E+03  0.66707023956E+03  0.50400001928E-02 0. -1.
       -1   -1    0    0    0  501  0.00000000000E+00  0.00000000000E+00 -0.15621107548E+04  0.15621107548E+04  0.50400001928E-02 0.  1.
    10030    2    1    2    0    0  0.00000000000E+00  0.00000000000E+00 -0.89504051524E+03  0.22291809944E+04  0.20416048544E+04 0.  0.
        1    1    3    3  502    0 -0.75086786428E+03 -0.62338636416E+03 -0.77439922913E+03  0.12458359742E+04  0.50400001928E-02 0.  1.
       -1    1    3    3    0  502  0.75086786428E+03  0.62338636416E+03 -0.12064128612E+03  0.98334502011E+03  0.50400001928E-02 0. -1.
</event>
<event>
 5   0  0.7843846E-05  0.1982638E+04  0.7818609E-02  0.8614781E-01
       -2   -1    0    0    0  501  0.00000000000E+00  0.00000000000E+00  0.10760821437E+04  0.10760821437E+04  0.25500000920E-02 0.  1.
        2   -1    0    0  501    0  0.00000000000E+00  0.00000000000E+00 -0.91323242430E+03  0.91323242431E+03  0.25500000920E-02 0. -1.
    10030    2    1    2    0    0  0.00000000000E+00  0.00000000000E+00  0.16284971941E+03  0.19893145680E+04  0.19826377429E+04 0.  0.
        2    1    3    3  502    0 -0.36862018784E+03  0.91042220031E+03  0.21590487143E+03  0.10056661172E+04  0.25500000920E-02 0.  1.
       -2    1    3    3    0  502  0.36862018784E+03 -0.91042220031E+03 -0.53055152017E+02  0.98364845086E+03  0.25500000920E-02 0. -1.
</event>
<event>
 5   0  0.3970042E-05  0.1987937E+04  0.7818609E-02  0.8612281E-01
        1   -1    0    0  501    0  0.00000000000E+00  0.00000000000E+00  0.13531114447E+04  0.13531114447E+04  0.50400001928E-02 0. -1.
       -1   -1    0    0    0  501  0.00000000000E+00  0.00000000000E+00 -0.73014947435E+03  0.73014947437E+03  0.50400001928E-02 0.  1.
    10030    2    1    2    0    0  0.00000000000E+00  0.00000000000E+00  0.62296197035E+03  0.20832609191E+04  0.19879372325E+04 0.  0.
        3    1    3    3  502    0  0.61295972129E+03  0.75586326971E+02  0.11276328335E+04  0.12856860931E+04  0.10100000352E+00 0. -1.
       -3    1    3    3    0  502 -0.61295972129E+03 -0.75586326971E+02 -0.50467086310E+03  0.79757482597E+03  0.10100000352E+00 0.  1.
</event>
<event>
 5   0  0.3970042E-05  0.2043096E+04  0.7818609E-02  0.8586733E-01
        1   -1    0    0  501    0  0.00000000000E+00  0.00000000000E+00  0.88795502338E+03  0.88795502340E+03  0.50400001928E-02 0.  1.
       -1   -1    0    0    0  501  0.00000000000E+00  0.00000000000E+00 -0.11752404073E+04  0.11752404073E+04  0.50400001928E-02 0. -1.
    10030    2    1    2    0    0  0.00000000000E+00  0.00000000000E+00 -0.28728538394E+03  0.20631954307E+04  0.20430963006E+04 0.  0.
        3    1    3    3  502    0  0.75825942136E+03 -0.62814192566E+01  0.54760851025E+03  0.93534587026E+03  0.10100000352E+00 0.  1.
       -3    1    3    3    0  502 -0.75825942136E+03  0.62814192566E+01 -0.83489389419E+03  0.11278495605E+04  0.10100000352E+00 0. -1.
</event>
<event>
 5   0  0.7843846E-05  0.2001614E+04  0.7818609E-02  0.8605867E-01
        2   -1    0    0  501    0  0.00000000000E+00  0.00000000000E+00  0.14641976971E+04  0.14641976971E+04  0.25500000920E-02 0. -1.
       -2   -1    0    0    0  501  0.00000000000E+00  0.00000000000E+00 -0.68407048841E+03  0.68407048841E+03  0.25500000920E-02 0.  1.
    10030    2    1    2    0    0  0.00000000000E+00  0.00000000000E+00  0.78012720865E+03  0.21482681855E+04  0.20016137827E+04 0.  0.
        2    1    3    3  502    0 -0.27513526270E+03 -0.93373992733E+03  0.14055527581E+03  0.98352704601E+03  0.25500000920E-02 0.  1.
       -2    1    3    3    0  502  0.27513526270E+03  0.93373992733E+03  0.63957193285E+03  0.11647411395E+04  0.25500000920E-02 0. -1.
</event>
<event>
 5   0  0.3549426E-05  0.1975625E+04  0.7818609E-02  0.8618102E-01
        1   -1    0    0  501    0  0.00000000000E+00  0.00000000000E+00  0.11852880000E+04  0.11852880000E+04  0.50400001928E-02 0.  1.
       -1   -1    0    0    0  501  0.00000000000E+00  0.00000000000E+00 -0.82323764787E+03  0.82323764788E+03  0.50400001928E-02 0. -1.
    10030    2    1    2    0    0  0.00000000000E+00  0.00000000000E+00  0.36205035217E+03  0.20085256479E+04  0.19756251722E+04 0.  0.
        5    1    3    3  502    0  0.80162750558E+03  0.17355860782E+03  0.74066701386E+03  0.11051420558E+04  0.46999998093E+01 0.  1.
       -5    1    3    3    0  502 -0.80162750558E+03 -0.17355860782E+03 -0.37861666169E+03  0.90338359214E+03  0.46999998093E+01 0. -1.
</event>
<event>
 5   0  0.7935008E-05  0.1948333E+04  0.7818609E-02  0.8631165E-01
       -2   -1    0    0    0  501  0.00000000000E+00  0.00000000000E+00  0.98383137614E+03  0.98383137614E+03  0.25500000920E-02 0.  1.
        2   -1    0    0  501    0  0.00000000000E+00  0.00000000000E+00 -0.96459686222E+03  0.96459686222E+03  0.25500000920E-02 0. -1.
    10030    2    1    2    0    0  0.00000000000E+00  0.00000000000E+00  0.19234513920E+02  0.19484282384E+04  0.19483332963E+04 0.  0.
        3    1    3    3  502    0  0.43872644460E+03  0.19898959978E+03  0.85637151116E+03  0.98257311654E+03  0.10100000352E+00 0.  1.
       -3    1    3    3    0  502 -0.43872644460E+03 -0.19898959978E+03 -0.83713699724E+03  0.96585512183E+03  0.10100000352E+00 0. -1.
</event>
<event>
 5   0  0.7935008E-05  0.1992332E+04  0.7818609E-02  0.8610214E-01
       -2   -1    0    0    0  501  0.00000000000E+00  0.00000000000E+00  0.12619740379E+04  0.12619740379E+04  0.25500000920E-02 0. -1.
        2   -1    0    0  501    0  0.00000000000E+00  0.00000000000E+00 -0.78634468891E+03  0.78634468892E+03  0.25500000920E-02 0.  1.
    10030    2    1    2    0    0  0.00000000000E+00  0.00000000000E+00  0.47562934902E+03  0.20483187268E+04  0.19923318823E+04 0.  0.
        3    1    3    3  502    0  0.21131237617E+02 -0.58571447600E+03  0.10659554878E+04  0.12164575984E+04  0.10100000352E+00 0. -1.
       -3    1    3    3    0  502 -0.21131237617E+02  0.58571447600E+03 -0.59032613880E+03  0.83186112840E+03  0.10100000352E+00 0.  1.
</event>
<event>
 5   0  0.7843846E-05  0.1993162E+04  0.7818609E-02  0.8609825E-01
       -2   -1    0    0    0  501  0.00000000000E+00  0.00000000000E+00  0.81380337330E+03  0.81380337331E+03  0.25500000920E-02 0. -1.
        2   -1    0    0  501    0  0.00000000000E+00  0.00000000000E+00 -0.12204094022E+04  0.12204094022E+04  0.25500000920E-02 0.  1.
    10030    2    1    2    0    0  0.00000000000E+00  0.00000000000E+00 -0.40660602886E+03  0.20342127755E+04  0.19931615974E+04 0.  0.
        2    1    3    3  502    0 -0.86282368198E+03  0.44199618715E+03  0.32425839701E+02  0.96998802607E+03  0.25500000920E-02 0. -1.
       -2    1    3    3    0  502  0.86282368198E+03 -0.44199618715E+03 -0.43903186857E+03  0.10642247494E+04  0.25500000920E-02 0.  1.
</event>
<event>
 5   0  0.3787698E-05  0.1988776E+04  0.7818609E-02  0.8611886E-01
       -1   -1    0    0    0  501  0.00000000000E+00  0.00000000000E+00  0.11495079741E+04  0.11495079741E+04  0.50400001928E-02 0.  1.
        1   -1    0    0  501    0  0.00000000000E+00  0.00000000000E+00 -0.86020096711E+03  0.86020096713E+03  0.50400001928E-02 0. -1.
    10030    2    1    2    0    0  0.00000000000E+00  0.00000000000E+00  0.28930700699E+03  0.20097089412E+04  0.19887763786E+04 0.  0.
        4    1    3    3  502    0 -0.19464613323E+03  0.70852539969E+03  0.82171370548E+03  0.11023204552E+04  0.12699999809E+01 0.  1.
       -4    1    3    3    0  502  0.19464613323E+03 -0.70852539969E+03 -0.53240669848E+03  0.90738848609E+03  0.12699999809E+01 0. -1.
</event>
<event>
 5   0  0.8022574E-05  0.2010043E+04  0.7818609E-02  0.8601940E-01
        2   -1    0    0  501    0  0.00000000000E+00  0.00000000000E+00  0.21961590907E+04  0.21961590907E+04  0.25500000920E-02 0. -1.
       -2   -1    0    0    0  501  0.00000000000E+00  0.00000000000E+00 -0.45992481290E+03  0.45992481290E+03  0.25500000920E-02 0.  1.
    10030    2    1    2    0    0  0.00000000000E+00  0.00000000000E+00  0.17362342778E+04  0.26560839036E+04  0.20100428442E+04 0.  0.
        1    1    3    3  502    0 -0.25932163465E+03  0.67561227782E+02  0.21480792412E+04  0.21647301578E+04  0.50400001928E-02 0. -1.
       -1    1    3    3    0  502  0.25932163465E+03 -0.67561227782E+02 -0.41184496334E+03  0.49135374584E+03  0.50400001928E-02 0.  1.
</event>
<event>
 5   0  0.7843846E-05  0.1988924E+04  0.7818609E-02  0.8611817E-01
       -2   -1    0    0    0  501  0.00000000000E+00  0.00000000000E+00  0.66228702368E+03  0.66228702368E+03  0.25500000920E-02 0. -1.
        2   -1    0    0  501    0  0.00000000000E+00  0.00000000000E+00 -0.14932412593E+04  0.14932412593E+04  0.25500000920E-02 0.  1.
    10030    2    1    2    0    0  0.00000000000E+00  0.00000000000E+00 -0.83095423562E+03  0.21555282830E+04  0.19889236378E+04 0.  0.
        2    1    3    3  502    0  0.34238009213E+03  0.73870732648E+03 -0.10343082716E+04  0.13163230008E+04  0.25500000920E-02 0.  1.
       -2    1    3    3    0  502 -0.34238009213E+03 -0.73870732648E+03  0.20335403600E+03  0.83920528218E+03  0.25500000920E-02 0. -1.
</event>
<event>
 5   0  0.7857136E-05  0.1975796E+04  0.7818609E-02  0.8618021E-01
        2   -1    0    0  501    0  0.00000000000E+00  0.00000000000E+00  0.75150544597E+03  0.75150544598E+03  0.25500000920E-02 0. -1.
       -2   -1    0    0    0  501  0.00000000000E+00  0.00000000000E+00 -0.12986495476E+04  0.12986495476E+04  0.25500000920E-02 0.  1.
    10030    2    1    2    0    0  0.00000000000E+00  0.00000000000E+00 -0.54714410158E+03  0.20501549935E+04  0.19757957459E+04 0.  0.
        4    1    3    3  502    0 -0.26509226246E+03  0.90461414124E+03  0.33083690323E+02  0.94323740151E+03  0.12699999809E+01 0. -1.
       -4    1    3    3    0  502  0.26509226246E+03 -0.90461414124E+03 -0.58022779191E+03  0.11069175920E+04  0.12699999809E+01 0.  1.
</event>
<event>
 5   0  0.7935008E-05  0.1992059E+04  0.7818609E-02  0.8610342E-01
       -2   -1    0    0    0  501  0.00000000000E+00  0.00000000000E+00  0.13619649265E+04  0.13619649265E+04  0.25500000920E-02 0.  1.
        2   -1    0    0  501    0  0.00000000000E+00  0.00000000000E+00 -0.72841463554E+03  0.72841463554E+03  0.25500000920E-02 0. -1.
    10030    2    1    2    0    0  0.00000000000E+00  0.00000000000E+00  0.63355029094E+03  0.20903795620E+04  0.19920594224E+04 0.  0.
        3    1    3    3  502    0  0.29183988066E+03  0.55446747104E+03  0.11292440783E+04  0.12914321085E+04  0.10100000352E+00 0.  1.
       -3    1    3    3    0  502 -0.29183988066E+03 -0.55446747104E+03 -0.49569378737E+03  0.79894745348E+03  0.10100000352E+00 0. -1.
</event>
<event>
 5   0  0.3772949E-05  0.1999555E+04  0.7818609E-02  0.8606829E-01
       -1   -1    0    0    0  501  0.00000000000E+00  0.00000000000E+00  0.93196577748E+03  0.93196577749E+03  0.50400001928E-02 0.  1.
        1   -1    0    0  501    0  0.00000000000E+00  0.00000000000E+00 -0.10725236972E+04  0.10725236972E+04  0.50400001928E-02 0. -1.
    10030    2    1    2    0    0  0.00000000000E+00  0.00000000000E+00 -0.14055791968E+03  0.20044894747E+04  0.19995553319E+04 0.  0.
        2    1    3    3  502    0  0.51452896544E+03 -0.84234462500E+03 -0.22963933571E+03  0.10134193348E+04  0.25500000920E-02 0. -1.
       -2    1    3    3    0  502 -0.51452896544E+03  0.84234462500E+03  0.89081416028E+02  0.99107013991E+03  0.25500000920E-02 0.  1.
</event>
<event>
 5   0  0.8022574E-05  0.1981551E+04  0.7818609E-02  0.8615295E-01
        2   -1    0    0  501    0  0.00000000000E+00  0.00000000000E+00  0.22189406586E+04  0.22189406586E+04  0.25500000920E-02 0. -1.
       -2   -1    0    0    0  501  0.00000000000E+00  0.00000000000E+00 -0.44238946064E+03  0.44238946065E+03  0.25500000920E-02 0.  1.
    10030    2    1    2    0    0  0.00000000000E+00  0.00000000000E+00  0.17765511980E+04  0.26613301193E+04  0.19815508686E+04 0.  0.
        1    1    3    3  502    0 -0.66221138132E+03 -0.72853535435E+03  0.10375195874E+04  0.14302917781E+04  0.50400001928E-02 0.  1.
       -1    1    3    3    0  502  0.66221138132E+03  0.72853535435E+03  0.73903161059E+03  0.12310383412E+04  0.50400001928E-02 0. -1.
</event>
<event>
 5   0  0.7857136E-05  0.1970556E+04  0.7818609E-02  0.8620512E-01
       -2   -1    0    0    0  501  0.00000000000E+00  0.00000000000E+00  0.47218981533E+03  0.47218981534E+03  0.25500000920E-02 0. -1.
        2   -1    0    0  501    0  0.00000000000E+00  0.00000000000E+00 -0.20558956237E+04  0.20558956238E+04  0.25500000920E-02 0.  1.
    10030    2    1    2    0    0  0.00000000000E+00  0.00000000000E+00 -0.15837058084E+04  0.25280854391E+04  0.19705562412E+04 0.  0.
        4    1    3    3  502    0  0.29166299509E+03  0.10483488088E+03  0.40802174812E+03  0.51238756308E+03  0.12699999809E+01 0. -1.
       -4    1    3    3    0  502 -0.29166299509E+03 -0.10483488088E+03 -0.19917275565E+04  0.20156978760E+04  0.12699999809E+01 0.  1.
</event>
<event>
 5   0  0.3818907E-05  0.2026491E+04  0.7818609E-02  0.8594335E-01
       -1   -1    0    0    0  501  0.00000000000E+00  0.00000000000E+00  0.71003334240E+03  0.71003334242E+03  0.50400001928E-02 0.  1.
        1   -1    0    0  501    0  0.00000000000E+00  0.00000000000E+00 -0.14459405449E+04  0.14459405449E+04  0.50400001928E-02 0. -1.
    10030    2    1    2    0    0  0.00000000000E+00  0.00000000000E+00 -0.73590720250E+03  0.21559738873E+04  0.20264905606E+04 0.  0.
        1    1    3    3  502    0  0.68959659032E+03 -0.36798955355E+03 -0.10539031543E+04  0.13121248521E+04  0.50400001928E-02 0. -1.
       -1    1    3    3    0  502 -0.68959659032E+03  0.36798955355E+03  0.31799595177E+03  0.84384903523E+03  0.50400001928E-02 0.  1.
</event>
<event>
 5   0  0.3772949E-05  0.1992005E+04  0.7818609E-02  0.8610368E-01
       -1   -1    0    0    0  501  0.00000000000E+00  0.00000000000E+00  0.15495271285E+04  0.15495271285E+04  0.50400001928E-02 0.  1.
        1   -1    0    0  501    0  0.00000000000E+00  0.00000000000E+00 -0.64020910536E+03  0.64020910538E+03  0.50400001928E-02 0. -1.
    10030    2    1    2    0    0  0.00000000000E+00  0.00000000000E+00  0.90931802313E+03  0.21897362339E+04  0.19920053983E+04 0.  0.
        2    1    3    3  502    0  0.79442621392E+03 -0.39691807271E+03  0.95038167021E+03  0.13007237543E+04  0.25500000920E-02 0.  1.
       -2    1    3    3    0  502 -0.79442621392E+03  0.39691807271E+03 -0.41063647078E+02  0.88901247962E+03  0.25500000920E-02 0. -1.
</event>
<event>
 5   0  0.3549426E-05  0.2007236E+04  0.7818609E-02  0.8603245E-01
       -1   -1    0    0    0  501  0.00000000000E+00  0.00000000000E+00  0.84179971612E+03  0.84179971613E+03  0.50400001928E-02 0.  1.
        1   -1    0    0  501    0  0.00000000000E+00  0.00000000000E+00 -0.11965428468E+04  0.11965428468E+04  0.50400001928E-02 0. -1.
    10030    2    1    2    0    0  0.00000000000E+00  0.00000000000E+00 -0.35474313065E+03  0.20383425629E+04  0.20072363376E+04 0.  0.
        5    1    3    3  502    0 -0.90690564576E+03 -0.15338670258E+03  0.23037548261E+03  0.94820898742E+03  0.46999998093E+01 0. -1.
       -5    1    3    3    0  502  0.90690564576E+03  0.15338670258E+03 -0.58511861326E+03  0.10901335755E+04  0.46999998093E+01 0.  1.
</event>
<event>
 5   0  0.2859625E-05  0.1994032E+04  0.7818609E-02  0.8609416E-01
        3   -1    0    0  501    0  0.00000000000E+00  0.00000000000E+00  0.15081110144E+04  0.15081110178E+04  0.10100000352E+00 0. -1.
       -3   -1    0    0    0  501  0.00000000000E+00  0.00000000000E+00 -0.65912994473E+03  0.65912995247E+03  0.10100000352E+00 0.  1.
    10030    2    1    2    0    0  0.00000000000E+00  0.00000000000E+00  0.84898106964E+03  0.21672409702E+04  0.19940322381E+04 0.  0.
        2    1    3    3  502    0  0.58921133968E+03 -0.39528770678E+03  0.11857752415E+04  0.13818412706E+04  0.25500000920E-02 0. -1.
       -2    1    3    3    0  502 -0.58921133968E+03  0.39528770678E+03 -0.33679417182E+03  0.78539969959E+03  0.25500000920E-02 0.  1.
</event>
<event>
 5   0  0.3970042E-05  0.1995410E+04  0.7818609E-02  0.8608770E-01
       -1   -1    0    0    0  501  0.00000000000E+00  0.00000000000E+00  0.55375120288E+03  0.55375120290E+03  0.50400001928E-02 0.  1.
        1   -1    0    0  501    0  0.00000000000E+00  0.00000000000E+00 -0.17975853033E+04  0.17975853033E+04  0.50400001928E-02 0. -1.
    10030    2    1    2    0    0  0.00000000000E+00  0.00000000000E+00 -0.12438341004E+04  0.23513365062E+04  0.19954097564E+04 0.  0.
        3    1    3    3  502    0 -0.24217501760E+03 -0.32977478442E+03  0.45034704138E+03  0.60845099677E+03  0.10100000352E+00 0.  1.
       -3    1    3    3    0  502  0.24217501760E+03  0.32977478442E+03 -0.16941811418E+04  0.17428855095E+04  0.10100000352E+00 0. -1.
</event>
<event>
 5   0  0.7857136E-05  0.1812145E+04  0.7818609E-02  0.8699867E-01
        2   -1    0    0  501    0  0.00000000000E+00  0.00000000000E+00  0.71709896190E+03  0.71709896191E+03  0.25500000920E-02 0. -1.
       -2   -1    0    0    0  501  0.00000000000E+00  0.00000000000E+00 -0.11448455652E+04  0.11448455652E+04  0.25500000920E-02 0.  1.
    10030    2    1    2    0    0  0.00000000000E+00  0.00000000000E+00 -0.42774660329E+03  0.18619445271E+04  0.18121452109E+04 0.  0.
        4    1    3    3  502    0  0.58452306464E+02  0.83549466113E+03 -0.56905777640E+03  0.10125691911E+04  0.12699999809E+01 0.  1.
       -4    1    3    3    0  502 -0.58452306464E+02 -0.83549466113E+03  0.14131117311E+03  0.84937533603E+03  0.12699999809E+01 0. -1.
</event>
<event>
 5   0  0.3818907E-05  0.1968633E+04  0.7818609E-02  0.8621428E-01
       -1   -1    0    0    0  501  0.00000000000E+00  0.00000000000E+00  0.10098158693E+04  0.10098158693E+04  0.50400001928E-02 0.  1.
        1   -1    0    0  501    0  0.00000000000E+00  0.00000000000E+00 -0.95946106507E+03  0.95946106508E+03  0.50400001928E-02 0. -1.
    10030    2    1    2    0    0  0.00000000000E+00  0.00000000000E+00  0.50354804180E+02  0.19692769343E+04  0.19686330379E+04 0.  0.
        1    1    3    3  502    0  0.35110363035E+03  0.57679929887E+03  0.74158747709E+03  0.10029572158E+04  0.50400001928E-02 0.  1.
       -1    1    3    3    0  502 -0.35110363035E+03 -0.57679929887E+03 -0.69123267291E+03  0.96631971860E+03  0.50400001928E-02 0. -1.
</event>
<event>
 5   0  0.8011197E-05  0.1948870E+04  0.7818609E-02  0.8630906E-01
        2   -1    0    0  501    0  0.00000000000E+00  0.00000000000E+00  0.18183688649E+04  0.18183688649E+04  0.25500000920E-02 0. -1.
       -2   -1    0    0    0  501  0.00000000000E+00  0.00000000000E+00 -0.52218426879E+03  0.52218426880E+03  0.25500000920E-02 0.  1.
    10030    2    1    2    0    0  0.00000000000E+00  0.00000000000E+00  0.12961845961E+04  0.23405531337E+04  0.19488700481E+04 0.  0.
        5    1    3    3  502    0  0.84227796750E+03  0.26710091366E+03  0.15477401351E+03  0.89707979459E+03  0.46999998093E+01 0.  1.
       -5    1    3    3    0  502 -0.84227796750E+03 -0.26710091366E+03  0.11414105826E+04  0.14434733391E+04  0.46999998093E+01 0. -1.
</event>
<event>
 5   0  0.8011197E-05  0.1993987E+04  0.7818609E-02  0.8609437E-01
        2   -1    0    0  501    0  0.00000000000E+00  0.00000000000E+00  0.98229250291E+03  0.98229250291E+03  0.25500000920E-02 0.  1.
       -2   -1    0    0    0  501  0.00000000000E+00  0.00000000000E+00 -0.10119142016E+04  0.10119142016E+04  0.25500000920E-02 0. -1.
    10030    2    1    2    0    0  0.00000000000E+00  0.00000000000E+00 -0.29621698661E+02  0.19942067045E+04  0.19939866938E+04 0.  0.
        5    1    3    3  502    0  0.86328371142E+03  0.14141883675E+03  0.46348410612E+03  0.98999881839E+03  0.46999998093E+01 0.  1.
       -5    1    3    3    0  502 -0.86328371142E+03 -0.14141883675E+03 -0.49310580478E+03  0.10042078861E+04  0.46999998093E+01 0. -1.
</event>
<event>
 5   0  0.8011197E-05  0.1932436E+04  0.7818609E-02  0.8638877E-01
       -2   -1    0    0    0  501  0.00000000000E+00  0.00000000000E+00  0.66872188618E+03  0.66872188619E+03  0.25500000920E-02 0. -1.
        2   -1    0    0  501    0  0.00000000000E+00  0.00000000000E+00 -0.13960614754E+04  0.13960614754E+04  0.25500000920E-02 0.  1.
    10030    2    1    2    0    0  0.00000000000E+00  0.00000000000E+00 -0.72733958922E+03  0.20647833616E+04  0.19324356269E+04 0.  0.
        5    1    3    3  502    0  0.34469918279E+03 -0.82898775905E+03  0.17881313684E+02  0.89798667176E+03  0.46999998093E+01 0. -1.
       -5    1    3    3    0  502 -0.34469918279E+03  0.82898775905E+03 -0.74522090291E+03  0.11667966898E+04  0.46999998093E+01 0.  1.
</event>
<event>
 5   0  0.7843846E-05  0.1995838E+04  0.7818609E-02  0.8608569E-01
        2   -1    0    0  501    0  0.00000000000E+00  0.00000000000E+00  0.12697297182E+04  0.12697297182E+04  0.25500000920E-02 0.  1.
       -2   -1    0    0    0  501  0.00000000000E+00  0.00000000000E+00 -0.78429493043E+03  0.78429493044E+03  0.25500000920E-02 0. -1.
    10030    2    1    2    0    0  0.00000000000E+00  0.00000000000E+00  0.48543478774E+03  0.20540246486E+04  0.19958382510E+04 0.  0.
        2    1    3    3  502    0 -0.19604360690E+03  0.47034148184E+03  0.11257460284E+04  0.12357015521E+04  0.25500000920E-02 0.  1.
       -2    1    3    3    0  502  0.19604360690E+03 -0.47034148184E+03 -0.64031124068E+03  0.81832309652E+03  0.25500000920E-02 0. -1.
</event>
<event>
 5   0  0.3787698E-05  0.1998777E+04  0.7818609E-02  0.8607193E-01
        1   -1    0    0  501    0  0.00000000000E+00  0.00000000000E+00  0.10404539977E+04  0.10404539978E+04  0.50400001928E-02 0.  1.
       -1   -1    0    0    0  501  0.00000000000E+00  0.00000000000E+00 -0.95994346220E+03  0.95994346222E+03  0.50400001928E-02 0. -1.
    10030    2    1    2    0    0  0.00000000000E+00  0.00000000000E+00  0.80510535545E+02  0.20003974600E+04  0.19987766387E+04 0.  0.
        4    1    3    3  502    0  0.22866059909E+03 -0.83383417597E+03 -0.46136000192E+03  0.98001008508E+03  0.12699999809E+01 0. -1.
       -4    1    3    3    0  502 -0.22866059909E+03  0.83383417597E+03  0.54187053746E+03  0.10203873749E+04  0.12699999809E+01 0.  1.
</event>
<event>
 5   0  0.8022574E-05  0.1993984E+04  0.7818609E-02  0.8609439E-01
       -2   -1    0    0    0  501  0.00000000000E+00  0.00000000000E+00  0.98731232175E+03  0.98731232175E+03  0.25500000920E-02 0.  1.
        2   -1    0    0  501    0  0.00000000000E+00  0.00000000000E+00 -0.10067665221E+04  0.10067665221E+04  0.25500000920E-02 0. -1.
    10030    2    1    2    0    0  0.00000000000E+00  0.00000000000E+00 -0.19454200400E+02  0.19940788439E+04  0.19939839442E+04 0.  0.
        1    1    3    3  502    0  0.17230939169E+02 -0.56309354327E+03  0.81288225736E+03  0.98901405859E+03  0.50400001928E-02 0.  1.
       -1    1    3    3    0  502 -0.17230939169E+02  0.56309354327E+03 -0.83233645776E+03  0.10050647853E+04  0.50400001928E-02 0. -1.
</event>
<event>
 5   0  0.8011197E-05  0.1997624E+04  0.7818609E-02  0.8607732E-01
       -2   -1    0    0    0  501  0.00000000000E+00  0.00000000000E+00  0.92948238089E+03  0.92948238089E+03  0.25500000920E-02 0.  1.
        2   -1    0    0  501    0  0.00000000000E+00  0.00000000000E+00 -0.10733126174E+04  0.10733126174E+04  0.25500000920E-02 0. -1.
    10030    2    1    2    0    0  0.00000000000E+00  0.00000000000E+00 -0.14383023656E+03  0.20027949983E+04  0.19976237555E+04 0.  0.
        5    1    3    3  502    0 -0.58573917644E+02 -0.66065691404E+02  0.92555104876E+03  0.92976470855E+03  0.46999998093E+01 0.  1.
       -5    1    3    3    0  502  0.58573917644E+02  0.66065691404E+02 -0.10693812853E+04  0.10730302898E+04  0.46999998093E+01 0. -1.
</event>
<event>
 5   0  0.7857136E-05  0.1996735E+04  0.7818609E-02  0.8608149E-01
        2   -1    0    0  501    0  0.00000000000E+00  0.00000000000E+00  0.13815349487E+04  0.13815349487E+04  0.25500000920E-02 0. -1.
       -2   -1    0    0    0  501  0.00000000000E+00  0.00000000000E+00 -0.72147135509E+03  0.72147135510E+03  0.25500000920E-02 0.  1.
    10030    2    1    2    0    0  0.00000000000E+00  0.00000000000E+00  0.66006359358E+03  0.21030063038E+04  0.19967352269E+04 0.  0.
        4    1    3    3  502    0 -0.18504024609E+03  0.66042322694E+03  0.10941354406E+04  0.12913298210E+04  0.12699999809E+01 0. -1.
       -4    1    3    3    0  502  0.18504024609E+03 -0.66042322694E+03 -0.43407184703E+03  0.81167648275E+03  0.12699999809E+01 0.  1.
</event>
<event>
 5   0  0.7935008E-05  0.1998348E+04  0.7818609E-02  0.8607394E-01
        2   -1    0    0  501    0  0.00000000000E+00  0.00000000000E+00  0.24218460396E+04  0.24218460396E+04  0.25500000920E-02 0.  1.
       -2   -1    0    0    0  501  0.00000000000E+00  0.00000000000E+00 -0.41222624181E+03  0.41222624181E+03  0.25500000920E-02 0. -1.
    10030    2    1    2    0    0  0.00000000000E+00  0.00000000000E+00  0.20096197978E+04  0.28340722815E+04  0.19983478087E+04 0.  0.
        3    1    3    3  502    0 -0.80451352191E+02 -0.26836377897E+03  0.23650011881E+04  0.23815377737E+04  0.10100000352E+00 0.  1.
       -3    1    3    3    0  502  0.80451352191E+02  0.26836377897E+03 -0.35538139025E+03  0.45253450771E+03  0.10100000352E+00 0. -1.
</event>
<event>
 5   0  0.8011197E-05  0.1972042E+04  0.7818609E-02  0.8619804E-01
        2   -1    0    0  501    0  0.00000000000E+00  0.00000000000E+00  0.13701293258E+04  0.13701293258E+04  0.25500000920E-02 0. -1.
       -2   -1    0    0    0  501  0.00000000000E+00  0.00000000000E+00 -0.70959570930E+03  0.70959570930E+03  0.25500000920E-02 0.  1.
    10030    2    1    2    0    0  0.00000000000E+00  0.00000000000E+00  0.66053361647E+03  0.20797250351E+04  0.19720424851E+04 0.  0.
        5    1    3    3  502    0 -0.65856534144E+03  0.27175359190E+03 -0.38861272251E+03  0.81154190388E+03  0.46999998093E+01 0. -1.
       -5    1    3    3    0  502  0.65856534144E+03 -0.27175359190E+03  0.10491463390E+04  0.12681831312E+04  0.46999998093E+01 0.  1.
</event>
<event>
 5   0  0.3787698E-05  0.1998840E+04  0.7818609E-02  0.8607163E-01
        1   -1    0    0  501    0  0.00000000000E+00  0.00000000000E+00  0.84220395718E+03  0.84220395720E+03  0.50400001928E-02 0.  1.
       -1   -1    0    0    0  501  0.00000000000E+00  0.00000000000E+00 -0.11859839021E+04  0.11859839021E+04  0.50400001928E-02 0. -1.
    10030    2    1    2    0    0  0.00000000000E+00  0.00000000000E+00 -0.34377994491E+03  0.20281878593E+04  0.19988399991E+04 0.  0.
        4    1    3    3  502    0  0.24577371558E+03  0.48100327638E+01 -0.11548291861E+04  0.11807031454E+04  0.12699999809E+01 0. -1.
       -4    1    3    3    0  502 -0.24577371558E+03 -0.48100327638E+01  0.81104924119E+03  0.84748471386E+03  0.12699999809E+01 0.  1.
</event>
<event>
 5   0  0.3970042E-05  0.2000496E+04  0.7818609E-02  0.8606389E-01
        1   -1    0    0  501    0  0.00000000000E+00  0.00000000000E+00  0.14758963501E+04  0.14758963501E+04  0.50400001928E-02 0.  1.
       -1   -1    0    0    0  501  0.00000000000E+00  0.00000000000E+00 -0.67789041088E+03  0.67789041090E+03  0.50400001928E-02 0. -1.
    10030    2    1    2    0    0  0.00000000000E+00  0.00000000000E+00  0.79800593917E+03  0.21537867610E+04  0.20004959217E+04 0.  0.
        3    1    3    3  502    0  0.26107024319E+03 -0.51537652928E+03 -0.48009749911E+03  0.75117525097E+03  0.10100000352E+00 0. -1.
       -3    1    3    3    0  502 -0.26107024319E+03  0.51537652928E+03  0.12781034383E+04  0.14026115100E+04  0.10100000352E+00 0.  1.
</event>
<event>
 5   0  0.3549426E-05  0.2014259E+04  0.7818609E-02  0.8599983E-01
       -1   -1    0    0    0  501  0.00000000000E+00  0.00000000000E+00  0.67214752216E+03  0.67214752218E+03  0.50400001928E-02 0.  1.
        1   -1    0    0  501    0  0.00000000000E+00  0.00000000000E+00 -0.15090578495E+04  0.15090578495E+04  0.50400001928E-02 0. -1.
    10030    2    1    2    0    0  0.00000000000E+00  0.00000000000E+00 -0.83691032731E+03  0.21812053717E+04  0.20142586669E+04 0.  0.
        5    1    3    3  502    0  0.76865343392E+03 -0.55398836424E+03 -0.48755548472E+02  0.94875202382E+03  0.46999998093E+01 0.  1.
       -5    1    3    3    0  502 -0.76865343392E+03  0.55398836424E+03 -0.78815477884E+03  0.12324533478E+04  0.46999998093E+01 0. -1.
</event>
<event>
 5   0  0.8022574E-05  0.1991549E+04  0.7818609E-02  0.8610582E-01
       -2   -1    0    0    0  501  0.00000000000E+00  0.00000000000E+00  0.59993242079E+03  0.59993242079E+03  0.25500000920E-02 0. -1.
        2   -1    0    0  501    0  0.00000000000E+00  0.00000000000E+00 -0.16527977555E+04  0.16527977555E+04  0.25500000920E-02 0.  1.
    10030    2    1    2    0    0  0.00000000000E+00  0.00000000000E+00 -0.10528653347E+04  0.22527301763E+04  0.19915491041E+04 0.  0.
        1    1    3    3  502    0 -0.19295927696E+03  0.79295490753E+03 -0.11718359005E+04  0.14280091547E+04  0.50400001928E-02 0.  1.
       -1    1    3    3    0  502  0.19295927696E+03 -0.79295490753E+03  0.11897056585E+03  0.82472102162E+03  0.50400001928E-02 0. -1.
</event>
<event>
 5   0  0.8011197E-05  0.1956167E+04  0.7818609E-02  0.8627393E-01
        2   -1    0    0  501    0  0.00000000000E+00  0.00000000000E+00  0.14685530618E+04  0.14685530618E+04  0.25500000920E-02 0. -1.
       -2   -1    0    0    0  501  0.00000000000E+00  0.00000000000E+00 -0.65142153119E+03  0.65142153120E+03  0.25500000920E-02 0.  1.
    10030    2    1    2    0    0  0.00000000000E+00  0.00000000000E+00  0.81713153061E+03  0.21199745930E+04  0.19561667456E+04 0.  0.
        5    1    3    3  502    0  0.16846455732E+03  0.10335541012E+03 -0.62954232590E+03  0.65985474005E+03  0.46999998093E+01 0.  1.
       -5    1    3    3    0  502 -0.16846455732E+03 -0.10335541012E+03  0.14466738565E+04  0.14601198529E+04  0.46999998093E+01 0. -1.
</event>
<event>
 5   0  0.3549426E-05  0.1976386E+04  0.7818609E-02  0.8617741E-01
        1   -1    0    0  501    0  0.00000000000E+00  0.00000000000E+00  0.18558510309E+04  0.18558510309E+04  0.50400001928E-02 0.  1.
       -1   -1    0    0    0  501  0.00000000000E+00  0.00000000000E+00 -0.52618727577E+03  0.52618727579E+03  0.50400001928E-02 0. -1.
    10030    2    1    2    0    0  0.00000000000E+00  0.00000000000E+00  0.13296637552E+04  0.23820383067E+04  0.19763857905E+04 0.  0.
        5    1    3    3  502    0 -0.28684795188E+03  0.49862983377E+02  0.18029699084E+04  0.18263325669E+04  0.46999998093E+01 0.  1.
       -5    1    3    3    0  502  0.28684795188E+03 -0.49862983377E+02 -0.47330615318E+03  0.55570573980E+03  0.46999998093E+01 0. -1.
</event>
<event>
 5   0  0.3818907E-05  0.1955802E+04  0.7818609E-02  0.8627568E-01
        1   -1    0    0  501    0  0.00000000000E+00  0.00000000000E+00  0.14087256711E+04  0.14087256711E+04  0.50400001928E-02 0.  1.
       -1   -1    0    0    0  501  0.00000000000E+00  0.00000000000E+00 -0.67883389780E+03  0.67883389781E+03  0.50400001928E-02 0. -1.
    10030    2    1    2    0    0  0.00000000000E+00  0.00000000000E+00  0.72989177334E+03  0.20875595690E+04  0.19558023809E+04 0.  0.
        1    1    3    3  502    0 -0.81480209136E+03 -0.30607108222E+03  0.84074369595E+03  0.12101371483E+04  0.50400001928E-02 0.  1.
       -1    1    3    3    0  502  0.81480209136E+03  0.30607108222E+03 -0.11085192261E+03  0.87742242063E+03  0.50400001928E-02 0. -1.
</event>
<event>
 5   0  0.7857136E-05  0.2037940E+04  0.7818609E-02  0.8589085E-01
       -2   -1    0    0    0  501  0.00000000000E+00  0.00000000000E+00  0.65855696471E+03  0.65855696471E+03  0.25500000920E-02 0.  1.
        2   -1    0    0  501    0  0.00000000000E+00  0.00000000000E+00 -0.15766281369E+04  0.15766281369E+04  0.25500000920E-02 0. -1.
    10030    2    1    2    0    0  0.00000000000E+00  0.00000000000E+00 -0.91807117223E+03  0.22351851017E+04  0.20379395873E+04 0.  0.
        4    1    3    3  502    0 -0.10109432307E+04  0.81898762742E+02 -0.35166131674E+03  0.10734900641E+04  0.12699999809E+01 0.  1.
       -4    1    3    3    0  502  0.10109432307E+04 -0.81898762742E+02 -0.56640985549E+03  0.11616950376E+04  0.12699999809E+01 0. -1.
</event>
<event>
 5   0  0.3818907E-05  0.1871153E+04  0.7818609E-02  0.8669350E-01
       -1   -1    0    0    0  501  0.00000000000E+00  0.00000000000E+00  0.12407206741E+04  0.12407206741E+04  0.50400001928E-02 0.  1.
        1   -1    0    0  501    0  0.00000000000E+00  0.00000000000E+00 -0.70548016405E+03  0.70548016407E+03  0.50400001928E-02 0. -1.
    10030    2    1    2    0    0  0.00000000000E+00  0.00000000000E+00  0.53524051002E+03  0.19462008382E+04  0.18711534675E+04 0.  0.
        1    1    3    3  502    0 -0.34663985969E+03 -0.32741537903E+03 -0.56961386020E+03  0.74284586053E+03  0.50400001928E-02 0. -1.
       -1    1    3    3    0  502  0.34663985969E+03  0.32741537903E+03  0.11048543702E+04  0.12033549776E+04  0.50400001928E-02 0.  1.
</event>
<event>
 5   0  0.7857136E-05  0.2006220E+04  0.7818609E-02  0.8603718E-01
       -2   -1    0    0    0  501  0.00000000000E+00  0.00000000000E+00  0.49288908215E+03  0.49288908216E+03  0.25500000920E-02 0. -1.
        2   -1    0    0  501    0  0.00000000000E+00  0.00000000000E+00 -0.20414939108E+04  0.20414939108E+04  0.25500000920E-02 0.  1.
    10030    2    1    2    0    0  0.00000000000E+00  0.00000000000E+00 -0.15486048287E+04  0.25343829930E+04  0.20062203866E+04 0.  0.
        4    1    3    3  502    0  0.18771422939E+03  0.93365606421E+03 -0.37626812615E+03  0.10239773405E+04  0.12699999809E+01 0. -1.
       -4    1    3    3    0  502 -0.18771422939E+03 -0.93365606421E+03 -0.11723367025E+04  0.15104056525E+04  0.12699999809E+01 0.  1.
</event>
<event>
 5   0  0.8022574E-05  0.2005719E+04  0.7818609E-02  0.8603951E-01
        2   -1    0    0  501    0  0.00000000000E+00  0.00000000000E+00  0.16313824393E+04  0.16313824393E+04  0.25500000920E-02 0. -1.
       -2   -1    0    0    0  501  0.00000000000E+00  0.00000000000E+00 -0.61648775821E+03  0.61648775822E+03  0.25500000920E-02 0.  1.
    10030    2    1    2    0    0  0.00000000000E+00  0.00000000000E+00  0.10148946811E+04  0.22478701975E+04  0.20057191257E+04 0.  0.
        1    1    3    3  502    0  0.49006802610E+03  0.86422285215E+03  0.66062085323E+03  0.11930916646E+04  0.50400001928E-02 0. -1.
       -1    1    3    3    0  502 -0.49006802610E+03 -0.86422285215E+03  0.35427382786E+03  0.10547785329E+04  0.50400001928E-02 0.  1.
</event>
<event>
 5   0  0.2859625E-05  0.1997143E+04  0.7818609E-02  0.8607957E-01
       -4   -1    0    0    0  501  0.00000000000E+00  0.00000000000E+00  0.40805577061E+03  0.40805774693E+03  0.12699999809E+01 0. -1.
        4   -1    0    0  501    0  0.00000000000E+00  0.00000000000E+00 -0.24436416300E+04  0.24436419600E+04  0.12699999809E+01 0.  1.
    10030    2    1    2    0    0  0.00000000000E+00  0.00000000000E+00 -0.20355858594E+04  0.28516997070E+04  0.19971433168E+04 0.  0.
        2    1    3    3  502    0 -0.32696328733E+03  0.43618082948E+03  0.17685363396E+03  0.57309328657E+03  0.25500000920E-02 0. -1.
       -2    1    3    3    0  502  0.32696328733E+03 -0.43618082948E+03 -0.22124394933E+04  0.22786064204E+04  0.25500000920E-02 0.  1.
</event>
<event>
 5   0  0.3818907E-05  0.2009266E+04  0.7818609E-02  0.8602301E-01
        1   -1    0    0  501    0  0.00000000000E+00  0.00000000000E+00  0.25648527169E+04  0.25648527169E+04  0.50400001928E-02 0. -1.
       -1   -1    0    0    0  501  0.00000000000E+00  0.00000000000E+00 -0.39350695705E+03  0.39350695708E+03  0.50400001928E-02 0.  1.
    10030    2    1    2    0    0  0.00000000000E+00  0.00000000000E+00  0.21713457599E+04  0.29583596740E+04  0.20092659236E+04 0.  0.
        1    1    3    3  502    0 -0.27537414819E+03 -0.83430636918E+03  0.18030444637E+04  0.20057086970E+04  0.50400001928E-02 0. -1.
       -1    1    3    3    0  502  0.27537414819E+03  0.83430636918E+03  0.36830129613E+03  0.95265097696E+03  0.50400001928E-02 0.  1.
</event>
<event>
 5   0  0.3549426E-05  0.1997908E+04  0.7818609E-02  0.8607599E-01
        1   -1    0    0  501    0  0.00000000000E+00  0.00000000000E+00  0.14385067658E+04  0.14385067658E+04  0.50400001928E-02 0. -1.
       -1   -1    0    0    0  501  0.00000000000E+00  0.00000000000E+00 -0.69371180496E+03  0.69371180497E+03  0.50400001928E-02 0.  1.
    10030    2    1    2    0    0  0.00000000000E+00  0.00000000000E+00  0.74479496087E+03  0.21322185708E+04  0.19979080309E+04 0.  0.
        5    1    3    3  502    0  0.78421883537E+03  0.58575522424E+03  0.15954370341E+03  0.99175836158E+03  0.46999998093E+01 0. -1.
       -5    1    3    3    0  502 -0.78421883537E+03 -0.58575522424E+03  0.58525125746E+03  0.11404602092E+04  0.46999998093E+01 0.  1.
</event>
<event>
 5   0  0.7857136E-05  0.1974027E+04  0.7818609E-02  0.8618861E-01
        2   -1    0    0  501    0  0.00000000000E+00  0.00000000000E+00  0.11276804309E+04  0.11276804309E+04  0.25500000920E-02 0. -1.
       -2   -1    0    0    0  501  0.00000000000E+00  0.00000000000E+00 -0.86389293760E+03  0.86389293760E+03  0.25500000920E-02 0.  1.
    10030    2    1    2    0    0  0.00000000000E+00  0.00000000000E+00  0.26378749327E+03  0.19915733685E+04  0.19740265045E+04 0.  0.
        4    1    3    3  502    0  0.28522638064E+02 -0.68631482588E+03 -0.58317432010E+03  0.90107462600E+03  0.12699999809E+01 0.  1.
       -4    1    3    3    0  502 -0.28522638064E+02  0.68631482588E+03  0.84696181337E+03  0.10904987425E+04  0.12699999809E+01 0. -1.
</event>
<event>
 5   0  0.3787698E-05  0.1982185E+04  0.7818609E-02  0.8614995E-01
       -1   -1    0    0    0  501  0.00000000000E+00  0.00000000000E+00  0.93858380547E+03  0.93858380548E+03  0.50400001928E-02 0.  1.
        1   -1    0    0  501    0  0.00000000000E+00  0.00000000000E+00 -0.10465386538E+04  0.10465386538E+04  0.50400001928E-02 0. -1.
    10030    2    1    2    0    0  0.00000000000E+00  0.00000000000E+00 -0.10795484836E+03  0.19851224593E+04  0.19821848877E+04 0.  0.
        4    1    3    3  502    0 -0.53679447540E+03  0.28607296018E+03  0.72966323850E+03  0.94994531521E+03  0.12699999809E+01 0.  1.
       -4    1    3    3    0  502  0.53679447540E+03 -0.28607296018E+03 -0.83761808685E+03  0.10351771441E+04  0.12699999809E+01 0. -1.
</event>
<event>
 5   0  0.7857136E-05  0.2001725E+04  0.7818609E-02  0.8605814E-01
       -2   -1    0    0    0  501  0.00000000000E+00  0.00000000000E+00  0.71167529855E+03  0.71167529856E+03  0.25500000920E-02 0.  1.
        2   -1    0    0  501    0  0.00000000000E+00  0.00000000000E+00 -0.14075607525E+04  0.14075607525E+04  0.25500000920E-02 0. -1.
    10030    2    1    2    0    0  0.00000000000E+00  0.00000000000E+00 -0.69588545394E+03  0.21192360511E+04  0.20017254745E+04 0.  0.
        4    1    3    3  502    0 -0.38039533774E+03 -0.81224759816E+03 -0.81817665472E+03  0.12140269457E+04  0.12699999809E+01 0. -1.
       -4    1    3    3    0  502  0.38039533774E+03  0.81224759816E+03  0.12229120078E+03  0.90520910534E+03  0.12699999809E+01 0.  1.
</event>
<event>
 5   0  0.3772949E-05  0.2043933E+04  0.7818609E-02  0.8586351E-01
        1   -1    0    0  501    0  0.00000000000E+00  0.00000000000E+00  0.17619346314E+04  0.17619346314E+04  0.50400001928E-02 0.  1.
       -1   -1    0    0    0  501  0.00000000000E+00  0.00000000000E+00 -0.59276657584E+03  0.59276657586E+03  0.50400001928E-02 0. -1.
    10030    2    1    2    0    0  0.00000000000E+00  0.00000000000E+00  0.11691680556E+04  0.23547012073E+04  0.20439334220E+04 0.  0.
        2    1    3    3  502    0  0.54938888864E+03  0.73743883241E+03  0.70958713353E+02  0.92232278597E+03  0.25500000920E-02 0. -1.
       -2    1    3    3    0  502 -0.54938888864E+03 -0.73743883241E+03  0.10982093422E+04  0.14323784213E+04  0.25500000920E-02 0.  1.
</event>
<event>
 5   0  0.8022574E-05  0.1999075E+04  0.7818609E-02  0.8607053E-01
       -2   -1    0    0    0  501  0.00000000000E+00  0.00000000000E+00  0.82417538465E+03  0.82417538466E+03  0.25500000920E-02 0. -1.
        2   -1    0    0  501    0  0.00000000000E+00  0.00000000000E+00 -0.12122123556E+04  0.12122123556E+04  0.25500000920E-02 0.  1.
    10030    2    1    2    0    0  0.00000000000E+00  0.00000000000E+00 -0.38803697091E+03  0.20363877402E+04  0.19990753707E+04 0.  0.
        1    1    3    3  502    0 -0.35501992084E+03 -0.10861272789E+03 -0.11393700116E+04  0.11983321294E+04  0.50400001928E-02 0.  1.
       -1    1    3    3    0  502  0.35501992084E+03  0.10861272789E+03  0.75133304070E+03  0.83805561088E+03  0.50400001928E-02 0. -1.
</event>
<event>
 5   0  0.3970042E-05  0.2017541E+04  0.7818609E-02  0.8598463E-01
        1   -1    0    0  501    0  0.00000000000E+00  0.00000000000E+00  0.17440260676E+04  0.17440260676E+04  0.50400001928E-02 0.  1.
       -1   -1    0    0    0  501  0.00000000000E+00  0.00000000000E+00 -0.58348763163E+03  0.58348763165E+03  0.50400001928E-02 0. -1.
    10030    2    1    2    0    0  0.00000000000E+00  0.00000000000E+00  0.11605384360E+04  0.23275136993E+04  0.20175407205E+04 0.  0.
        3    1    3    3  502    0  0.11335319019E+03  0.38568947192E+02 -0.57526086600E+03  0.58758963875E+03  0.10100000352E+00 0. -1.
       -3    1    3    3    0  502 -0.11335319019E+03 -0.38568947192E+02  0.17357993020E+04  0.17399240605E+04  0.10100000352E+00 0.  1.
</event>
<event>
 5   0  0.3818907E-05  0.1992430E+04  0.7818609E-02  0.8610168E-01
        1   -1    0    0  501    0  0.00000000000E+00  0.00000000000E+00  0.13283310970E+04  0.13283310970E+04  0.50400001928E-02 0. -1.
       -1   -1    0    0    0  501  0.00000000000E+00  0.00000000000E+00 -0.74713590570E+03  0.74713590572E+03  0.50400001928E-02 0.  1.
    10030    2    1    2    0    0  0.00000000000E+00  0.00000000000E+00  0.58119519134E+03  0.20754670028E+04  0.19924295293E+04 0.  0.
        1    1    3    3  502    0  0.73822806042E+03 -0.37698636803E+02 -0.40510038219E+03  0.84291647041E+03  0.50400001928E-02 0.  1.
       -1    1    3    3    0  502 -0.73822806042E+03  0.37698636803E+02  0.98629557353E+03  0.12325505324E+04  0.50400001928E-02 0. -1.
</event>
<event>
 5   0  0.3970042E-05  0.1991627E+04  0.7818609E-02  0.8610545E-01
        1   -1    0    0  501    0  0.00000000000E+00  0.00000000000E+00  0.16576052290E+04  0.16576052290E+04  0.50400001928E-02 0.  1.
       -1   -1    0    0    0  501  0.00000000000E+00  0.00000000000E+00 -0.59823911531E+03  0.59823911533E+03  0.50400001928E-02 0. -1.
    10030    2    1    2    0    0  0.00000000000E+00  0.00000000000E+00  0.10593661137E+04  0.22558443444E+04  0.19916267580E+04 0.  0.
        3    1    3    3  502    0  0.32440354661E+03 -0.91119082040E+03  0.26131595803E+03  0.10018944118E+04  0.10100000352E+00 0.  1.
       -3    1    3    3    0  502 -0.32440354661E+03  0.91119082040E+03  0.79805015570E+03  0.12539499326E+04  0.10100000352E+00 0. -1.
</event>
<event>
 5   0  0.7935008E-05  0.2015273E+04  0.7818609E-02  0.8599513E-01
        2   -1    0    0  501    0  0.00000000000E+00  0.00000000000E+00  0.19252172508E+04  0.19252172508E+04  0.25500000920E-02 0. -1.
       -2   -1    0    0    0  501  0.00000000000E+00  0.00000000000E+00 -0.52738542568E+03  0.52738542568E+03  0.25500000920E-02 0.  1.
    10030    2    1    2    0    0  0.00000000000E+00  0.00000000000E+00  0.13978318251E+04  0.24526026765E+04  0.20152732017E+04 0.  0.
        3    1    3    3  502    0  0.63555992778E+03 -0.69617685021E+03  0.11321652639E+04  0.14732266708E+04  0.10100000352E+00 0.  1.
       -3    1    3    3    0  502 -0.63555992778E+03  0.69617685021E+03  0.26566656123E+03  0.97937600569E+03  0.10100000352E+00 0. -1.
</event>
<event>
 5   0  0.7843846E-05  0.2009170E+04  0.7818609E-02  0.8602345E-01
        2   -1    0    0  501    0  0.00000000000E+00  0.00000000000E+00  0.15328488768E+04  0.15328488768E+04  0.25500000920E-02 0. -1.
       -2   -1    0    0    0  501  0.00000000000E+00  0.00000000000E+00 -0.65837626804E+03  0.65837626805E+03  0.25500000920E-02 0.  1.
    10030    2    1    2    0    0  0.00000000000E+00  0.00000000000E+00  0.87447260879E+03  0.21912251449E+04  0.20091702994E+04 0.  0.
        2    1    3    3  502    0  0.31537450355E+03 -0.43913033366E+03  0.13606535203E+04  0.14641292735E+04  0.25500000920E-02 0. -1.
       -2    1    3    3    0  502 -0.31537450355E+03  0.43913033366E+03 -0.48618091147E+03  0.72709587134E+03  0.25500000920E-02 0.  1.
</event>
<event>
 5   0  0.3787698E-05  0.2043398E+04  0.7818609E-02  0.8586595E-01
        1   -1    0    0  501    0  0.00000000000E+00  0.00000000000E+00  0.15774977101E+04  0.15774977101E+04  0.50400001928E-02 0.  1.
       -1   -1    0    0    0  501  0.00000000000E+00  0.00000000000E+00 -0.66172452607E+03  0.66172452609E+03  0.50400001928E-02 0. -1.
    10030    2    1    2    0    0  0.00000000000E+00  0.00000000000E+00  0.91577318398E+03  0.22392222361E+04  0.20433980763E+04 0.  0.
        4    1    3    3  502    0  0.81121921371E+03  0.40644275228E+03 -0.56799032775E+02  0.90912049069E+03  0.12699999809E+01 0. -1.
       -4    1    3    3    0  502 -0.81121921371E+03 -0.40644275228E+03  0.97257221676E+03  0.13301017455E+04  0.12699999809E+01 0.  1.
</event>
<event>
 5   0  0.7857136E-05  0.1995100E+04  0.7818609E-02  0.8608915E-01
        2   -1    0    0  501    0  0.00000000000E+00  0.00000000000E+00  0.16626028907E+04  0.16626028907E+04  0.25500000920E-02 0. -1.
       -2   -1    0    0    0  501  0.00000000000E+00  0.00000000000E+00 -0.59852317556E+03  0.59852317556E+03  0.25500000920E-02 0.  1.
    10030    2    1    2    0    0  0.00000000000E+00  0.00000000000E+00  0.10640797151E+04  0.22611260663E+04  0.19951003602E+04 0.  0.
        4    1    3    3  502    0 -0.96976777154E+03  0.20498837236E+03  0.40464631873E+03  0.10706119837E+04  0.12699999809E+01 0.  1.
       -4    1    3    3    0  502  0.96976777154E+03 -0.20498837236E+03  0.65943339640E+03  0.11905140825E+04  0.12699999809E+01 0. -1.
</event>
<event>
 5   0  0.8011197E-05  0.1996019E+04  0.7818609E-02  0.8608484E-01
        2   -1    0    0  501    0  0.00000000000E+00  0.00000000000E+00  0.18855224159E+04  0.18855224159E+04  0.25500000920E-02 0. -1.
       -2   -1    0    0    0  501  0.00000000000E+00  0.00000000000E+00 -0.52824771502E+03  0.52824771503E+03  0.25500000920E-02 0.  1.
    10030    2    1    2    0    0  0.00000000000E+00  0.00000000000E+00  0.13572747009E+04  0.24137701310E+04  0.19960189456E+04 0.  0.
        5    1    3    3  502    0  0.76403823962E+03 -0.59878744901E+03  0.95886972066E+03  0.13644610921E+04  0.46999998093E+01 0. -1.
       -5    1    3    3    0  502 -0.76403823962E+03  0.59878744901E+03  0.39840498024E+03  0.10493090388E+04  0.46999998093E+01 0.  1.
</event>
<event>
 5   0  0.3787698E-05  0.2046161E+04  0.7818609E-02  0.8585338E-01
        1   -1    0    0  501    0  0.00000000000E+00  0.00000000000E+00  0.88777141315E+03  0.88777141316E+03  0.50400001928E-02 0. -1.
       -1   -1    0    0    0  501  0.00000000000E+00  0.00000000000E+00 -0.11790123124E+04  0.11790123124E+04  0.50400001928E-02 0.  1.
    10030    2    1    2    0    0  0.00000000000E+00  0.00000000000E+00 -0.29124089929E+03  0.20667837256E+04  0.20461607237E+04 0.  0.
        4    1    3    3  502    0  0.14488728121E+03  0.47777318882E+03 -0.10476114247E+04  0.11604959519E+04  0.12699999809E+01 0.  1.
       -4    1    3    3    0  502 -0.14488728121E+03 -0.47777318882E+03  0.75637052543E+03  0.90628777375E+03  0.12699999809E+01 0. -1.
</event>
<event>
 5   0  0.8022574E-05  0.2004782E+04  0.7818609E-02  0.8604388E-01
        2   -1    0    0  501    0  0.00000000000E+00  0.00000000000E+00  0.10954544097E+04  0.10954544097E+04  0.25500000920E-02 0.  1.
       -2   -1    0    0    0  501  0.00000000000E+00  0.00000000000E+00 -0.91723347406E+03  0.91723347406E+03  0.25500000920E-02 0. -1.
    10030    2    1    2    0    0  0.00000000000E+00  0.00000000000E+00  0.17822093563E+03  0.20126878838E+04  0.20047817376E+04 0.  0.
        1    1    3    3  502    0  0.91586502772E+03  0.23815280514E+03  0.42096197984E+03  0.10357289685E+04  0.50400001928E-02 0.  1.
       -1    1    3    3    0  502 -0.91586502772E+03 -0.23815280514E+03 -0.24274104421E+03  0.97695891530E+03  0.50400001928E-02 0. -1.
</event>
<event>
 5   0  0.3818907E-05  0.2023198E+04  0.7818609E-02  0.8595851E-01
       -1   -1    0    0    0  501  0.00000000000E+00  0.00000000000E+00  0.79075777014E+03  0.79075777015E+03  0.50400001928E-02 0. -1.
        1   -1    0    0  501    0  0.00000000000E+00  0.00000000000E+00 -0.12941161303E+04  0.12941161303E+04  0.50400001928E-02 0.  1.
    10030    2    1    2    0    0  0.00000000000E+00  0.00000000000E+00 -0.50335836012E+03  0.20848739004E+04  0.20231978504E+04 0.  0.
        1    1    3    3  502    0 -0.32453335128E+03  0.40039786650E+03 -0.11486695892E+04  0.12590004658E+04  0.50400001928E-02 0.  1.
       -1    1    3    3    0  502  0.32453335128E+03 -0.40039786650E+03  0.64531122911E+03  0.82587343463E+03  0.50400001928E-02 0. -1.
</event>
<event>
 5   0  0.8022574E-05  0.1997984E+04  0.7818609E-02  0.8607564E-01
       -2   -1    0    0    0  501  0.00000000000E+00  0.00000000000E+00  0.86574213686E+03  0.86574213687E+03  0.25500000920E-02 0.  1.
        2   -1    0    0  501    0  0.00000000000E+00  0.00000000000E+00 -0.11527514001E+04  0.11527514001E+04  0.25500000920E-02 0. -1.
    10030    2    1    2    0    0  0.00000000000E+00  0.00000000000E+00 -0.28700926327E+03  0.20184935370E+04  0.19979844448E+04 0.  0.
        1    1    3    3  502    0  0.75495646621E+03  0.21713025867E+03  0.47998568457E+03  0.92059278323E+03  0.50400001928E-02 0.  1.
       -1    1    3    3    0  502 -0.75495646621E+03 -0.21713025867E+03 -0.76699494784E+03  0.10979007538E+04  0.50400001928E-02 0. -1.
</event>
<event>
 5   0  0.3787698E-05  0.1998108E+04  0.7818609E-02  0.8607506E-01
       -1   -1    0    0    0  501  0.00000000000E+00  0.00000000000E+00  0.10420751099E+04  0.10420751099E+04  0.50400001928E-02 0. -1.
        1   -1    0    0  501    0  0.00000000000E+00  0.00000000000E+00 -0.95780900625E+03  0.95780900626E+03  0.50400001928E-02 0.  1.
    10030    2    1    2    0    0  0.00000000000E+00  0.00000000000E+00  0.84266103601E+02  0.19998841161E+04  0.19981080305E+04 0.  0.
        4    1    3    3  502    0 -0.48183830205E+03  0.54646401186E+03 -0.64207992362E+03  0.97111240688E+03  0.12699999809E+01 0.  1.
       -4    1    3    3    0  502  0.48183830205E+03 -0.54646401186E+03  0.72634602722E+03  0.10287717092E+04  0.12699999809E+01 0. -1.
</event>
<event>
 5   0  0.7843846E-05  0.2023470E+04  0.7818609E-02  0.8595726E-01
       -2   -1    0    0    0  501  0.00000000000E+00  0.00000000000E+00  0.65021309363E+03  0.65021309364E+03  0.25500000920E-02 0. -1.
        2   -1    0    0  501    0  0.00000000000E+00  0.00000000000E+00 -0.15742648804E+04  0.15742648804E+04  0.25500000920E-02 0.  1.
    10030    2    1    2    0    0  0.00000000000E+00  0.00000000000E+00 -0.92405178672E+03  0.22244779740E+04  0.20234699287E+04 0.  0.
        2    1    3    3  502    0 -0.43462026413E+03 -0.80972660627E+03  0.31587989280E+01  0.91900050539E+03  0.25500000920E-02 0. -1.
       -2    1    3    3    0  502  0.43462026413E+03  0.80972660627E+03 -0.92721058565E+03  0.13054774686E+04  0.25500000920E-02 0.  1.
</event>
<event>
 5   0  0.7843846E-05  0.1981545E+04  0.7818609E-02  0.8615298E-01
       -2   -1    0    0    0  501  0.00000000000E+00  0.00000000000E+00  0.83800267707E+03  0.83800267708E+03  0.25500000920E-02 0. -1.
        2   -1    0    0  501    0  0.00000000000E+00  0.00000000000E+00 -0.11713925702E+04  0.11713925702E+04  0.25500000920E-02 0.  1.
    10030    2    1    2    0    0  0.00000000000E+00  0.00000000000E+00 -0.33338989312E+03  0.20093952473E+04  0.19815449626E+04 0.  0.
        2    1    3    3  502    0  0.94424288474E+03  0.19881203166E+03 -0.39459632088E+03  0.10425100027E+04  0.25500000920E-02 0.  1.
       -2    1    3    3    0  502 -0.94424288474E+03 -0.19881203166E+03  0.61206427759E+02  0.96688524455E+03  0.25500000920E-02 0. -1.
</event>
<event>
 5   0  0.3787698E-05  0.1980175E+04  0.7818609E-02  0.8615946E-01
        1   -1    0    0  501    0  0.00000000000E+00  0.00000000000E+00  0.92229304620E+03  0.92229304621E+03  0.50400001928E-02 0.  1.
       -1   -1    0    0    0  501  0.00000000000E+00  0.00000000000E+00 -0.10628655766E+04  0.10628655766E+04  0.50400001928E-02 0. -1.
    10030    2    1    2    0    0  0.00000000000E+00  0.00000000000E+00 -0.14057253035E+03  0.19851586228E+04  0.19801752754E+04 0.  0.
        4    1    3    3  502    0 -0.46369303463E+03  0.45723983709E+03 -0.81794620806E+03  0.10455224107E+04  0.12699999809E+01 0. -1.
       -4    1    3    3    0  502  0.46369303463E+03 -0.45723983709E+03  0.67737367771E+03  0.93963621213E+03  0.12699999809E+01 0.  1.
</event>
<event>
 5   0  0.3549426E-05  0.2013613E+04  0.7818609E-02  0.8600282E-01
       -1   -1    0    0    0  501  0.00000000000E+00  0.00000000000E+00  0.94570834756E+03  0.94570834757E+03  0.50400001928E-02 0.  1.
        1   -1    0    0  501    0  0.00000000000E+00  0.00000000000E+00 -0.10718519495E+04  0.10718519495E+04  0.50400001928E-02 0. -1.
    10030    2    1    2    0    0  0.00000000000E+00  0.00000000000E+00 -0.12614360189E+03  0.20175602970E+04  0.20136130075E+04 0.  0.
        5    1    3    3  502    0  0.49277427917E+03 -0.22838569012E+03 -0.91246631402E+03  0.10618867067E+04  0.46999998093E+01 0. -1.
       -5    1    3    3    0  502 -0.49277427917E+03  0.22838569012E+03  0.78632271212E+03  0.95567359033E+03  0.46999998093E+01 0.  1.
</event>
<event>
 5   0  0.3772949E-05  0.1951217E+04  0.7818609E-02  0.8629774E-01
        1   -1    0    0  501    0  0.00000000000E+00  0.00000000000E+00  0.10530988790E+04  0.10530988790E+04  0.50400001928E-02 0. -1.
       -1   -1    0    0    0  501  0.00000000000E+00  0.00000000000E+00 -0.90381987663E+03  0.90381987664E+03  0.50400001928E-02 0.  1.
    10030    2    1    2    0    0  0.00000000000E+00  0.00000000000E+00  0.14927900237E+03  0.19569187556E+04  0.19512167475E+04 0.  0.
        2    1    3    3  502    0  0.10842818505E+03 -0.32043098276E+03 -0.84311879016E+03  0.90845031805E+03  0.25500000920E-02 0.  1.
       -2    1    3    3    0  502 -0.10842818505E+03  0.32043098276E+03  0.99239779253E+03  0.10484684376E+04  0.25500000920E-02 0. -1.
</event>
<event>
 5   0  0.7935008E-05  0.1923134E+04  0.7818609E-02  0.8643426E-01
        2   -1    0    0  501    0  0.00000000000E+00  0.00000000000E+00  0.19063852428E+04  0.19063852428E+04  0.25500000920E-02 0. -1.
       -2   -1    0    0    0  501  0.00000000000E+00  0.00000000000E+00 -0.48500750133E+03  0.48500750133E+03  0.25500000920E-02 0.  1.
    10030    2    1    2    0    0  0.00000000000E+00  0.00000000000E+00  0.14213777414E+04  0.23913927441E+04  0.19231340496E+04 0.  0.
        3    1    3    3  502    0  0.17085137971E+03  0.53665102121E+03  0.16798327570E+04  0.17717287079E+04  0.10100000352E+00 0. -1.
       -3    1    3    3    0  502 -0.17085137971E+03 -0.53665102121E+03 -0.25845501559E+03  0.61966403623E+03  0.10100000352E+00 0.  1.
</event>
<event>
 5   0  0.3772949E-05  0.1996016E+04  0.7818609E-02  0.8608486E-01
        1   -1    0    0  501    0  0.00000000000E+00  0.00000000000E+00  0.10825685813E+04  0.10825685813E+04  0.50400001928E-02 0. -1.
       -1   -1    0    0    0  501  0.00000000000E+00  0.00000000000E+00 -0.92005258832E+03  0.92005258834E+03  0.50400001928E-02 0.  1.
    10030    2    1    2    0    0  0.00000000000E+00  0.00000000000E+00  0.16251599300E+03  0.20026211697E+04  0.19960160574E+04 0.  0.
        2    1    3    3  502    0  0.44543780954E+03 -0.73407261937E+02  0.97426883387E+03  0.10737798792E+04  0.25500000920E-02 0. -1.
       -2    1    3    3    0  502 -0.44543780954E+03  0.73407261937E+02 -0.81175284087E+03  0.92884129050E+03  0.25500000920E-02 0.  1.
</event>
<event>
 5   0  0.3818907E-05  0.2000043E+04  0.7818609E-02  0.8606601E-01
       -1   -1    0    0    0  501  0.00000000000E+00  0.00000000000E+00  0.10168354168E+04  0.10168354168E+04  0.50400001928E-02 0. -1.
        1   -1    0    0  501    0  0.00000000000E+00  0.00000000000E+00 -0.98348564349E+03  0.98348564350E+03  0.50400001928E-02 0.  1.
    10030    2    1    2    0    0  0.00000000000E+00  0.00000000000E+00  0.33349773292E+02  0.20003210603E+04  0.20000430338E+04 0.  0.
        1    1    3    3  502    0 -0.47178792869E+03  0.87607529195E+03  0.11644479298E+03  0.10018239150E+04  0.50400001928E-02 0. -1.
       -1    1    3    3    0  502  0.47178792869E+03 -0.87607529195E+03 -0.83095019689E+02  0.99849714529E+03  0.50400001928E-02 0.  1.
</event>
<event>
 5   0  0.8022574E-05  0.1996621E+04  0.7818609E-02  0.8608202E-01
       -2   -1    0    0    0  501  0.00000000000E+00  0.00000000000E+00  0.10066611670E+04  0.10066611670E+04  0.25500000920E-02 0.  1.
        2   -1    0    0  501    0  0.00000000000E+00  0.00000000000E+00 -0.99002926671E+03  0.99002926672E+03  0.25500000920E-02 0. -1.
    10030    2    1    2    0    0  0.00000000000E+00  0.00000000000E+00  0.16631900322E+02  0.19966904338E+04  0.19966211629E+04 0.  0.
        1    1    3    3  502    0  0.11567093049E+03 -0.24626527370E+03 -0.95223685224E+03  0.99034406748E+03  0.50400001928E-02 0. -1.
       -1    1    3    3    0  502 -0.11567093049E+03  0.24626527370E+03  0.96886875256E+03  0.10063463663E+04  0.50400001928E-02 0.  1.
</event>
<event>
 5   0  0.3549426E-05  0.2001778E+04  0.7818609E-02  0.8605790E-01
       -1   -1    0    0    0  501  0.00000000000E+00  0.00000000000E+00  0.61075695044E+03  0.61075695046E+03  0.50400001928E-02 0. -1.
        1   -1    0    0  501    0  0.00000000000E+00  0.00000000000E+00 -0.16402256798E+04  0.16402256798E+04  0.50400001928E-02 0.  1.
    10030    2    1    2    0    0  0.00000000000E+00  0.00000000000E+00 -0.10294687294E+04  0.22509826303E+04  0.20017784435E+04 0.  0.
        5    1    3    3  502    0  0.13893299759E+03 -0.69901424265E+03 -0.13049517233E+04  0.14868908431E+04  0.46999998093E+01 0.  1.
       -5    1    3    3    0  502 -0.13893299759E+03  0.69901424265E+03  0.27548299393E+03  0.76409178715E+03  0.46999998093E+01 0. -1.
</event>
<event>
 5   0  0.3549426E-05  0.2012048E+04  0.7818609E-02  0.8601009E-01
        1   -1    0    0  501    0  0.00000000000E+00  0.00000000000E+00  0.72261521577E+03  0.72261521578E+03  0.50400001928E-02 0.  1.
       -1   -1    0    0    0  501  0.00000000000E+00  0.00000000000E+00 -0.14005849467E+04  0.14005849467E+04  0.50400001928E-02 0. -1.
    10030    2    1    2    0    0  0.00000000000E+00  0.00000000000E+00 -0.67796973091E+03  0.21232001625E+04  0.20120477067E+04 0.  0.
        5    1    3    3  502    0 -0.77267466814E+03 -0.36167699964E+03 -0.90156473895E+03  0.12412402924E+04  0.46999998093E+01 0. -1.
       -5    1    3    3    0  502  0.77267466814E+03  0.36167699964E+03  0.22359500804E+03  0.88195987011E+03  0.46999998093E+01 0.  1.
</event>
<event>
 5   0  0.7843846E-05  0.2048815E+04  0.7818609E-02  0.8584132E-01
        2   -1    0    0  501    0  0.00000000000E+00  0.00000000000E+00  0.84088055613E+03  0.84088055614E+03  0.25500000920E-02 0. -1.
       -2   -1    0    0    0  501  0.00000000000E+00  0.00000000000E+00 -0.12479908215E+04  0.12479908215E+04  0.25500000920E-02 0.  1.
    10030    2    1    2    0    0  0.00000000000E+00  0.00000000000E+00 -0.40711026534E+03  0.20888713776E+04  0.20488154783E+04 0.  0.
        2    1    3    3  502    0  0.34741738553E+02 -0.51006124937E+03  0.70151756849E+03  0.86804168414E+03  0.25500000920E-02 0. -1.
       -2    1    3    3    0  502 -0.34741738553E+02  0.51006124937E+03 -0.11086278338E+04  0.12208296935E+04  0.25500000920E-02 0.  1.
</event>
<event>
 5   0  0.7843846E-05  0.1997967E+04  0.7818609E-02  0.8607572E-01
        2   -1    0    0  501    0  0.00000000000E+00  0.00000000000E+00  0.10456556088E+04  0.10456556088E+04  0.25500000920E-02 0. -1.
       -2   -1    0    0    0  501  0.00000000000E+00  0.00000000000E+00 -0.95439411888E+03  0.95439411888E+03  0.25500000920E-02 0.  1.
    10030    2    1    2    0    0  0.00000000000E+00  0.00000000000E+00  0.91261489963E+02  0.20000497277E+04  0.19979665297E+04 0.  0.
        2    1    3    3  502    0  0.34646958366E+03 -0.63203204013E+03  0.73806136010E+03  0.10316202031E+04  0.25500000920E-02 0. -1.
       -2    1    3    3    0  502 -0.34646958366E+03  0.63203204013E+03 -0.64679987014E+03  0.96842952463E+03  0.25500000920E-02 0.  1.
</event>
<event>
 5   0  0.3970042E-05  0.2002340E+04  0.7818609E-02  0.8605528E-01
        1   -1    0    0  501    0  0.00000000000E+00  0.00000000000E+00  0.71089655137E+03  0.71089655139E+03  0.50400001928E-02 0. -1.
       -1   -1    0    0    0  501  0.00000000000E+00  0.00000000000E+00 -0.14099674289E+04  0.14099674289E+04  0.50400001928E-02 0.  1.
    10030    2    1    2    0    0  0.00000000000E+00  0.00000000000E+00 -0.69907087751E+03  0.21208639803E+04  0.20023396143E+04 0.  0.
        3    1    3    3  502    0  0.40849845603E+03 -0.73464806822E+03 -0.92556717410E+03  0.12503013144E+04  0.10100000352E+00 0.  1.
       -3    1    3    3    0  502 -0.40849845603E+03  0.73464806822E+03  0.22649629659E+03  0.87056266592E+03  0.10100000352E+00 0. -1.
</event>
<event>
 5   0  0.8011197E-05  0.2001737E+04  0.7818609E-02  0.8605809E-01
        2   -1    0    0  501    0  0.00000000000E+00  0.00000000000E+00  0.19458813440E+04  0.19458813440E+04  0.25500000920E-02 0. -1.
       -2   -1    0    0    0  501  0.00000000000E+00  0.00000000000E+00 -0.51479898228E+03  0.51479898229E+03  0.25500000920E-02 0.  1.
    10030    2    1    2    0    0  0.00000000000E+00  0.00000000000E+00  0.14310823617E+04  0.24606803263E+04  0.20017369813E+04 0.  0.
        5    1    3    3  502    0 -0.66247517778E+02  0.19874680669E+03 -0.48753086404E+03  0.53065757336E+03  0.46999998093E+01 0.  1.
       -5    1    3    3    0  502  0.66247517778E+02 -0.19874680669E+03  0.19186132258E+04  0.19300227529E+04  0.46999998093E+01 0. -1.
</event>
<event>
 5   0  0.3787698E-05  0.2011483E+04  0.7818609E-02  0.8601271E-01
       -1   -1    0    0    0  501  0.00000000000E+00  0.00000000000E+00  0.11755261740E+04  0.11755261741E+04  0.50400001928E-02 0.  1.
        1   -1    0    0  501    0  0.00000000000E+00  0.00000000000E+00 -0.86047940584E+03  0.86047940586E+03  0.50400001928E-02 0. -1.
    10030    2    1    2    0    0  0.00000000000E+00  0.00000000000E+00  0.31504676820E+03  0.20360055799E+04  0.20114830984E+04 0.  0.
        4    1    3    3  502    0 -0.23259169341E+03 -0.68153751425E+02 -0.83047618401E+03  0.86512203462E+03  0.12699999809E+01 0. -1.
       -4    1    3    3    0  502  0.23259169341E+03  0.68153751425E+02  0.11455229522E+04  0.11708835453E+04  0.12699999809E+01 0.  1.
</event>
<event>
 5   0  0.7843846E-05  0.2009725E+04  0.7818609E-02  0.8602087E-01
       -2   -1    0    0    0  501  0.00000000000E+00  0.00000000000E+00  0.12149523228E+04  0.12149523228E+04  0.25500000920E-02 0. -1.
        2   -1    0    0  501    0  0.00000000000E+00  0.00000000000E+00 -0.83110177693E+03  0.83110177693E+03  0.25500000920E-02 0.  1.
    10030    2    1    2    0    0  0.00000000000E+00  0.00000000000E+00  0.38385054587E+03  0.20460540997E+04  0.20097253886E+04 0.  0.
        2    1    3    3  502    0 -0.22283609104E+03  0.87529207372E+03  0.64029161861E+03  0.11071429423E+04  0.25500000920E-02 0.  1.
       -2    1    3    3    0  502  0.22283609104E+03 -0.87529207372E+03 -0.25644107274E+03  0.93891115745E+03  0.25500000920E-02 0. -1.
</event>
<event>
 5   0  0.3970042E-05  0.1998306E+04  0.7818609E-02  0.8607413E-01
        1   -1    0    0  501    0  0.00000000000E+00  0.00000000000E+00  0.21282035966E+04  0.21282035967E+04  0.50400001928E-02 0. -1.
       -1   -1    0    0    0  501  0.00000000000E+00  0.00000000000E+00 -0.46908399337E+03  0.46908399339E+03  0.50400001928E-02 0.  1.
    10030    2    1    2    0    0  0.00000000000E+00  0.00000000000E+00  0.16591196033E+04  0.25972875900E+04  0.19983055240E+04 0.  0.
        3    1    3    3  502    0  0.43541256868E+03 -0.89919951404E+03  0.84612125821E+03  0.13092230768E+04  0.10100000352E+00 0. -1.
       -3    1    3    3    0  502 -0.43541256868E+03  0.89919951404E+03  0.81299834507E+03  0.12880645133E+04  0.10100000352E+00 0.  1.
</event>
<event>
 5   0  0.3549426E-05  0.1994228E+04  0.7818609E-02  0.8609324E-01
       -1   -1    0    0    0  501  0.00000000000E+00  0.00000000000E+00  0.21888907712E+04  0.21888907712E+04  0.50400001928E-02 0.  1.
        1   -1    0    0  501    0  0.00000000000E+00  0.00000000000E+00 -0.45421909255E+03  0.45421909258E+03  0.50400001928E-02 0. -1.
    10030    2    1    2    0    0  0.00000000000E+00  0.00000000000E+00  0.17346716787E+04  0.26431098638E+04  0.19942276498E+04 0.  0.
        5    1    3    3  502    0 -0.21660018882E+03  0.53412240048E+03 -0.21104770468E+03  0.61381235255E+03  0.46999998093E+01 0. -1.
       -5    1    3    3    0  502  0.21660018882E+03 -0.53412240048E+03  0.19457193833E+04  0.20292975113E+04  0.46999998093E+01 0.  1.
</event>
<event>
 5   0  0.3772949E-05  0.2004743E+04  0.7818609E-02  0.8604407E-01
       -1   -1    0    0    0  501  0.00000000000E+00  0.00000000000E+00  0.94728478348E+03  0.94728478349E+03  0.50400001928E-02 0.  1.
        1   -1    0    0  501    0  0.00000000000E+00  0.00000000000E+00 -0.10606612676E+04  0.10606612676E+04  0.50400001928E-02 0. -1.
    10030    2    1    2    0    0  0.00000000000E+00  0.00000000000E+00 -0.11337648407E+03  0.20079460511E+04  0.20047426560E+04 0.  0.
        2    1    3    3  502    0 -0.32020814313E+03 -0.69289830459E+02  0.89214483366E+03  0.95039820063E+03  0.25500000920E-02 0.  1.
       -2    1    3    3    0  502  0.32020814313E+03  0.69289830459E+02 -0.10055213177E+04  0.10575478504E+04  0.25500000920E-02 0. -1.
</event>
<event>
 5   0  0.3549426E-05  0.2013232E+04  0.7818609E-02  0.8600459E-01
       -1   -1    0    0    0  501  0.00000000000E+00  0.00000000000E+00  0.61921132709E+03  0.61921132711E+03  0.50400001928E-02 0.  1.
        1   -1    0    0  501    0  0.00000000000E+00  0.00000000000E+00 -0.16363978109E+04  0.16363978109E+04  0.50400001928E-02 0. -1.
    10030    2    1    2    0    0  0.00000000000E+00  0.00000000000E+00 -0.10171864838E+04  0.22556091380E+04  0.20132322868E+04 0.  0.
        5    1    3    3  502    0 -0.12714903394E+03  0.42902112477E+02 -0.16263190751E+04  0.16318527177E+04  0.46999998093E+01 0. -1.
       -5    1    3    3    0  502  0.12714903394E+03 -0.42902112477E+02  0.60913259133E+03  0.62375642033E+03  0.46999998093E+01 0.  1.
</event>
<event>
 5   0  0.7843846E-05  0.1998075E+04  0.7818609E-02  0.8607521E-01
       -2   -1    0    0    0  501  0.00000000000E+00  0.00000000000E+00  0.53038381428E+03  0.53038381428E+03  0.25500000920E-02 0.  1.
        2   -1    0    0  501    0  0.00000000000E+00  0.00000000000E+00 -0.18817995419E+04  0.18817995419E+04  0.25500000920E-02 0. -1.
    10030    2    1    2    0    0  0.00000000000E+00  0.00000000000E+00 -0.13514157276E+04  0.24121833562E+04  0.19980750924E+04 0.  0.
        2    1    3    3  502    0  0.39612498640E+03 -0.82194526847E+03 -0.18447729284E+03  0.93088178669E+03  0.25500000920E-02 0.  1.
       -2    1    3    3    0  502 -0.39612498640E+03  0.82194526847E+03 -0.11669384348E+04  0.14813015695E+04  0.25500000920E-02 0. -1.
</event>
<event>
 5   0  0.7843846E-05  0.1996443E+04  0.7818609E-02  0.8608286E-01
        2   -1    0    0  501    0  0.00000000000E+00  0.00000000000E+00  0.12845112484E+04  0.12845112484E+04  0.25500000920E-02 0.  1.
       -2   -1    0    0    0  501  0.00000000000E+00  0.00000000000E+00 -0.77573950060E+03  0.77573950060E+03  0.25500000920E-02 0. -1.
    10030    2    1    2    0    0  0.00000000000E+00  0.00000000000E+00  0.50877174783E+03  0.20602507490E+04  0.19964429512E+04 0.  0.
        2    1    3    3  502    0  0.88100016933E+03  0.41368223796E+03  0.25598008308E+02  0.97362700784E+03  0.25500000920E-02 0. -1.
       -2    1    3    3    0  502 -0.88100016933E+03 -0.41368223796E+03  0.48317373952E+03  0.10866237412E+04  0.25500000920E-02 0.  1.
</event>
<event>
 5   0  0.3787698E-05  0.2000948E+04  0.7818609E-02  0.8606178E-01
        1   -1    0    0  501    0  0.00000000000E+00  0.00000000000E+00  0.13429939240E+04  0.13429939240E+04  0.50400001928E-02 0.  1.
       -1   -1    0    0    0  501  0.00000000000E+00  0.00000000000E+00 -0.74531079693E+03  0.74531079695E+03  0.50400001928E-02 0. -1.
    10030    2    1    2    0    0  0.00000000000E+00  0.00000000000E+00  0.59768312707E+03  0.20883047210E+04  0.20009476473E+04 0.  0.
        4    1    3    3  502    0  0.98342266751E+03 -0.18347682668E+03  0.28554280746E+03  0.10403461908E+04  0.12699999809E+01 0.  1.
       -4    1    3    3    0  502 -0.98342266751E+03  0.18347682668E+03  0.31214031961E+03  0.10479585302E+04  0.12699999809E+01 0. -1.
</event>
<event>
 5   0  0.7857136E-05  0.1998223E+04  0.7818609E-02  0.8607452E-01
       -2   -1    0    0    0  501  0.00000000000E+00  0.00000000000E+00  0.54072468664E+03  0.54072468664E+03  0.25500000920E-02 0.  1.
        2   -1    0    0  501    0  0.00000000000E+00  0.00000000000E+00 -0.18460859903E+04  0.18460859903E+04  0.25500000920E-02 0. -1.
    10030    2    1    2    0    0  0.00000000000E+00  0.00000000000E+00 -0.13053613037E+04  0.23868106770E+04  0.19982234796E+04 0.  0.
        4    1    3    3  502    0  0.33073105240E+03 -0.53621400317E+03  0.27356169600E+03  0.68683775423E+03  0.12699999809E+01 0.  1.
       -4    1    3    3    0  502 -0.33073105240E+03  0.53621400317E+03 -0.15789229997E+04  0.16999729227E+04  0.12699999809E+01 0. -1.
</event>
<event>
 5   0  0.2859625E-05  0.2016488E+04  0.7818609E-02  0.8598951E-01
        3   -1    0    0  501    0  0.00000000000E+00  0.00000000000E+00  0.79154301031E+03  0.79154301675E+03  0.10100000352E+00 0.  1.
       -3   -1    0    0    0  501  0.00000000000E+00  0.00000000000E+00 -0.12842710306E+04  0.12842710346E+04  0.10100000352E+00 0. -1.
    10030    2    1    2    0    0  0.00000000000E+00  0.00000000000E+00 -0.49272802029E+03  0.20758140513E+04  0.20164878065E+04 0.  0.
        2    1    3    3  502    0  0.34104200596E+03 -0.83650264350E+03 -0.70732085224E+03  0.11473225834E+04  0.25500000920E-02 0. -1.
       -2    1    3    3    0  502 -0.34104200596E+03  0.83650264350E+03  0.21459283196E+03  0.92849146789E+03  0.25500000920E-02 0.  1.
</event>
<event>
 5   0  0.3549426E-05  0.2001845E+04  0.7818609E-02  0.8605759E-01
        1   -1    0    0  501    0  0.00000000000E+00  0.00000000000E+00  0.12740104666E+04  0.12740104666E+04  0.50400001928E-02 0. -1.
       -1   -1    0    0    0  501  0.00000000000E+00  0.00000000000E+00 -0.78637156792E+03  0.78637156793E+03  0.50400001928E-02 0.  1.
    10030    2    1    2    0    0  0.00000000000E+00  0.00000000000E+00  0.48763889871E+03  0.20603820346E+04  0.20018447574E+04 0.  0.
        5    1    3    3  502    0  0.67784711238E+03 -0.68792619965E+03 -0.26744585021E+02  0.96615553962E+03  0.46999998093E+01 0.  1.
       -5    1    3    3    0  502 -0.67784711238E+03  0.68792619965E+03  0.51438348373E+03  0.10942264950E+04  0.46999998093E+01 0. -1.
</event>
<event>
 5   0  0.3970042E-05  0.2002042E+04  0.7818609E-02  0.8605667E-01
        1   -1    0    0  501    0  0.00000000000E+00  0.00000000000E+00  0.10317082523E+04  0.10317082523E+04  0.50400001928E-02 0.  1.
       -1   -1    0    0    0  501  0.00000000000E+00  0.00000000000E+00 -0.97124605539E+03  0.97124605540E+03  0.50400001928E-02 0. -1.
    10030    2    1    2    0    0  0.00000000000E+00  0.00000000000E+00  0.60462196895E+02  0.20029543077E+04  0.20020415284E+04 0.  0.
        3    1    3    3  502    0  0.57992993224E+03  0.62081800634E+03  0.55991448910E+03  0.10174664459E+04  0.10100000352E+00 0.  1.
       -3    1    3    3    0  502 -0.57992993224E+03 -0.62081800634E+03 -0.49945229221E+03  0.98548786177E+03  0.10100000352E+00 0. -1.
</event>
<event>
 5   0  0.7843846E-05  0.1998048E+04  0.7818609E-02  0.8607534E-01
        2   -1    0    0  501    0  0.00000000000E+00  0.00000000000E+00  0.19714868571E+04  0.19714868572E+04  0.25500000920E-02 0.  1.
       -2   -1    0    0    0  501  0.00000000000E+00  0.00000000000E+00 -0.50624161033E+03  0.50624161034E+03  0.25500000920E-02 0. -1.
    10030    2    1    2    0    0  0.00000000000E+00  0.00000000000E+00  0.14652452468E+04  0.24777284675E+04  0.19980477285E+04 0.  0.
        2    1    3    3  502    0 -0.32723504227E+03 -0.26456484479E+03 -0.39097769469E+03  0.57440481173E+03  0.25500000920E-02 0. -1.
       -2    1    3    3    0  502  0.32723504227E+03  0.26456484479E+03  0.18562229415E+04  0.19033236558E+04  0.25500000920E-02 0.  1.
</event>
<event>
 5   0  0.3818907E-05  0.2002469E+04  0.7818609E-02  0.8605467E-01
       -1   -1    0    0    0  501  0.00000000000E+00  0.00000000000E+00  0.65777989824E+03  0.65777989826E+03  0.50400001928E-02 0. -1.
        1   -1    0    0  501    0  0.00000000000E+00  0.00000000000E+00 -0.15240208352E+04  0.15240208352E+04  0.50400001928E-02 0.  1.
    10030    2    1    2    0    0  0.00000000000E+00  0.00000000000E+00 -0.86624093694E+03  0.21818007334E+04  0.20024687462E+04 0.  0.
        1    1    3    3  502    0  0.84893958349E+03 -0.27613109793E+03 -0.92706712383E+03  0.12870121413E+04  0.50400001928E-02 0.  1.
       -1    1    3    3    0  502 -0.84893958349E+03  0.27613109793E+03  0.60826186889E+02  0.89478859218E+03  0.50400001928E-02 0. -1.
</event>
<event>
 5   0  0.7843846E-05  0.1958358E+04  0.7818609E-02  0.8626341E-01
        2   -1    0    0  501    0  0.00000000000E+00  0.00000000000E+00  0.17574738993E+04  0.17574738993E+04  0.25500000920E-02 0.  1.
       -2   -1    0    0    0  501  0.00000000000E+00  0.00000000000E+00 -0.54555098778E+03  0.54555098778E+03  0.25500000920E-02 0. -1.
    10030    2    1    2    0    0  0.00000000000E+00  0.00000000000E+00  0.12119229115E+04  0.23030248871E+04  0.19583581100E+04 0.  0.
        2    1    3    3  502    0  0.39273111416E+03  0.11796626609E+03 -0.43971016601E+03  0.60124770109E+03  0.25500000920E-02 0. -1.
       -2    1    3    3    0  502 -0.39273111416E+03 -0.11796626609E+03  0.16516330775E+04  0.17017771860E+04  0.25500000920E-02 0.  1.
</event>
<event>
 5   0  0.7843846E-05  0.1997570E+04  0.7818609E-02  0.8607758E-01
       -2   -1    0    0    0  501  0.00000000000E+00  0.00000000000E+00  0.12205180359E+04  0.12205180359E+04  0.25500000920E-02 0.  1.
        2   -1    0    0  501    0  0.00000000000E+00  0.00000000000E+00 -0.81733418006E+03  0.81733418007E+03  0.25500000920E-02 0. -1.
    10030    2    1    2    0    0  0.00000000000E+00  0.00000000000E+00  0.40318385588E+03  0.20378522160E+04  0.19975696315E+04 0.  0.
        2    1    3    3  502    0  0.27585677200E+03  0.80657265940E+03  0.73258278126E+03  0.11239812921E+04  0.25500000920E-02 0.  1.
       -2    1    3    3    0  502 -0.27585677200E+03 -0.80657265940E+03 -0.32939892539E+03  0.91387092393E+03  0.25500000920E-02 0. -1.
</event>
<event>
 5   0  0.3970042E-05  0.1995850E+04  0.7818609E-02  0.8608563E-01
        1   -1    0    0  501    0  0.00000000000E+00  0.00000000000E+00  0.20085908193E+04  0.20085908193E+04  0.50400001928E-02 0. -1.
       -1   -1    0    0    0  501  0.00000000000E+00  0.00000000000E+00 -0.49579761879E+03  0.49579761881E+03  0.50400001928E-02 0.  1.
    10030    2    1    2    0    0  0.00000000000E+00  0.00000000000E+00  0.15127932005E+04  0.25043884381E+04  0.19958502403E+04 0.  0.
        3    1    3    3  502    0  0.46958404978E+03  0.24982989841E+03  0.18158876676E+04  0.18921871444E+04  0.10100000352E+00 0. -1.
       -3    1    3    3    0  502 -0.46958404978E+03 -0.24982989841E+03 -0.30309446702E+03  0.61220129377E+03  0.10100000352E+00 0.  1.
</event>
<event>
 5   0  0.3818907E-05  0.2001556E+04  0.7818609E-02  0.8605893E-01
        1   -1    0    0  501    0  0.00000000000E+00  0.00000000000E+00  0.73942175079E+03  0.73942175081E+03  0.50400001928E-02 0. -1.
       -1   -1    0    0    0  501  0.00000000000E+00  0.00000000000E+00 -0.13545138377E+04  0.13545138377E+04  0.50400001928E-02 0.  1.
    10030    2    1    2    0    0  0.00000000000E+00  0.00000000000E+00 -0.61509208687E+03  0.20939355885E+04  0.20015563878E+04 0.  0.
        1    1    3    3  502    0  0.35721011410E+03  0.38365409103E+03 -0.11993989409E+04  0.13089489473E+04  0.50400001928E-02 0.  1.
       -1    1    3    3    0  502 -0.35721011410E+03 -0.38365409103E+03  0.58430685401E+03  0.78498664119E+03  0.50400001928E-02 0. -1.
</event>
<event>
 5   0  0.3970042E-05  0.1989034E+04  0.7818609E-02  0.8611765E-01
        1   -1    0    0  501    0  0.00000000000E+00  0.00000000000E+00  0.11551033334E+04  0.11551033334E+04  0.50400001928E-02 0.  1.
       -1   -1    0    0    0  501  0.00000000000E+00  0.00000000000E+00 -0.85625627788E+03  0.85625627790E+03  0.50400001928E-02 0. -1.
    10030    2    1    2    0    0  0.00000000000E+00  0.00000000000E+00  0.29884705549E+03  0.20113596113E+04  0.19890344198E+04 0.  0.
        3    1    3    3  502    0  0.49629858894E+03  0.46793023524E+01  0.10209147015E+04  0.11351656369E+04  0.10100000352E+00 0.  1.
       -3    1    3    3    0  502 -0.49629858894E+03 -0.46793023524E+01 -0.72206764597E+03  0.87619397442E+03  0.10100000352E+00 0. -1.
</event>
<event>
 5   0  0.3549426E-05  0.1998853E+04  0.7818609E-02  0.8607157E-01
       -1   -1    0    0    0  501  0.00000000000E+00  0.00000000000E+00  0.38994900358E+03  0.38994900361E+03  0.50400001928E-02 0.  1.
        1   -1    0    0  501    0  0.00000000000E+00  0.00000000000E+00 -0.25614975338E+04  0.25614975338E+04  0.50400001928E-02 0. -1.
    10030    2    1    2    0    0  0.00000000000E+00  0.00000000000E+00 -0.21715485302E+04  0.29514465374E+04  0.19988530822E+04 0.  0.
        5    1    3    3  502    0 -0.27929392155E+03 -0.76657380159E+03 -0.23345840725E+03  0.84862559814E+03  0.46999998093E+01 0.  1.
       -5    1    3    3    0  502  0.27929392155E+03  0.76657380159E+03 -0.19380901229E+04  0.21028209392E+04  0.46999998093E+01 0. -1.
</event>
<event>
 5   0  0.3787698E-05  0.1981141E+04  0.7818609E-02  0.8615489E-01
       -1   -1    0    0    0  501  0.00000000000E+00  0.00000000000E+00  0.59084435359E+03  0.59084435361E+03  0.50400001928E-02 0. -1.
        1   -1    0    0  501    0  0.00000000000E+00  0.00000000000E+00 -0.16607240446E+04  0.16607240446E+04  0.50400001928E-02 0.  1.
    10030    2    1    2    0    0  0.00000000000E+00  0.00000000000E+00 -0.10698796910E+04  0.22515683982E+04  0.19811405045E+04 0.  0.
        4    1    3    3  502    0 -0.28239656096E+03  0.87172661437E+03 -0.96256144213E+03  0.13289775207E+04  0.12699999809E+01 0.  1.
       -4    1    3    3    0  502  0.28239656096E+03 -0.87172661437E+03 -0.10731824891E+03  0.92259087752E+03  0.12699999809E+01 0. -1.
</event>
<event>
 5   0  0.3787698E-05  0.1998353E+04  0.7818609E-02  0.8607391E-01
        1   -1    0    0  501    0  0.00000000000E+00  0.00000000000E+00  0.90013064775E+03  0.90013064776E+03  0.50400001928E-02 0. -1.
       -1   -1    0    0    0  501  0.00000000000E+00  0.00000000000E+00 -0.11091206649E+04  0.11091206649E+04  0.50400001928E-02 0.  1.
    10030    2    1    2    0    0  0.00000000000E+00  0.00000000000E+00 -0.20899001716E+03  0.20092513127E+04  0.19983528243E+04 0.  0.
        4    1    3    3  502    0  0.16172814056E+03  0.78864233476E+03 -0.69953266039E+03  0.10665178290E+04  0.12699999809E+01 0.  1.
       -4    1    3    3    0  502 -0.16172814056E+03 -0.78864233476E+03  0.49054264322E+03  0.94273348373E+03  0.12699999809E+01 0. -1.
</event>
<event>
 5   0  0.8022574E-05  0.2019678E+04  0.7818609E-02  0.8597475E-01
        2   -1    0    0  501    0  0.00000000000E+00  0.00000000000E+00  0.19120793197E+04  0.19120793197E+04  0.25500000920E-02 0. -1.
       -2   -1    0    0    0  501  0.00000000000E+00  0.00000000000E+00 -0.53333300383E+03  0.53333300384E+03  0.25500000920E-02 0.  1.
    10030    2    1    2    0    0  0.00000000000E+00  0.00000000000E+00  0.13787463159E+04  0.24454123235E+04  0.20196781993E+04 0.  0.
        1    1    3    3  502    0  0.15946693068E+03 -0.21138738491E+03  0.18692974622E+04  0.18879585087E+04  0.50400001928E-02 0. -1.
       -1    1    3    3    0  502 -0.15946693068E+03  0.21138738491E+03 -0.49055114632E+03  0.55745381482E+03  0.50400001928E-02 0.  1.
</event>
<event>
 5   0  0.7935008E-05  0.2000601E+04  0.7818609E-02  0.8606340E-01
       -2   -1    0    0    0  501  0.00000000000E+00  0.00000000000E+00  0.81184513093E+03  0.81184513093E+03  0.25500000920E-02 0. -1.
        2   -1    0    0  501    0  0.00000000000E+00  0.00000000000E+00 -0.12325019163E+04  0.12325019163E+04  0.25500000920E-02 0.  1.
    10030    2    1    2    0    0  0.00000000000E+00  0.00000000000E+00 -0.42065678536E+03  0.20443470472E+04  0.20006005894E+04 0.  0.
        3    1    3    3  502    0 -0.60548237633E+03  0.25109326241E+03  0.56180256054E+03  0.86329535021E+03  0.10100000352E+00 0. -1.
       -3    1    3    3    0  502  0.60548237633E+03 -0.25109326241E+03 -0.98245934589E+03  0.11810516970E+04  0.10100000352E+00 0.  1.
</event>
<event>
 5   0  0.3549426E-05  0.1994431E+04  0.7818609E-02  0.8609229E-01
        1   -1    0    0  501    0  0.00000000000E+00  0.00000000000E+00  0.14387523386E+04  0.14387523386E+04  0.50400001928E-02 0.  1.
       -1   -1    0    0    0  501  0.00000000000E+00  0.00000000000E+00 -0.69118109243E+03  0.69118109245E+03  0.50400001928E-02 0. -1.
    10030    2    1    2    0    0  0.00000000000E+00  0.00000000000E+00  0.74757124617E+03  0.21299334311E+04  0.19944306588E+04 0.  0.
        5    1    3    3  502    0 -0.51032843728E+03  0.56887870992E+03  0.10578999075E+04  0.13050794630E+04  0.46999998093E+01 0.  1.
       -5    1    3    3    0  502  0.51032843728E+03 -0.56887870992E+03 -0.31032866135E+03  0.82485396802E+03  0.46999998093E+01 0. -1.
</event>
<event>
 5   0  0.7843846E-05  0.2001680E+04  0.7818609E-02  0.8605836E-01
        2   -1    0    0  501    0  0.00000000000E+00  0.00000000000E+00  0.16690956155E+04  0.16690956155E+04  0.25500000920E-02 0. -1.
       -2   -1    0    0    0  501  0.00000000000E+00  0.00000000000E+00 -0.60013377792E+03  0.60013377793E+03  0.25500000920E-02 0.  1.
    10030    2    1    2    0    0  0.00000000000E+00  0.00000000000E+00  0.10689618375E+04  0.22692293934E+04  0.20016799519E+04 0.  0.
        2    1    3    3  502    0  0.84753735222E+03 -0.49758650264E+03  0.74888633001E+03  0.12356142708E+04  0.25500000920E-02 0.  1.
       -2    1    3    3    0  502 -0.84753735222E+03  0.49758650264E+03  0.32007550752E+03  0.10336151225E+04  0.25500000920E-02 0. -1.
</event>
<event>
 5   0  0.7857136E-05  0.1957458E+04  0.7818609E-02  0.8626773E-01
       -2   -1    0    0    0  501  0.00000000000E+00  0.00000000000E+00  0.12034885829E+04  0.12034885829E+04  0.25500000920E-02 0.  1.
        2   -1    0    0  501    0  0.00000000000E+00  0.00000000000E+00 -0.79594518612E+03  0.79594518613E+03  0.25500000920E-02 0. -1.
    10030    2    1    2    0    0  0.00000000000E+00  0.00000000000E+00  0.40754339680E+03  0.19994337691E+04  0.19574584993E+04 0.  0.
        4    1    3    3  502    0  0.77377064685E+03  0.45617121909E+03  0.60081798529E+03  0.10806465932E+04  0.12699999809E+01 0.  1.
       -4    1    3    3    0  502 -0.77377064685E+03 -0.45617121909E+03 -0.19327458849E+03  0.91878717585E+03  0.12699999809E+01 0. -1.
</event>
<event>
 5   0  0.3787698E-05  0.1961613E+04  0.7818609E-02  0.8624781E-01
        1   -1    0    0  501    0  0.00000000000E+00  0.00000000000E+00  0.14302159191E+04  0.14302159191E+04  0.50400001928E-02 0.  1.
       -1   -1    0    0    0  501  0.00000000000E+00  0.00000000000E+00 -0.67261264254E+03  0.67261264256E+03  0.50400001928E-02 0. -1.
    10030    2    1    2    0    0  0.00000000000E+00  0.00000000000E+00  0.75760327653E+03  0.21028285616E+04  0.19616129167E+04 0.  0.
        4    1    3    3  502    0 -0.18928792135E+03 -0.94531588035E+03  0.57213953918E+03  0.11210697106E+04  0.12699999809E+01 0.  1.
       -4    1    3    3    0  502  0.18928792135E+03  0.94531588035E+03  0.18546373735E+03  0.98175885103E+03  0.12699999809E+01 0. -1.
</event>
<event>
 5   0  0.8011197E-05  0.2004955E+04  0.7818609E-02  0.8604307E-01
        2   -1    0    0  501    0  0.00000000000E+00  0.00000000000E+00  0.15248485461E+04  0.15248485461E+04  0.25500000920E-02 0. -1.
       -2   -1    0    0    0  501  0.00000000000E+00  0.00000000000E+00 -0.65905658851E+03  0.65905658851E+03  0.25500000920E-02 0.  1.
    10030    2    1    2    0    0  0.00000000000E+00  0.00000000000E+00  0.86579195758E+03  0.21839051346E+04  0.20049553419E+04 0.  0.
        5    1    3    3  502    0  0.30016852001E+03  0.72716015284E+03  0.11097042727E+04  0.13602678748E+04  0.46999998093E+01 0. -1.
       -5    1    3    3    0  502 -0.30016852001E+03 -0.72716015284E+03 -0.24391231514E+03  0.82363725982E+03  0.46999998093E+01 0.  1.
</event>
<event>
 5   0  0.8022574E-05  0.1997226E+04  0.7818609E-02  0.8607919E-01
        2   -1    0    0  501    0  0.00000000000E+00  0.00000000000E+00  0.12368774042E+04  0.12368774042E+04  0.25500000920E-02 0. -1.
       -2   -1    0    0    0  501  0.00000000000E+00  0.00000000000E+00 -0.80624598898E+03  0.80624598899E+03  0.25500000920E-02 0.  1.
    10030    2    1    2    0    0  0.00000000000E+00  0.00000000000E+00  0.43063141519E+03  0.20431233932E+04  0.19972255216E+04 0.  0.
        1    1    3    3  502    0 -0.86035849898E+03 -0.31285699965E+03  0.62339556059E+03  0.11075731461E+04  0.50400001928E-02 0. -1.
       -1    1    3    3    0  502  0.86035849898E+03  0.31285699965E+03 -0.19276414539E+03  0.93555024706E+03  0.50400001928E-02 0.  1.
</event>
<event>
 5   0  0.3787698E-05  0.1977479E+04  0.7818609E-02  0.8617223E-01
        1   -1    0    0  501    0  0.00000000000E+00  0.00000000000E+00  0.24722434975E+04  0.24722434975E+04  0.50400001928E-02 0.  1.
       -1   -1    0    0    0  501  0.00000000000E+00  0.00000000000E+00 -0.39543263713E+03  0.39543263716E+03  0.50400001928E-02 0. -1.
    10030    2    1    2    0    0  0.00000000000E+00  0.00000000000E+00  0.20768108603E+04  0.28676761346E+04  0.19774789666E+04 0.  0.
        4    1    3    3  502    0 -0.23569190010E+02 -0.38160518980E+03  0.23607056273E+04  0.23914662237E+04  0.12699999809E+01 0.  1.
       -4    1    3    3    0  502  0.23569190010E+02  0.38160518980E+03 -0.28389476699E+03  0.47620991088E+03  0.12699999809E+01 0. -1.
</event>
<event>
 5   0  0.3970042E-05  0.1991118E+04  0.7818609E-02  0.8610785E-01
        1   -1    0    0  501    0  0.00000000000E+00  0.00000000000E+00  0.14785869918E+04  0.14785869918E+04  0.50400001928E-02 0.  1.
       -1   -1    0    0    0  501  0.00000000000E+00  0.00000000000E+00 -0.67032737800E+03  0.67032737801E+03  0.50400001928E-02 0. -1.
    10030    2    1    2    0    0  0.00000000000E+00  0.00000000000E+00  0.80825961379E+03  0.21489143698E+04  0.19911176172E+04 0.  0.
        3    1    3    3  502    0  0.43233445190E+02  0.68177520629E+03 -0.37745220962E+03  0.78048494120E+03  0.10100000352E+00 0. -1.
       -3    1    3    3    0  502 -0.43233445190E+02 -0.68177520629E+03  0.11857118234E+04  0.13684294286E+04  0.10100000352E+00 0.  1.
</event>
<event>
 5   0  0.7857136E-05  0.1999074E+04  0.7818609E-02  0.8607054E-01
       -2   -1    0    0    0  501  0.00000000000E+00  0.00000000000E+00  0.80378503974E+03  0.80378503974E+03  0.25500000920E-02 0. -1.
        2   -1    0    0  501    0  0.00000000000E+00  0.00000000000E+00 -0.12429622241E+04  0.12429622241E+04  0.25500000920E-02 0.  1.
    10030    2    1    2    0    0  0.00000000000E+00  0.00000000000E+00 -0.43917718440E+03  0.20467472639E+04  0.19990742265E+04 0.  0.
        4    1    3    3  502    0  0.35146963213E+03 -0.42685024465E+03  0.63293945428E+03  0.84044392993E+03  0.12699999809E+01 0. -1.
       -4    1    3    3    0  502 -0.35146963213E+03  0.42685024465E+03 -0.10721166387E+04  0.12063033340E+04  0.12699999809E+01 0.  1.
</event>
<event>
 5   0  0.7935008E-05  0.2008798E+04  0.7818609E-02  0.8602519E-01
       -2   -1    0    0    0  501  0.00000000000E+00  0.00000000000E+00  0.44596794570E+03  0.44596794571E+03  0.25500000920E-02 0.  1.
        2   -1    0    0  501    0  0.00000000000E+00  0.00000000000E+00 -0.22620840355E+04  0.22620840355E+04  0.25500000920E-02 0. -1.
    10030    2    1    2    0    0  0.00000000000E+00  0.00000000000E+00 -0.18161160898E+04  0.27080519812E+04  0.20087976208E+04 0.  0.
        3    1    3    3  502    0  0.60423635055E+02 -0.36161318234E+03 -0.21686552652E+04  0.21994273752E+04  0.10100000352E+00 0. -1.
       -3    1    3    3    0  502 -0.60423635055E+02  0.36161318234E+03  0.35253917548E+03  0.50862460594E+03  0.10100000352E+00 0.  1.
</event>
<event>
 5   0  0.7843846E-05  0.1973201E+04  0.7818609E-02  0.8619254E-01
       -2   -1    0    0    0  501  0.00000000000E+00  0.00000000000E+00  0.92849329563E+03  0.92849329563E+03  0.25500000920E-02 0.  1.
        2   -1    0    0  501    0  0.00000000000E+00  0.00000000000E+00 -0.10483442190E+04  0.10483442190E+04  0.25500000920E-02 0. -1.
    10030    2    1    2    0    0  0.00000000000E+00  0.00000000000E+00 -0.11985092342E+03  0.19768375147E+04  0.19732010327E+04 0.  0.
        2    1    3    3  502    0  0.77715412215E+03 -0.10420975430E+03 -0.65982142929E+03  0.10247890129E+04  0.25500000920E-02 0. -1.
       -2    1    3    3    0  502 -0.77715412215E+03  0.10420975430E+03  0.53997050587E+03  0.95204850175E+03  0.25500000920E-02 0.  1.
</event>
<event>
 5   0  0.7843846E-05  0.1993563E+04  0.7818609E-02  0.8609636E-01
        2   -1    0    0  501    0  0.00000000000E+00  0.00000000000E+00  0.15042996077E+04  0.15042996077E+04  0.25500000920E-02 0. -1.
       -2   -1    0    0    0  501  0.00000000000E+00  0.00000000000E+00 -0.66048870620E+03  0.66048870621E+03  0.25500000920E-02 0.  1.
    10030    2    1    2    0    0  0.00000000000E+00  0.00000000000E+00  0.84381090150E+03  0.21647883139E+04  0.19935625414E+04 0.  0.
        2    1    3    3  502    0 -0.45711445713E+03 -0.55371668117E+03  0.11726761102E+04  0.13750363811E+04  0.25500000920E-02 0. -1.
       -2    1    3    3    0  502  0.45711445713E+03  0.55371668117E+03 -0.32886520868E+03  0.78975193283E+03  0.25500000920E-02 0.  1.
</event>
<event>
 5   0  0.7857136E-05  0.1992405E+04  0.7818609E-02  0.8610180E-01
        2   -1    0    0  501    0  0.00000000000E+00  0.00000000000E+00  0.13105498682E+04  0.13105498682E+04  0.25500000920E-02 0.  1.
       -2   -1    0    0    0  501  0.00000000000E+00  0.00000000000E+00 -0.75725452420E+03  0.75725452421E+03  0.25500000920E-02 0. -1.
    10030    2    1    2    0    0  0.00000000000E+00  0.00000000000E+00  0.55329534400E+03  0.20678043924E+04  0.19924053974E+04 0.  0.
        4    1    3    3  502    0  0.19212519541E+03  0.96946261572E+03  0.40647497030E+03  0.10686408978E+04  0.12699999809E+01 0.  1.
       -4    1    3    3    0  502 -0.19212519541E+03 -0.96946261572E+03  0.14682037370E+03  0.99916349464E+03  0.12699999809E+01 0. -1.
</event>
<event>
 5   0  0.8011197E-05  0.2006569E+04  0.7818609E-02  0.8603556E-01
        2   -1    0    0  501    0  0.00000000000E+00  0.00000000000E+00  0.10089962570E+04  0.10089962570E+04  0.25500000920E-02 0. -1.
       -2   -1    0    0    0  501  0.00000000000E+00  0.00000000000E+00 -0.99760474411E+03  0.99760474411E+03  0.25500000920E-02 0.  1.
    10030    2    1    2    0    0  0.00000000000E+00  0.00000000000E+00  0.11391512886E+02  0.20066010011E+04  0.20065686659E+04 0.  0.
        5    1    3    3  502    0  0.28787480205E+02 -0.35928933930E+03 -0.93060978565E+03  0.99798507579E+03  0.46999998093E+01 0.  1.
       -5    1    3    3    0  502 -0.28787480205E+02  0.35928933930E+03  0.94200129854E+03  0.10086159253E+04  0.46999998093E+01 0. -1.
</event>
<event>
 5   0  0.8011197E-05  0.1958573E+04  0.7818609E-02  0.8626238E-01
       -2   -1    0    0    0  501  0.00000000000E+00  0.00000000000E+00  0.86426656457E+03  0.86426656457E+03  0.25500000920E-02 0.  1.
        2   -1    0    0  501    0  0.00000000000E+00  0.00000000000E+00 -0.11096140242E+04  0.11096140242E+04  0.25500000920E-02 0. -1.
    10030    2    1    2    0    0  0.00000000000E+00  0.00000000000E+00 -0.24534745966E+03  0.19738805888E+04  0.19585732570E+04 0.  0.
        5    1    3    3  502    0  0.93520737097E+03  0.93601380932E+02  0.15444103272E+03  0.95249575738E+03  0.46999998093E+01 0. -1.
       -5    1    3    3    0  502 -0.93520737097E+03 -0.93601380932E+02 -0.39978849238E+03  0.10213848314E+04  0.46999998093E+01 0.  1.
</event>
<event>
 5   0  0.7935008E-05  0.2002839E+04  0.7818609E-02  0.8605294E-01
        2   -1    0    0  501    0  0.00000000000E+00  0.00000000000E+00  0.12190018608E+04  0.12190018608E+04  0.25500000920E-02 0.  1.
       -2   -1    0    0    0  501  0.00000000000E+00  0.00000000000E+00 -0.82267427073E+03  0.82267427073E+03  0.25500000920E-02 0. -1.
    10030    2    1    2    0    0  0.00000000000E+00  0.00000000000E+00  0.39632759007E+03  0.20416761315E+04  0.20028394512E+04 0.  0.
        3    1    3    3  502    0 -0.63199304051E+02 -0.37009130956E+03 -0.74821292171E+03  0.83712861369E+03  0.10100000352E+00 0. -1.
       -3    1    3    3    0  502  0.63199304051E+02  0.37009130956E+03  0.11445405118E+04  0.12045475178E+04  0.10100000352E+00 0.  1.
</event>
<event>
 5   0  0.3818907E-05  0.2001109E+04  0.7818609E-02  0.8606103E-01
        1   -1    0    0  501    0  0.00000000000E+00  0.00000000000E+00  0.16373004329E+04  0.16373004329E+04  0.50400001928E-02 0.  1.
       -1   -1    0    0    0  501  0.00000000000E+00  0.00000000000E+00 -0.61143868369E+03  0.61143868371E+03  0.50400001928E-02 0. -1.
    10030    2    1    2    0    0  0.00000000000E+00  0.00000000000E+00  0.10258617492E+04  0.22487391166E+04  0.20011085143E+04 0.  0.
        1    1    3    3  502    0 -0.11437051218E+03 -0.90326277310E+03  0.97917685313E+03  0.13370682709E+04  0.50400001928E-02 0.  1.
       -1    1    3    3    0  502  0.11437051218E+03  0.90326277310E+03  0.46684896048E+02  0.91167084568E+03  0.50400001928E-02 0. -1.
</event>
<event>
 5   0  0.3818907E-05  0.2031701E+04  0.7818609E-02  0.8591941E-01
       -1   -1    0    0    0  501  0.00000000000E+00  0.00000000000E+00  0.17938577734E+04  0.17938577734E+04  0.50400001928E-02 0. -1.
        1   -1    0    0  501    0  0.00000000000E+00  0.00000000000E+00 -0.57527009635E+03  0.57527009637E+03  0.50400001928E-02 0.  1.
    10030    2    1    2    0    0  0.00000000000E+00  0.00000000000E+00  0.12185876770E+04  0.23691278698E+04  0.20317014881E+04 0.  0.
        1    1    3    3  502    0  0.83709161671E+03 -0.16470347029E+03  0.12523354029E+04  0.15153196261E+04  0.50400001928E-02 0. -1.
       -1    1    3    3    0  502 -0.83709161671E+03  0.16470347029E+03 -0.33747725867E+02  0.85380824365E+03  0.50400001928E-02 0.  1.
</event>
<event>
 5   0  0.7843846E-05  0.2009913E+04  0.7818609E-02  0.8602000E-01
        2   -1    0    0  501    0  0.00000000000E+00  0.00000000000E+00  0.71870250390E+03  0.71870250391E+03  0.25500000920E-02 0.  1.
       -2   -1    0    0    0  501  0.00000000000E+00  0.00000000000E+00 -0.14052235329E+04  0.14052235329E+04  0.25500000920E-02 0. -1.
    10030    2    1    2    0    0  0.00000000000E+00  0.00000000000E+00 -0.68652102900E+03  0.21239260368E+04  0.20099131042E+04 0.  0.
        2    1    3    3  502    0 -0.60400935283E+03 -0.63140988349E+03  0.18131812017E+03  0.89240237560E+03  0.25500000920E-02 0.  1.
       -2    1    3    3    0  502  0.60400935283E+03  0.63140988349E+03 -0.86783914918E+03  0.12315236612E+04  0.25500000920E-02 0. -1.
</event>
<event>
 5   0  0.7857136E-05  0.2011624E+04  0.7818609E-02  0.8601205E-01
        2   -1    0    0  501    0  0.00000000000E+00  0.00000000000E+00  0.22663859771E+04  0.22663859771E+04  0.25500000920E-02 0.  1.
       -2   -1    0    0    0  501  0.00000000000E+00  0.00000000000E+00 -0.44637496924E+03  0.44637496925E+03  0.25500000920E-02 0. -1.
    10030    2    1    2    0    0  0.00000000000E+00  0.00000000000E+00  0.18200110079E+04  0.27127609464E+04  0.20116241904E+04 0.  0.
        4    1    3    3  502    0  0.39369190803E+03  0.30230742064E+02  0.21574979118E+04  0.21933321838E+04  0.12699999809E+01 0.  1.
       -4    1    3    3    0  502 -0.39369190803E+03 -0.30230742064E+02 -0.33748690389E+03  0.51942876260E+03  0.12699999809E+01 0. -1.
</event>
<event>
 5   0  0.3549426E-05  0.2007614E+04  0.7818609E-02  0.8603069E-01
        1   -1    0    0  501    0  0.00000000000E+00  0.00000000000E+00  0.84626955608E+03  0.84626955610E+03  0.50400001928E-02 0.  1.
       -1   -1    0    0    0  501  0.00000000000E+00  0.00000000000E+00 -0.11906704919E+04  0.11906704919E+04  0.50400001928E-02 0. -1.
    10030    2    1    2    0    0  0.00000000000E+00  0.00000000000E+00 -0.34440093585E+03  0.20369400480E+04  0.20076136966E+04 0.  0.
        5    1    3    3  502    0  0.45574700434E+03  0.55277644517E+03  0.54116243416E+03  0.89785633619E+03  0.46999998093E+01 0.  1.
       -5    1    3    3    0  502 -0.45574700434E+03 -0.55277644517E+03 -0.88556337001E+03  0.11390837119E+04  0.46999998093E+01 0. -1.
</event>
<event>
 5   0  0.2859625E-05  0.1846427E+04  0.7818609E-02  0.8681992E-01
       -3   -1    0    0    0  501  0.00000000000E+00  0.00000000000E+00  0.13570185539E+04  0.13570185576E+04  0.10100000352E+00 0. -1.
        3   -1    0    0  501    0  0.00000000000E+00  0.00000000000E+00 -0.62808530108E+03  0.62808530920E+03  0.10100000352E+00 0.  1.
    10030    2    1    2    0    0  0.00000000000E+00  0.00000000000E+00  0.72893325277E+03  0.19851038668E+04  0.18464272732E+04 0.  0.
        3    1    3    3  502    0  0.10521492812E+03  0.33723339876E+03  0.12814797385E+04  0.13292805862E+04  0.10100000352E+00 0. -1.
       -3    1    3    3    0  502 -0.10521492812E+03 -0.33723339876E+03 -0.55254648574E+03  0.65582328065E+03  0.10100000352E+00 0.  1.
</event>
<event>
 5   0  0.7857136E-05  0.1987240E+04  0.7818609E-02  0.8612609E-01
       -2   -1    0    0    0  501  0.00000000000E+00  0.00000000000E+00  0.96535319006E+03  0.96535319007E+03  0.25500000920E-02 0. -1.
        2   -1    0    0  501    0  0.00000000000E+00  0.00000000000E+00 -0.10227149647E+04  0.10227149647E+04  0.25500000920E-02 0.  1.
    10030    2    1    2    0    0  0.00000000000E+00  0.00000000000E+00 -0.57361774659E+02  0.19880681548E+04  0.19872404522E+04 0.  0.
        4    1    3    3  502    0 -0.30006723450E+03  0.64103977544E+03  0.66896686653E+03  0.97390483125E+03  0.12699999809E+01 0. -1.
       -4    1    3    3    0  502  0.30006723450E+03 -0.64103977544E+03 -0.72632864119E+03  0.10141633235E+04  0.12699999809E+01 0.  1.
</event>
<event>
 5   0  0.3549426E-05  0.1995195E+04  0.7818609E-02  0.8608870E-01
       -1   -1    0    0    0  501  0.00000000000E+00  0.00000000000E+00  0.89393119420E+03  0.89393119422E+03  0.50400001928E-02 0.  1.
        1   -1    0    0  501    0  0.00000000000E+00  0.00000000000E+00 -0.11132859912E+04  0.11132859912E+04  0.50400001928E-02 0. -1.
    10030    2    1    2    0    0  0.00000000000E+00  0.00000000000E+00 -0.21935479702E+03  0.20072171855E+04  0.19951953044E+04 0.  0.
        5    1    3    3  502    0 -0.25370468193E+03  0.18074793442E+03 -0.10630918325E+04  0.11078006210E+04  0.46999998093E+01 0. -1.
       -5    1    3    3    0  502  0.25370468193E+03 -0.18074793442E+03  0.84373703549E+03  0.89941656450E+03  0.46999998093E+01 0.  1.
</event>
<event>
 5   0  0.3787698E-05  0.2001680E+04  0.7818609E-02  0.8605836E-01
        1   -1    0    0  501    0  0.00000000000E+00  0.00000000000E+00  0.21906355252E+04  0.21906355252E+04  0.50400001928E-02 0.  1.
       -1   -1    0    0    0  501  0.00000000000E+00  0.00000000000E+00 -0.45725585171E+03  0.45725585174E+03  0.50400001928E-02 0. -1.
    10030    2    1    2    0    0  0.00000000000E+00  0.00000000000E+00  0.17333796735E+04  0.26478913769E+04  0.20016802071E+04 0.  0.
        4    1    3    3  502    0  0.37089568567E+03 -0.43467963151E+03 -0.22026579352E+03  0.61239580697E+03  0.12699999809E+01 0. -1.
       -4    1    3    3    0  502 -0.37089568567E+03  0.43467963151E+03  0.19536454670E+04  0.20354955700E+04  0.12699999809E+01 0.  1.
</event>
<event>
 5   0  0.3818907E-05  0.1998500E+04  0.7818609E-02  0.8607322E-01
        1   -1    0    0  501    0  0.00000000000E+00  0.00000000000E+00  0.14765427367E+04  0.14765427367E+04  0.50400001928E-02 0. -1.
       -1   -1    0    0    0  501  0.00000000000E+00  0.00000000000E+00 -0.67624197628E+03  0.67624197630E+03  0.50400001928E-02 0.  1.
    10030    2    1    2    0    0  0.00000000000E+00  0.00000000000E+00  0.80030076039E+03  0.21527847130E+04  0.19984996155E+04 0.  0.
        1    1    3    3  502    0  0.29564808871E+03 -0.21818355988E+03  0.14011289174E+04  0.14485075428E+04  0.50400001928E-02 0. -1.
       -1    1    3    3    0  502 -0.29564808871E+03  0.21818355988E+03 -0.60082815704E+03  0.70427717021E+03  0.50400001928E-02 0.  1.
</event>
<event>
 5   0  0.3818907E-05  0.2005936E+04  0.7818609E-02  0.8603850E-01
       -1   -1    0    0    0  501  0.00000000000E+00  0.00000000000E+00  0.63983675940E+03  0.63983675942E+03  0.50400001928E-02 0.  1.
        1   -1    0    0  501    0  0.00000000000E+00  0.00000000000E+00 -0.15721902890E+04  0.15721902890E+04  0.50400001928E-02 0. -1.
    10030    2    1    2    0    0  0.00000000000E+00  0.00000000000E+00 -0.93235352962E+03  0.22120270485E+04  0.20059363297E+04 0.  0.
        1    1    3    3  502    0  0.94956298546E+03 -0.21640675221E+02 -0.82146965793E+03  0.12557669294E+04  0.50400001928E-02 0. -1.
       -1    1    3    3    0  502 -0.94956298546E+03  0.21640675221E+02 -0.11088387169E+03  0.95626011900E+03  0.50400001928E-02 0.  1.
</event>
<event>
 5   0  0.3818907E-05  0.2070267E+04  0.7818609E-02  0.8574455E-01
       -1   -1    0    0    0  501  0.00000000000E+00  0.00000000000E+00  0.56663975102E+03  0.56663975104E+03  0.50400001928E-02 0.  1.
        1   -1    0    0  501    0  0.00000000000E+00  0.00000000000E+00 -0.18909745421E+04  0.18909745421E+04  0.50400001928E-02 0. -1.
    10030    2    1    2    0    0  0.00000000000E+00  0.00000000000E+00 -0.13243347911E+04  0.24576142931E+04  0.20702669816E+04 0.  0.
        1    1    3    3  502    0  0.54882613518E+03  0.80849141966E+03 -0.10675805130E+04  0.14472721423E+04  0.50400001928E-02 0. -1.
       -1    1    3    3    0  502 -0.54882613518E+03 -0.80849141966E+03 -0.25675427812E+03  0.10103421508E+04  0.50400001928E-02 0.  1.
</event>
<event>
 5   0  0.3772949E-05  0.2004301E+04  0.7818609E-02  0.8604612E-01
       -1   -1    0    0    0  501  0.00000000000E+00  0.00000000000E+00  0.10896038591E+04  0.10896038591E+04  0.50400001928E-02 0. -1.
        1   -1    0    0  501    0  0.00000000000E+00  0.00000000000E+00 -0.92171626282E+03  0.92171626283E+03  0.50400001928E-02 0.  1.
    10030    2    1    2    0    0  0.00000000000E+00  0.00000000000E+00  0.16788759623E+03  0.20113201219E+04  0.20043009724E+04 0.  0.
        2    1    3    3  502    0  0.53255868195E+03  0.67247423405E+03  0.60389465962E+03  0.10490610588E+04  0.25500000920E-02 0. -1.
       -2    1    3    3    0  502 -0.53255868195E+03 -0.67247423405E+03 -0.43600706338E+03  0.96225906309E+03  0.25500000920E-02 0.  1.
</event>
<event>
 5   0  0.3549426E-05  0.1996565E+04  0.7818609E-02  0.8608229E-01
       -1   -1    0    0    0  501  0.00000000000E+00  0.00000000000E+00  0.81282402167E+03  0.81282402168E+03  0.50400001928E-02 0.  1.
        1   -1    0    0  501    0  0.00000000000E+00  0.00000000000E+00 -0.12260556131E+04  0.12260556131E+04  0.50400001928E-02 0. -1.
    10030    2    1    2    0    0  0.00000000000E+00  0.00000000000E+00 -0.41323159140E+03  0.20388796348E+04  0.19965645036E+04 0.  0.
        5    1    3    3  502    0  0.37947434681E+03 -0.33274040997E+03 -0.10861646583E+04  0.11977030998E+04  0.46999998093E+01 0. -1.
       -5    1    3    3    0  502 -0.37947434681E+03  0.33274040997E+03  0.67293306695E+03  0.84117653493E+03  0.46999998093E+01 0.  1.
</event>
<event>
 5   0  0.7935008E-05  0.1995084E+04  0.7818609E-02  0.8608923E-01
       -2   -1    0    0    0  501  0.00000000000E+00  0.00000000000E+00  0.14051349695E+04  0.14051349695E+04  0.25500000920E-02 0. -1.
        2   -1    0    0  501    0  0.00000000000E+00  0.00000000000E+00 -0.70818080268E+03  0.70818080269E+03  0.25500000920E-02 0.  1.
    10030    2    1    2    0    0  0.00000000000E+00  0.00000000000E+00  0.69695416681E+03  0.21133157722E+04  0.19950835678E+04 0.  0.
        3    1    3    3  502    0  0.87412077432E+03 -0.43171350082E+03  0.57224453748E+03  0.11304545527E+04  0.10100000352E+00 0. -1.
       -3    1    3    3    0  502 -0.87412077432E+03  0.43171350082E+03  0.12470962933E+03  0.98286121947E+03  0.10100000352E+00 0.  1.
</event>
<event>
 5   0  0.3970042E-05  0.1991931E+04  0.7818609E-02  0.8610403E-01
       -1   -1    0    0    0  501  0.00000000000E+00  0.00000000000E+00  0.90373332141E+03  0.90373332142E+03  0.50400001928E-02 0.  1.
        1   -1    0    0  501    0  0.00000000000E+00  0.00000000000E+00 -0.10976101142E+04  0.10976101142E+04  0.50400001928E-02 0. -1.
    10030    2    1    2    0    0  0.00000000000E+00  0.00000000000E+00 -0.19387679278E+03  0.20013434356E+04  0.19919305551E+04 0.  0.
        3    1    3    3  502    0  0.38926979569E+03  0.91388958009E+03 -0.16954109824E+03  0.10077049829E+04  0.10100000352E+00 0. -1.
       -3    1    3    3    0  502 -0.38926979569E+03 -0.91388958009E+03 -0.24335694541E+02  0.99363845269E+03  0.10100000352E+00 0.  1.
</event>
<event>
 5   0  0.3772949E-05  0.2004425E+04  0.7818609E-02  0.8604555E-01
       -1   -1    0    0    0  501  0.00000000000E+00  0.00000000000E+00  0.75123476188E+03  0.75123476190E+03  0.50400001928E-02 0. -1.
        1   -1    0    0  501    0  0.00000000000E+00  0.00000000000E+00 -0.13370380938E+04  0.13370380938E+04  0.50400001928E-02 0.  1.
    10030    2    1    2    0    0  0.00000000000E+00  0.00000000000E+00 -0.58580333193E+03  0.20882728557E+04  0.20044245998E+04 0.  0.
        2    1    3    3  502    0 -0.75344558699E+03 -0.28006169922E+03  0.33073239026E+03  0.86919429468E+03  0.25500000920E-02 0. -1.
       -2    1    3    3    0  502  0.75344558699E+03  0.28006169922E+03 -0.91653572219E+03  0.12190785610E+04  0.25500000920E-02 0.  1.
</event>
<event>
 5   0  0.8011197E-05  0.1999197E+04  0.7818609E-02  0.8606996E-01
       -2   -1    0    0    0  501  0.00000000000E+00  0.00000000000E+00  0.15135358563E+04  0.15135358563E+04  0.25500000920E-02 0.  1.
        2   -1    0    0  501    0  0.00000000000E+00  0.00000000000E+00 -0.66017418718E+03  0.66017418719E+03  0.25500000920E-02 0. -1.
    10030    2    1    2    0    0  0.00000000000E+00  0.00000000000E+00  0.85336166912E+03  0.21737100435E+04  0.19991971426E+04 0.  0.
        5    1    3    3  502    0 -0.76708924523E+03 -0.64055087756E+03  0.44958830985E+03  0.10958481077E+04  0.46999998093E+01 0. -1.
       -5    1    3    3    0  502  0.76708924523E+03  0.64055087756E+03  0.40377335927E+03  0.10778619358E+04  0.46999998093E+01 0.  1.
</event>
<event>
 5   0  0.7935008E-05  0.1991984E+04  0.7818609E-02  0.8610378E-01
       -2   -1    0    0    0  501  0.00000000000E+00  0.00000000000E+00  0.72781414155E+03  0.72781414155E+03  0.25500000920E-02 0.  1.
        2   -1    0    0  501    0  0.00000000000E+00  0.00000000000E+00 -0.13629847776E+04  0.13629847776E+04  0.25500000920E-02 0. -1.
    10030    2    1    2    0    0  0.00000000000E+00  0.00000000000E+00 -0.63517063601E+03  0.20907989191E+04  0.19919835299E+04 0.  0.
        3    1    3    3  502    0 -0.66891677141E+03 -0.24641993792E+03 -0.10476673202E+04  0.12671934568E+04  0.10100000352E+00 0. -1.
       -3    1    3    3    0  502  0.66891677141E+03  0.24641993792E+03  0.41249668421E+03  0.82360546232E+03  0.10100000352E+00 0.  1.
</event>
<event>
 5   0  0.3818907E-05  0.2008823E+04  0.7818609E-02  0.8602507E-01
       -1   -1    0    0    0  501  0.00000000000E+00  0.00000000000E+00  0.85866390922E+03  0.85866390924E+03  0.50400001928E-02 0. -1.
        1   -1    0    0  501    0  0.00000000000E+00  0.00000000000E+00 -0.11748980764E+04  0.11748980764E+04  0.50400001928E-02 0.  1.
    10030    2    1    2    0    0  0.00000000000E+00  0.00000000000E+00 -0.31623416720E+03  0.20335619857E+04  0.20088231134E+04 0.  0.
        1    1    3    3  502    0 -0.40790940385E+03 -0.75743975487E+03  0.36666604404E+03  0.93517327372E+03  0.50400001928E-02 0.  1.
       -1    1    3    3    0  502  0.40790940385E+03  0.75743975487E+03 -0.68290021124E+03  0.10983887120E+04  0.50400001928E-02 0. -1.
</event>
<event>
 5   0  0.7857136E-05  0.2007766E+04  0.7818609E-02  0.8602999E-01
        2   -1    0    0  501    0  0.00000000000E+00  0.00000000000E+00  0.12109395582E+04  0.12109395582E+04  0.25500000920E-02 0. -1.
       -2   -1    0    0    0  501  0.00000000000E+00  0.00000000000E+00 -0.83223048717E+03  0.83223048718E+03  0.25500000920E-02 0.  1.
    10030    2    1    2    0    0  0.00000000000E+00  0.00000000000E+00  0.37870907101E+03  0.20431700454E+04  0.20077657418E+04 0.  0.
        4    1    3    3  502    0 -0.93949178812E+03  0.19093682671E+03 -0.11368425745E+03  0.96541566956E+03  0.12699999809E+01 0. -1.
       -4    1    3    3    0  502  0.93949178812E+03 -0.19093682671E+03  0.49239332846E+03  0.10777543758E+04  0.12699999809E+01 0.  1.
</event>
<event>
 5   0  0.8022574E-05  0.2020450E+04  0.7818609E-02  0.8597119E-01
       -2   -1    0    0    0  501  0.00000000000E+00  0.00000000000E+00  0.73408382372E+03  0.73408382373E+03  0.25500000920E-02 0.  1.
        2   -1    0    0  501    0  0.00000000000E+00  0.00000000000E+00 -0.13902424576E+04  0.13902424577E+04  0.25500000920E-02 0. -1.
    10030    2    1    2    0    0  0.00000000000E+00  0.00000000000E+00 -0.65615863393E+03  0.21243262814E+04  0.20204499491E+04 0.  0.
        1    1    3    3  502    0 -0.27272771223E+03  0.42245241965E+03  0.59315725814E+03  0.77761300452E+03  0.50400001928E-02 0.  1.
       -1    1    3    3    0  502  0.27272771223E+03 -0.42245241965E+03 -0.12493158921E+04  0.13467132769E+04  0.50400001928E-02 0. -1.
</event>
<event>
 5   0  0.7935008E-05  0.1998728E+04  0.7818609E-02  0.8607216E-01
       -2   -1    0    0    0  501  0.00000000000E+00  0.00000000000E+00  0.54478236884E+03  0.54478236885E+03  0.25500000920E-02 0. -1.
        2   -1    0    0  501    0  0.00000000000E+00  0.00000000000E+00 -0.18332603689E+04  0.18332603689E+04  0.25500000920E-02 0.  1.
    10030    2    1    2    0    0  0.00000000000E+00  0.00000000000E+00 -0.12884780001E+04  0.23780427378E+04  0.19987275217E+04 0.  0.
        3    1    3    3  502    0  0.23259840105E+02  0.84347562908E+03 -0.71398997171E+01  0.84382649009E+03  0.10100000352E+00 0. -1.
       -3    1    3    3    0  502 -0.23259840105E+02 -0.84347562908E+03 -0.12813381004E+04  0.15342162477E+04  0.10100000352E+00 0.  1.
</event>
<event>
 5   0  0.3549426E-05  0.2013738E+04  0.7818609E-02  0.8600224E-01
        1   -1    0    0  501    0  0.00000000000E+00  0.00000000000E+00  0.11305298558E+04  0.11305298558E+04  0.50400001928E-02 0.  1.
       -1   -1    0    0    0  501  0.00000000000E+00  0.00000000000E+00 -0.89673477800E+03  0.89673477801E+03  0.50400001928E-02 0. -1.
    10030    2    1    2    0    0  0.00000000000E+00  0.00000000000E+00  0.23379507784E+03  0.20272646339E+04  0.20137382544E+04 0.  0.
        5    1    3    3  502    0 -0.16656999185E+03 -0.69335061350E+03  0.83250464451E+03  0.10961599831E+04  0.46999998093E+01 0.  1.
       -5    1    3    3    0  502  0.16656999185E+03  0.69335061350E+03 -0.59870956667E+03  0.93110465075E+03  0.46999998093E+01 0. -1.
</event>
<event>
 5   0  0.3772949E-05  0.1970564E+04  0.7818609E-02  0.8620508E-01
       -1   -1    0    0    0  501  0.00000000000E+00  0.00000000000E+00  0.72670949280E+03  0.72670949282E+03  0.50400001928E-02 0.  1.
        1   -1    0    0  501    0  0.00000000000E+00  0.00000000000E+00 -0.13358580920E+04  0.13358580921E+04  0.50400001928E-02 0. -1.
    10030    2    1    2    0    0  0.00000000000E+00  0.00000000000E+00 -0.60914859924E+03  0.20625675849E+04  0.19705641391E+04 0.  0.
        2    1    3    3  502    0  0.42485179543E+03  0.25296893544E+03  0.58744073591E+03  0.76784044475E+03  0.25500000920E-02 0.  1.
       -2    1    3    3    0  502 -0.42485179543E+03 -0.25296893544E+03 -0.11965893351E+04  0.12947271401E+04  0.25500000920E-02 0. -1.
</event>
<event>
 5   0  0.3818907E-05  0.2002717E+04  0.7818609E-02  0.8605351E-01
       -1   -1    0    0    0  501  0.00000000000E+00  0.00000000000E+00  0.49647867833E+03  0.49647867836E+03  0.50400001928E-02 0. -1.
        1   -1    0    0  501    0  0.00000000000E+00  0.00000000000E+00 -0.20196613970E+04  0.20196613970E+04  0.50400001928E-02 0.  1.
    10030    2    1    2    0    0  0.00000000000E+00  0.00000000000E+00 -0.15231827186E+04  0.25161400753E+04  0.20027169756E+04 0.  0.
        1    1    3    3  502    0  0.90695516665E+03 -0.15008200530E+02 -0.12945114321E+04  0.15806811090E+04  0.50400001928E-02 0.  1.
       -1    1    3    3    0  502 -0.90695516665E+03  0.15008200530E+02 -0.22867128649E+03  0.93545896633E+03  0.50400001928E-02 0. -1.
</event>
<event>
 5   0  0.7843846E-05  0.1999612E+04  0.7818609E-02  0.8606802E-01
        2   -1    0    0  501    0  0.00000000000E+00  0.00000000000E+00  0.89730027112E+03  0.89730027113E+03  0.25500000920E-02 0. -1.
       -2   -1    0    0    0  501  0.00000000000E+00  0.00000000000E+00 -0.11140213892E+04  0.11140213892E+04  0.25500000920E-02 0.  1.
    10030    2    1    2    0    0  0.00000000000E+00  0.00000000000E+00 -0.21672111812E+03  0.20113216604E+04  0.19996116569E+04 0.  0.
        2    1    3    3  502    0 -0.41652298446E+03 -0.75331334338E+03  0.40318360318E+03  0.95054163916E+03  0.25500000920E-02 0. -1.
       -2    1    3    3    0  502  0.41652298446E+03  0.75331334338E+03 -0.61990472130E+03  0.10607800212E+04  0.25500000920E-02 0.  1.
</event>
<event>
 5   0  0.7857136E-05  0.2000968E+04  0.7818609E-02  0.8606168E-01
       -2   -1    0    0    0  501  0.00000000000E+00  0.00000000000E+00  0.12013253002E+04  0.12013253002E+04  0.25500000920E-02 0. -1.
        2   -1    0    0  501    0  0.00000000000E+00  0.00000000000E+00 -0.83321993088E+03  0.83321993089E+03  0.25500000920E-02 0.  1.
    10030    2    1    2    0    0  0.00000000000E+00  0.00000000000E+00  0.36810536928E+03  0.20345452311E+04  0.20009679493E+04 0.  0.
        4    1    3    3  502    0 -0.89499819937E+01  0.39718547009E+03  0.11176821127E+04  0.11861919397E+04  0.12699999809E+01 0. -1.
       -4    1    3    3    0  502  0.89499819937E+01 -0.39718547009E+03 -0.74957674341E+03  0.84835329138E+03  0.12699999809E+01 0.  1.
</event>
<event>
 5   0  0.3772949E-05  0.1991768E+04  0.7818609E-02  0.8610479E-01
        1   -1    0    0  501    0  0.00000000000E+00  0.00000000000E+00  0.14429179579E+04  0.14429179580E+04  0.50400001928E-02 0.  1.
       -1   -1    0    0    0  501  0.00000000000E+00  0.00000000000E+00 -0.68734690380E+03  0.68734690382E+03  0.50400001928E-02 0. -1.
    10030    2    1    2    0    0  0.00000000000E+00  0.00000000000E+00  0.75557105415E+03  0.21302648618E+04  0.19917682504E+04 0.  0.
        2    1    3    3  502    0  0.96696954646E+03  0.12604565933E+03  0.16157130716E+03  0.98844468703E+03  0.25500000920E-02 0. -1.
       -2    1    3    3    0  502 -0.96696954646E+03 -0.12604565933E+03  0.59399974698E+03  0.11418201747E+04  0.25500000920E-02 0.  1.
</event>
<event>
 5   0  0.3549426E-05  0.1879907E+04  0.7818609E-02  0.8664923E-01
        1   -1    0    0  501    0  0.00000000000E+00  0.00000000000E+00  0.15245404514E+04  0.15245404514E+04  0.50400001928E-02 0.  1.
       -1   -1    0    0    0  501  0.00000000000E+00  0.00000000000E+00 -0.57952704684E+03  0.57952704686E+03  0.50400001928E-02 0. -1.
    10030    2    1    2    0    0  0.00000000000E+00  0.00000000000E+00  0.94501340457E+03  0.21040674983E+04  0.18799068335E+04 0.  0.
        5    1    3    3  502    0  0.55794144457E+03  0.54731363889E+03  0.10569167826E+04  0.13145136173E+04  0.46999998093E+01 0.  1.
       -5    1    3    3    0  502 -0.55794144457E+03 -0.54731363889E+03 -0.11190337801E+03  0.78955388093E+03  0.46999998093E+01 0. -1.
</event>
<event>
 5   0  0.3772949E-05  0.2007323E+04  0.7818609E-02  0.8603205E-01
       -1   -1    0    0    0  501  0.00000000000E+00  0.00000000000E+00  0.88804352587E+03  0.88804352589E+03  0.50400001928E-02 0.  1.
        1   -1    0    0  501    0  0.00000000000E+00  0.00000000000E+00 -0.11343321470E+04  0.11343321470E+04  0.50400001928E-02 0. -1.
    10030    2    1    2    0    0  0.00000000000E+00  0.00000000000E+00 -0.24628862110E+03  0.20223756729E+04  0.20073229131E+04 0.  0.
        2    1    3    3  502    0 -0.78257177398E+03  0.59364181776E+03  0.84574335291E+02  0.98589147852E+03  0.25500000920E-02 0.  1.
       -2    1    3    3    0  502  0.78257177398E+03 -0.59364181776E+03 -0.33086295639E+03  0.10364841944E+04  0.25500000920E-02 0. -1.
</event>
<event>
 5   0  0.2859625E-05  0.1981986E+04  0.7818609E-02  0.8615089E-01
        3   -1    0    0  501    0  0.00000000000E+00  0.00000000000E+00  0.67906042318E+03  0.67906043070E+03  0.10100000352E+00 0. -1.
       -3   -1    0    0    0  501  0.00000000000E+00  0.00000000000E+00 -0.14462149750E+04  0.14462149785E+04  0.10100000352E+00 0.  1.
    10030    2    1    2    0    0  0.00000000000E+00  0.00000000000E+00 -0.76715455179E+03  0.21252754092E+04  0.19819862408E+04 0.  0.
        1    1    3    3  502    0  0.78296161713E+03 -0.59620129344E+03 -0.50854683961E+03  0.11077476086E+04  0.50400001928E-02 0.  1.
       -1    1    3    3    0  502 -0.78296161713E+03  0.59620129344E+03 -0.25860771217E+03  0.10175278006E+04  0.50400001928E-02 0. -1.
</event>
<event>
 5   0  0.7843846E-05  0.2032350E+04  0.7818609E-02  0.8591644E-01
        2   -1    0    0  501    0  0.00000000000E+00  0.00000000000E+00  0.13990196043E+04  0.13990196043E+04  0.25500000920E-02 0. -1.
       -2   -1    0    0    0  501  0.00000000000E+00  0.00000000000E+00 -0.73809647155E+03  0.73809647156E+03  0.25500000920E-02 0.  1.
    10030    2    1    2    0    0  0.00000000000E+00  0.00000000000E+00  0.66092313271E+03  0.21371160758E+04  0.20323498061E+04 0.  0.
        2    1    3    3  502    0  0.33944828808E+03 -0.60671650628E+03 -0.44887864886E+03  0.82753978798E+03  0.25500000920E-02 0.  1.
       -2    1    3    3    0  502 -0.33944828808E+03  0.60671650628E+03  0.11098017816E+04  0.13095762878E+04  0.25500000920E-02 0. -1.
</event>
<event>
 5   0  0.7935008E-05  0.1982977E+04  0.7818609E-02  0.8614621E-01
       -2   -1    0    0    0  501  0.00000000000E+00  0.00000000000E+00  0.47548319477E+03  0.47548319478E+03  0.25500000920E-02 0.  1.
        2   -1    0    0  501    0  0.00000000000E+00  0.00000000000E+00 -0.20674751222E+04  0.20674751222E+04  0.25500000920E-02 0. -1.
    10030    2    1    2    0    0  0.00000000000E+00  0.00000000000E+00 -0.15919919275E+04  0.25429583170E+04  0.19829772326E+04 0.  0.
        3    1    3    3  502    0 -0.65967085114E+03 -0.38000812445E+03  0.18579581310E+02  0.76152282798E+03  0.10100000352E+00 0.  1.
       -3    1    3    3    0  502  0.65967085114E+03  0.38000812445E+03 -0.16105715088E+04  0.17814354890E+04  0.10100000352E+00 0. -1.
</event>
<event>
 5   0  0.7843846E-05  0.2007560E+04  0.7818609E-02  0.8603094E-01
       -2   -1    0    0    0  501  0.00000000000E+00  0.00000000000E+00  0.11979193352E+04  0.11979193352E+04  0.25500000920E-02 0.  1.
        2   -1    0    0  501    0  0.00000000000E+00  0.00000000000E+00 -0.84110329330E+03  0.84110329331E+03  0.25500000920E-02 0. -1.
    10030    2    1    2    0    0  0.00000000000E+00  0.00000000000E+00  0.35681604191E+03  0.20390226285E+04  0.20075596110E+04 0.  0.
        2    1    3    3  502    0  0.42308756332E+02 -0.44654495836E+02  0.11960030908E+04  0.11975840046E+04  0.25500000920E-02 0.  1.
       -2    1    3    3    0  502 -0.42308756332E+02  0.44654495836E+02 -0.83918704887E+03  0.84143862394E+03  0.25500000920E-02 0. -1.
</event>
<event>
 5   0  0.3970042E-05  0.1968959E+04  0.7818609E-02  0.8621272E-01
        1   -1    0    0  501    0  0.00000000000E+00  0.00000000000E+00  0.18125279193E+04  0.18125279193E+04  0.50400001928E-02 0. -1.
       -1   -1    0    0    0  501  0.00000000000E+00  0.00000000000E+00 -0.53472288992E+03  0.53472288994E+03  0.50400001928E-02 0.  1.
    10030    2    1    2    0    0  0.00000000000E+00  0.00000000000E+00  0.12778050293E+04  0.23472508092E+04  0.19689592856E+04 0.  0.
        3    1    3    3  502    0 -0.71516632829E+02 -0.83857075049E+03  0.12478039584E+04  0.15051014122E+04  0.10100000352E+00 0.  1.
       -3    1    3    3    0  502  0.71516632829E+02  0.83857075049E+03  0.30001070946E+02  0.84214939696E+03  0.10100000352E+00 0. -1.
</event>
<event>
 5   0  0.3549426E-05  0.2006894E+04  0.7818609E-02  0.8603404E-01
       -1   -1    0    0    0  501  0.00000000000E+00  0.00000000000E+00  0.13537240101E+04  0.13537240101E+04  0.50400001928E-02 0.  1.
        1   -1    0    0  501    0  0.00000000000E+00  0.00000000000E+00 -0.74380405926E+03  0.74380405928E+03  0.50400001928E-02 0. -1.
    10030    2    1    2    0    0  0.00000000000E+00  0.00000000000E+00  0.60991995080E+03  0.20975280693E+04  0.20068935336E+04 0.  0.
        5    1    3    3  502    0  0.41682856767E+02 -0.50777478649E+03  0.12084721885E+04  0.13114876342E+04  0.46999998093E+01 0.  1.
       -5    1    3    3    0  502 -0.41682856767E+02  0.50777478649E+03 -0.59855223773E+03  0.78604043511E+03  0.46999998093E+01 0. -1.
</event>
<event>
 5   0  0.8011197E-05  0.2008654E+04  0.7818609E-02  0.8602585E-01
       -2   -1    0    0    0  501  0.00000000000E+00  0.00000000000E+00  0.31502980235E+03  0.31502980236E+03  0.25500000920E-02 0. -1.
        2   -1    0    0  501    0  0.00000000000E+00  0.00000000000E+00 -0.32018334778E+04  0.32018334778E+04  0.25500000920E-02 0.  1.
    10030    2    1    2    0    0  0.00000000000E+00  0.00000000000E+00 -0.28868036754E+04  0.35168632801E+04  0.20086542437E+04 0.  0.
        5    1    3    3  502    0  0.66949231030E+03  0.18806772932E+03 -0.17471227578E+03  0.71703270055E+03  0.46999998093E+01 0. -1.
       -5    1    3    3    0  502 -0.66949231030E+03 -0.18806772932E+03 -0.27120913996E+04  0.27998305796E+04  0.46999998093E+01 0.  1.
</event>
<event>
 5   0  0.3549426E-05  0.1998310E+04  0.7818609E-02  0.8607411E-01
       -1   -1    0    0    0  501  0.00000000000E+00  0.00000000000E+00  0.56524792930E+03  0.56524792932E+03  0.50400001928E-02 0. -1.
        1   -1    0    0  501    0  0.00000000000E+00  0.00000000000E+00 -0.17661472539E+04  0.17661472539E+04  0.50400001928E-02 0.  1.
    10030    2    1    2    0    0  0.00000000000E+00  0.00000000000E+00 -0.12008993246E+04  0.23313951832E+04  0.19983103644E+04 0.  0.
        5    1    3    3  502    0 -0.10742806650E+03 -0.98489444669E+03 -0.75135880742E+03  0.12434307412E+04  0.46999998093E+01 0.  1.
       -5    1    3    3    0  502  0.10742806650E+03  0.98489444669E+03 -0.44954051717E+03  0.10879644420E+04  0.46999998093E+01 0. -1.
</event>
<event>
 5   0  0.3772949E-05  0.1997924E+04  0.7818609E-02  0.8607592E-01
       -1   -1    0    0    0  501  0.00000000000E+00  0.00000000000E+00  0.80235095234E+03  0.80235095236E+03  0.50400001928E-02 0. -1.
        1   -1    0    0  501    0  0.00000000000E+00  0.00000000000E+00 -0.12437516488E+04  0.12437516488E+04  0.50400001928E-02 0.  1.
    10030    2    1    2    0    0  0.00000000000E+00  0.00000000000E+00 -0.44140069648E+03  0.20461026012E+04  0.19979242427E+04 0.  0.
        2    1    3    3  502    0 -0.15980540412E+03  0.60074762572E+03  0.58013459500E+03  0.85028914218E+03  0.25500000920E-02 0. -1.
       -2    1    3    3    0  502  0.15980540412E+03 -0.60074762572E+03 -0.10215352915E+04  0.11958134590E+04  0.25500000920E-02 0.  1.
</event>
<event>
 5   0  0.8011197E-05  0.1957280E+04  0.7818609E-02  0.8626858E-01
        2   -1    0    0  501    0  0.00000000000E+00  0.00000000000E+00  0.92584038326E+03  0.92584038326E+03  0.25500000920E-02 0. -1.
       -2   -1    0    0    0  501  0.00000000000E+00  0.00000000000E+00 -0.10344508148E+04  0.10344508148E+04  0.25500000920E-02 0.  1.
    10030    2    1    2    0    0  0.00000000000E+00  0.00000000000E+00 -0.10861043151E+03  0.19602911980E+04  0.19572800912E+04 0.  0.
        5    1    3    3  502    0  0.42006057129E+03 -0.61878288045E+02 -0.93738409931E+03  0.10290728088E+04  0.46999998093E+01 0.  1.
       -5    1    3    3    0  502 -0.42006057129E+03  0.61878288045E+02  0.82877366780E+03  0.93121838928E+03  0.46999998093E+01 0. -1.
</event>
<event>
 5   0  0.3818907E-05  0.1985258E+04  0.7818609E-02  0.8613544E-01
       -1   -1    0    0    0  501  0.00000000000E+00  0.00000000000E+00  0.37783710858E+03  0.37783710861E+03  0.50400001928E-02 0. -1.
        1   -1    0    0  501    0  0.00000000000E+00  0.00000000000E+00 -0.26077692488E+04  0.26077692488E+04  0.50400001928E-02 0.  1.
    10030    2    1    2    0    0  0.00000000000E+00  0.00000000000E+00 -0.22299321402E+04  0.29856063574E+04  0.19852576587E+04 0.  0.
        1    1    3    3  502    0  0.97245570526E+01  0.41822718651E+03 -0.24687193122E+04  0.25039136545E+04  0.50400001928E-02 0.  1.
       -1    1    3    3    0  502 -0.97245570526E+01 -0.41822718651E+03  0.23878717198E+03  0.48169270295E+03  0.50400001928E-02 0. -1.
</event>
<event>
 5   0  0.7935008E-05  0.1991526E+04  0.7818609E-02  0.8610593E-01
       -2   -1    0    0    0  501  0.00000000000E+00  0.00000000000E+00  0.78909336441E+03  0.78909336441E+03  0.25500000920E-02 0.  1.
        2   -1    0    0  501    0  0.00000000000E+00  0.00000000000E+00 -0.12565607138E+04  0.12565607138E+04  0.25500000920E-02 0. -1.
    10030    2    1    2    0    0  0.00000000000E+00  0.00000000000E+00 -0.46746734934E+03  0.20456540782E+04  0.19915257681E+04 0.  0.
        3    1    3    3  502    0 -0.82251262068E+01  0.94982845155E+03 -0.54069014195E+03  0.10929719026E+04  0.10100000352E+00 0. -1.
       -3    1    3    3    0  502  0.82251262068E+01 -0.94982845155E+03  0.73222792600E+02  0.95268217557E+03  0.10100000352E+00 0.  1.
</event>
<event>
 5   0  0.8022574E-05  0.1982205E+04  0.7818609E-02  0.8614986E-01
       -2   -1    0    0    0  501  0.00000000000E+00  0.00000000000E+00  0.36388449281E+03  0.36388449282E+03  0.25500000920E-02 0.  1.
        2   -1    0    0  501    0  0.00000000000E+00  0.00000000000E+00 -0.26994386483E+04  0.26994386483E+04  0.25500000920E-02 0. -1.
    10030    2    1    2    0    0  0.00000000000E+00  0.00000000000E+00 -0.23355541555E+04  0.30633231412E+04  0.19822046952E+04 0.  0.
        1    1    3    3  502    0  0.74872457082E+03 -0.34971432648E+03 -0.32217356418E+03  0.88695230908E+03  0.50400001928E-02 0.  1.
       -1    1    3    3    0  502 -0.74872457082E+03  0.34971432648E+03 -0.20133805914E+04  0.21763708321E+04  0.50400001928E-02 0. -1.
</event>
<event>
 5   0  0.7935008E-05  0.1929009E+04  0.7818609E-02  0.8640550E-01
       -2   -1    0    0    0  501  0.00000000000E+00  0.00000000000E+00  0.76614442440E+03  0.76614442441E+03  0.25500000920E-02 0.  1.
        2   -1    0    0  501    0  0.00000000000E+00  0.00000000000E+00 -0.12142218331E+04  0.12142218331E+04  0.25500000920E-02 0. -1.
    10030    2    1    2    0    0  0.00000000000E+00  0.00000000000E+00 -0.44807740874E+03  0.19803662576E+04  0.19290093701E+04 0.  0.
        3    1    3    3  502    0 -0.17058368429E+03 -0.91035181767E+03  0.52254739177E+02  0.92766901061E+03  0.10100000352E+00 0.  1.
       -3    1    3    3    0  502  0.17058368429E+03  0.91035181767E+03 -0.50033214792E+03  0.10526972469E+04  0.10100000352E+00 0. -1.
</event>
<event>
 5   0  0.3772949E-05  0.1993097E+04  0.7818609E-02  0.8609855E-01
       -1   -1    0    0    0  501  0.00000000000E+00  0.00000000000E+00  0.17325689158E+04  0.17325689158E+04  0.50400001928E-02 0. -1.
        1   -1    0    0  501    0  0.00000000000E+00  0.00000000000E+00 -0.57320024200E+03  0.57320024202E+03  0.50400001928E-02 0.  1.
    10030    2    1    2    0    0  0.00000000000E+00  0.00000000000E+00  0.11593686738E+04  0.23057691578E+04  0.19930970090E+04 0.  0.
        2    1    3    3  502    0 -0.83305080906E+02  0.99120905174E+03  0.50956380418E+03  0.11176271253E+04  0.25500000920E-02 0.  1.
       -2    1    3    3    0  502  0.83305080906E+02 -0.99120905174E+03  0.64980486961E+03  0.11881420325E+04  0.25500000920E-02 0. -1.
</event>
<event>
 5   0  0.7857136E-05  0.1982651E+04  0.7818609E-02  0.8614775E-01
       -2   -1    0    0    0  501  0.00000000000E+00  0.00000000000E+00  0.14544498965E+04  0.14544498965E+04  0.25500000920E-02 0.  1.
        2   -1    0    0  501    0  0.00000000000E+00  0.00000000000E+00 -0.67566855538E+03  0.67566855538E+03  0.25500000920E-02 0. -1.
    10030    2    1    2    0    0  0.00000000000E+00  0.00000000000E+00  0.77878134113E+03  0.21301184519E+04  0.19826508119E+04 0.  0.
        4    1    3    3  502    0  0.93861514475E+03 -0.20953497798E+03  0.13104517898E+03  0.97060689714E+03  0.12699999809E+01 0.  1.
       -4    1    3    3    0  502 -0.93861514475E+03  0.20953497798E+03  0.64773616215E+03  0.11595115548E+04  0.12699999809E+01 0. -1.
</event>
<event>
 5   0  0.3549426E-05  0.2001262E+04  0.7818609E-02  0.8606031E-01
        1   -1    0    0  501    0  0.00000000000E+00  0.00000000000E+00  0.74544630985E+03  0.74544630987E+03  0.50400001928E-02 0. -1.
       -1   -1    0    0    0  501  0.00000000000E+00  0.00000000000E+00 -0.13431714548E+04  0.13431714548E+04  0.50400001928E-02 0.  1.
    10030    2    1    2    0    0  0.00000000000E+00  0.00000000000E+00 -0.59772514497E+03  0.20886177647E+04  0.20012618065E+04 0.  0.
        5    1    3    3  502    0  0.29488296763E+03  0.73855542021E+01  0.69902749641E+03  0.75873054620E+03  0.46999998093E+01 0. -1.
       -5    1    3    3    0  502 -0.29488296763E+03 -0.73855542021E+01 -0.12967526414E+04  0.13298872185E+04  0.46999998093E+01 0.  1.
</event>
<event>
 5   0  0.2859625E-05  0.1994694E+04  0.7818609E-02  0.8609105E-01
       -4   -1    0    0    0  501  0.00000000000E+00  0.00000000000E+00  0.10908320497E+04  0.10908327890E+04  0.12699999809E+01 0.  1.
        4   -1    0    0  501    0  0.00000000000E+00  0.00000000000E+00 -0.91187220538E+03  0.91187308977E+03  0.12699999809E+01 0. -1.
    10030    2    1    2    0    0  0.00000000000E+00  0.00000000000E+00  0.17895984430E+03  0.20027058787E+04  0.19946940144E+04 0.  0.
        1    1    3    3  502    0 -0.38866633781E+03  0.36778674389E+03  0.93450912311E+03  0.10768639247E+04  0.50400001928E-02 0.  1.
       -1    1    3    3    0  502  0.38866633781E+03 -0.36778674389E+03 -0.75554927881E+03  0.92584195404E+03  0.50400001928E-02 0. -1.
</event>
<event>
 5   0  0.2859625E-05  0.1990402E+04  0.7818609E-02  0.8611121E-01
        3   -1    0    0  501    0  0.00000000000E+00  0.00000000000E+00  0.57672456967E+03  0.57672457851E+03  0.10100000352E+00 0.  1.
       -3   -1    0    0    0  501  0.00000000000E+00  0.00000000000E+00 -0.17173279173E+04  0.17173279202E+04  0.10100000352E+00 0. -1.
    10030    2    1    2    0    0  0.00000000000E+00  0.00000000000E+00 -0.11406033476E+04  0.22940524988E+04  0.19904021881E+04 0.  0.
        4    1    3    3  502    0  0.10078265363E+02  0.18219823920E+03 -0.16978808099E+04  0.17076588147E+04  0.12699999809E+01 0. -1.
       -4    1    3    3    0  502 -0.10078265363E+02 -0.18219823920E+03  0.55727746232E+03  0.58639368406E+03  0.12699999809E+01 0.  1.
</event>
<event>
 5   0  0.3772949E-05  0.2000300E+04  0.7818609E-02  0.8606480E-01
        1   -1    0    0  501    0  0.00000000000E+00  0.00000000000E+00  0.86555296846E+03  0.86555296848E+03  0.50400001928E-02 0. -1.
       -1   -1    0    0    0  501  0.00000000000E+00  0.00000000000E+00 -0.11556775995E+04  0.11556775995E+04  0.50400001928E-02 0.  1.
    10030    2    1    2    0    0  0.00000000000E+00  0.00000000000E+00 -0.29012463107E+03  0.20212305680E+04  0.20003001544E+04 0.  0.
        2    1    3    3  502    0  0.55712893444E+02  0.54882576651E+03  0.69792512827E+03  0.88961403606E+03  0.25500000920E-02 0. -1.
       -2    1    3    3    0  502 -0.55712893444E+02 -0.54882576651E+03 -0.98804975934E+03  0.11316165320E+04  0.25500000920E-02 0.  1.
</event>
<event>
 5   0  0.3970042E-05  0.1977066E+04  0.7818609E-02  0.8617419E-01
        1   -1    0    0  501    0  0.00000000000E+00  0.00000000000E+00  0.11406339612E+04  0.11406339612E+04  0.50400001928E-02 0. -1.
       -1   -1    0    0    0  501  0.00000000000E+00  0.00000000000E+00 -0.85671431627E+03  0.85671431628E+03  0.50400001928E-02 0.  1.
    10030    2    1    2    0    0  0.00000000000E+00  0.00000000000E+00  0.28391964489E+03  0.19973482775E+04  0.19770659515E+04 0.  0.
        3    1    3    3  502    0  0.57417415945E+03 -0.41289991926E+03 -0.55580299299E+03  0.89948834674E+03  0.10100000352E+00 0.  1.
       -3    1    3    3    0  502 -0.57417415945E+03  0.41289991926E+03  0.83972263788E+03  0.10978599307E+04  0.10100000352E+00 0. -1.
</event>
<event>
 5   0  0.3549426E-05  0.1996499E+04  0.7818609E-02  0.8608259E-01
        1   -1    0    0  501    0  0.00000000000E+00  0.00000000000E+00  0.15793125611E+04  0.15793125611E+04  0.50400001928E-02 0.  1.
       -1   -1    0    0    0  501  0.00000000000E+00  0.00000000000E+00 -0.63097193495E+03  0.63097193497E+03  0.50400001928E-02 0. -1.
    10030    2    1    2    0    0  0.00000000000E+00  0.00000000000E+00  0.94834062614E+03  0.22102844961E+04  0.19964988381E+04 0.  0.
        5    1    3    3  502    0 -0.80539614311E+03 -0.81556818417E+02  0.11208088365E+04  0.13825877910E+04  0.46999998093E+01 0.  1.
       -5    1    3    3    0  502  0.80539614311E+03  0.81556818417E+02 -0.17246821033E+03  0.82769670504E+03  0.46999998093E+01 0. -1.
</event>
<event>
 5   0  0.8011197E-05  0.2003135E+04  0.7818609E-02  0.8605156E-01
        2   -1    0    0  501    0  0.00000000000E+00  0.00000000000E+00  0.95811690384E+03  0.95811690385E+03  0.25500000920E-02 0.  1.
       -2   -1    0    0    0  501  0.00000000000E+00  0.00000000000E+00 -0.10469888465E+04  0.10469888465E+04  0.25500000920E-02 0. -1.
    10030    2    1    2    0    0  0.00000000000E+00  0.00000000000E+00 -0.88871942642E+02  0.20051057503E+04  0.20031352545E+04 0.  0.
        5    1    3    3  502    0 -0.35971569551E+03  0.33428458573E+03  0.82933396985E+03  0.96382492674E+03  0.46999998093E+01 0.  1.
       -5    1    3    3    0  502  0.35971569551E+03 -0.33428458573E+03 -0.91820591249E+03  0.10412808236E+04  0.46999998093E+01 0. -1.
</event>
<event>
 5   0  0.3818907E-05  0.2010012E+04  0.7818609E-02  0.8601954E-01
       -1   -1    0    0    0  501  0.00000000000E+00  0.00000000000E+00  0.12483030322E+04  0.12483030322E+04  0.50400001928E-02 0.  1.
        1   -1    0    0  501    0  0.00000000000E+00  0.00000000000E+00 -0.80912789567E+03  0.80912789568E+03  0.50400001928E-02 0. -1.
    10030    2    1    2    0    0  0.00000000000E+00  0.00000000000E+00  0.43917513655E+03  0.20574309279E+04  0.20100117469E+04 0.  0.
        1    1    3    3  502    0  0.62467662065E+03  0.87797946162E+02  0.10204178739E+04  0.11996591171E+04  0.50400001928E-02 0.  1.
       -1    1    3    3    0  502 -0.62467662065E+03 -0.87797946162E+02 -0.58124273735E+03  0.85777181085E+03  0.50400001928E-02 0. -1.
</event>
<event>
 5   0  0.3549426E-05  0.2003456E+04  0.7818609E-02  0.8605007E-01
       -1   -1    0    0    0  501  0.00000000000E+00  0.00000000000E+00  0.12001318947E+04  0.12001318947E+04  0.50400001928E-02 0.  1.
        1   -1    0    0  501    0  0.00000000000E+00  0.00000000000E+00 -0.83612384446E+03  0.83612384447E+03  0.50400001928E-02 0. -1.
    10030    2    1    2    0    0  0.00000000000E+00  0.00000000000E+00  0.36400805026E+03  0.20362557392E+04  0.20034559079E+04 0.  0.
        5    1    3    3  502    0 -0.61014071874E+03  0.46031253375E+03 -0.47611326354E+03  0.90048056898E+03  0.46999998093E+01 0. -1.
       -5    1    3    3    0  502  0.61014071874E+03 -0.46031253375E+03  0.84012131379E+03  0.11357751702E+04  0.46999998093E+01 0.  1.
</event>
<event>
 5   0  0.3787698E-05  0.1998046E+04  0.7818609E-02  0.8607535E-01
        1   -1    0    0  501    0  0.00000000000E+00  0.00000000000E+00  0.78301736981E+03  0.78301736983E+03  0.50400001928E-02 0.  1.
       -1   -1    0    0    0  501  0.00000000000E+00  0.00000000000E+00 -0.12746163940E+04  0.12746163940E+04  0.50400001928E-02 0. -1.
    10030    2    1    2    0    0  0.00000000000E+00  0.00000000000E+00 -0.49159902419E+03  0.20576337638E+04  0.19980458217E+04 0.  0.
        4    1    3    3  502    0 -0.20531739586E+03  0.91964764470E+03 -0.58756759546E+03  0.11104703128E+04  0.12699999809E+01 0. -1.
       -4    1    3    3    0  502  0.20531739586E+03 -0.91964764470E+03  0.95968571275E+02  0.94716345106E+03  0.12699999809E+01 0.  1.
</event>
<event>
 5   0  0.3772949E-05  0.2004417E+04  0.7818609E-02  0.8604558E-01
        1   -1    0    0  501    0  0.00000000000E+00  0.00000000000E+00  0.11245642133E+04  0.11245642133E+04  0.50400001928E-02 0. -1.
       -1   -1    0    0    0  501  0.00000000000E+00  0.00000000000E+00 -0.89316534139E+03  0.89316534140E+03  0.50400001928E-02 0.  1.
    10030    2    1    2    0    0  0.00000000000E+00  0.00000000000E+00  0.23139887188E+03  0.20177295547E+04  0.20044169022E+04 0.  0.
        2    1    3    3  502    0  0.26853031210E+03 -0.42205234291E+03 -0.75850672878E+03  0.90860836793E+03  0.25500000920E-02 0.  1.
       -2    1    3    3    0  502 -0.26853031210E+03  0.42205234291E+03  0.98990560067E+03  0.11091211868E+04  0.25500000920E-02 0. -1.
</event>
<event>
 5   0  0.7843846E-05  0.1977205E+04  0.7818609E-02  0.8617353E-01
       -2   -1    0    0    0  501  0.00000000000E+00  0.00000000000E+00  0.77248132212E+03  0.77248132213E+03  0.25500000920E-02 0. -1.
        2   -1    0    0  501    0  0.00000000000E+00  0.00000000000E+00 -0.12651896369E+04  0.12651896369E+04  0.25500000920E-02 0.  1.
    10030    2    1    2    0    0  0.00000000000E+00  0.00000000000E+00 -0.49270831473E+03  0.20376709590E+04  0.19772054657E+04 0.  0.
        2    1    3    3  502    0 -0.62310888973E+03 -0.88749991154E+02 -0.10320290181E+04  0.12088114591E+04  0.25500000920E-02 0.  1.
       -2    1    3    3    0  502  0.62310888973E+03  0.88749991154E+02  0.53932070341E+03  0.82885949987E+03  0.25500000920E-02 0. -1.
</event>
<event>
 5   0  0.7935008E-05  0.2014382E+04  0.7818609E-02  0.8599926E-01
        2   -1    0    0  501    0  0.00000000000E+00  0.00000000000E+00  0.81129319691E+03  0.81129319692E+03  0.25500000920E-02 0. -1.
       -2   -1    0    0    0  501  0.00000000000E+00  0.00000000000E+00 -0.12503906539E+04  0.12503906539E+04  0.25500000920E-02 0.  1.
    10030    2    1    2    0    0  0.00000000000E+00  0.00000000000E+00 -0.43909745700E+03  0.20616838508E+04  0.20143817225E+04 0.  0.
        3    1    3    3  502    0 -0.26173327598E+03 -0.97032124860E+03 -0.28748349282E+03  0.10453106725E+04  0.10100000352E+00 0. -1.
       -3    1    3    3    0  502  0.26173327598E+03  0.97032124860E+03 -0.15161396418E+03  0.10163731783E+04  0.10100000352E+00 0.  1.
</event>
<event>
 5   0  0.7857136E-05  0.2000222E+04  0.7818609E-02  0.8606517E-01
        2   -1    0    0  501    0  0.00000000000E+00  0.00000000000E+00  0.18907451739E+04  0.18907451739E+04  0.25500000920E-02 0. -1.
       -2   -1    0    0    0  501  0.00000000000E+00  0.00000000000E+00 -0.52900951734E+03  0.52900951735E+03  0.25500000920E-02 0.  1.
    10030    2    1    2    0    0  0.00000000000E+00  0.00000000000E+00  0.13617356566E+04  0.24197546913E+04  0.20002221795E+04 0.  0.
        4    1    3    3  502    0 -0.13000491020E+02 -0.51840483256E+03  0.17153982419E+04  0.17920673326E+04  0.12699999809E+01 0. -1.
       -4    1    3    3    0  502  0.13000491020E+02  0.51840483256E+03 -0.35366258529E+03  0.62768735874E+03  0.12699999809E+01 0.  1.
</event>
<event>
 5   0  0.3549426E-05  0.1970133E+04  0.7818609E-02  0.8620713E-01
        1   -1    0    0  501    0  0.00000000000E+00  0.00000000000E+00  0.18116693923E+04  0.18116693923E+04  0.50400001928E-02 0.  1.
       -1   -1    0    0    0  501  0.00000000000E+00  0.00000000000E+00 -0.53561414066E+03  0.53561414068E+03  0.50400001928E-02 0. -1.
    10030    2    1    2    0    0  0.00000000000E+00  0.00000000000E+00  0.12760552516E+04  0.23472835330E+04  0.19701327313E+04 0.  0.
        5    1    3    3  502    0 -0.80181572121E+03 -0.17110305390E+03 -0.12531400617E+02  0.81997794594E+03  0.46999998093E+01 0. -1.
       -5    1    3    3    0  502  0.80181572121E+03  0.17110305390E+03  0.12885866522E+04  0.15273055870E+04  0.46999998093E+01 0.  1.
</event>
<event>
 5   0  0.8022574E-05  0.1987256E+04  0.7818609E-02  0.8612602E-01
        2   -1    0    0  501    0  0.00000000000E+00  0.00000000000E+00  0.92228863647E+03  0.92228863647E+03  0.25500000920E-02 0.  1.
       -2   -1    0    0    0  501  0.00000000000E+00  0.00000000000E+00 -0.10704859178E+04  0.10704859178E+04  0.25500000920E-02 0. -1.
    10030    2    1    2    0    0  0.00000000000E+00  0.00000000000E+00 -0.14819728133E+03  0.19927745543E+04  0.19872563976E+04 0.  0.
        1    1    3    3  502    0  0.66512980994E+02 -0.12499224933E+03 -0.10603182310E+04  0.10697297743E+04  0.50400001928E-02 0. -1.
       -1    1    3    3    0  502 -0.66512980994E+02  0.12499224933E+03  0.91212094965E+03  0.92304477998E+03  0.50400001928E-02 0.  1.
</event>
<event>
 5   0  0.8011197E-05  0.2104327E+04  0.7818609E-02  0.8559340E-01
       -2   -1    0    0    0  501  0.00000000000E+00  0.00000000000E+00  0.56179452079E+03  0.56179452080E+03  0.25500000920E-02 0. -1.
        2   -1    0    0  501    0  0.00000000000E+00  0.00000000000E+00 -0.19705572050E+04  0.19705572050E+04  0.25500000920E-02 0.  1.
    10030    2    1    2    0    0  0.00000000000E+00  0.00000000000E+00 -0.14087626842E+04  0.25323517258E+04  0.21043271996E+04 0.  0.
        5    1    3    3  502    0 -0.59735241369E+03  0.38451507299E+03  0.22958923950E+03  0.74660234154E+03  0.46999998093E+01 0. -1.
       -5    1    3    3    0  502  0.59735241369E+03 -0.38451507299E+03 -0.16383519237E+04  0.17857493843E+04  0.46999998093E+01 0.  1.
</event>
<event>
 5   0  0.3787698E-05  0.2035843E+04  0.7818609E-02  0.8590044E-01
       -1   -1    0    0    0  501  0.00000000000E+00  0.00000000000E+00  0.10338748186E+04  0.10338748186E+04  0.50400001928E-02 0.  1.
        1   -1    0    0  501    0  0.00000000000E+00  0.00000000000E+00 -0.10022140751E+04  0.10022140751E+04  0.50400001928E-02 0. -1.
    10030    2    1    2    0    0  0.00000000000E+00  0.00000000000E+00  0.31660743512E+02  0.20360888937E+04  0.20358427199E+04 0.  0.
        4    1    3    3  502    0 -0.15554966461E+03  0.44578565976E+03 -0.88607783618E+03  0.10040199686E+04  0.12699999809E+01 0. -1.
       -4    1    3    3    0  502  0.15554966461E+03 -0.44578565976E+03  0.91773857969E+03  0.10320689251E+04  0.12699999809E+01 0.  1.
</event>
<event>
 5   0  0.3772949E-05  0.2009650E+04  0.7818609E-02  0.8602122E-01
       -1   -1    0    0    0  501  0.00000000000E+00  0.00000000000E+00  0.45891305659E+03  0.45891305662E+03  0.50400001928E-02 0.  1.
        1   -1    0    0  501    0  0.00000000000E+00  0.00000000000E+00 -0.22001407265E+04  0.22001407265E+04  0.50400001928E-02 0. -1.
    10030    2    1    2    0    0  0.00000000000E+00  0.00000000000E+00 -0.17412276699E+04  0.26590537831E+04  0.20096500250E+04 0.  0.
        2    1    3    3  502    0  0.28210172503E+02 -0.18898856200E+03 -0.21758797451E+04  0.21842539128E+04  0.25500000920E-02 0. -1.
       -2    1    3    3    0  502 -0.28210172503E+02  0.18898856200E+03  0.43465207519E+03  0.47479987034E+03  0.25500000920E-02 0.  1.
</event>
<event>
 5   0  0.3772949E-05  0.2003334E+04  0.7818609E-02  0.8605064E-01
        1   -1    0    0  501    0  0.00000000000E+00  0.00000000000E+00  0.22844288293E+04  0.22844288293E+04  0.50400001928E-02 0.  1.
       -1   -1    0    0    0  501  0.00000000000E+00  0.00000000000E+00 -0.43920663407E+03  0.43920663410E+03  0.50400001928E-02 0. -1.
    10030    2    1    2    0    0  0.00000000000E+00  0.00000000000E+00  0.18452221953E+04  0.27236354634E+04  0.20033335189E+04 0.  0.
        2    1    3    3  502    0  0.72072896765E+03  0.61982881680E+03  0.13518900323E+04  0.16526477745E+04  0.25500000920E-02 0.  1.
       -2    1    3    3    0  502 -0.72072896765E+03 -0.61982881680E+03  0.49333216295E+03  0.10709876890E+04  0.25500000920E-02 0. -1.
</event>
<event>
 5   0  0.3970042E-05  0.2003412E+04  0.7818609E-02  0.8605027E-01
       -1   -1    0    0    0  501  0.00000000000E+00  0.00000000000E+00  0.55518901691E+03  0.55518901693E+03  0.50400001928E-02 0.  1.
        1   -1    0    0  501    0  0.00000000000E+00  0.00000000000E+00 -0.18073398564E+04  0.18073398565E+04  0.50400001928E-02 0. -1.
    10030    2    1    2    0    0  0.00000000000E+00  0.00000000000E+00 -0.12521508395E+04  0.23625288734E+04  0.20034123272E+04 0.  0.
        3    1    3    3  502    0  0.84608657271E+03 -0.28254242271E+03 -0.88612418125E+02  0.89640664879E+03  0.10100000352E+00 0.  1.
       -3    1    3    3    0  502 -0.84608657271E+03  0.28254242271E+03 -0.11635384214E+04  0.14661222246E+04  0.10100000352E+00 0. -1.
</event>
<event>
 5   0  0.3772949E-05  0.2015110E+04  0.7818609E-02  0.8599589E-01
        1   -1    0    0  501    0  0.00000000000E+00  0.00000000000E+00  0.18667131907E+04  0.18667131908E+04  0.50400001928E-02 0.  1.
       -1   -1    0    0    0  501  0.00000000000E+00  0.00000000000E+00 -0.54382575473E+03  0.54382575475E+03  0.50400001928E-02 0. -1.
    10030    2    1    2    0    0  0.00000000000E+00  0.00000000000E+00  0.13228874360E+04  0.24105389455E+04  0.20151096346E+04 0.  0.
        2    1    3    3  502    0  0.43282333524E+03 -0.90523061612E+03  0.55188425068E+03  0.11451439796E+04  0.25500000920E-02 0. -1.
       -2    1    3    3    0  502 -0.43282333524E+03  0.90523061612E+03  0.77100318534E+03  0.12653949659E+04  0.25500000920E-02 0.  1.
</event>
<event>
 5   0  0.7843846E-05  0.1982713E+04  0.7818609E-02  0.8614746E-01
        2   -1    0    0  501    0  0.00000000000E+00  0.00000000000E+00  0.22933876817E+04  0.22933876817E+04  0.25500000920E-02 0. -1.
       -2   -1    0    0    0  501  0.00000000000E+00  0.00000000000E+00 -0.42853087615E+03  0.42853087616E+03  0.25500000920E-02 0.  1.
    10030    2    1    2    0    0  0.00000000000E+00  0.00000000000E+00  0.18648568055E+04  0.27219185579E+04  0.19827127201E+04 0.  0.
        2    1    3    3  502    0 -0.56677856952E+03  0.40192338571E+03 -0.38312679885E+02  0.69587945529E+03  0.25500000920E-02 0.  1.
       -2    1    3    3    0  502  0.56677856952E+03 -0.40192338571E+03  0.19031694854E+04  0.20260391026E+04  0.25500000920E-02 0. -1.
</event>
<event>
 5   0  0.7843846E-05  0.1999189E+04  0.7818609E-02  0.8607000E-01
        2   -1    0    0  501    0  0.00000000000E+00  0.00000000000E+00  0.22577515334E+04  0.22577515334E+04  0.25500000920E-02 0. -1.
       -2   -1    0    0    0  501  0.00000000000E+00  0.00000000000E+00 -0.44255920004E+03  0.44255920004E+03  0.25500000920E-02 0.  1.
    10030    2    1    2    0    0  0.00000000000E+00  0.00000000000E+00  0.18151923333E+04  0.27003107334E+04  0.19991885479E+04 0.  0.
        2    1    3    3  502    0 -0.21011016690E+03 -0.41598072113E+03  0.21020353716E+04  0.21530766234E+04  0.25500000920E-02 0. -1.
       -2    1    3    3    0  502  0.21011016690E+03  0.41598072113E+03 -0.28684303828E+03  0.54723411005E+03  0.25500000920E-02 0.  1.
</event>
<event>
 5   0  0.7935008E-05  0.1880387E+04  0.7818609E-02  0.8664681E-01
        2   -1    0    0  501    0  0.00000000000E+00  0.00000000000E+00  0.12009515576E+04  0.12009515576E+04  0.25500000920E-02 0.  1.
       -2   -1    0    0    0  501  0.00000000000E+00  0.00000000000E+00 -0.73605248530E+03  0.73605248530E+03  0.25500000920E-02 0. -1.
    10030    2    1    2    0    0  0.00000000000E+00  0.00000000000E+00  0.46489907230E+03  0.19370040429E+04  0.18803865333E+04 0.  0.
        3    1    3    3  502    0  0.88187103992E+03  0.31365511478E+03  0.14096498716E+03  0.94654487473E+03  0.10100000352E+00 0. -1.
       -3    1    3    3    0  502 -0.88187103992E+03 -0.31365511478E+03  0.32393408514E+03  0.99045916816E+03  0.10100000352E+00 0.  1.
</event>
<event>
 5   0  0.3818907E-05  0.1995663E+04  0.7818609E-02  0.8608651E-01
       -1   -1    0    0    0  501  0.00000000000E+00  0.00000000000E+00  0.21681818721E+04  0.21681818721E+04  0.50400001928E-02 0.  1.
        1   -1    0    0  501    0  0.00000000000E+00  0.00000000000E+00 -0.45921765355E+03  0.45921765358E+03  0.50400001928E-02 0. -1.
    10030    2    1    2    0    0  0.00000000000E+00  0.00000000000E+00  0.17089642185E+04  0.26273995257E+04  0.19956626887E+04 0.  0.
        1    1    3    3  502    0  0.94241317574E+03 -0.31412955213E+03  0.97831823656E+03  0.13942476614E+04  0.50400001928E-02 0.  1.
       -1    1    3    3    0  502 -0.94241317574E+03  0.31412955213E+03  0.73064598198E+03  0.12331518643E+04  0.50400001928E-02 0. -1.
</event>
<event>
 5   0  0.3772949E-05  0.1966496E+04  0.7818609E-02  0.8622447E-01
       -1   -1    0    0    0  501  0.00000000000E+00  0.00000000000E+00  0.50164910492E+03  0.50164910495E+03  0.50400001928E-02 0. -1.
        1   -1    0    0  501    0  0.00000000000E+00  0.00000000000E+00 -0.19271974856E+04  0.19271974856E+04  0.50400001928E-02 0.  1.
    10030    2    1    2    0    0  0.00000000000E+00  0.00000000000E+00 -0.14255483806E+04  0.24288465905E+04  0.19664962687E+04 0.  0.
        2    1    3    3  502    0  0.84896043998E+03 -0.43765567249E+03 -0.42443245366E+03  0.10451886069E+04  0.25500000920E-02 0. -1.
       -2    1    3    3    0  502 -0.84896043998E+03  0.43765567249E+03 -0.10011159270E+04  0.13836579836E+04  0.25500000920E-02 0.  1.
</event>
<event>
 5   0  0.3772949E-05  0.2003985E+04  0.7818609E-02  0.8604760E-01
       -1   -1    0    0    0  501  0.00000000000E+00  0.00000000000E+00  0.85989525571E+03  0.85989525573E+03  0.50400001928E-02 0. -1.
        1   -1    0    0  501    0  0.00000000000E+00  0.00000000000E+00 -0.11675713285E+04  0.11675713285E+04  0.50400001928E-02 0.  1.
    10030    2    1    2    0    0  0.00000000000E+00  0.00000000000E+00 -0.30767607278E+03  0.20274665842E+04  0.20039850759E+04 0.  0.
        2    1    3    3  502    0  0.66482465264E+03 -0.25877829296E+03  0.55799055867E+03  0.90571048754E+03  0.25500000920E-02 0. -1.
       -2    1    3    3    0  502 -0.66482465264E+03  0.25877829296E+03 -0.86566663145E+03  0.11217560967E+04  0.25500000920E-02 0.  1.
</event>
<event>
 5   0  0.7935008E-05  0.1988615E+04  0.7818609E-02  0.8611962E-01
       -2   -1    0    0    0  501  0.00000000000E+00  0.00000000000E+00  0.10934763796E+04  0.10934763796E+04  0.25500000920E-02 0.  1.
        2   -1    0    0  501    0  0.00000000000E+00  0.00000000000E+00 -0.90413261872E+03  0.90413261872E+03  0.25500000920E-02 0. -1.
    10030    2    1    2    0    0  0.00000000000E+00  0.00000000000E+00  0.18934376084E+03  0.19976089983E+04  0.19886152595E+04 0.  0.
        3    1    3    3  502    0 -0.84055701361E+03 -0.51483526698E+03  0.22586194576E+03  0.10112393752E+04  0.10100000352E+00 0.  1.
       -3    1    3    3    0  502  0.84055701361E+03  0.51483526698E+03 -0.36518184923E+02  0.98636962306E+03  0.10100000352E+00 0. -1.
</event>
<event>
 5   0  0.7843846E-05  0.2000654E+04  0.7818609E-02  0.8606315E-01
        2   -1    0    0  501    0  0.00000000000E+00  0.00000000000E+00  0.13400074306E+04  0.13400074306E+04  0.25500000920E-02 0.  1.
       -2   -1    0    0    0  501  0.00000000000E+00  0.00000000000E+00 -0.74675230047E+03  0.74675230048E+03  0.25500000920E-02 0. -1.
    10030    2    1    2    0    0  0.00000000000E+00  0.00000000000E+00  0.59325513009E+03  0.20867597310E+04  0.20006535247E+04 0.  0.
        2    1    3    3  502    0 -0.59898229294E+03  0.22214702691E+03  0.10995132887E+04  0.12716361748E+04  0.25500000920E-02 0.  1.
       -2    1    3    3    0  502  0.59898229294E+03 -0.22214702691E+03 -0.50625815865E+03  0.81512355629E+03  0.25500000920E-02 0. -1.
</event>
<event>
 5   0  0.7843846E-05  0.2001605E+04  0.7818609E-02  0.8605871E-01
        2   -1    0    0  501    0  0.00000000000E+00  0.00000000000E+00  0.16182401916E+04  0.16182401916E+04  0.25500000920E-02 0. -1.
       -2   -1    0    0    0  501  0.00000000000E+00  0.00000000000E+00 -0.61894740339E+03  0.61894740339E+03  0.25500000920E-02 0.  1.
    10030    2    1    2    0    0  0.00000000000E+00  0.00000000000E+00  0.99929278823E+03  0.22371875950E+04  0.20016049207E+04 0.  0.
        2    1    3    3  502    0 -0.46264422561E+03 -0.30456985860E+03  0.14313009499E+04  0.15347393549E+04  0.25500000920E-02 0. -1.
       -2    1    3    3    0  502  0.46264422561E+03  0.30456985860E+03 -0.43200816169E+03  0.70244824010E+03  0.25500000920E-02 0.  1.
</event>
<event>
 5   0  0.3787698E-05  0.2075865E+04  0.7818609E-02  0.8571950E-01
       -1   -1    0    0    0  501  0.00000000000E+00  0.00000000000E+00  0.64512183956E+03  0.64512183958E+03  0.50400001928E-02 0.  1.
        1   -1    0    0  501    0  0.00000000000E+00  0.00000000000E+00 -0.16699227342E+04  0.16699227342E+04  0.50400001928E-02 0. -1.
    10030    2    1    2    0    0  0.00000000000E+00  0.00000000000E+00 -0.10248008946E+04  0.23150445737E+04  0.20758647607E+04 0.  0.
        4    1    3    3  502    0 -0.70352398619E+03 -0.57904161354E+03  0.41928447399E+02  0.91213748797E+03  0.12699999809E+01 0.  1.
       -4    1    3    3    0  502  0.70352398619E+03  0.57904161354E+03 -0.10667293420E+04  0.14029070858E+04  0.12699999809E+01 0. -1.
</event>
<event>
 5   0  0.3549426E-05  0.2003537E+04  0.7818609E-02  0.8604969E-01
       -1   -1    0    0    0  501  0.00000000000E+00  0.00000000000E+00  0.19161271202E+04  0.19161271202E+04  0.50400001928E-02 0.  1.
        1   -1    0    0  501    0  0.00000000000E+00  0.00000000000E+00 -0.52373378193E+03  0.52373378195E+03  0.50400001928E-02 0. -1.
    10030    2    1    2    0    0  0.00000000000E+00  0.00000000000E+00  0.13923933383E+04  0.24398609022E+04  0.20035373751E+04 0.  0.
        5    1    3    3  502    0  0.13313036798E+03 -0.39096590580E+03  0.18076073787E+04  0.18541964729E+04  0.46999998093E+01 0.  1.
       -5    1    3    3    0  502 -0.13313036798E+03  0.39096590580E+03 -0.41521404044E+03  0.58566442931E+03  0.46999998093E+01 0. -1.
</event>
<event>
 5   0  0.8022574E-05  0.1997931E+04  0.7818609E-02  0.8607589E-01
       -2   -1    0    0    0  501  0.00000000000E+00  0.00000000000E+00  0.41094461281E+03  0.41094461282E+03  0.25500000920E-02 0.  1.
        2   -1    0    0  501    0  0.00000000000E+00  0.00000000000E+00 -0.24283849287E+04  0.24283849287E+04  0.25500000920E-02 0. -1.
    10030    2    1    2    0    0  0.00000000000E+00  0.00000000000E+00 -0.20174403159E+04  0.28393295416E+04  0.19979306337E+04 0.  0.
        1    1    3    3  502    0 -0.26124545359E+03  0.54572043828E+03 -0.21383856294E+04  0.22223305524E+04  0.50400001928E-02 0. -1.
       -1    1    3    3    0  502  0.26124545359E+03 -0.54572043828E+03  0.12094531351E+03  0.61699898919E+03  0.50400001928E-02 0.  1.
</event>
<event>
 5   0  0.7935008E-05  0.2010831E+04  0.7818609E-02  0.8601574E-01
       -2   -1    0    0    0  501  0.00000000000E+00  0.00000000000E+00  0.16152982327E+04  0.16152982327E+04  0.25500000920E-02 0. -1.
        2   -1    0    0  501    0  0.00000000000E+00  0.00000000000E+00 -0.62580415200E+03  0.62580415201E+03  0.25500000920E-02 0.  1.
    10030    2    1    2    0    0  0.00000000000E+00  0.00000000000E+00  0.98949408074E+03  0.22411023848E+04  0.20108310131E+04 0.  0.
        3    1    3    3  502    0 -0.20469681421E+03  0.39872495242E+02 -0.60143421055E+03  0.63656399635E+03  0.10100000352E+00 0.  1.
       -3    1    3    3    0  502  0.20469681421E+03 -0.39872495242E+02  0.15909282913E+04  0.16045383884E+04  0.10100000352E+00 0. -1.
</event>
<event>
 5   0  0.3772949E-05  0.2006596E+04  0.7818609E-02  0.8603543E-01
       -1   -1    0    0    0  501  0.00000000000E+00  0.00000000000E+00  0.90268018827E+03  0.90268018828E+03  0.50400001928E-02 0. -1.
        1   -1    0    0  501    0  0.00000000000E+00  0.00000000000E+00 -0.11151307499E+04  0.11151307499E+04  0.50400001928E-02 0.  1.
    10030    2    1    2    0    0  0.00000000000E+00  0.00000000000E+00 -0.21245056160E+03  0.20178109382E+04  0.20065955599E+04 0.  0.
        2    1    3    3  502    0 -0.87220412387E+03 -0.18903323675E+03  0.35473933206E+03  0.96037159059E+03  0.25500000920E-02 0. -1.
       -2    1    3    3    0  502  0.87220412387E+03  0.18903323675E+03 -0.56718989366E+03  0.10574393476E+04  0.25500000920E-02 0.  1.
</event>
<event>
 5   0  0.7935008E-05  0.2005416E+04  0.7818609E-02  0.8604093E-01
        2   -1    0    0  501    0  0.00000000000E+00  0.00000000000E+00  0.19770521299E+04  0.19770521299E+04  0.25500000920E-02 0. -1.
       -2   -1    0    0    0  501  0.00000000000E+00  0.00000000000E+00 -0.50854652011E+03  0.50854652011E+03  0.25500000920E-02 0.  1.
    10030    2    1    2    0    0  0.00000000000E+00  0.00000000000E+00  0.14685056098E+04  0.24855986500E+04  0.20054156484E+04 0.  0.
        3    1    3    3  502    0  0.20671848184E+03 -0.36077798954E+03 -0.39665309055E+03  0.57465378526E+03  0.10100000352E+00 0.  1.
       -3    1    3    3    0  502 -0.20671848184E+03  0.36077798954E+03  0.18651587003E+04  0.19109448648E+04  0.10100000352E+00 0. -1.
</event>
<event>
 5   0  0.7843846E-05  0.2002569E+04  0.7818609E-02  0.8605421E-01
        2   -1    0    0  501    0  0.00000000000E+00  0.00000000000E+00  0.58424822932E+03  0.58424822933E+03  0.25500000920E-02 0. -1.
       -2   -1    0    0    0  501  0.00000000000E+00  0.00000000000E+00 -0.17160004759E+04  0.17160004759E+04  0.25500000920E-02 0.  1.
    10030    2    1    2    0    0  0.00000000000E+00  0.00000000000E+00 -0.11317522465E+04  0.23002487052E+04  0.20025685901E+04 0.  0.
        2    1    3    3  502    0  0.40594411904E+03  0.56258089269E+03  0.26344724993E+03  0.74208647886E+03  0.25500000920E-02 0. -1.
       -2    1    3    3    0  502 -0.40594411904E+03 -0.56258089269E+03 -0.13951994965E+04  0.15581622263E+04  0.25500000920E-02 0.  1.
</event>
<event>
 5   0  0.7935008E-05  0.2014485E+04  0.7818609E-02  0.8599878E-01
        2   -1    0    0  501    0  0.00000000000E+00  0.00000000000E+00  0.24341530789E+04  0.24341530789E+04  0.25500000920E-02 0. -1.
       -2   -1    0    0    0  501  0.00000000000E+00  0.00000000000E+00 -0.41679294183E+03  0.41679294184E+03  0.25500000920E-02 0.  1.
    10030    2    1    2    0    0  0.00000000000E+00  0.00000000000E+00  0.20173601371E+04  0.28509460208E+04  0.20144853662E+04 0.  0.
        3    1    3    3  502    0 -0.24353918176E+03 -0.97359709350E+03  0.11298877749E+04  0.15112408900E+04  0.10100000352E+00 0.  1.
       -3    1    3    3    0  502  0.24353918176E+03  0.97359709350E+03  0.88747236216E+03  0.13397051307E+04  0.10100000352E+00 0. -1.
</event>
<event>
 5   0  0.3549426E-05  0.2006806E+04  0.7818609E-02  0.8603445E-01
        1   -1    0    0  501    0  0.00000000000E+00  0.00000000000E+00  0.11065621086E+04  0.11065621086E+04  0.50400001928E-02 0. -1.
       -1   -1    0    0    0  501  0.00000000000E+00  0.00000000000E+00 -0.90986130882E+03  0.90986130883E+03  0.50400001928E-02 0.  1.
    10030    2    1    2    0    0  0.00000000000E+00  0.00000000000E+00  0.19670079980E+03  0.20164234175E+04  0.20068064665E+04 0.  0.
        5    1    3    3  502    0  0.36042118094E+03  0.84061682291E+03 -0.31624770299E+03  0.96776793203E+03  0.46999998093E+01 0.  1.
       -5    1    3    3    0  502 -0.36042118094E+03 -0.84061682291E+03  0.51294850279E+03  0.10486554854E+04  0.46999998093E+01 0. -1.
</event>
<event>
 5   0  0.3549426E-05  0.1860833E+04  0.7818609E-02  0.8674602E-01
       -1   -1    0    0    0  501  0.00000000000E+00  0.00000000000E+00  0.10458829587E+04  0.10458829587E+04  0.50400001928E-02 0. -1.
        1   -1    0    0  501    0  0.00000000000E+00  0.00000000000E+00 -0.82769744065E+03  0.82769744066E+03  0.50400001928E-02 0.  1.
    10030    2    1    2    0    0  0.00000000000E+00  0.00000000000E+00  0.21818551805E+03  0.18735803994E+04  0.18608327686E+04 0.  0.
        5    1    3    3  502    0 -0.72290415031E+03 -0.54429752043E+03 -0.10872779133E+03  0.91142417342E+03  0.46999998093E+01 0. -1.
       -5    1    3    3    0  502  0.72290415031E+03  0.54429752043E+03  0.32691330938E+03  0.96215622595E+03  0.46999998093E+01 0.  1.
</event>
<event>
 5   0  0.8022574E-05  0.1994768E+04  0.7818609E-02  0.8609071E-01
       -2   -1    0    0    0  501  0.00000000000E+00  0.00000000000E+00  0.38037724694E+03  0.38037724694E+03  0.25500000920E-02 0. -1.
        2   -1    0    0  501    0  0.00000000000E+00  0.00000000000E+00 -0.26152333017E+04  0.26152333017E+04  0.25500000920E-02 0.  1.
    10030    2    1    2    0    0  0.00000000000E+00  0.00000000000E+00 -0.22348560547E+04  0.29956105486E+04  0.19947684010E+04 0.  0.
        1    1    3    3  502    0 -0.13897429982E+03  0.54865703791E+03  0.11585715725E+03  0.57772076488E+03  0.50400001928E-02 0. -1.
       -1    1    3    3    0  502  0.13897429982E+03 -0.54865703791E+03 -0.23507132120E+04  0.24178897837E+04  0.50400001928E-02 0.  1.
</event>
<event>
 5   0  0.3772949E-05  0.1988391E+04  0.7818609E-02  0.8612068E-01
        1   -1    0    0  501    0  0.00000000000E+00  0.00000000000E+00  0.16767679312E+04  0.16767679312E+04  0.50400001928E-02 0.  1.
       -1   -1    0    0    0  501  0.00000000000E+00  0.00000000000E+00 -0.58948191431E+03  0.58948191433E+03  0.50400001928E-02 0. -1.
    10030    2    1    2    0    0  0.00000000000E+00  0.00000000000E+00  0.10872860169E+04  0.22662498455E+04  0.19883906758E+04 0.  0.
        2    1    3    3  502    0 -0.96024488469E+03 -0.50398882587E+02  0.83155804006E+03  0.12712588485E+04  0.25500000920E-02 0. -1.
       -2    1    3    3    0  502  0.96024488469E+03  0.50398882587E+02  0.25572797680E+03  0.99499099698E+03  0.25500000920E-02 0.  1.
</event>
<event>
 5   0  0.7843846E-05  0.2006794E+04  0.7818609E-02  0.8603451E-01
       -2   -1    0    0    0  501  0.00000000000E+00  0.00000000000E+00  0.16238473764E+04  0.16238473764E+04  0.25500000920E-02 0.  1.
        2   -1    0    0  501    0  0.00000000000E+00  0.00000000000E+00 -0.62001213151E+03  0.62001213151E+03  0.25500000920E-02 0. -1.
    10030    2    1    2    0    0  0.00000000000E+00  0.00000000000E+00  0.10038352449E+04  0.22438595079E+04  0.20067935351E+04 0.  0.
        2    1    3    3  502    0 -0.41933413689E+03  0.73607398116E+03 -0.99341061711E+02  0.85294470550E+03  0.25500000920E-02 0. -1.
       -2    1    3    3    0  502  0.41933413689E+03 -0.73607398116E+03  0.11031763066E+04  0.13909148024E+04  0.25500000920E-02 0.  1.
</event>
<event>
 5   0  0.3818907E-05  0.2005983E+04  0.7818609E-02  0.8603829E-01
        1   -1    0    0  501    0  0.00000000000E+00  0.00000000000E+00  0.13453845603E+04  0.13453845603E+04  0.50400001928E-02 0.  1.
       -1   -1    0    0    0  501  0.00000000000E+00  0.00000000000E+00 -0.74773554046E+03  0.74773554048E+03  0.50400001928E-02 0. -1.
    10030    2    1    2    0    0  0.00000000000E+00  0.00000000000E+00  0.59764901982E+03  0.20931201008E+04  0.20059829026E+04 0.  0.
        1    1    3    3  502    0  0.13454951820E+03 -0.23823470241E+03 -0.70804378378E+03  0.75906873606E+03  0.50400001928E-02 0. -1.
       -1    1    3    3    0  502 -0.13454951820E+03  0.23823470241E+03  0.13056928036E+04  0.13340513647E+04  0.50400001928E-02 0.  1.
</event>
<event>
 5   0  0.7857136E-05  0.1970220E+04  0.7818609E-02  0.8620672E-01
       -2   -1    0    0    0  501  0.00000000000E+00  0.00000000000E+00  0.83951095344E+03  0.83951095344E+03  0.25500000920E-02 0. -1.
        2   -1    0    0  501    0  0.00000000000E+00  0.00000000000E+00 -0.11559607789E+04  0.11559607789E+04  0.25500000920E-02 0.  1.
    10030    2    1    2    0    0  0.00000000000E+00  0.00000000000E+00 -0.31644982544E+03  0.19954717323E+04  0.19702200239E+04 0.  0.
        4    1    3    3  502    0  0.19863481837E+03 -0.63634236642E+03 -0.89281571859E+03  0.11142301910E+04  0.12699999809E+01 0.  1.
       -4    1    3    3    0  502 -0.19863481837E+03  0.63634236642E+03  0.57636589316E+03  0.88124154127E+03  0.12699999809E+01 0. -1.
</event>
<event>
 5   0  0.3787698E-05  0.1982506E+04  0.7818609E-02  0.8614844E-01
        1   -1    0    0  501    0  0.00000000000E+00  0.00000000000E+00  0.12995725620E+04  0.12995725620E+04  0.50400001928E-02 0. -1.
       -1   -1    0    0    0  501  0.00000000000E+00  0.00000000000E+00 -0.75608115812E+03  0.75608115814E+03  0.50400001928E-02 0.  1.
    10030    2    1    2    0    0  0.00000000000E+00  0.00000000000E+00  0.54349140383E+03  0.20556537201E+04  0.19825058161E+04 0.  0.
        4    1    3    3  502    0  0.73859407562E+03 -0.28553042265E+03  0.89001084966E+03  0.11912891153E+04  0.12699999809E+01 0. -1.
       -4    1    3    3    0  502 -0.73859407562E+03  0.28553042265E+03 -0.34651944583E+03  0.86436460481E+03  0.12699999809E+01 0.  1.
</event>
<event>
 5   0  0.8011197E-05  0.1999119E+04  0.7818609E-02  0.8607032E-01
       -2   -1    0    0    0  501  0.00000000000E+00  0.00000000000E+00  0.35149708260E+03  0.35149708261E+03  0.25500000920E-02 0.  1.
        2   -1    0    0  501    0  0.00000000000E+00  0.00000000000E+00 -0.28424690133E+04  0.28424690133E+04  0.25500000920E-02 0. -1.
    10030    2    1    2    0    0  0.00000000000E+00  0.00000000000E+00 -0.24909719307E+04  0.31939660959E+04  0.19991193717E+04 0.  0.
        5    1    3    3  502    0  0.84984597686E+03  0.51939007876E+03 -0.13800452959E+04  0.17019257760E+04  0.46999998093E+01 0. -1.
       -5    1    3    3    0  502 -0.84984597686E+03 -0.51939007876E+03 -0.11109266348E+04  0.14920403199E+04  0.46999998093E+01 0.  1.
</event>
<event>
 5   0  0.3772949E-05  0.2012749E+04  0.7818609E-02  0.8600683E-01
       -1   -1    0    0    0  501  0.00000000000E+00  0.00000000000E+00  0.52678635095E+03  0.52678635098E+03  0.50400001928E-02 0.  1.
        1   -1    0    0  501    0  0.00000000000E+00  0.00000000000E+00 -0.19225809246E+04  0.19225809246E+04  0.50400001928E-02 0. -1.
    10030    2    1    2    0    0  0.00000000000E+00  0.00000000000E+00 -0.13957945737E+04  0.24493672756E+04  0.20127487570E+04 0.  0.
        2    1    3    3  502    0 -0.52207906550E+03 -0.17685100035E+02 -0.17446734271E+04  0.18211986933E+04  0.25500000920E-02 0. -1.
       -2    1    3    3    0  502  0.52207906550E+03  0.17685100035E+02  0.34887885341E+03  0.62816858228E+03  0.25500000920E-02 0.  1.
</event>
<event>
 5   0  0.3549426E-05  0.1997436E+04  0.7818609E-02  0.8607820E-01
        1   -1    0    0  501    0  0.00000000000E+00  0.00000000000E+00  0.12777378890E+04  0.12777378890E+04  0.50400001928E-02 0.  1.
       -1   -1    0    0    0  501  0.00000000000E+00  0.00000000000E+00 -0.78062781997E+03  0.78062781998E+03  0.50400001928E-02 0. -1.
    10030    2    1    2    0    0  0.00000000000E+00  0.00000000000E+00  0.49711006900E+03  0.20583657090E+04  0.19974360994E+04 0.  0.
        5    1    3    3  502    0 -0.24161692915E+03  0.15270573399E+03 -0.73756660395E+03  0.79102741223E+03  0.46999998093E+01 0. -1.
       -5    1    3    3    0  502  0.24161692915E+03 -0.15270573399E+03  0.12346766729E+04  0.12673382967E+04  0.46999998093E+01 0.  1.
</event>
<event>
 5   0  0.8022574E-05  0.2002091E+04  0.7818609E-02  0.8605644E-01
        2   -1    0    0  501    0  0.00000000000E+00  0.00000000000E+00  0.21228697047E+04  0.21228697047E+04  0.25500000920E-02 0.  1.
       -2   -1    0    0    0  501  0.00000000000E+00  0.00000000000E+00 -0.47204584094E+03  0.47204584095E+03  0.25500000920E-02 0. -1.
    10030    2    1    2    0    0  0.00000000000E+00  0.00000000000E+00  0.16508238638E+04  0.25949155457E+04  0.20020907222E+04 0.  0.
        1    1    3    3  502    0  0.93400637140E+00  0.51062137516E+03 -0.29055955607E+03  0.58750312066E+03  0.50400001928E-02 0. -1.
       -1    1    3    3    0  502 -0.93400637140E+00 -0.51062137516E+03  0.19413834199E+04  0.20074124250E+04  0.50400001928E-02 0.  1.
</event>
<event>
 5   0  0.3970042E-05  0.2008555E+04  0.7818609E-02  0.8602631E-01
       -1   -1    0    0    0  501  0.00000000000E+00  0.00000000000E+00  0.99324075503E+03  0.99324075505E+03  0.50400001928E-02 0. -1.
        1   -1    0    0  501    0  0.00000000000E+00  0.00000000000E+00 -0.10154370837E+04  0.10154370837E+04  0.50400001928E-02 0.  1.
    10030    2    1    2    0    0  0.00000000000E+00  0.00000000000E+00 -0.22196328685E+02  0.20086778388E+04  0.20085551979E+04 0.  0.
        3    1    3    3  502    0 -0.54173791150E+03  0.21015896760E+03  0.80805302084E+03  0.99528711994E+03  0.10100000352E+00 0. -1.
       -3    1    3    3    0  502  0.54173791150E+03 -0.21015896760E+03 -0.83024934953E+03  0.10133907188E+04  0.10100000352E+00 0.  1.
</event>
<event>
 5   0  0.8022574E-05  0.2009729E+04  0.7818609E-02  0.8602086E-01
       -2   -1    0    0    0  501  0.00000000000E+00  0.00000000000E+00  0.71862618602E+03  0.71862618603E+03  0.25500000920E-02 0.  1.
        2   -1    0    0  501    0  0.00000000000E+00  0.00000000000E+00 -0.14051153163E+04  0.14051153163E+04  0.25500000920E-02 0. -1.
    10030    2    1    2    0    0  0.00000000000E+00  0.00000000000E+00 -0.68648913025E+03  0.21237415023E+04  0.20097289973E+04 0.  0.
        1    1    3    3  502    0 -0.45724743696E+03 -0.55484435591E+03  0.39859604027E+03  0.82207437695E+03  0.50400001928E-02 0.  1.
       -1    1    3    3    0  502  0.45724743696E+03  0.55484435591E+03 -0.10850851705E+04  0.13016671253E+04  0.50400001928E-02 0. -1.
</event>
<event>
 5   0  0.3970042E-05  0.2013071E+04  0.7818609E-02  0.8600534E-01
        1   -1    0    0  501    0  0.00000000000E+00  0.00000000000E+00  0.11251197023E+04  0.11251197023E+04  0.50400001928E-02 0.  1.
       -1   -1    0    0    0  501  0.00000000000E+00  0.00000000000E+00 -0.90044988498E+03  0.90044988500E+03  0.50400001928E-02 0. -1.
    10030    2    1    2    0    0  0.00000000000E+00  0.00000000000E+00  0.22466981730E+03  0.20255695873E+04  0.20130711925E+04 0.  0.
        3    1    3    3  502    0 -0.89110813721E+03 -0.40197386382E+03  0.35352543829E+03  0.10395368897E+04  0.10100000352E+00 0. -1.
       -3    1    3    3    0  502  0.89110813721E+03  0.40197386382E+03 -0.12885562098E+03  0.98603269756E+03  0.10100000352E+00 0.  1.
</event>
<event>
 5   0  0.3549426E-05  0.1980476E+04  0.7818609E-02  0.8615804E-01
        1   -1    0    0  501    0  0.00000000000E+00  0.00000000000E+00  0.12895905526E+04  0.12895905526E+04  0.50400001928E-02 0. -1.
       -1   -1    0    0    0  501  0.00000000000E+00  0.00000000000E+00 -0.76037390413E+03  0.76037390415E+03  0.50400001928E-02 0.  1.
    10030    2    1    2    0    0  0.00000000000E+00  0.00000000000E+00  0.52921664850E+03  0.20499644568E+04  0.19804757037E+04 0.  0.
        5    1    3    3  502    0  0.24607799392E+03 -0.43161943099E+03  0.11512248773E+04  0.12538702168E+04  0.46999998093E+01 0. -1.
       -5    1    3    3    0  502 -0.24607799392E+03  0.43161943099E+03 -0.62200822882E+03  0.79609424004E+03  0.46999998093E+01 0.  1.
</event>
<event>
 5   0  0.7857136E-05  0.2006072E+04  0.7818609E-02  0.8603787E-01
        2   -1    0    0  501    0  0.00000000000E+00  0.00000000000E+00  0.91252692827E+03  0.91252692827E+03  0.25500000920E-02 0. -1.
       -2   -1    0    0    0  501  0.00000000000E+00  0.00000000000E+00 -0.11025217275E+04  0.11025217275E+04  0.25500000920E-02 0.  1.
    10030    2    1    2    0    0  0.00000000000E+00  0.00000000000E+00 -0.18999479924E+03  0.20150486558E+04  0.20060715494E+04 0.  0.
        4    1    3    3  502    0  0.93649436363E+03 -0.10852066676E+03  0.24899784431E+03  0.97508972284E+03  0.12699999809E+01 0.  1.
       -4    1    3    3    0  502 -0.93649436363E+03  0.10852066676E+03 -0.43899264355E+03  0.10399589329E+04  0.12699999809E+01 0. -1.
</event>
<event>
 5   0  0.7843846E-05  0.2000423E+04  0.7818609E-02  0.8606423E-01
        2   -1    0    0  501    0  0.00000000000E+00  0.00000000000E+00  0.64799145652E+03  0.64799145653E+03  0.25500000920E-02 0. -1.
       -2   -1    0    0    0  501  0.00000000000E+00  0.00000000000E+00 -0.15438837166E+04  0.15438837166E+04  0.25500000920E-02 0.  1.
    10030    2    1    2    0    0  0.00000000000E+00  0.00000000000E+00 -0.89589226008E+03  0.21918751731E+04  0.20004234134E+04 0.  0.
        2    1    3    3  502    0  0.66492642143E+03 -0.71819868172E+03 -0.22209527060E+03  0.10036248311E+04  0.25500000920E-02 0. -1.
       -2    1    3    3    0  502 -0.66492642143E+03  0.71819868172E+03 -0.67379698948E+03  0.11882503420E+04  0.25500000920E-02 0.  1.
</event>
<event>
 5   0  0.3787698E-05  0.2008143E+04  0.7818609E-02  0.8602823E-01
        1   -1    0    0  501    0  0.00000000000E+00  0.00000000000E+00  0.10277146378E+04  0.10277146378E+04  0.50400001928E-02 0. -1.
       -1   -1    0    0    0  501  0.00000000000E+00  0.00000000000E+00 -0.98097185074E+03  0.98097185075E+03  0.50400001928E-02 0.  1.
    10030    2    1    2    0    0  0.00000000000E+00  0.00000000000E+00  0.46742787046E+02  0.20086864885E+04  0.20081425550E+04 0.  0.
        4    1    3    3  502    0  0.27606259050E+03  0.96034851038E+03 -0.75030565326E+02  0.10020533987E+04  0.12699999809E+01 0. -1.
       -4    1    3    3    0  502 -0.27606259050E+03 -0.96034851038E+03  0.12177335237E+03  0.10066330898E+04  0.12699999809E+01 0.  1.
</event>
<event>
 5   0  0.8011197E-05  0.1989294E+04  0.7818609E-02  0.8611642E-01
        2   -1    0    0  501    0  0.00000000000E+00  0.00000000000E+00  0.11066296801E+04  0.11066296801E+04  0.25500000920E-02 0. -1.
       -2   -1    0    0    0  501  0.00000000000E+00  0.00000000000E+00 -0.89399653993E+03  0.89399653993E+03  0.25500000920E-02 0.  1.
    10030    2    1    2    0    0  0.00000000000E+00  0.00000000000E+00  0.21263314015E+03  0.20006262200E+04  0.19892944528E+04 0.  0.
        5    1    3    3  502    0 -0.73441453370E+03  0.66933169598E+03  0.62118663588E+02  0.99561561102E+03  0.46999998093E+01 0. -1.
       -5    1    3    3    0  502  0.73441453370E+03 -0.66933169598E+03  0.15051447656E+03  0.10050106090E+04  0.46999998093E+01 0.  1.
</event>
<event>
 5   0  0.3818907E-05  0.1999848E+04  0.7818609E-02  0.8606692E-01
        1   -1    0    0  501    0  0.00000000000E+00  0.00000000000E+00  0.19565868515E+04  0.19565868515E+04  0.50400001928E-02 0. -1.
       -1   -1    0    0    0  501  0.00000000000E+00  0.00000000000E+00 -0.51101625732E+03  0.51101625735E+03  0.50400001928E-02 0.  1.
    10030    2    1    2    0    0  0.00000000000E+00  0.00000000000E+00  0.14455705941E+04  0.24676031088E+04  0.19998476842E+04 0.  0.
        1    1    3    3  502    0  0.20646406048E+03  0.71019517759E+03  0.15531182284E+04  0.17202269705E+04  0.50400001928E-02 0. -1.
       -1    1    3    3    0  502 -0.20646406048E+03 -0.71019517759E+03 -0.10754763423E+03  0.74737613836E+03  0.50400001928E-02 0.  1.
</event>
<event>
 5   0  0.7857136E-05  0.2056149E+04  0.7818609E-02  0.8580810E-01
       -2   -1    0    0    0  501  0.00000000000E+00  0.00000000000E+00  0.99999908616E+03  0.99999908617E+03  0.25500000920E-02 0. -1.
        2   -1    0    0  501    0  0.00000000000E+00  0.00000000000E+00 -0.10569377994E+04  0.10569377994E+04  0.25500000920E-02 0.  1.
    10030    2    1    2    0    0  0.00000000000E+00  0.00000000000E+00 -0.56938713257E+02  0.20569368856E+04  0.20561486654E+04 0.  0.
        4    1    3    3  502    0 -0.10992111243E+03  0.42849080753E+03  0.89992099200E+03  0.10027693792E+04  0.12699999809E+01 0. -1.
       -4    1    3    3    0  502  0.10992111243E+03 -0.42849080753E+03 -0.95685970526E+03  0.10541675064E+04  0.12699999809E+01 0.  1.
</event>
<event>
 5   0  0.3772949E-05  0.2034069E+04  0.7818609E-02  0.8590856E-01
        1   -1    0    0  501    0  0.00000000000E+00  0.00000000000E+00  0.27368507694E+04  0.27368507695E+04  0.50400001928E-02 0.  1.
       -1   -1    0    0    0  501  0.00000000000E+00  0.00000000000E+00 -0.37793760358E+03  0.37793760361E+03  0.50400001928E-02 0. -1.
    10030    2    1    2    0    0  0.00000000000E+00  0.00000000000E+00  0.23589131659E+04  0.31147883731E+04  0.20340686529E+04 0.  0.
        2    1    3    3  502    0  0.50323730385E+03 -0.86049491650E+03  0.87068014947E+03  0.13235494732E+04  0.25500000920E-02 0. -1.
       -2    1    3    3    0  502 -0.50323730385E+03  0.86049491650E+03  0.14882330164E+04  0.17912388999E+04  0.25500000920E-02 0.  1.
</event>
<event>
 5   0  0.3772949E-05  0.1994953E+04  0.7818609E-02  0.8608984E-01
       -1   -1    0    0    0  501  0.00000000000E+00  0.00000000000E+00  0.12450854291E+04  0.12450854291E+04  0.50400001928E-02 0. -1.
        1   -1    0    0  501    0  0.00000000000E+00  0.00000000000E+00 -0.79910967855E+03  0.79910967857E+03  0.50400001928E-02 0.  1.
    10030    2    1    2    0    0  0.00000000000E+00  0.00000000000E+00  0.44597575057E+03  0.20441951077E+04  0.19949534501E+04 0.  0.
        2    1    3    3  502    0 -0.11223317760E+03  0.49272289108E+03 -0.65823226269E+03  0.82984447049E+03  0.25500000920E-02 0.  1.
       -2    1    3    3    0  502  0.11223317760E+03 -0.49272289108E+03  0.11042080133E+04  0.12143506372E+04  0.25500000920E-02 0. -1.
</event>
<event>
 5   0  0.7843846E-05  0.1988296E+04  0.7818609E-02  0.8612112E-01
       -2   -1    0    0    0  501  0.00000000000E+00  0.00000000000E+00  0.77472143528E+03  0.77472143529E+03  0.25500000920E-02 0. -1.
        2   -1    0    0  501    0  0.00000000000E+00  0.00000000000E+00 -0.12757231577E+04  0.12757231577E+04  0.25500000920E-02 0.  1.
    10030    2    1    2    0    0  0.00000000000E+00  0.00000000000E+00 -0.50100172240E+03  0.20504445930E+04  0.19882958288E+04 0.  0.
        2    1    3    3  502    0 -0.62456572899E+03  0.43872889721E+02 -0.10468578191E+04  0.12198026372E+04  0.25500000920E-02 0.  1.
       -2    1    3    3    0  502  0.62456572899E+03 -0.43872889721E+02  0.54585609675E+03  0.83064195574E+03  0.25500000920E-02 0. -1.
</event>
<event>
 5   0  0.3549426E-05  0.1988668E+04  0.7818609E-02  0.8611937E-01
        1   -1    0    0  501    0  0.00000000000E+00  0.00000000000E+00  0.91231736443E+03  0.91231736445E+03  0.50400001928E-02 0. -1.
       -1   -1    0    0    0  501  0.00000000000E+00  0.00000000000E+00 -0.10837239252E+04  0.10837239252E+04  0.50400001928E-02 0.  1.
    10030    2    1    2    0    0  0.00000000000E+00  0.00000000000E+00 -0.17140656075E+03  0.19960412896E+04  0.19886680520E+04 0.  0.
        5    1    3    3  502    0 -0.60493112116E+03  0.26852716164E+03  0.65909212357E+03  0.93406263989E+03  0.46999998093E+01 0. -1.
       -5    1    3    3    0  502  0.60493112116E+03 -0.26852716164E+03 -0.83049868432E+03  0.10619786498E+04  0.46999998093E+01 0.  1.
</event>
<event>
 5   0  0.3787698E-05  0.1997354E+04  0.7818609E-02  0.8607859E-01
       -1   -1    0    0    0  501  0.00000000000E+00  0.00000000000E+00  0.80847388762E+03  0.80847388764E+03  0.50400001928E-02 0. -1.
        1   -1    0    0  501    0  0.00000000000E+00  0.00000000000E+00 -0.12336272006E+04  0.12336272006E+04  0.50400001928E-02 0.  1.
    10030    2    1    2    0    0  0.00000000000E+00  0.00000000000E+00 -0.42515331301E+03  0.20421010883E+04  0.19973536280E+04 0.  0.
        4    1    3    3  502    0 -0.27416331769E+03  0.82944822905E+03 -0.70736483346E+03  0.11240625027E+04  0.12699999809E+01 0.  1.
       -4    1    3    3    0  502  0.27416331769E+03 -0.82944822905E+03  0.28221152045E+03  0.91803858558E+03  0.12699999809E+01 0. -1.
</event>
<event>
 5   0  0.3549426E-05  0.2004156E+04  0.7818609E-02  0.8604680E-01
        1   -1    0    0  501    0  0.00000000000E+00  0.00000000000E+00  0.75347060047E+03  0.75347060048E+03  0.50400001928E-02 0. -1.
       -1   -1    0    0    0  501  0.00000000000E+00  0.00000000000E+00 -0.13327127456E+04  0.13327127456E+04  0.50400001928E-02 0.  1.
    10030    2    1    2    0    0  0.00000000000E+00  0.00000000000E+00 -0.57924214517E+03  0.20861833461E+04  0.20041555556E+04 0.  0.
        5    1    3    3  502    0  0.60089306323E+03  0.18178226745E+03 -0.11026261690E+04  0.12688277365E+04  0.46999998093E+01 0.  1.
       -5    1    3    3    0  502 -0.60089306323E+03 -0.18178226745E+03  0.52338402387E+03  0.81735560966E+03  0.46999998093E+01 0. -1.
</event>
<event>
 5   0  0.7843846E-05  0.2045647E+04  0.7818609E-02  0.8585572E-01
       -2   -1    0    0    0  501  0.00000000000E+00  0.00000000000E+00  0.53873330549E+03  0.53873330549E+03  0.25500000920E-02 0. -1.
        2   -1    0    0  501    0  0.00000000000E+00  0.00000000000E+00 -0.19419032535E+04  0.19419032535E+04  0.25500000920E-02 0.  1.
    10030    2    1    2    0    0  0.00000000000E+00  0.00000000000E+00 -0.14031699480E+04  0.24806365590E+04  0.20456470455E+04 0.  0.
        2    1    3    3  502    0  0.33267004067E+03 -0.28582481642E+03  0.41891336859E+03  0.60650935032E+03  0.25500000920E-02 0. -1.
       -2    1    3    3    0  502 -0.33267004067E+03  0.28582481642E+03 -0.18220833166E+04  0.18741272087E+04  0.25500000920E-02 0.  1.
</event>
<event>
 5   0  0.7843846E-05  0.1999140E+04  0.7818609E-02  0.8607023E-01
        2   -1    0    0  501    0  0.00000000000E+00  0.00000000000E+00  0.73488366893E+03  0.73488366893E+03  0.25500000920E-02 0. -1.
       -2   -1    0    0    0  501  0.00000000000E+00  0.00000000000E+00 -0.13595892885E+04  0.13595892885E+04  0.25500000920E-02 0.  1.
    10030    2    1    2    0    0  0.00000000000E+00  0.00000000000E+00 -0.62470561955E+03  0.20944729574E+04  0.19991397796E+04 0.  0.
        2    1    3    3  502    0 -0.45281098403E+03 -0.79617650300E+03  0.10699061467E+03  0.92216148414E+03  0.25500000920E-02 0. -1.
       -2    1    3    3    0  502  0.45281098403E+03  0.79617650300E+03 -0.73169623422E+03  0.11723114733E+04  0.25500000920E-02 0.  1.
</event>
<event>
 5   0  0.3818907E-05  0.1986932E+04  0.7818609E-02  0.8612755E-01
       -1   -1    0    0    0  501  0.00000000000E+00  0.00000000000E+00  0.48490055765E+03  0.48490055768E+03  0.50400001928E-02 0.  1.
        1   -1    0    0  501    0  0.00000000000E+00  0.00000000000E+00 -0.20354168765E+04  0.20354168765E+04  0.50400001928E-02 0. -1.
    10030    2    1    2    0    0  0.00000000000E+00  0.00000000000E+00 -0.15505163188E+04  0.25203174341E+04  0.19869320859E+04 0.  0.
        1    1    3    3  502    0  0.84225449938E+03 -0.45978899377E+03 -0.44895356246E+03  0.10594139237E+04  0.50400001928E-02 0.  1.
       -1    1    3    3    0  502 -0.84225449938E+03  0.45978899377E+03 -0.11015627563E+04  0.14609035104E+04  0.50400001928E-02 0. -1.
</event>
<event>
 5   0  0.7935008E-05  0.1999706E+04  0.7818609E-02  0.8606758E-01
       -2   -1    0    0    0  501  0.00000000000E+00  0.00000000000E+00  0.50963232183E+03  0.50963232184E+03  0.25500000920E-02 0. -1.
        2   -1    0    0  501    0  0.00000000000E+00  0.00000000000E+00 -0.19616224270E+04  0.19616224270E+04  0.25500000920E-02 0.  1.
    10030    2    1    2    0    0  0.00000000000E+00  0.00000000000E+00 -0.14519901052E+04  0.24712547488E+04  0.19997061705E+04 0.  0.
        3    1    3    3  502    0  0.72793691867E+03  0.48822975099E+03 -0.13146211372E+03  0.88630849306E+03  0.10100000352E+00 0. -1.
       -3    1    3    3    0  502 -0.72793691867E+03 -0.48822975099E+03 -0.13205279914E+04  0.15849462558E+04  0.10100000352E+00 0.  1.
</event>
<event>
 5   0  0.7935008E-05  0.1999579E+04  0.7818609E-02  0.8606818E-01
       -2   -1    0    0    0  501  0.00000000000E+00  0.00000000000E+00  0.14343049942E+04  0.14343049942E+04  0.25500000920E-02 0.  1.
        2   -1    0    0  501    0  0.00000000000E+00  0.00000000000E+00 -0.69690806853E+03  0.69690806853E+03  0.25500000920E-02 0. -1.
    10030    2    1    2    0    0  0.00000000000E+00  0.00000000000E+00  0.73739692570E+03  0.21312130628E+04  0.19995786788E+04 0.  0.
        3    1    3    3  502    0  0.25564238690E+03  0.33745146698E+03 -0.59665985539E+03  0.73159381885E+03  0.10100000352E+00 0. -1.
       -3    1    3    3    0  502 -0.25564238690E+03 -0.33745146698E+03  0.13340567811E+04  0.13996192439E+04  0.10100000352E+00 0.  1.
</event>
<event>
 5   0  0.7857136E-05  0.2017742E+04  0.7818609E-02  0.8598370E-01
        2   -1    0    0  501    0  0.00000000000E+00  0.00000000000E+00  0.13585854224E+04  0.13585854224E+04  0.25500000920E-02 0.  1.
       -2   -1    0    0    0  501  0.00000000000E+00  0.00000000000E+00 -0.74917687274E+03  0.74917687274E+03  0.25500000920E-02 0. -1.
    10030    2    1    2    0    0  0.00000000000E+00  0.00000000000E+00  0.60940854971E+03  0.21077622952E+04  0.20177420828E+04 0.  0.
        4    1    3    3  502    0 -0.21272360440E+03 -0.19587587765E+03 -0.70495774789E+03  0.76196176448E+03  0.12699999809E+01 0. -1.
       -4    1    3    3    0  502  0.21272360440E+03  0.19587587765E+03  0.13143662976E+04  0.13458005307E+04  0.12699999809E+01 0.  1.
</event>
<event>
 5   0  0.3787698E-05  0.2060659E+04  0.7818609E-02  0.8578774E-01
        1   -1    0    0  501    0  0.00000000000E+00  0.00000000000E+00  0.11989515093E+04  0.11989515093E+04  0.50400001928E-02 0. -1.
       -1   -1    0    0    0  501  0.00000000000E+00  0.00000000000E+00 -0.88542294444E+03  0.88542294445E+03  0.50400001928E-02 0.  1.
    10030    2    1    2    0    0  0.00000000000E+00  0.00000000000E+00  0.31352856482E+03  0.20843744537E+04  0.20606592883E+04 0.  0.
        4    1    3    3  502    0 -0.15906941849E+03  0.86851732614E+03  0.69386687174E+03  0.11229774149E+04  0.12699999809E+01 0. -1.
       -4    1    3    3    0  502  0.15906941849E+03 -0.86851732614E+03 -0.38033830693E+03  0.96139703885E+03  0.12699999809E+01 0.  1.
</event>
<event>
 5   0  0.3787698E-05  0.2002277E+04  0.7818609E-02  0.8605557E-01
        1   -1    0    0  501    0  0.00000000000E+00  0.00000000000E+00  0.15678600588E+04  0.15678600588E+04  0.50400001928E-02 0. -1.
       -1   -1    0    0    0  501  0.00000000000E+00  0.00000000000E+00 -0.63926524588E+03  0.63926524590E+03  0.50400001928E-02 0.  1.
    10030    2    1    2    0    0  0.00000000000E+00  0.00000000000E+00  0.92859481291E+03  0.22071253047E+04  0.20022771497E+04 0.  0.
        4    1    3    3  502    0 -0.53280515960E+03 -0.63004225553E+03 -0.16066555472E+03  0.84062453879E+03  0.12699999809E+01 0.  1.
       -4    1    3    3    0  502  0.53280515960E+03  0.63004225553E+03  0.10892603676E+04  0.13665007659E+04  0.12699999809E+01 0. -1.
</event>
<event>
 5   0  0.8011197E-05  0.2003029E+04  0.7818609E-02  0.8605206E-01
        2   -1    0    0  501    0  0.00000000000E+00  0.00000000000E+00  0.62652054542E+03  0.62652054542E+03  0.25500000920E-02 0. -1.
       -2   -1    0    0    0  501  0.00000000000E+00  0.00000000000E+00 -0.16009553620E+04  0.16009553620E+04  0.25500000920E-02 0.  1.
    10030    2    1    2    0    0  0.00000000000E+00  0.00000000000E+00 -0.97443481659E+03  0.22274759074E+04  0.20030291327E+04 0.  0.
        5    1    3    3  502    0  0.95409711000E+03  0.34744780217E+02 -0.15083111318E+03  0.96658192088E+03  0.46999998093E+01 0.  1.
       -5    1    3    3    0  502 -0.95409711000E+03 -0.34744780217E+02 -0.82360370341E+03  0.12608939866E+04  0.46999998093E+01 0. -1.
</event>
<event>
 5   0  0.3787698E-05  0.1997813E+04  0.7818609E-02  0.8607644E-01
        1   -1    0    0  501    0  0.00000000000E+00  0.00000000000E+00  0.17616951366E+04  0.17616951366E+04  0.50400001928E-02 0. -1.
       -1   -1    0    0    0  501  0.00000000000E+00  0.00000000000E+00 -0.56639464371E+03  0.56639464373E+03  0.50400001928E-02 0.  1.
    10030    2    1    2    0    0  0.00000000000E+00  0.00000000000E+00  0.11953004929E+04  0.23280897803E+04  0.19978134940E+04 0.  0.
        4    1    3    3  502    0 -0.81589728367E+03 -0.22152355558E+03 -0.22330076869E+02  0.84573122705E+03  0.12699999809E+01 0.  1.
       -4    1    3    3    0  502  0.81589728367E+03  0.22152355558E+03  0.12176305698E+04  0.14823585533E+04  0.12699999809E+01 0. -1.
</event>
<event>
 5   0  0.7935008E-05  0.1999959E+04  0.7818609E-02  0.8606640E-01
       -2   -1    0    0    0  501  0.00000000000E+00  0.00000000000E+00  0.18469967961E+04  0.18469967961E+04  0.25500000920E-02 0. -1.
        2   -1    0    0  501    0  0.00000000000E+00  0.00000000000E+00 -0.54139751672E+03  0.54139751673E+03  0.25500000920E-02 0.  1.
    10030    2    1    2    0    0  0.00000000000E+00  0.00000000000E+00  0.13055992794E+04  0.23883943129E+04  0.19999594784E+04 0.  0.
        3    1    3    3  502    0  0.12879908397E+03  0.30245921015E+03  0.17806205972E+04  0.18107127047E+04  0.10100000352E+00 0. -1.
       -3    1    3    3    0  502 -0.12879908397E+03 -0.30245921015E+03 -0.47502131776E+03  0.57768160812E+03  0.10100000352E+00 0.  1.
</event>
<event>
 5   0  0.7935008E-05  0.1989607E+04  0.7818609E-02  0.8611495E-01
       -2   -1    0    0    0  501  0.00000000000E+00  0.00000000000E+00  0.16231555806E+04  0.16231555806E+04  0.25500000920E-02 0. -1.
        2   -1    0    0  501    0  0.00000000000E+00  0.00000000000E+00 -0.60969756269E+03  0.60969756269E+03  0.25500000920E-02 0.  1.
    10030    2    1    2    0    0  0.00000000000E+00  0.00000000000E+00  0.10134580180E+04  0.22328531433E+04  0.19896069978E+04 0.  0.
        3    1    3    3  502    0  0.34000260643E+02  0.20934141374E+03  0.15974891963E+04  0.16115059999E+04  0.10100000352E+00 0. -1.
       -3    1    3    3    0  502 -0.34000260643E+02 -0.20934141374E+03 -0.58403117832E+03  0.62134714346E+03  0.10100000352E+00 0.  1.
</event>
<event>
 5   0  0.3787698E-05  0.1988306E+04  0.7818609E-02  0.8612108E-01
       -1   -1    0    0    0  501  0.00000000000E+00  0.00000000000E+00  0.64402062236E+03  0.64402062238E+03  0.50400001928E-02 0.  1.
        1   -1    0    0  501    0  0.00000000000E+00  0.00000000000E+00 -0.15346404974E+04  0.15346404974E+04  0.50400001928E-02 0. -1.
    10030    2    1    2    0    0  0.00000000000E+00  0.00000000000E+00 -0.89061987506E+03  0.21786611198E+04  0.19883059405E+04 0.  0.
        4    1    3    3  502    0  0.34758043438E+03 -0.85156195114E+03 -0.85875097405E+03  0.12583420693E+04  0.12699999809E+01 0. -1.
       -4    1    3    3    0  502 -0.34758043438E+03  0.85156195114E+03 -0.31868901001E+02  0.92031905052E+03  0.12699999809E+01 0.  1.
</event>
<event>
 5   0  0.3970042E-05  0.2008745E+04  0.7818609E-02  0.8602543E-01
       -1   -1    0    0    0  501  0.00000000000E+00  0.00000000000E+00  0.45398223370E+03  0.45398223373E+03  0.50400001928E-02 0. -1.
        1   -1    0    0  501    0  0.00000000000E+00  0.00000000000E+00 -0.22220346189E+04  0.22220346189E+04  0.50400001928E-02 0.  1.
    10030    2    1    2    0    0  0.00000000000E+00  0.00000000000E+00 -0.17680523852E+04  0.26760168527E+04  0.20087451204E+04 0.  0.
        3    1    3    3  502    0  0.10160166378E+03  0.99800283760E+03 -0.81833364393E+03  0.12946051618E+04  0.10100000352E+00 0. -1.
       -3    1    3    3    0  502 -0.10160166378E+03 -0.99800283760E+03 -0.94971874130E+03  0.13814116909E+04  0.10100000352E+00 0.  1.
</event>
<event>
 5   0  0.3787698E-05  0.1994134E+04  0.7818609E-02  0.8609368E-01
       -1   -1    0    0    0  501  0.00000000000E+00  0.00000000000E+00  0.52667677315E+03  0.52667677317E+03  0.50400001928E-02 0.  1.
        1   -1    0    0  501    0  0.00000000000E+00  0.00000000000E+00 -0.18875771581E+04  0.18875771581E+04  0.50400001928E-02 0. -1.
    10030    2    1    2    0    0  0.00000000000E+00  0.00000000000E+00 -0.13609003849E+04  0.24142539313E+04  0.19941344455E+04 0.  0.
        4    1    3    3  502    0  0.89337649257E+03 -0.75332709206E+02 -0.12086510330E+04  0.15048705948E+04  0.12699999809E+01 0. -1.
       -4    1    3    3    0  502 -0.89337649257E+03  0.75332709206E+02 -0.15224935189E+03  0.90938333645E+03  0.12699999809E+01 0.  1.
</event>
<event>
 5   0  0.8011197E-05  0.2002774E+04  0.7818609E-02  0.8605325E-01
       -2   -1    0    0    0  501  0.00000000000E+00  0.00000000000E+00  0.10480168197E+04  0.10480168197E+04  0.25500000920E-02 0.  1.
        2   -1    0    0  501    0  0.00000000000E+00  0.00000000000E+00 -0.95683210872E+03  0.95683210873E+03  0.25500000920E-02 0. -1.
    10030    2    1    2    0    0  0.00000000000E+00  0.00000000000E+00  0.91184710979E+02  0.20048489284E+04  0.20027742195E+04 0.  0.
        5    1    3    3  502    0 -0.37791406482E+03 -0.38122301878E+03  0.89181060847E+03  0.10409122354E+04  0.46999998093E+01 0.  1.
       -5    1    3    3    0  502  0.37791406482E+03  0.38122301878E+03 -0.80062589749E+03  0.96393669303E+03  0.46999998093E+01 0. -1.
</event>
<event>
 5   0  0.3787698E-05  0.1999336E+04  0.7818609E-02  0.8606931E-01
       -1   -1    0    0    0  501  0.00000000000E+00  0.00000000000E+00  0.10950611954E+04  0.10950611954E+04  0.50400001928E-02 0.  1.
        1   -1    0    0  501    0  0.00000000000E+00  0.00000000000E+00 -0.91258426692E+03  0.91258426693E+03  0.50400001928E-02 0. -1.
    10030    2    1    2    0    0  0.00000000000E+00  0.00000000000E+00  0.18247692847E+03  0.20076454623E+04  0.19993355079E+04 0.  0.
        4    1    3    3  502    0 -0.31042564061E+03  0.64886767855E+03  0.78834335192E+03  0.10671833001E+04  0.12699999809E+01 0.  1.
       -4    1    3    3    0  502  0.31042564061E+03 -0.64886767855E+03 -0.60586642345E+03  0.94046216222E+03  0.12699999809E+01 0. -1.
</event>
<event>
 5   0  0.2859625E-05  0.1999964E+04  0.7818609E-02  0.8606637E-01
        3   -1    0    0  501    0  0.00000000000E+00  0.00000000000E+00  0.11100330355E+04  0.11100330401E+04  0.10100000352E+00 0.  1.
       -3   -1    0    0    0  501  0.00000000000E+00  0.00000000000E+00 -0.90084200438E+03  0.90084201004E+03  0.10100000352E+00 0. -1.
    10030    2    1    2    0    0  0.00000000000E+00  0.00000000000E+00  0.20919103116E+03  0.20108750502E+04  0.19999643947E+04 0.  0.
        3    1    3    3  502    0 -0.16506408904E+03 -0.35703286515E+03  0.10289835672E+04  0.11016014760E+04  0.10100000352E+00 0.  1.
       -3    1    3    3    0  502  0.16506408904E+03  0.35703286515E+03 -0.81979253602E+03  0.90927357413E+03  0.10100000352E+00 0. -1.
</event>
<event>
 5   0  0.3772949E-05  0.2003829E+04  0.7818609E-02  0.8604833E-01
       -1   -1    0    0    0  501  0.00000000000E+00  0.00000000000E+00  0.77552120600E+03  0.77552120601E+03  0.50400001928E-02 0.  1.
        1   -1    0    0  501    0  0.00000000000E+00  0.00000000000E+00 -0.12943975672E+04  0.12943975672E+04  0.50400001928E-02 0. -1.
    10030    2    1    2    0    0  0.00000000000E+00  0.00000000000E+00 -0.51887636122E+03  0.20699187732E+04  0.20038290969E+04 0.  0.
        2    1    3    3  502    0 -0.46862184767E+03  0.47192681352E+03 -0.10334933534E+04  0.12289954699E+04  0.25500000920E-02 0. -1.
       -2    1    3    3    0  502  0.46862184767E+03 -0.47192681352E+03  0.51461699221E+03  0.84092330335E+03  0.25500000920E-02 0.  1.
</event>
<event>
 5   0  0.3549426E-05  0.1996640E+04  0.7818609E-02  0.8608193E-01
        1   -1    0    0  501    0  0.00000000000E+00  0.00000000000E+00  0.17664033022E+04  0.17664033022E+04  0.50400001928E-02 0. -1.
       -1   -1    0    0    0  501  0.00000000000E+00  0.00000000000E+00 -0.56422176675E+03  0.56422176677E+03  0.50400001928E-02 0.  1.
    10030    2    1    2    0    0  0.00000000000E+00  0.00000000000E+00  0.12021815354E+04  0.23306250690E+04  0.19966403702E+04 0.  0.
        5    1    3    3  502    0  0.94312502265E+03  0.19085008105E+03  0.29069143071E+03  0.10052025466E+04  0.46999998093E+01 0.  1.
       -5    1    3    3    0  502 -0.94312502265E+03 -0.19085008105E+03  0.91149010474E+03  0.13254225224E+04  0.46999998093E+01 0. -1.
</event>
<event>
 5   0  0.7843846E-05  0.2012180E+04  0.7818609E-02  0.8600947E-01
       -2   -1    0    0    0  501  0.00000000000E+00  0.00000000000E+00  0.88825562327E+03  0.88825562328E+03  0.25500000920E-02 0.  1.
        2   -1    0    0  501    0  0.00000000000E+00  0.00000000000E+00 -0.11395556091E+04  0.11395556091E+04  0.25500000920E-02 0. -1.
    10030    2    1    2    0    0  0.00000000000E+00  0.00000000000E+00 -0.25129998587E+03  0.20278112324E+04  0.20121795922E+04 0.  0.
        2    1    3    3  502    0  0.67473415754E+03 -0.14584368848E+03 -0.86323748970E+03  0.11053124121E+04  0.25500000920E-02 0. -1.
       -2    1    3    3    0  502 -0.67473415754E+03  0.14584368848E+03  0.61193750383E+03  0.92249882028E+03  0.25500000920E-02 0.  1.
</event>
<event>
 5   0  0.7857136E-05  0.2059730E+04  0.7818609E-02  0.8579193E-01
       -2   -1    0    0    0  501  0.00000000000E+00  0.00000000000E+00  0.69791221677E+03  0.69791221678E+03  0.25500000920E-02 0. -1.
        2   -1    0    0  501    0  0.00000000000E+00  0.00000000000E+00 -0.15197060450E+04  0.15197060450E+04  0.25500000920E-02 0.  1.
    10030    2    1    2    0    0  0.00000000000E+00  0.00000000000E+00 -0.82179382825E+03  0.22176182618E+04  0.20597295111E+04 0.  0.
        4    1    3    3  502    0  0.83275389095E+03  0.39844924275E+03  0.80580461777E+02  0.92667991543E+03  0.12699999809E+01 0. -1.
       -4    1    3    3    0  502 -0.83275389095E+03 -0.39844924275E+03 -0.90237429003E+03  0.12909383464E+04  0.12699999809E+01 0.  1.
</event>
<event>
 5   0  0.7935008E-05  0.2002897E+04  0.7818609E-02  0.8605267E-01
        2   -1    0    0  501    0  0.00000000000E+00  0.00000000000E+00  0.11509202059E+04  0.11509202059E+04  0.25500000920E-02 0.  1.
       -2   -1    0    0    0  501  0.00000000000E+00  0.00000000000E+00 -0.87138926265E+03  0.87138926265E+03  0.25500000920E-02 0. -1.
    10030    2    1    2    0    0  0.00000000000E+00  0.00000000000E+00  0.27953094323E+03  0.20223094685E+04  0.20028974108E+04 0.  0.
        3    1    3    3  502    0  0.31507245161E+02  0.47110666366E+03  0.10314814571E+04  0.11344109492E+04  0.10100000352E+00 0.  1.
       -3    1    3    3    0  502 -0.31507245161E+02 -0.47110666366E+03 -0.75195051392E+03  0.88789851932E+03  0.10100000352E+00 0. -1.
</event>
<event>
 5   0  0.3787698E-05  0.2010001E+04  0.7818609E-02  0.8601959E-01
       -1   -1    0    0    0  501  0.00000000000E+00  0.00000000000E+00  0.10075554601E+04  0.10075554601E+04  0.50400001928E-02 0. -1.
        1   -1    0    0  501    0  0.00000000000E+00  0.00000000000E+00 -0.10024522975E+04  0.10024522975E+04  0.50400001928E-02 0.  1.
    10030    2    1    2    0    0  0.00000000000E+00  0.00000000000E+00  0.51031626399E+01  0.20100077576E+04  0.20100012794E+04 0.  0.
        4    1    3    3  502    0 -0.65247363054E+03  0.43546220391E+03  0.63078565188E+03  0.10065988879E+04  0.12699999809E+01 0. -1.
       -4    1    3    3    0  502  0.65247363054E+03 -0.43546220391E+03 -0.62568248924E+03  0.10034088697E+04  0.12699999809E+01 0.  1.
</event>
<event>
 5   0  0.3970042E-05  0.2000896E+04  0.7818609E-02  0.8606202E-01
        1   -1    0    0  501    0  0.00000000000E+00  0.00000000000E+00  0.65498755276E+03  0.65498755278E+03  0.50400001928E-02 0. -1.
       -1   -1    0    0    0  501  0.00000000000E+00  0.00000000000E+00 -0.15281142069E+04  0.15281142069E+04  0.50400001928E-02 0.  1.
    10030    2    1    2    0    0  0.00000000000E+00  0.00000000000E+00 -0.87312665411E+03  0.21831017597E+04  0.20008955842E+04 0.  0.
        3    1    3    3  502    0 -0.90089864011E+03 -0.43197176971E+03 -0.38010356755E+03  0.10689699256E+04  0.10100000352E+00 0.  1.
       -3    1    3    3    0  502  0.90089864011E+03  0.43197176971E+03 -0.49302308656E+03  0.11141318341E+04  0.10100000352E+00 0. -1.
</event>
<event>
 5   0  0.3549426E-05  0.2011851E+04  0.7818609E-02  0.8601100E-01
        1   -1    0    0  501    0  0.00000000000E+00  0.00000000000E+00  0.81312957058E+03  0.81312957060E+03  0.50400001928E-02 0.  1.
       -1   -1    0    0    0  501  0.00000000000E+00  0.00000000000E+00 -0.12444335663E+04  0.12444335663E+04  0.50400001928E-02 0. -1.
    10030    2    1    2    0    0  0.00000000000E+00  0.00000000000E+00 -0.43130399574E+03  0.20575631369E+04  0.20118506221E+04 0.  0.
        5    1    3    3  502    0 -0.92592392268E+03  0.14220890050E+03  0.15915163118E+03  0.95021566693E+03  0.46999998093E+01 0.  1.
       -5    1    3    3    0  502  0.92592392268E+03 -0.14220890050E+03 -0.59045562692E+03  0.11073474700E+04  0.46999998093E+01 0. -1.
</event>
<event>
 5   0  0.3549426E-05  0.2046341E+04  0.7818609E-02  0.8585256E-01
        1   -1    0    0  501    0  0.00000000000E+00  0.00000000000E+00  0.14852798522E+04  0.14852798522E+04  0.50400001928E-02 0.  1.
       -1   -1    0    0    0  501  0.00000000000E+00  0.00000000000E+00 -0.70483568352E+03  0.70483568354E+03  0.50400001928E-02 0. -1.
    10030    2    1    2    0    0  0.00000000000E+00  0.00000000000E+00  0.78044416863E+03  0.21901155357E+04  0.20463413594E+04 0.  0.
        5    1    3    3  502    0 -0.10139510923E+03  0.70034087433E+03  0.11811268160E+04  0.13768954042E+04  0.46999998093E+01 0.  1.
       -5    1    3    3    0  502  0.10139510923E+03 -0.70034087433E+03 -0.40068264740E+03  0.81322013155E+03  0.46999998093E+01 0. -1.
</event>
<event>
 5   0  0.7843846E-05  0.1937016E+04  0.7818609E-02  0.8636648E-01
        2   -1    0    0  501    0  0.00000000000E+00  0.00000000000E+00  0.86987627954E+03  0.86987627955E+03  0.25500000920E-02 0.  1.
       -2   -1    0    0    0  501  0.00000000000E+00  0.00000000000E+00 -0.10783229556E+04  0.10783229556E+04  0.25500000920E-02 0. -1.
    10030    2    1    2    0    0  0.00000000000E+00  0.00000000000E+00 -0.20844667604E+03  0.19481992351E+04  0.19370158087E+04 0.  0.
        2    1    3    3  502    0 -0.37202408255E+03 -0.86337820684E+03  0.12989454657E+03  0.94905028280E+03  0.25500000920E-02 0.  1.
       -2    1    3    3    0  502  0.37202408255E+03  0.86337820684E+03 -0.33834122261E+03  0.99914895234E+03  0.25500000920E-02 0. -1.
</event>
<event>
 5   0  0.7843846E-05  0.1998959E+04  0.7818609E-02  0.8607108E-01
        2   -1    0    0  501    0  0.00000000000E+00  0.00000000000E+00  0.10423039315E+04  0.10423039315E+04  0.25500000920E-02 0. -1.
       -2   -1    0    0    0  501  0.00000000000E+00  0.00000000000E+00 -0.95841422621E+03  0.95841422621E+03  0.25500000920E-02 0.  1.
    10030    2    1    2    0    0  0.00000000000E+00  0.00000000000E+00  0.83889705293E+02  0.20007181577E+04  0.19989586449E+04 0.  0.
        2    1    3    3  502    0 -0.76629029100E+03  0.20713970471E+03 -0.56592098043E+03  0.97487138815E+03  0.25500000920E-02 0.  1.
       -2    1    3    3    0  502  0.76629029100E+03 -0.20713970471E+03  0.64981068572E+03  0.10258467696E+04  0.25500000920E-02 0. -1.
</event>
<event>
 5   0  0.3970042E-05  0.2027739E+04  0.7818609E-02  0.8593760E-01
       -1   -1    0    0    0  501  0.00000000000E+00  0.00000000000E+00  0.10687135188E+04  0.10687135188E+04  0.50400001928E-02 0. -1.
        1   -1    0    0  501    0  0.00000000000E+00  0.00000000000E+00 -0.96184000847E+03  0.96184000848E+03  0.50400001928E-02 0.  1.
    10030    2    1    2    0    0  0.00000000000E+00  0.00000000000E+00  0.10687351032E+03  0.20305535273E+04  0.20277390562E+04 0.  0.
        3    1    3    3  502    0 -0.51033940030E+03 -0.50515995959E+03 -0.66330701610E+03  0.97755260528E+03  0.10100000352E+00 0.  1.
       -3    1    3    3    0  502  0.51033940030E+03  0.50515995959E+03  0.77018052642E+03  0.10530009220E+04  0.10100000352E+00 0. -1.
</event>
<event>
 5   0  0.3818907E-05  0.2011243E+04  0.7818609E-02  0.8601382E-01
       -1   -1    0    0    0  501  0.00000000000E+00  0.00000000000E+00  0.14610081126E+04  0.14610081127E+04  0.50400001928E-02 0.  1.
        1   -1    0    0  501    0  0.00000000000E+00  0.00000000000E+00 -0.69217561764E+03  0.69217561766E+03  0.50400001928E-02 0. -1.
    10030    2    1    2    0    0  0.00000000000E+00  0.00000000000E+00  0.76883249501E+03  0.21531837303E+04  0.20112425938E+04 0.  0.
        1    1    3    3  502    0  0.71006744231E+03  0.47976319146E+03 -0.17893930575E+03  0.87543575874E+03  0.50400001928E-02 0. -1.
       -1    1    3    3    0  502 -0.71006744231E+03 -0.47976319146E+03  0.94777180076E+03  0.12777479716E+04  0.50400001928E-02 0.  1.
</event>
<event>
 5   0  0.8022574E-05  0.1991043E+04  0.7818609E-02  0.8610820E-01
        2   -1    0    0  501    0  0.00000000000E+00  0.00000000000E+00  0.12121979850E+04  0.12121979850E+04  0.25500000920E-02 0.  1.
       -2   -1    0    0    0  501  0.00000000000E+00  0.00000000000E+00 -0.81757506872E+03  0.81757506873E+03  0.25500000920E-02 0. -1.
    10030    2    1    2    0    0  0.00000000000E+00  0.00000000000E+00  0.39462291628E+03  0.20297730537E+04  0.19910427930E+04 0.  0.
        1    1    3    3  502    0 -0.61975766216E+02  0.22298213637E+03  0.11843922869E+04  0.12067920774E+04  0.50400001928E-02 0.  1.
       -1    1    3    3    0  502  0.61975766216E+02 -0.22298213637E+03 -0.78976937059E+03  0.82298097638E+03  0.50400001928E-02 0. -1.
</event>
<event>
 5   0  0.8011197E-05  0.2006928E+04  0.7818609E-02  0.8603388E-01
        2   -1    0    0  501    0  0.00000000000E+00  0.00000000000E+00  0.93527538993E+03  0.93527538994E+03  0.25500000920E-02 0.  1.
       -2   -1    0    0    0  501  0.00000000000E+00  0.00000000000E+00 -0.10766244022E+04  0.10766244022E+04  0.25500000920E-02 0. -1.
    10030    2    1    2    0    0  0.00000000000E+00  0.00000000000E+00 -0.14134901228E+03  0.20118997922E+04  0.20069283072E+04 0.  0.
        5    1    3    3  502    0  0.48620283821E+03  0.42034835839E+03  0.70183954279E+03  0.95167577258E+03  0.46999998093E+01 0.  1.
       -5    1    3    3    0  502 -0.48620283821E+03 -0.42034835839E+03 -0.84318855507E+03  0.10602240196E+04  0.46999998093E+01 0. -1.
</event>
<event>
 5   0  0.3772949E-05  0.1975040E+04  0.7818609E-02  0.8618380E-01
        1   -1    0    0  501    0  0.00000000000E+00  0.00000000000E+00  0.19301033625E+04  0.19301033625E+04  0.50400001928E-02 0. -1.
       -1   -1    0    0    0  501  0.00000000000E+00  0.00000000000E+00 -0.50525569508E+03  0.50525569511E+03  0.50400001928E-02 0.  1.
    10030    2    1    2    0    0  0.00000000000E+00  0.00000000000E+00  0.14248476674E+04  0.24353590576E+04  0.19750399652E+04 0.  0.
        2    1    3    3  502    0  0.66950789395E+02 -0.48469942576E+03  0.17701202558E+04  0.18365025624E+04  0.25500000920E-02 0. -1.
       -2    1    3    3    0  502 -0.66950789395E+02  0.48469942576E+03 -0.34527258843E+03  0.59885649521E+03  0.25500000920E-02 0.  1.
</event>
<event>
 5   0  0.3772949E-05  0.1994546E+04  0.7818609E-02  0.8609175E-01
       -1   -1    0    0    0  501  0.00000000000E+00  0.00000000000E+00  0.51258040505E+03  0.51258040507E+03  0.50400001928E-02 0. -1.
        1   -1    0    0  501    0  0.00000000000E+00  0.00000000000E+00 -0.19402880001E+04  0.19402880001E+04  0.50400001928E-02 0.  1.
    10030    2    1    2    0    0  0.00000000000E+00  0.00000000000E+00 -0.14277075950E+04  0.24528684051E+04  0.19945461730E+04 0.  0.
        2    1    3    3  502    0  0.38413575553E+03  0.43507966802E+03  0.28348737872E+03  0.64592545243E+03  0.25500000920E-02 0. -1.
       -2    1    3    3    0  502 -0.38413575553E+03 -0.43507966802E+03 -0.17111949737E+04  0.18069429527E+04  0.25500000920E-02 0.  1.
</event>
<event>
 5   0  0.3970042E-05  0.2000370E+04  0.7818609E-02  0.8606448E-01
       -1   -1    0    0    0  501  0.00000000000E+00  0.00000000000E+00  0.10760682743E+04  0.10760682743E+04  0.50400001928E-02 0. -1.
        1   -1    0    0  501    0  0.00000000000E+00  0.00000000000E+00 -0.92965301967E+03  0.92965301968E+03  0.50400001928E-02 0.  1.
    10030    2    1    2    0    0  0.00000000000E+00  0.00000000000E+00  0.14641525460E+03  0.20057212940E+04  0.20003700863E+04 0.  0.
        3    1    3    3  502    0 -0.65120902872E+03  0.74252705038E+03 -0.85172168867E+02  0.99129911137E+03  0.10100000352E+00 0. -1.
       -3    1    3    3    0  502  0.65120902872E+03 -0.74252705038E+03  0.23158742347E+03  0.10144221826E+04  0.10100000352E+00 0.  1.
</event>
<event>
 5   0  0.7935008E-05  0.1995307E+04  0.7818609E-02  0.8608818E-01
       -2   -1    0    0    0  501  0.00000000000E+00  0.00000000000E+00  0.95815254105E+03  0.95815254106E+03  0.25500000920E-02 0.  1.
        2   -1    0    0  501    0  0.00000000000E+00  0.00000000000E+00 -0.10387828666E+04  0.10387828666E+04  0.25500000920E-02 0. -1.
    10030    2    1    2    0    0  0.00000000000E+00  0.00000000000E+00 -0.80630325499E+02  0.19969354076E+04  0.19953069370E+04 0.  0.
        3    1    3    3  502    0  0.29416504489E+03  0.82729932626E+03  0.43373288200E+03  0.97932705058E+03  0.10100000352E+00 0.  1.
       -3    1    3    3    0  502 -0.29416504489E+03 -0.82729932626E+03 -0.51436320750E+03  0.10176083570E+04  0.10100000352E+00 0. -1.
</event>
<event>
 5   0  0.3549426E-05  0.1995346E+04  0.7818609E-02  0.8608800E-01
       -1   -1    0    0    0  501  0.00000000000E+00  0.00000000000E+00  0.13766915383E+04  0.13766915383E+04  0.50400001928E-02 0.  1.
        1   -1    0    0  501    0  0.00000000000E+00  0.00000000000E+00 -0.72300250288E+03  0.72300250290E+03  0.50400001928E-02 0. -1.
    10030    2    1    2    0    0  0.00000000000E+00  0.00000000000E+00  0.65368903539E+03  0.20996940412E+04  0.19953460130E+04 0.  0.
        5    1    3    3  502    0 -0.68977855782E+03  0.19008158810E+02 -0.43137347376E+03  0.81379415873E+03  0.46999998093E+01 0. -1.
       -5    1    3    3    0  502  0.68977855782E+03 -0.19008158810E+02  0.10850625091E+04  0.12858998825E+04  0.46999998093E+01 0.  1.
</event>
<event>
 5   0  0.3772949E-05  0.1993495E+04  0.7818609E-02  0.8609668E-01
        1   -1    0    0  501    0  0.00000000000E+00  0.00000000000E+00  0.22203434621E+04  0.22203434621E+04  0.50400001928E-02 0.  1.
       -1   -1    0    0    0  501  0.00000000000E+00  0.00000000000E+00 -0.44745580110E+03  0.44745580113E+03  0.50400001928E-02 0. -1.
    10030    2    1    2    0    0  0.00000000000E+00  0.00000000000E+00  0.17728876610E+04  0.26677992632E+04  0.19934949838E+04 0.  0.
        2    1    3    3  502    0 -0.55473559969E+03  0.53013087597E+03  0.35063707991E+02  0.76811444124E+03  0.25500000920E-02 0. -1.
       -2    1    3    3    0  502  0.55473559969E+03 -0.53013087597E+03  0.17378239530E+04  0.18996848219E+04  0.25500000920E-02 0.  1.
</event>
<event>
 5   0  0.7935008E-05  0.2016187E+04  0.7818609E-02  0.8599090E-01
        2   -1    0    0  501    0  0.00000000000E+00  0.00000000000E+00  0.77876466044E+03  0.77876466045E+03  0.25500000920E-02 0.  1.
       -2   -1    0    0    0  501  0.00000000000E+00  0.00000000000E+00 -0.13049539363E+04  0.13049539363E+04  0.25500000920E-02 0. -1.
    10030    2    1    2    0    0  0.00000000000E+00  0.00000000000E+00 -0.52618927584E+03  0.20837185967E+04  0.20161865083E+04 0.  0.
        3    1    3    3  502    0  0.10042113819E+04 -0.63939575233E+02 -0.32615671928E+03  0.10577839971E+04  0.10100000352E+00 0. -1.
       -3    1    3    3    0  502 -0.10042113819E+04  0.63939575233E+02 -0.20003255656E+03  0.10259345996E+04  0.10100000352E+00 0.  1.
</event>
<event>
 5   0  0.8011197E-05  0.2013718E+04  0.7818609E-02  0.8600234E-01
       -2   -1    0    0    0  501  0.00000000000E+00  0.00000000000E+00  0.75359060608E+03  0.75359060608E+03  0.25500000920E-02 0. -1.
        2   -1    0    0  501    0  0.00000000000E+00  0.00000000000E+00 -0.13452458274E+04  0.13452458274E+04  0.25500000920E-02 0.  1.
    10030    2    1    2    0    0  0.00000000000E+00  0.00000000000E+00 -0.59165522128E+03  0.20988364334E+04  0.20137175754E+04 0.  0.
        5    1    3    3  502    0 -0.98961819550E+03 -0.18527118585E+03 -0.30472930003E+03  0.10519275743E+04  0.46999998093E+01 0.  1.
       -5    1    3    3    0  502  0.98961819550E+03  0.18527118585E+03 -0.28692592125E+03  0.10469088592E+04  0.46999998093E+01 0. -1.
</event>
<event>
 5   0  0.8011197E-05  0.2018589E+04  0.7818609E-02  0.8597978E-01
        2   -1    0    0  501    0  0.00000000000E+00  0.00000000000E+00  0.21421276063E+04  0.21421276063E+04  0.25500000920E-02 0.  1.
       -2   -1    0    0    0  501  0.00000000000E+00  0.00000000000E+00 -0.47554396807E+03  0.47554396808E+03  0.25500000920E-02 0. -1.
    10030    2    1    2    0    0  0.00000000000E+00  0.00000000000E+00  0.16665836382E+04  0.26176715744E+04  0.20185894699E+04 0.  0.
        5    1    3    3  502    0  0.94330885175E+03 -0.13546366939E+03  0.40227638438E+03  0.10344227255E+04  0.46999998093E+01 0. -1.
       -5    1    3    3    0  502 -0.94330885175E+03  0.13546366939E+03  0.12643072539E+04  0.15832488489E+04  0.46999998093E+01 0.  1.
</event>
<event>
 5   0  0.8011197E-05  0.1998396E+04  0.7818609E-02  0.8607371E-01
        2   -1    0    0  501    0  0.00000000000E+00  0.00000000000E+00  0.23198765170E+04  0.23198765170E+04  0.25500000920E-02 0. -1.
       -2   -1    0    0    0  501  0.00000000000E+00  0.00000000000E+00 -0.43036630599E+03  0.43036630599E+03  0.25500000920E-02 0.  1.
    10030    2    1    2    0    0  0.00000000000E+00  0.00000000000E+00  0.18895102110E+04  0.27502428230E+04  0.19983960438E+04 0.  0.
        5    1    3    3  502    0  0.44926317692E+03 -0.44004848560E+03 -0.12383254007E+03  0.64096541232E+03  0.46999998093E+01 0.  1.
       -5    1    3    3    0  502 -0.44926317692E+03  0.44004848560E+03  0.20133427511E+04  0.21092774106E+04  0.46999998093E+01 0. -1.
</event>
<event>
 5   0  0.7843846E-05  0.1984920E+04  0.7818609E-02  0.8613703E-01
        2   -1    0    0  501    0  0.00000000000E+00  0.00000000000E+00  0.19815760923E+04  0.19815760923E+04  0.25500000920E-02 0.  1.
       -2   -1    0    0    0  501  0.00000000000E+00  0.00000000000E+00 -0.49706760090E+03  0.49706760091E+03  0.25500000920E-02 0. -1.
    10030    2    1    2    0    0  0.00000000000E+00  0.00000000000E+00  0.14845084914E+04  0.24786436932E+04  0.19849204258E+04 0.  0.
        2    1    3    3  502    0 -0.30690706060E+03  0.14808736499E+03 -0.42172374442E+03  0.54219251943E+03  0.25500000920E-02 0. -1.
       -2    1    3    3    0  502  0.30690706060E+03 -0.14808736499E+03  0.19062322358E+04  0.19364511737E+04  0.25500000920E-02 0.  1.
</event>
<event>
 5   0  0.7857136E-05  0.1990600E+04  0.7818609E-02  0.8611028E-01
       -2   -1    0    0    0  501  0.00000000000E+00  0.00000000000E+00  0.12976984776E+04  0.12976984776E+04  0.25500000920E-02 0.  1.
        2   -1    0    0  501    0  0.00000000000E+00  0.00000000000E+00 -0.76336828438E+03  0.76336828438E+03  0.25500000920E-02 0. -1.
    10030    2    1    2    0    0  0.00000000000E+00  0.00000000000E+00  0.53433019324E+03  0.20610667620E+04  0.19905997694E+04 0.  0.
        4    1    3    3  502    0 -0.63988104495E+03  0.65040083191E+03 -0.14459516372E+03  0.92378480617E+03  0.12699999809E+01 0. -1.
       -4    1    3    3    0  502  0.63988104495E+03 -0.65040083191E+03  0.67892535696E+03  0.11372819558E+04  0.12699999809E+01 0.  1.
</event>
<event>
 5   0  0.7935008E-05  0.1999041E+04  0.7818609E-02  0.8607069E-01
        2   -1    0    0  501    0  0.00000000000E+00  0.00000000000E+00  0.84321466341E+03  0.84321466342E+03  0.25500000920E-02 0. -1.
       -2   -1    0    0    0  501  0.00000000000E+00  0.00000000000E+00 -0.11848004303E+04  0.11848004303E+04  0.25500000920E-02 0.  1.
    10030    2    1    2    0    0  0.00000000000E+00  0.00000000000E+00 -0.34158576687E+03  0.20280150937E+04  0.19990408661E+04 0.  0.
        3    1    3    3  502    0 -0.16980378252E+03 -0.78125725545E+03 -0.77935815271E+03  0.11165103511E+04  0.10100000352E+00 0.  1.
       -3    1    3    3    0  502  0.16980378252E+03  0.78125725545E+03  0.43777238584E+03  0.91150474259E+03  0.10100000352E+00 0. -1.
</event>
<event>
 5   0  0.8011197E-05  0.2001559E+04  0.7818609E-02  0.8605892E-01
       -2   -1    0    0    0  501  0.00000000000E+00  0.00000000000E+00  0.40339623128E+03  0.40339623129E+03  0.25500000920E-02 0.  1.
        2   -1    0    0  501    0  0.00000000000E+00  0.00000000000E+00 -0.24828177186E+04  0.24828177186E+04  0.25500000920E-02 0. -1.
    10030    2    1    2    0    0  0.00000000000E+00  0.00000000000E+00 -0.20794214873E+04  0.28862139499E+04  0.20015587032E+04 0.  0.
        5    1    3    3  502    0 -0.68103002872E+03 -0.61857600278E+03 -0.16076014449E+04  0.18522534024E+04  0.46999998093E+01 0. -1.
       -5    1    3    3    0  502  0.68103002872E+03  0.61857600278E+03 -0.47182004241E+03  0.10339605474E+04  0.46999998093E+01 0.  1.
</event>
<event>
 5   0  0.7857136E-05  0.2002688E+04  0.7818609E-02  0.8605365E-01
       -2   -1    0    0    0  501  0.00000000000E+00  0.00000000000E+00  0.59308810889E+03  0.59308810889E+03  0.25500000920E-02 0. -1.
        2   -1    0    0  501    0  0.00000000000E+00  0.00000000000E+00 -0.16906259955E+04  0.16906259955E+04  0.25500000920E-02 0.  1.
    10030    2    1    2    0    0  0.00000000000E+00  0.00000000000E+00 -0.10975378866E+04  0.22837141044E+04  0.20026883677E+04 0.  0.
        4    1    3    3  502    0  0.10611178426E+02  0.63008525793E+03  0.33861181740E+03  0.71538773064E+03  0.12699999809E+01 0. -1.
       -4    1    3    3    0  502 -0.10611178426E+02 -0.63008525793E+03 -0.14361497040E+04  0.15683263737E+04  0.12699999809E+01 0.  1.
</event>
<event>
 5   0  0.2859625E-05  0.2042103E+04  0.7818609E-02  0.8587185E-01
       -3   -1    0    0    0  501  0.00000000000E+00  0.00000000000E+00  0.62466001147E+03  0.62466001963E+03  0.10100000352E+00 0. -1.
        3   -1    0    0  501    0  0.00000000000E+00  0.00000000000E+00 -0.16689815421E+04  0.16689815452E+04  0.10100000352E+00 0.  1.
    10030    2    1    2    0    0  0.00000000000E+00  0.00000000000E+00 -0.10443215307E+04  0.22936415648E+04  0.20421028790E+04 0.  0.
        4    1    3    3  502    0 -0.94278857855E+03 -0.27384743368E+03 -0.20706685302E+03  0.10033548800E+04  0.12699999809E+01 0. -1.
       -4    1    3    3    0  502  0.94278857855E+03  0.27384743368E+03 -0.83725467765E+03  0.12902866848E+04  0.12699999809E+01 0.  1.
</event>
<event>
 5   0  0.8022574E-05  0.1994881E+04  0.7818609E-02  0.8609018E-01
       -2   -1    0    0    0  501  0.00000000000E+00  0.00000000000E+00  0.49907473081E+03  0.49907473081E+03  0.25500000920E-02 0.  1.
        2   -1    0    0  501    0  0.00000000000E+00  0.00000000000E+00 -0.19934639038E+04  0.19934639038E+04  0.25500000920E-02 0. -1.
    10030    2    1    2    0    0  0.00000000000E+00  0.00000000000E+00 -0.14943891730E+04  0.24925386347E+04  0.19948809099E+04 0.  0.
        1    1    3    3  502    0  0.36162957198E+03  0.69722567183E+02  0.41100862498E+03  0.55187432767E+03  0.50400001928E-02 0.  1.
       -1    1    3    3    0  502 -0.36162957198E+03 -0.69722567183E+02 -0.19053977980E+04  0.19406643070E+04  0.50400001928E-02 0. -1.
</event>
<event>
 5   0  0.3772949E-05  0.1998976E+04  0.7818609E-02  0.8607100E-01
        1   -1    0    0  501    0  0.00000000000E+00  0.00000000000E+00  0.86809952612E+03  0.86809952614E+03  0.50400001928E-02 0. -1.
       -1   -1    0    0    0  501  0.00000000000E+00  0.00000000000E+00 -0.11507622626E+04  0.11507622626E+04  0.50400001928E-02 0.  1.
    10030    2    1    2    0    0  0.00000000000E+00  0.00000000000E+00 -0.28266273649E+03  0.20188617888E+04  0.19989759127E+04 0.  0.
        2    1    3    3  502    0  0.56776204523E+03 -0.40863393238E+03 -0.86232445049E+03  0.11103778135E+04  0.25500000920E-02 0.  1.
       -2    1    3    3    0  502 -0.56776204523E+03  0.40863393238E+03  0.57966171400E+03  0.90848397530E+03  0.25500000920E-02 0. -1.
</event>
<event>
 5   0  0.7935008E-05  0.1982083E+04  0.7818609E-02  0.8615043E-01
       -2   -1    0    0    0  501  0.00000000000E+00  0.00000000000E+00  0.59217947841E+03  0.59217947842E+03  0.25500000920E-02 0.  1.
        2   -1    0    0  501    0  0.00000000000E+00  0.00000000000E+00 -0.16585569245E+04  0.16585569245E+04  0.25500000920E-02 0. -1.
    10030    2    1    2    0    0  0.00000000000E+00  0.00000000000E+00 -0.10663774461E+04  0.22507364029E+04  0.19820831208E+04 0.  0.
        3    1    3    3  502    0  0.77786622688E+03  0.12504911621E+02 -0.12303508273E+04  0.14556769588E+04  0.10100000352E+00 0. -1.
       -3    1    3    3    0  502 -0.77786622688E+03 -0.12504911621E+02  0.16397338128E+03  0.79505944413E+03  0.10100000352E+00 0.  1.
</event>
<event>
 5   0  0.3787698E-05  0.1975712E+04  0.7818609E-02  0.8618061E-01
        1   -1    0    0  501    0  0.00000000000E+00  0.00000000000E+00  0.21066848708E+04  0.21066848708E+04  0.50400001928E-02 0.  1.
       -1   -1    0    0    0  501  0.00000000000E+00  0.00000000000E+00 -0.46322032139E+03  0.46322032142E+03  0.50400001928E-02 0. -1.
    10030    2    1    2    0    0  0.00000000000E+00  0.00000000000E+00  0.16434645494E+04  0.25699051923E+04  0.19757117634E+04 0.  0.
        4    1    3    3  502    0 -0.11519461553E+03  0.27894447822E+02 -0.45393701176E+03  0.46915703470E+03  0.12699999809E+01 0. -1.
       -4    1    3    3    0  502  0.11519461553E+03 -0.27894447822E+02  0.20974015612E+04  0.21007481576E+04  0.12699999809E+01 0.  1.
</event>
<event>
 5   0  0.3818907E-05  0.2010561E+04  0.7818609E-02  0.8601699E-01
       -1   -1    0    0    0  501  0.00000000000E+00  0.00000000000E+00  0.15241026320E+04  0.15241026320E+04  0.50400001928E-02 0. -1.
        1   -1    0    0  501    0  0.00000000000E+00  0.00000000000E+00 -0.66307162177E+03  0.66307162179E+03  0.50400001928E-02 0.  1.
    10030    2    1    2    0    0  0.00000000000E+00  0.00000000000E+00  0.86103101026E+03  0.21871742538E+04  0.20105613186E+04 0.  0.
        1    1    3    3  502    0 -0.23182652697E+03  0.73470104325E+03  0.11330462801E+04  0.13701543834E+04  0.50400001928E-02 0. -1.
       -1    1    3    3    0  502  0.23182652697E+03 -0.73470104325E+03 -0.27201526985E+03  0.81701987039E+03  0.50400001928E-02 0.  1.
</event>
<event>
 5   0  0.3549426E-05  0.2010872E+04  0.7818609E-02  0.8601555E-01
        1   -1    0    0  501    0  0.00000000000E+00  0.00000000000E+00  0.94827215468E+03  0.94827215469E+03  0.50400001928E-02 0.  1.
       -1   -1    0    0    0  501  0.00000000000E+00  0.00000000000E+00 -0.10660452736E+04  0.10660452736E+04  0.50400001928E-02 0. -1.
    10030    2    1    2    0    0  0.00000000000E+00  0.00000000000E+00 -0.11777311893E+03  0.20143174283E+04  0.20108715012E+04 0.  0.
        5    1    3    3  502    0 -0.47133519027E+03 -0.70565545266E+03 -0.59904384834E+03  0.10387406325E+04  0.46999998093E+01 0. -1.
       -5    1    3    3    0  502  0.47133519027E+03  0.70565545266E+03  0.48127072941E+03  0.97557679577E+03  0.46999998093E+01 0.  1.
</event>
<event>
 5   0  0.7857136E-05  0.2002736E+04  0.7818609E-02  0.8605342E-01
        2   -1    0    0  501    0  0.00000000000E+00  0.00000000000E+00  0.17044300635E+04  0.17044300635E+04  0.25500000920E-02 0.  1.
       -2   -1    0    0    0  501  0.00000000000E+00  0.00000000000E+00 -0.58831283944E+03  0.58831283945E+03  0.25500000920E-02 0. -1.
    10030    2    1    2    0    0  0.00000000000E+00  0.00000000000E+00  0.11161172241E+04  0.22927429029E+04  0.20027362186E+04 0.  0.
        4    1    3    3  502    0  0.97044145550E+03  0.11491365224E+02  0.84045170653E+03  0.12838416390E+04  0.12699999809E+01 0.  1.
       -4    1    3    3    0  502 -0.97044145550E+03 -0.11491365224E+02  0.27566551753E+03  0.10089012640E+04  0.12699999809E+01 0. -1.
</event>
<event>
 5   0  0.3772949E-05  0.2010394E+04  0.7818609E-02  0.8601776E-01
       -1   -1    0    0    0  501  0.00000000000E+00  0.00000000000E+00  0.91019834581E+03  0.91019834582E+03  0.50400001928E-02 0.  1.
        1   -1    0    0  501    0  0.00000000000E+00  0.00000000000E+00 -0.11101112101E+04  0.11101112101E+04  0.50400001928E-02 0. -1.
    10030    2    1    2    0    0  0.00000000000E+00  0.00000000000E+00 -0.19991286428E+03  0.20203095559E+04  0.20103943763E+04 0.  0.
        2    1    3    3  502    0  0.54489086228E+03 -0.38718999077E+03 -0.85439148600E+03  0.10848073341E+04  0.25500000920E-02 0. -1.
       -2    1    3    3    0  502 -0.54489086228E+03  0.38718999077E+03  0.65447862172E+03  0.93550222183E+03  0.25500000920E-02 0.  1.
</event>
<event>
 5   0  0.7843846E-05  0.1995338E+04  0.7818609E-02  0.8608803E-01
       -2   -1    0    0    0  501  0.00000000000E+00  0.00000000000E+00  0.61642609445E+03  0.61642609446E+03  0.25500000920E-02 0.  1.
        2   -1    0    0  501    0  0.00000000000E+00  0.00000000000E+00 -0.16147001176E+04  0.16147001176E+04  0.25500000920E-02 0. -1.
    10030    2    1    2    0    0  0.00000000000E+00  0.00000000000E+00 -0.99827402316E+03  0.22311262121E+04  0.19953378533E+04 0.  0.
        2    1    3    3  502    0  0.16655678185E+03 -0.66713046994E+03 -0.13074267727E+04  0.14772166366E+04  0.25500000920E-02 0. -1.
       -2    1    3    3    0  502 -0.16655678185E+03  0.66713046994E+03  0.30915274949E+03  0.75390957550E+03  0.25500000920E-02 0.  1.
</event>
<event>
 5   0  0.8022574E-05  0.2024530E+04  0.7818609E-02  0.8595237E-01
       -2   -1    0    0    0  501  0.00000000000E+00  0.00000000000E+00  0.98549953711E+03  0.98549953711E+03  0.25500000920E-02 0.  1.
        2   -1    0    0  501    0  0.00000000000E+00  0.00000000000E+00 -0.10397569845E+04  0.10397569845E+04  0.25500000920E-02 0. -1.
    10030    2    1    2    0    0  0.00000000000E+00  0.00000000000E+00 -0.54257447432E+02  0.20252565217E+04  0.20245296016E+04 0.  0.
        1    1    3    3  502    0 -0.16177421709E+03 -0.82594373483E+03  0.53550195002E+03  0.99755515583E+03  0.50400001928E-02 0.  1.
       -1    1    3    3    0  502  0.16177421709E+03  0.82594373483E+03 -0.58975939746E+03  0.10277013658E+04  0.50400001928E-02 0. -1.
</event>
<event>
 5   0  0.8011197E-05  0.1996606E+04  0.7818609E-02  0.8608209E-01
        2   -1    0    0  501    0  0.00000000000E+00  0.00000000000E+00  0.17435308238E+04  0.17435308238E+04  0.25500000920E-02 0.  1.
       -2   -1    0    0    0  501  0.00000000000E+00  0.00000000000E+00 -0.57160398381E+03  0.57160398382E+03  0.25500000920E-02 0. -1.
    10030    2    1    2    0    0  0.00000000000E+00  0.00000000000E+00  0.11719268400E+04  0.23151348076E+04  0.19966062855E+04 0.  0.
        5    1    3    3  502    0 -0.96689444912E+03  0.12022813339E+03  0.33392149679E+03  0.10299831726E+04  0.46999998093E+01 0. -1.
       -5    1    3    3    0  502  0.96689444912E+03 -0.12022813339E+03  0.83800534320E+03  0.12851516350E+04  0.46999998093E+01 0.  1.
</event>
<event>
 5   0  0.3772949E-05  0.2019968E+04  0.7818609E-02  0.8597342E-01
        1   -1    0    0  501    0  0.00000000000E+00  0.00000000000E+00  0.23913728946E+04  0.23913728946E+04  0.50400001928E-02 0. -1.
       -1   -1    0    0    0  501  0.00000000000E+00  0.00000000000E+00 -0.42656149342E+03  0.42656149345E+03  0.50400001928E-02 0.  1.
    10030    2    1    2    0    0  0.00000000000E+00  0.00000000000E+00  0.19648114011E+04  0.28179343880E+04  0.20199679139E+04 0.  0.
        2    1    3    3  502    0  0.97587380505E+03  0.21106930356E+03  0.11948352159E+04  0.15570841748E+04  0.25500000920E-02 0.  1.
       -2    1    3    3    0  502 -0.97587380505E+03 -0.21106930356E+03  0.76997618525E+03  0.12608502132E+04  0.25500000920E-02 0. -1.
</event>
<event>
 5   0  0.3787698E-05  0.2003182E+04  0.7818609E-02  0.8605134E-01
        1   -1    0    0  501    0  0.00000000000E+00  0.00000000000E+00  0.14870679320E+04  0.14870679320E+04  0.50400001928E-02 0. -1.
       -1   -1    0    0    0  501  0.00000000000E+00  0.00000000000E+00 -0.67460589778E+03  0.67460589780E+03  0.50400001928E-02 0.  1.
    10030    2    1    2    0    0  0.00000000000E+00  0.00000000000E+00  0.81246203424E+03  0.21616738298E+04  0.20031822657E+04 0.  0.
        4    1    3    3  502    0 -0.99414072688E+03  0.11395369331E+03  0.45304486758E+03  0.10984318340E+04  0.12699999809E+01 0.  1.
       -4    1    3    3    0  502  0.99414072688E+03 -0.11395369331E+03  0.35941716666E+03  0.10632419958E+04  0.12699999809E+01 0. -1.
</event>
<event>
 5   0  0.7857136E-05  0.1996023E+04  0.7818609E-02  0.8608482E-01
        2   -1    0    0  501    0  0.00000000000E+00  0.00000000000E+00  0.12879427580E+04  0.12879427580E+04  0.25500000920E-02 0. -1.
       -2   -1    0    0    0  501  0.00000000000E+00  0.00000000000E+00 -0.77334758139E+03  0.77334758139E+03  0.25500000920E-02 0.  1.
    10030    2    1    2    0    0  0.00000000000E+00  0.00000000000E+00  0.51459517661E+03  0.20612903394E+04  0.19960234637E+04 0.  0.
        4    1    3    3  502    0 -0.80817573213E+03  0.51321456316E+03  0.54845372992E+03  0.11033314591E+04  0.12699999809E+01 0. -1.
       -4    1    3    3    0  502  0.80817573213E+03 -0.51321456316E+03 -0.33858553311E+02  0.95795888031E+03  0.12699999809E+01 0.  1.
</event>
<event>
 5   0  0.7935008E-05  0.1983515E+04  0.7818609E-02  0.8614367E-01
       -2   -1    0    0    0  501  0.00000000000E+00  0.00000000000E+00  0.61129336558E+03  0.61129336559E+03  0.25500000920E-02 0.  1.
        2   -1    0    0  501    0  0.00000000000E+00  0.00000000000E+00 -0.16090193592E+04  0.16090193592E+04  0.25500000920E-02 0. -1.
    10030    2    1    2    0    0  0.00000000000E+00  0.00000000000E+00 -0.99772599366E+03  0.22203127248E+04  0.19835149199E+04 0.  0.
        3    1    3    3  502    0 -0.90531734774E+03  0.75529353710E+01 -0.45649330141E+02  0.90649898979E+03  0.10100000352E+00 0. -1.
       -3    1    3    3    0  502  0.90531734774E+03 -0.75529353710E+01 -0.95207666352E+03  0.13138137350E+04  0.10100000352E+00 0.  1.
</event>
<event>
 5   0  0.3818907E-05  0.2003205E+04  0.7818609E-02  0.8605124E-01
       -1   -1    0    0    0  501  0.00000000000E+00  0.00000000000E+00  0.68087276462E+03  0.68087276463E+03  0.50400001928E-02 0.  1.
        1   -1    0    0  501    0  0.00000000000E+00  0.00000000000E+00 -0.14734143111E+04  0.14734143111E+04  0.50400001928E-02 0. -1.
    10030    2    1    2    0    0  0.00000000000E+00  0.00000000000E+00 -0.79254154646E+03  0.21542870757E+04  0.20032051073E+04 0.  0.
        1    1    3    3  502    0  0.73836134597E+03  0.64377898743E+03 -0.62077052142E+03  0.11597348413E+04  0.50400001928E-02 0. -1.
       -1    1    3    3    0  502 -0.73836134597E+03 -0.64377898743E+03 -0.17177102505E+03  0.99455223440E+03  0.50400001928E-02 0.  1.
</event>
<event>
 5   0  0.3818907E-05  0.2003038E+04  0.7818609E-02  0.8605202E-01
       -1   -1    0    0    0  501  0.00000000000E+00  0.00000000000E+00  0.81718266729E+03  0.81718266731E+03  0.50400001928E-02 0.  1.
        1   -1    0    0  501    0  0.00000000000E+00  0.00000000000E+00 -0.12274372863E+04  0.12274372863E+04  0.50400001928E-02 0. -1.
    10030    2    1    2    0    0  0.00000000000E+00  0.00000000000E+00 -0.41025461901E+03  0.20446199536E+04  0.20030381680E+04 0.  0.
        1    1    3    3  502    0  0.74874748481E+03  0.27939586712E+03 -0.82127682544E+03  0.11459408670E+04  0.50400001928E-02 0. -1.
       -1    1    3    3    0  502 -0.74874748481E+03 -0.27939586712E+03  0.41102220644E+03  0.89867908665E+03  0.50400001928E-02 0.  1.
</event>
<event>
 5   0  0.3772949E-05  0.1749641E+04  0.7818609E-02  0.8733548E-01
        1   -1    0    0  501    0  0.00000000000E+00  0.00000000000E+00  0.78315769499E+03  0.78315769501E+03  0.50400001928E-02 0. -1.
       -1   -1    0    0    0  501  0.00000000000E+00  0.00000000000E+00 -0.97721181680E+03  0.97721181681E+03  0.50400001928E-02 0.  1.
    10030    2    1    2    0    0  0.00000000000E+00  0.00000000000E+00 -0.19405412180E+03  0.17603695118E+04  0.17496410535E+04 0.  0.
        2    1    3    3  502    0  0.18559195542E+03 -0.70823312938E+03 -0.57878710758E+03  0.93329151682E+03  0.25500000920E-02 0.  1.
       -2    1    3    3    0  502 -0.18559195542E+03  0.70823312938E+03  0.38473298577E+03  0.82707799500E+03  0.25500000920E-02 0. -1.
</event>
<event>
 5   0  0.3772949E-05  0.2008999E+04  0.7818609E-02  0.8602425E-01
       -1   -1    0    0    0  501  0.00000000000E+00  0.00000000000E+00  0.18917385941E+04  0.18917385941E+04  0.50400001928E-02 0.  1.
        1   -1    0    0  501    0  0.00000000000E+00  0.00000000000E+00 -0.53338178525E+03  0.53338178528E+03  0.50400001928E-02 0. -1.
    10030    2    1    2    0    0  0.00000000000E+00  0.00000000000E+00  0.13583568088E+04  0.24251203794E+04  0.20089986646E+04 0.  0.
        2    1    3    3  502    0  0.94683398072E+02 -0.38544563072E+03  0.17930684280E+04  0.18364715265E+04  0.25500000920E-02 0.  1.
       -2    1    3    3    0  502 -0.94683398072E+02  0.38544563072E+03 -0.43471161919E+03  0.58864885286E+03  0.25500000920E-02 0. -1.
</event>
<event>
 5   0  0.8011197E-05  0.2000887E+04  0.7818609E-02  0.8606206E-01
       -2   -1    0    0    0  501  0.00000000000E+00  0.00000000000E+00  0.99113127916E+03  0.99113127916E+03  0.25500000920E-02 0. -1.
        2   -1    0    0  501    0  0.00000000000E+00  0.00000000000E+00 -0.10098435285E+04  0.10098435285E+04  0.25500000920E-02 0.  1.
    10030    2    1    2    0    0  0.00000000000E+00  0.00000000000E+00 -0.18712249326E+02  0.20009748076E+04  0.20008873113E+04 0.  0.
        5    1    3    3  502    0 -0.94202976598E+02 -0.97027225976E+03 -0.23422804710E+03  0.10025903086E+04  0.46999998093E+01 0.  1.
       -5    1    3    3    0  502  0.94202976598E+02  0.97027225976E+03  0.21551579777E+03  0.99838449905E+03  0.46999998093E+01 0. -1.
</event>
<event>
 5   0  0.3549426E-05  0.1975898E+04  0.7818609E-02  0.8617973E-01
       -1   -1    0    0    0  501  0.00000000000E+00  0.00000000000E+00  0.42050449039E+03  0.42050449042E+03  0.50400001928E-02 0. -1.
        1   -1    0    0  501    0  0.00000000000E+00  0.00000000000E+00 -0.23211241988E+04  0.23211241988E+04  0.50400001928E-02 0.  1.
    10030    2    1    2    0    0  0.00000000000E+00  0.00000000000E+00 -0.19006197084E+04  0.27416286892E+04  0.19758979208E+04 0.  0.
        5    1    3    3  502    0  0.12175181995E+03 -0.89885759309E+03 -0.14934951803E+04  0.17473747228E+04  0.46999998093E+01 0.  1.
       -5    1    3    3    0  502 -0.12175181995E+03  0.89885759309E+03 -0.40712452806E+03  0.99425396638E+03  0.46999998093E+01 0. -1.
</event>
<event>
 5   0  0.3970042E-05  0.1970714E+04  0.7818609E-02  0.8620437E-01
        1   -1    0    0  501    0  0.00000000000E+00  0.00000000000E+00  0.72126042271E+03  0.72126042273E+03  0.50400001928E-02 0.  1.
       -1   -1    0    0    0  501  0.00000000000E+00  0.00000000000E+00 -0.13461551238E+04  0.13461551238E+04  0.50400001928E-02 0. -1.
    10030    2    1    2    0    0  0.00000000000E+00  0.00000000000E+00 -0.62489470109E+03  0.20674155465E+04  0.19707139962E+04 0.  0.
        3    1    3    3  502    0  0.56417340510E+03  0.66042744933E+03 -0.80054351994E+03  0.11812391732E+04  0.10100000352E+00 0. -1.
       -3    1    3    3    0  502 -0.56417340510E+03 -0.66042744933E+03  0.17564881885E+03  0.88617637331E+03  0.10100000352E+00 0.  1.
</event>
<event>
 5   0  0.3549426E-05  0.1982134E+04  0.7818609E-02  0.8615020E-01
       -1   -1    0    0    0  501  0.00000000000E+00  0.00000000000E+00  0.71344871246E+03  0.71344871248E+03  0.50400001928E-02 0.  1.
        1   -1    0    0  501    0  0.00000000000E+00  0.00000000000E+00 -0.13767119029E+04  0.13767119029E+04  0.50400001928E-02 0. -1.
    10030    2    1    2    0    0  0.00000000000E+00  0.00000000000E+00 -0.66326319039E+03  0.20901606153E+04  0.19821335319E+04 0.  0.
        5    1    3    3  502    0 -0.51688066007E+03 -0.72404139466E+03  0.12896868611E+03  0.89891966823E+03  0.46999998093E+01 0.  1.
       -5    1    3    3    0  502  0.51688066007E+03  0.72404139466E+03 -0.79223187650E+03  0.11912409471E+04  0.46999998093E+01 0. -1.
</event>
<event>
 5   0  0.3787698E-05  0.1999752E+04  0.7818609E-02  0.8606736E-01
       -1   -1    0    0    0  501  0.00000000000E+00  0.00000000000E+00  0.16451812289E+04  0.16451812289E+04  0.50400001928E-02 0.  1.
        1   -1    0    0  501    0  0.00000000000E+00  0.00000000000E+00 -0.60768524443E+03  0.60768524445E+03  0.50400001928E-02 0. -1.
    10030    2    1    2    0    0  0.00000000000E+00  0.00000000000E+00  0.10374959844E+04  0.22528664733E+04  0.19997523419E+04 0.  0.
        4    1    3    3  502    0  0.47743177971E+03 -0.73904120553E+03 -0.16377304067E+02  0.87999592995E+03  0.12699999809E+01 0. -1.
       -4    1    3    3    0  502 -0.47743177971E+03  0.73904120553E+03  0.10538732885E+04  0.13728705434E+04  0.12699999809E+01 0.  1.
</event>
<event>
 5   0  0.7843846E-05  0.1769107E+04  0.7818609E-02  0.8722903E-01
        2   -1    0    0  501    0  0.00000000000E+00  0.00000000000E+00  0.91926529467E+03  0.91926529467E+03  0.25500000920E-02 0. -1.
       -2   -1    0    0    0  501  0.00000000000E+00  0.00000000000E+00 -0.85115228883E+03  0.85115228883E+03  0.25500000920E-02 0.  1.
    10030    2    1    2    0    0  0.00000000000E+00  0.00000000000E+00  0.68113005838E+02  0.17704175835E+04  0.17691068477E+04 0.  0.
        2    1    3    3  502    0 -0.54085690627E+03  0.18734867962E+03  0.70895147759E+03  0.91117392324E+03  0.25500000920E-02 0. -1.
       -2    1    3    3    0  502  0.54085690627E+03 -0.18734867962E+03 -0.64083847175E+03  0.85924366026E+03  0.25500000920E-02 0.  1.
</event>
<event>
 5   0  0.8022574E-05  0.2004501E+04  0.7818609E-02  0.8604519E-01
        2   -1    0    0  501    0  0.00000000000E+00  0.00000000000E+00  0.14397006220E+04  0.14397006220E+04  0.25500000920E-02 0.  1.
       -2   -1    0    0    0  501  0.00000000000E+00  0.00000000000E+00 -0.69771877239E+03  0.69771877240E+03  0.25500000920E-02 0. -1.
    10030    2    1    2    0    0  0.00000000000E+00  0.00000000000E+00  0.74198184956E+03  0.21374193944E+04  0.20045010856E+04 0.  0.
        1    1    3    3  502    0 -0.92967996660E+03  0.10812711810E+03 -0.11262720443E+02  0.93601450997E+03  0.50400001928E-02 0. -1.
       -1    1    3    3    0  502  0.92967996660E+03 -0.10812711810E+03  0.75324457000E+03  0.12014048844E+04  0.50400001928E-02 0.  1.
</event>
<event>
 5   0  0.3549426E-05  0.2038892E+04  0.7818609E-02  0.8588650E-01
        1   -1    0    0  501    0  0.00000000000E+00  0.00000000000E+00  0.52147201941E+03  0.52147201944E+03  0.50400001928E-02 0.  1.
       -1   -1    0    0    0  501  0.00000000000E+00  0.00000000000E+00 -0.19929555848E+04  0.19929555848E+04  0.50400001928E-02 0. -1.
    10030    2    1    2    0    0  0.00000000000E+00  0.00000000000E+00 -0.14714835654E+04  0.25144276042E+04  0.20388924184E+04 0.  0.
        5    1    3    3  502    0  0.47899452968E+03 -0.79016971920E+03 -0.20467168470E+03  0.94642302018E+03  0.46999998093E+01 0.  1.
       -5    1    3    3    0  502 -0.47899452968E+03  0.79016971920E+03 -0.12668118807E+04  0.15680045841E+04  0.46999998093E+01 0. -1.
</event>
<event>
 5   0  0.3772949E-05  0.1995628E+04  0.7818609E-02  0.8608668E-01
       -1   -1    0    0    0  501  0.00000000000E+00  0.00000000000E+00  0.37574527984E+03  0.37574527988E+03  0.50400001928E-02 0. -1.
        1   -1    0    0  501    0  0.00000000000E+00  0.00000000000E+00 -0.26497541158E+04  0.26497541158E+04  0.50400001928E-02 0.  1.
    10030    2    1    2    0    0  0.00000000000E+00  0.00000000000E+00 -0.22740088360E+04  0.30254993957E+04  0.19956278228E+04 0.  0.
        2    1    3    3  502    0 -0.70140361400E+03  0.24807122683E+03 -0.12893447689E+03  0.75506983958E+03  0.25500000920E-02 0. -1.
       -2    1    3    3    0  502  0.70140361400E+03 -0.24807122683E+03 -0.21450743591E+04  0.22704295561E+04  0.25500000920E-02 0.  1.
</event>
<event>
 5   0  0.3970042E-05  0.1982032E+04  0.7818609E-02  0.8615068E-01
       -1   -1    0    0    0  501  0.00000000000E+00  0.00000000000E+00  0.64276667103E+03  0.64276667105E+03  0.50400001928E-02 0.  1.
        1   -1    0    0  501    0  0.00000000000E+00  0.00000000000E+00 -0.15279454101E+04  0.15279454101E+04  0.50400001928E-02 0. -1.
    10030    2    1    2    0    0  0.00000000000E+00  0.00000000000E+00 -0.88517873907E+03  0.21707120812E+04  0.19820316696E+04 0.  0.
        3    1    3    3  502    0 -0.48104328956E+03  0.83806109883E+03 -0.68344106036E+03  0.11835711829E+04  0.10100000352E+00 0. -1.
       -3    1    3    3    0  502  0.48104328956E+03 -0.83806109883E+03 -0.20173767871E+03  0.98714089826E+03  0.10100000352E+00 0.  1.
</event>
<event>
 5   0  0.7843846E-05  0.2015340E+04  0.7818609E-02  0.8599482E-01
        2   -1    0    0  501    0  0.00000000000E+00  0.00000000000E+00  0.22292179785E+04  0.22292179785E+04  0.25500000920E-02 0. -1.
       -2   -1    0    0    0  501  0.00000000000E+00  0.00000000000E+00 -0.45549537759E+03  0.45549537760E+03  0.25500000920E-02 0.  1.
    10030    2    1    2    0    0  0.00000000000E+00  0.00000000000E+00  0.17737226009E+04  0.26847133561E+04  0.20153396586E+04 0.  0.
        2    1    3    3  502    0 -0.37517078168E+03  0.68807759524E+03  0.43085224397E+02  0.78489504334E+03  0.25500000920E-02 0.  1.
       -2    1    3    3    0  502  0.37517078168E+03 -0.68807759524E+03  0.17306373765E+04  0.18998183128E+04  0.25500000920E-02 0. -1.
</event>
<event>
 5   0  0.8022574E-05  0.1990576E+04  0.7818609E-02  0.8611039E-01
       -2   -1    0    0    0  501  0.00000000000E+00  0.00000000000E+00  0.14713567892E+04  0.14713567892E+04  0.25500000920E-02 0.  1.
        2   -1    0    0  501    0  0.00000000000E+00  0.00000000000E+00 -0.67325517883E+03  0.67325517883E+03  0.25500000920E-02 0. -1.
    10030    2    1    2    0    0  0.00000000000E+00  0.00000000000E+00  0.79810161035E+03  0.21446119680E+04  0.19905763771E+04 0.  0.
        1    1    3    3  502    0 -0.84710075556E+03  0.35973264444E+03  0.80733653908E+03  0.12242465246E+04  0.50400001928E-02 0.  1.
       -1    1    3    3    0  502  0.84710075556E+03 -0.35973264444E+03 -0.92349287301E+01  0.92036544344E+03  0.50400001928E-02 0. -1.
</event>
<event>
 5   0  0.3818907E-05  0.2005155E+04  0.7818609E-02  0.8604214E-01
        1   -1    0    0  501    0  0.00000000000E+00  0.00000000000E+00  0.12683052648E+04  0.12683052648E+04  0.50400001928E-02 0.  1.
       -1   -1    0    0    0  501  0.00000000000E+00  0.00000000000E+00 -0.79252340129E+03  0.79252340130E+03  0.50400001928E-02 0. -1.
    10030    2    1    2    0    0  0.00000000000E+00  0.00000000000E+00  0.47578186351E+03  0.20608286661E+04  0.20051549590E+04 0.  0.
        1    1    3    3  502    0  0.72623581615E+03  0.18735602203E+03 -0.44589427031E+03  0.87254939114E+03  0.50400001928E-02 0. -1.
       -1    1    3    3    0  502 -0.72623581615E+03 -0.18735602203E+03  0.92167613382E+03  0.11882792750E+04  0.50400001928E-02 0.  1.
</event>
<event>
 5   0  0.7843846E-05  0.2012501E+04  0.7818609E-02  0.8600798E-01
       -2   -1    0    0    0  501  0.00000000000E+00  0.00000000000E+00  0.67789410926E+03  0.67789410927E+03  0.25500000920E-02 0.  1.
        2   -1    0    0  501    0  0.00000000000E+00  0.00000000000E+00 -0.14936554985E+04  0.14936554985E+04  0.25500000920E-02 0. -1.
    10030    2    1    2    0    0  0.00000000000E+00  0.00000000000E+00 -0.81576138920E+03  0.21715496077E+04  0.20125011937E+04 0.  0.
        2    1    3    3  502    0 -0.15440637243E+03  0.26825077116E+03  0.62525367089E+03  0.69766894517E+03  0.25500000920E-02 0.  1.
       -2    1    3    3    0  502  0.15440637243E+03 -0.26825077116E+03 -0.14410150601E+04  0.14738806626E+04  0.25500000920E-02 0. -1.
</event>
<event>
 5   0  0.3787698E-05  0.1998637E+04  0.7818609E-02  0.8607258E-01
        1   -1    0    0  501    0  0.00000000000E+00  0.00000000000E+00  0.17546168203E+04  0.17546168203E+04  0.50400001928E-02 0. -1.
       -1   -1    0    0    0  501  0.00000000000E+00  0.00000000000E+00 -0.56914838325E+03  0.56914838327E+03  0.50400001928E-02 0.  1.
    10030    2    1    2    0    0  0.00000000000E+00  0.00000000000E+00  0.11854684371E+04  0.23237652036E+04  0.19986368620E+04 0.  0.
        4    1    3    3  502    0  0.93639271112E+03 -0.23479875163E+02  0.18787430697E+03  0.95534338439E+03  0.12699999809E+01 0.  1.
       -4    1    3    3    0  502 -0.93639271112E+03  0.23479875163E+02  0.99759413012E+03  0.13684218192E+04  0.12699999809E+01 0. -1.
</event>
<event>
 5   0  0.2859625E-05  0.2002785E+04  0.7818609E-02  0.8605320E-01
       -3   -1    0    0    0  501  0.00000000000E+00  0.00000000000E+00  0.92468941962E+03  0.92468942514E+03  0.10100000352E+00 0.  1.
        3   -1    0    0  501    0  0.00000000000E+00  0.00000000000E+00 -0.10844582304E+04  0.10844582351E+04  0.10100000352E+00 0. -1.
    10030    2    1    2    0    0  0.00000000000E+00  0.00000000000E+00 -0.15976881082E+03  0.20091476603E+04  0.20027851227E+04 0.  0.
        5    1    3    3  502    0  0.51735742206E+03 -0.66969017238E+03 -0.61695547944E+03  0.10472820932E+04  0.46999998093E+01 0. -1.
       -5    1    3    3    0  502 -0.51735742206E+03  0.66969017238E+03  0.45718666862E+03  0.96186556707E+03  0.46999998093E+01 0.  1.
</event>
<event>
 5   0  0.3970042E-05  0.1990201E+04  0.7818609E-02  0.8611216E-01
       -1   -1    0    0    0  501  0.00000000000E+00  0.00000000000E+00  0.97829163698E+03  0.97829163699E+03  0.50400001928E-02 0.  1.
        1   -1    0    0  501    0  0.00000000000E+00  0.00000000000E+00 -0.10121978733E+04  0.10121978734E+04  0.50400001928E-02 0. -1.
    10030    2    1    2    0    0  0.00000000000E+00  0.00000000000E+00 -0.33906236360E+02  0.19904895103E+04  0.19902007080E+04 0.  0.
        3    1    3    3  502    0  0.58705487375E+03 -0.20226029416E+03 -0.79467900763E+03  0.10084926310E+04  0.10100000352E+00 0. -1.
       -3    1    3    3    0  502 -0.58705487375E+03  0.20226029416E+03  0.76077277127E+03  0.98199687937E+03  0.10100000352E+00 0.  1.
</event>
<event>
 5   0  0.8011197E-05  0.1986845E+04  0.7818609E-02  0.8612796E-01
       -2   -1    0    0    0  501  0.00000000000E+00  0.00000000000E+00  0.66701164099E+03  0.66701164099E+03  0.25500000920E-02 0.  1.
        2   -1    0    0  501    0  0.00000000000E+00  0.00000000000E+00 -0.14795664512E+04  0.14795664512E+04  0.25500000920E-02 0. -1.
    10030    2    1    2    0    0  0.00000000000E+00  0.00000000000E+00 -0.81255481021E+03  0.21465780922E+04  0.19868447816E+04 0.  0.
        5    1    3    3  502    0  0.41077751320E+03 -0.40706804459E+03  0.46638751173E+03  0.74295488381E+03  0.46999998093E+01 0.  1.
       -5    1    3    3    0  502 -0.41077751320E+03  0.40706804459E+03 -0.12789423219E+04  0.14036232084E+04  0.46999998093E+01 0. -1.
</event>
<event>
 5   0  0.7843846E-05  0.1971778E+04  0.7818609E-02  0.8619930E-01
       -2   -1    0    0    0  501  0.00000000000E+00  0.00000000000E+00  0.61299967343E+03  0.61299967344E+03  0.25500000920E-02 0.  1.
        2   -1    0    0  501    0  0.00000000000E+00  0.00000000000E+00 -0.15856071235E+04  0.15856071235E+04  0.25500000920E-02 0. -1.
    10030    2    1    2    0    0  0.00000000000E+00  0.00000000000E+00 -0.97260745011E+03  0.21986067970E+04  0.19717775219E+04 0.  0.
        2    1    3    3  502    0 -0.78145283926E+03 -0.31170826251E+03  0.86771627212E+02  0.84578951058E+03  0.25500000920E-02 0.  1.
       -2    1    3    3    0  502  0.78145283926E+03  0.31170826251E+03 -0.10593790773E+04  0.13528172864E+04  0.25500000920E-02 0. -1.
</event>
<event>
 5   0  0.2859625E-05  0.1964570E+04  0.7818609E-02  0.8623367E-01
        3   -1    0    0  501    0  0.00000000000E+00  0.00000000000E+00  0.11278003261E+04  0.11278003306E+04  0.10100000352E+00 0.  1.
       -3   -1    0    0    0  501  0.00000000000E+00  0.00000000000E+00 -0.85554481965E+03  0.85554482561E+03  0.10100000352E+00 0. -1.
    10030    2    1    2    0    0  0.00000000000E+00  0.00000000000E+00  0.27225550640E+03  0.19833451562E+04  0.19645699142E+04 0.  0.
        2    1    3    3  502    0  0.11491422082E+03  0.92956322445E+03 -0.16265789754E+03  0.95065801318E+03  0.25500000920E-02 0. -1.
       -2    1    3    3    0  502 -0.11491422082E+03 -0.92956322445E+03  0.43491340395E+03  0.10326871430E+04  0.25500000920E-02 0.  1.
</event>
<event>
 5   0  0.3549426E-05  0.1993634E+04  0.7818609E-02  0.8609603E-01
        1   -1    0    0  501    0  0.00000000000E+00  0.00000000000E+00  0.53023308089E+03  0.53023308092E+03  0.50400001928E-02 0.  1.
       -1   -1    0    0    0  501  0.00000000000E+00  0.00000000000E+00 -0.18739765139E+04  0.18739765139E+04  0.50400001928E-02 0. -1.
    10030    2    1    2    0    0  0.00000000000E+00  0.00000000000E+00 -0.13437434330E+04  0.24042095948E+04  0.19936342097E+04 0.  0.
        5    1    3    3  502    0  0.28276590438E+03  0.95468353476E+03 -0.61473186433E+03  0.11701686046E+04  0.46999998093E+01 0. -1.
       -5    1    3    3    0  502 -0.28276590438E+03 -0.95468353476E+03 -0.72901156866E+03  0.12340409902E+04  0.46999998093E+01 0.  1.
</event>
<event>
 5   0  0.3772949E-05  0.1995217E+04  0.7818609E-02  0.8608860E-01
       -1   -1    0    0    0  501  0.00000000000E+00  0.00000000000E+00  0.92281363801E+03  0.92281363802E+03  0.50400001928E-02 0. -1.
        1   -1    0    0  501    0  0.00000000000E+00  0.00000000000E+00 -0.10784656781E+04  0.10784656781E+04  0.50400001928E-02 0.  1.
    10030    2    1    2    0    0  0.00000000000E+00  0.00000000000E+00 -0.15565204013E+03  0.20012793162E+04  0.19952171169E+04 0.  0.
        2    1    3    3  502    0  0.21822572285E+03 -0.42879394895E+03  0.79874924137E+03  0.93246290402E+03  0.25500000920E-02 0. -1.
       -2    1    3    3    0  502 -0.21822572285E+03  0.42879394895E+03 -0.95440128149E+03  0.10688164122E+04  0.25500000920E-02 0.  1.
</event>
<event>
 5   0  0.3818907E-05  0.2002339E+04  0.7818609E-02  0.8605528E-01
        1   -1    0    0  501    0  0.00000000000E+00  0.00000000000E+00  0.10389612756E+04  0.10389612756E+04  0.50400001928E-02 0. -1.
       -1   -1    0    0    0  501  0.00000000000E+00  0.00000000000E+00 -0.96475195113E+03  0.96475195114E+03  0.50400001928E-02 0.  1.
    10030    2    1    2    0    0  0.00000000000E+00  0.00000000000E+00  0.74209324500E+02  0.20037132268E+04  0.20023385506E+04 0.  0.
        1    1    3    3  502    0  0.88058377887E+03 -0.43712354804E+03 -0.15232699036E+03  0.99484084148E+03  0.50400001928E-02 0.  1.
       -1    1    3    3    0  502 -0.88058377887E+03  0.43712354804E+03  0.22653631486E+03  0.10088723853E+04  0.50400001928E-02 0. -1.
</event>
<event>
 5   0  0.7843846E-05  0.2000428E+04  0.7818609E-02  0.8606420E-01
       -2   -1    0    0    0  501  0.00000000000E+00  0.00000000000E+00  0.78506144641E+03  0.78506144642E+03  0.25500000920E-02 0.  1.
        2   -1    0    0  501    0  0.00000000000E+00  0.00000000000E+00 -0.12743311392E+04  0.12743311392E+04  0.25500000920E-02 0. -1.
    10030    2    1    2    0    0  0.00000000000E+00  0.00000000000E+00 -0.48926969279E+03  0.20593925856E+04  0.20004282015E+04 0.  0.
        2    1    3    3  502    0 -0.21307899710E+03  0.55499369926E+03  0.58344241900E+03  0.83296201685E+03  0.25500000920E-02 0.  1.
       -2    1    3    3    0  502  0.21307899710E+03 -0.55499369926E+03 -0.10727121118E+04  0.12264305688E+04  0.25500000920E-02 0. -1.
</event>
<event>
 5   0  0.3818907E-05  0.1854442E+04  0.7818609E-02  0.8677872E-01
        1   -1    0    0  501    0  0.00000000000E+00  0.00000000000E+00  0.23154882142E+04  0.23154882142E+04  0.50400001928E-02 0. -1.
       -1   -1    0    0    0  501  0.00000000000E+00  0.00000000000E+00 -0.37129908790E+03  0.37129908794E+03  0.50400001928E-02 0.  1.
    10030    2    1    2    0    0  0.00000000000E+00  0.00000000000E+00  0.19441891263E+04  0.26867873021E+04  0.18544418697E+04 0.  0.
        1    1    3    3  502    0  0.35110993100E+03 -0.18871813153E+03 -0.24082316946E+03  0.46571291134E+03  0.50400001928E-02 0.  1.
       -1    1    3    3    0  502 -0.35110993100E+03  0.18871813153E+03  0.21850122957E+04  0.22210743908E+04  0.50400001928E-02 0. -1.
</event>
<event>
 5   0  0.8011197E-05  0.1995155E+04  0.7818609E-02  0.8608889E-01
       -2   -1    0    0    0  501  0.00000000000E+00  0.00000000000E+00  0.66594092408E+03  0.66594092408E+03  0.25500000920E-02 0.  1.
        2   -1    0    0  501    0  0.00000000000E+00  0.00000000000E+00 -0.14943678282E+04  0.14943678282E+04  0.25500000920E-02 0. -1.
    10030    2    1    2    0    0  0.00000000000E+00  0.00000000000E+00 -0.82842690410E+03  0.21603087523E+04  0.19951548235E+04 0.  0.
        5    1    3    3  502    0 -0.18818170992E+03  0.95649805150E+03 -0.64349072209E+03  0.11680767432E+04  0.46999998093E+01 0.  1.
       -5    1    3    3    0  502  0.18818170992E+03 -0.95649805150E+03 -0.18493618200E+03  0.99223200910E+03  0.46999998093E+01 0. -1.
</event>
<event>
 5   0  0.3970042E-05  0.1994770E+04  0.7818609E-02  0.8609070E-01
       -1   -1    0    0    0  501  0.00000000000E+00  0.00000000000E+00  0.35746891711E+03  0.35746891715E+03  0.50400001928E-02 0.  1.
        1   -1    0    0  501    0  0.00000000000E+00  0.00000000000E+00 -0.27828347108E+04  0.27828347109E+04  0.50400001928E-02 0. -1.
    10030    2    1    2    0    0  0.00000000000E+00  0.00000000000E+00 -0.24253657937E+04  0.31403036280E+04  0.19947700726E+04 0.  0.
        3    1    3    3  502    0  0.54899307642E+03 -0.64372070757E+03 -0.38113653858E+03  0.92791961858E+03  0.10100000352E+00 0.  1.
       -3    1    3    3    0  502 -0.54899307642E+03  0.64372070757E+03 -0.20442292551E+04  0.22123840094E+04  0.10100000352E+00 0. -1.
</event>
<event>
 5   0  0.3549426E-05  0.1860250E+04  0.7818609E-02  0.8674899E-01
       -1   -1    0    0    0  501  0.00000000000E+00  0.00000000000E+00  0.10575903984E+04  0.10575903985E+04  0.50400001928E-02 0. -1.
        1   -1    0    0  501    0  0.00000000000E+00  0.00000000000E+00 -0.81802258828E+03  0.81802258830E+03  0.50400001928E-02 0.  1.
    10030    2    1    2    0    0  0.00000000000E+00  0.00000000000E+00  0.23956781016E+03  0.18756129867E+04  0.18602503435E+04 0.  0.
        5    1    3    3  502    0  0.40462801659E+03  0.47593735078E+02 -0.72325621746E+03  0.83012688278E+03  0.46999998093E+01 0.  1.
       -5    1    3    3    0  502 -0.40462801659E+03 -0.47593735078E+02  0.96282402762E+03  0.10454861040E+04  0.46999998093E+01 0. -1.
</event>
<event>
 5   0  0.3549426E-05  0.1960615E+04  0.7818609E-02  0.8625259E-01
       -1   -1    0    0    0  501  0.00000000000E+00  0.00000000000E+00  0.86773003277E+03  0.86773003278E+03  0.50400001928E-02 0.  1.
        1   -1    0    0  501    0  0.00000000000E+00  0.00000000000E+00 -0.11074907301E+04  0.11074907301E+04  0.50400001928E-02 0. -1.
    10030    2    1    2    0    0  0.00000000000E+00  0.00000000000E+00 -0.23976069735E+03  0.19752207629E+04  0.19606151765E+04 0.  0.
        5    1    3    3  502    0 -0.40395046273E+03  0.57401697054E+03 -0.80930963569E+03  0.10712962406E+04  0.46999998093E+01 0. -1.
       -5    1    3    3    0  502  0.40395046273E+03 -0.57401697054E+03  0.56954893833E+03  0.90392452227E+03  0.46999998093E+01 0.  1.
</event>
<event>
 5   0  0.7843846E-05  0.1993314E+04  0.7818609E-02  0.8609753E-01
        2   -1    0    0  501    0  0.00000000000E+00  0.00000000000E+00  0.10741825086E+04  0.10741825086E+04  0.25500000920E-02 0.  1.
       -2   -1    0    0    0  501  0.00000000000E+00  0.00000000000E+00 -0.92472625797E+03  0.92472625797E+03  0.25500000920E-02 0. -1.
    10030    2    1    2    0    0  0.00000000000E+00  0.00000000000E+00  0.14945625065E+03  0.19989087666E+04  0.19933135946E+04 0.  0.
        2    1    3    3  502    0  0.52841848936E+01  0.71483811429E+03  0.77115812296E+03  0.10515257024E+04  0.25500000920E-02 0.  1.
       -2    1    3    3    0  502 -0.52841848936E+01 -0.71483811429E+03 -0.62170187230E+03  0.94738306417E+03  0.25500000920E-02 0. -1.
</event>
<event>
 5   0  0.3549426E-05  0.2003741E+04  0.7818609E-02  0.8604874E-01
        1   -1    0    0  501    0  0.00000000000E+00  0.00000000000E+00  0.10147687693E+04  0.10147687693E+04  0.50400001928E-02 0.  1.
       -1   -1    0    0    0  501  0.00000000000E+00  0.00000000000E+00 -0.98913602353E+03  0.98913602355E+03  0.50400001928E-02 0. -1.
    10030    2    1    2    0    0  0.00000000000E+00  0.00000000000E+00  0.25632745744E+02  0.20039047928E+04  0.20037408468E+04 0.  0.
        5    1    3    3  502    0  0.68796171892E+03 -0.59802078490E+03  0.42854506792E+03  0.10072701480E+04  0.46999998093E+01 0.  1.
       -5    1    3    3    0  502 -0.68796171892E+03  0.59802078490E+03 -0.40291232217E+03  0.99663464481E+03  0.46999998093E+01 0. -1.
</event>
<event>
 5   0  0.3818907E-05  0.1998070E+04  0.7818609E-02  0.8607524E-01
       -1   -1    0    0    0  501  0.00000000000E+00  0.00000000000E+00  0.10827255662E+04  0.10827255662E+04  0.50400001928E-02 0.  1.
        1   -1    0    0  501    0  0.00000000000E+00  0.00000000000E+00 -0.92181316284E+03  0.92181316286E+03  0.50400001928E-02 0. -1.
    10030    2    1    2    0    0  0.00000000000E+00  0.00000000000E+00  0.16091240339E+03  0.20045387291E+04  0.19980697473E+04 0.  0.
        1    1    3    3  502    0  0.69645236579E+03 -0.17866603600E+03  0.77631791650E+03  0.10581289892E+04  0.50400001928E-02 0.  1.
       -1    1    3    3    0  502 -0.69645236579E+03  0.17866603600E+03 -0.61540551311E+03  0.94640973992E+03  0.50400001928E-02 0. -1.
</event>
<event>
 5   0  0.7843846E-05  0.1961735E+04  0.7818609E-02  0.8624723E-01
       -2   -1    0    0    0  501  0.00000000000E+00  0.00000000000E+00  0.61180281661E+03  0.61180281661E+03  0.25500000920E-02 0.  1.
        2   -1    0    0  501    0  0.00000000000E+00  0.00000000000E+00 -0.15725665046E+04  0.15725665046E+04  0.25500000920E-02 0. -1.
    10030    2    1    2    0    0  0.00000000000E+00  0.00000000000E+00 -0.96076368801E+03  0.21843693212E+04  0.19617345558E+04 0.  0.
        2    1    3    3  502    0  0.77494017422E+03  0.21744521004E+03  0.14385340905E+03  0.81762368868E+03  0.25500000920E-02 0.  1.
       -2    1    3    3    0  502 -0.77494017422E+03 -0.21744521004E+03 -0.11046170971E+04  0.13667456326E+04  0.25500000920E-02 0. -1.
</event>
<event>
 5   0  0.3772949E-05  0.2006142E+04  0.7818609E-02  0.8603754E-01
        1   -1    0    0  501    0  0.00000000000E+00  0.00000000000E+00  0.18193058884E+04  0.18193058884E+04  0.50400001928E-02 0.  1.
       -1   -1    0    0    0  501  0.00000000000E+00  0.00000000000E+00 -0.55304152633E+03  0.55304152635E+03  0.50400001928E-02 0. -1.
    10030    2    1    2    0    0  0.00000000000E+00  0.00000000000E+00  0.12662643620E+04  0.23723474147E+04  0.20061422735E+04 0.  0.
        2    1    3    3  502    0  0.31389868677E+03 -0.64831072550E+03  0.14586383926E+04  0.16267959745E+04  0.25500000920E-02 0.  1.
       -2    1    3    3    0  502 -0.31389868677E+03  0.64831072550E+03 -0.19237403055E+03  0.74555144021E+03  0.25500000920E-02 0. -1.
</event>
<event>
 5   0  0.3772949E-05  0.2044058E+04  0.7818609E-02  0.8586295E-01
        1   -1    0    0  501    0  0.00000000000E+00  0.00000000000E+00  0.53293003662E+03  0.53293003665E+03  0.50400001928E-02 0.  1.
       -1   -1    0    0    0  501  0.00000000000E+00  0.00000000000E+00 -0.19600007061E+04  0.19600007062E+04  0.50400001928E-02 0. -1.
    10030    2    1    2    0    0  0.00000000000E+00  0.00000000000E+00 -0.14270706695E+04  0.24929307428E+04  0.20440579719E+04 0.  0.
        2    1    3    3  502    0  0.81679544499E+01  0.48626405458E+02  0.53147857668E+03  0.53376092051E+03  0.25500000920E-02 0.  1.
       -2    1    3    3    0  502 -0.81679544499E+01 -0.48626405458E+02 -0.19585492462E+04  0.19591698223E+04  0.25500000920E-02 0. -1.
</event>
<event>
 5   0  0.3787698E-05  0.2000675E+04  0.7818609E-02  0.8606305E-01
        1   -1    0    0  501    0  0.00000000000E+00  0.00000000000E+00  0.13454995739E+04  0.13454995739E+04  0.50400001928E-02 0. -1.
       -1   -1    0    0    0  501  0.00000000000E+00  0.00000000000E+00 -0.74371993034E+03  0.74371993036E+03  0.50400001928E-02 0.  1.
    10030    2    1    2    0    0  0.00000000000E+00  0.00000000000E+00  0.60177964356E+03  0.20892195043E+04  0.20006747356E+04 0.  0.
        4    1    3    3  502    0 -0.59442469392E+03 -0.22700782380E+02 -0.53895367135E+03  0.80270088765E+03  0.12699999809E+01 0.  1.
       -4    1    3    3    0  502  0.59442469392E+03  0.22700782380E+02  0.11407333149E+04  0.12865186166E+04  0.12699999809E+01 0. -1.
</event>
<event>
 5   0  0.3787698E-05  0.1760175E+04  0.7818609E-02  0.8727770E-01
       -1   -1    0    0    0  501  0.00000000000E+00  0.00000000000E+00  0.46991584038E+03  0.46991584040E+03  0.50400001928E-02 0. -1.
        1   -1    0    0  501    0  0.00000000000E+00  0.00000000000E+00 -0.16482817463E+04  0.16482817463E+04  0.50400001928E-02 0.  1.
    10030    2    1    2    0    0  0.00000000000E+00  0.00000000000E+00 -0.11783659060E+04  0.21181975868E+04  0.17601746528E+04 0.  0.
        4    1    3    3  502    0 -0.27172169472E+03 -0.54478426202E+03 -0.13540104648E+04  0.14845768836E+04  0.12699999809E+01 0.  1.
       -4    1    3    3    0  502  0.27172169472E+03  0.54478426202E+03  0.17564455886E+03  0.63362070317E+03  0.12699999809E+01 0. -1.
</event>
<event>
 5   0  0.3549426E-05  0.2006103E+04  0.7818609E-02  0.8603773E-01
       -1   -1    0    0    0  501  0.00000000000E+00  0.00000000000E+00  0.84358325455E+03  0.84358325457E+03  0.50400001928E-02 0. -1.
        1   -1    0    0  501    0  0.00000000000E+00  0.00000000000E+00 -0.11926650364E+04  0.11926650364E+04  0.50400001928E-02 0.  1.
    10030    2    1    2    0    0  0.00000000000E+00  0.00000000000E+00 -0.34908178186E+03  0.20362482910E+04  0.20061029416E+04 0.  0.
        5    1    3    3  502    0 -0.58115411455E+03  0.48712827679E+03  0.49187357504E+03  0.90387818135E+03  0.46999998093E+01 0. -1.
       -5    1    3    3    0  502  0.58115411455E+03 -0.48712827679E+03 -0.84095535690E+03  0.11323701096E+04  0.46999998093E+01 0.  1.
</event>
<event>
 5   0  0.3970042E-05  0.2093101E+04  0.7818609E-02  0.8564288E-01
        1   -1    0    0  501    0  0.00000000000E+00  0.00000000000E+00  0.13796040794E+04  0.13796040794E+04  0.50400001928E-02 0.  1.
       -1   -1    0    0    0  501  0.00000000000E+00  0.00000000000E+00 -0.79390026749E+03  0.79390026750E+03  0.50400001928E-02 0. -1.
    10030    2    1    2    0    0  0.00000000000E+00  0.00000000000E+00  0.58570381195E+03  0.21735043470E+04  0.20931010943E+04 0.  0.
        3    1    3    3  502    0  0.61721539190E+03  0.78178881863E+02 -0.58102176751E+03  0.85126557671E+03  0.10100000352E+00 0. -1.
       -3    1    3    3    0  502 -0.61721539190E+03 -0.78178881863E+02  0.11667255795E+04  0.13222387702E+04  0.10100000352E+00 0.  1.
</event>
<event>
 5   0  0.8011197E-05  0.1919131E+04  0.7818609E-02  0.8645392E-01
        2   -1    0    0  501    0  0.00000000000E+00  0.00000000000E+00  0.11759913921E+04  0.11759913922E+04  0.25500000920E-02 0. -1.
       -2   -1    0    0    0  501  0.00000000000E+00  0.00000000000E+00 -0.78296986819E+03  0.78296986819E+03  0.25500000920E-02 0.  1.
    10030    2    1    2    0    0  0.00000000000E+00  0.00000000000E+00  0.39302152396E+03  0.19589612603E+04  0.19191308713E+04 0.  0.
        5    1    3    3  502    0 -0.69938367281E+03 -0.65320893293E+03  0.26814054901E+03  0.99385153614E+03  0.46999998093E+01 0. -1.
       -5    1    3    3    0  502  0.69938367281E+03  0.65320893293E+03  0.12488097496E+03  0.96510972421E+03  0.46999998093E+01 0.  1.
</event>
<event>
 5   0  0.3549426E-05  0.2005418E+04  0.7818609E-02  0.8604092E-01
       -1   -1    0    0    0  501  0.00000000000E+00  0.00000000000E+00  0.13374940845E+04  0.13374940845E+04  0.50400001928E-02 0. -1.
        1   -1    0    0  501    0  0.00000000000E+00  0.00000000000E+00 -0.75172307389E+03  0.75172307390E+03  0.50400001928E-02 0.  1.
    10030    2    1    2    0    0  0.00000000000E+00  0.00000000000E+00  0.58577101062E+03  0.20892171584E+04  0.20054178263E+04 0.  0.
        5    1    3    3  502    0  0.77284858687E+03 -0.12376102939E+03  0.94580504703E+03  0.12276730052E+04  0.46999998093E+01 0. -1.
       -5    1    3    3    0  502 -0.77284858687E+03  0.12376102939E+03 -0.36003403642E+03  0.86154415325E+03  0.46999998093E+01 0.  1.
</event>
<event>
 5   0  0.8022574E-05  0.1999060E+04  0.7818609E-02  0.8607060E-01
       -2   -1    0    0    0  501  0.00000000000E+00  0.00000000000E+00  0.12546210727E+04  0.12546210727E+04  0.25500000920E-02 0.  1.
        2   -1    0    0  501    0  0.00000000000E+00  0.00000000000E+00 -0.79630448007E+03  0.79630448008E+03  0.25500000920E-02 0. -1.
    10030    2    1    2    0    0  0.00000000000E+00  0.00000000000E+00  0.45831659259E+03  0.20509255527E+04  0.19990601601E+04 0.  0.
        1    1    3    3  502    0  0.75233726347E+03 -0.50354973335E+02  0.90231684993E+03  0.11758922906E+04  0.50400001928E-02 0.  1.
       -1    1    3    3    0  502 -0.75233726347E+03  0.50354973335E+02 -0.44400025734E+03  0.87503326216E+03  0.50400001928E-02 0. -1.
</event>
<event>
 5   0  0.3970042E-05  0.2002217E+04  0.7818609E-02  0.8605585E-01
       -1   -1    0    0    0  501  0.00000000000E+00  0.00000000000E+00  0.45173138052E+03  0.45173138055E+03  0.50400001928E-02 0. -1.
        1   -1    0    0  501    0  0.00000000000E+00  0.00000000000E+00 -0.22186149723E+04  0.22186149723E+04  0.50400001928E-02 0.  1.
    10030    2    1    2    0    0  0.00000000000E+00  0.00000000000E+00 -0.17668835918E+04  0.26703463528E+04  0.20022167758E+04 0.  0.
        3    1    3    3  502    0  0.86497055020E+03 -0.18884316000E+03 -0.26018773146E+03  0.92278570513E+03  0.10100000352E+00 0. -1.
       -3    1    3    3    0  502 -0.86497055020E+03  0.18884316000E+03 -0.15066958603E+04  0.17475606477E+04  0.10100000352E+00 0.  1.
</event>
<event>
 5   0  0.3772949E-05  0.2001834E+04  0.7818609E-02  0.8605763E-01
       -1   -1    0    0    0  501  0.00000000000E+00  0.00000000000E+00  0.11838480599E+04  0.11838480599E+04  0.50400001928E-02 0. -1.
        1   -1    0    0  501    0  0.00000000000E+00  0.00000000000E+00 -0.84625327461E+03  0.84625327462E+03  0.50400001928E-02 0.  1.
    10030    2    1    2    0    0  0.00000000000E+00  0.00000000000E+00  0.33759478530E+03  0.20301013345E+04  0.20018344561E+04 0.  0.
        2    1    3    3  502    0 -0.62959463264E+03  0.75860472569E+03 -0.67502501472E+01  0.98585805123E+03  0.25500000920E-02 0.  1.
       -2    1    3    3    0  502  0.62959463264E+03 -0.75860472569E+03  0.34434503545E+03  0.10442432833E+04  0.25500000920E-02 0. -1.
</event>
<event>
 5   0  0.8022574E-05  0.2021711E+04  0.7818609E-02  0.8596537E-01
       -2   -1    0    0    0  501  0.00000000000E+00  0.00000000000E+00  0.48925810625E+03  0.48925810626E+03  0.25500000920E-02 0. -1.
        2   -1    0    0  501    0  0.00000000000E+00  0.00000000000E+00 -0.20885265141E+04  0.20885265141E+04  0.25500000920E-02 0.  1.
    10030    2    1    2    0    0  0.00000000000E+00  0.00000000000E+00 -0.15992684079E+04  0.25777846204E+04  0.20217106887E+04 0.  0.
        1    1    3    3  502    0 -0.67133424014E+03 -0.23757947414E+03  0.11511604447E+03  0.72137741317E+03  0.50400001928E-02 0.  1.
       -1    1    3    3    0  502  0.67133424014E+03  0.23757947414E+03 -0.17143844523E+04  0.18564072072E+04  0.50400001928E-02 0. -1.
</event>
<event>
 5   0  0.7935008E-05  0.1994857E+04  0.7818609E-02  0.8609029E-01
       -2   -1    0    0    0  501  0.00000000000E+00  0.00000000000E+00  0.83692855048E+03  0.83692855048E+03  0.25500000920E-02 0.  1.
        2   -1    0    0  501    0  0.00000000000E+00  0.00000000000E+00 -0.11887076096E+04  0.11887076096E+04  0.25500000920E-02 0. -1.
    10030    2    1    2    0    0  0.00000000000E+00  0.00000000000E+00 -0.35177905915E+03  0.20256361601E+04  0.19948567233E+04 0.  0.
        3    1    3    3  502    0 -0.41714090530E+03 -0.42067110172E+03 -0.99069972512E+03  0.11543208680E+04  0.10100000352E+00 0. -1.
       -3    1    3    3    0  502  0.41714090530E+03  0.42067110172E+03  0.63892066597E+03  0.87131529213E+03  0.10100000352E+00 0.  1.
</event>
<event>
 5   0  0.8022574E-05  0.2003696E+04  0.7818609E-02  0.8604894E-01
        2   -1    0    0  501    0  0.00000000000E+00  0.00000000000E+00  0.18972787875E+04  0.18972787875E+04  0.25500000920E-02 0.  1.
       -2   -1    0    0    0  501  0.00000000000E+00  0.00000000000E+00 -0.52902078570E+03  0.52902078570E+03  0.25500000920E-02 0. -1.
    10030    2    1    2    0    0  0.00000000000E+00  0.00000000000E+00  0.13682580018E+04  0.24262995732E+04  0.20036964988E+04 0.  0.
        1    1    3    3  502    0  0.37941916046E+03 -0.12196104085E+03  0.17971581359E+04  0.18408179596E+04  0.50400001928E-02 0.  1.
       -1    1    3    3    0  502 -0.37941916046E+03  0.12196104085E+03 -0.42890013412E+03  0.58548161361E+03  0.50400001928E-02 0. -1.
</event>
<event>
 5   0  0.7935008E-05  0.1939952E+04  0.7818609E-02  0.8635221E-01
       -2   -1    0    0    0  501  0.00000000000E+00  0.00000000000E+00  0.90916274494E+03  0.90916274494E+03  0.25500000920E-02 0. -1.
        2   -1    0    0  501    0  0.00000000000E+00  0.00000000000E+00 -0.10348573439E+04  0.10348573439E+04  0.25500000920E-02 0.  1.
    10030    2    1    2    0    0  0.00000000000E+00  0.00000000000E+00 -0.12569459897E+03  0.19440200889E+04  0.19399523122E+04 0.  0.
        3    1    3    3  502    0 -0.44539930914E+03 -0.78195050309E+03  0.29988767267E+03  0.94855667215E+03  0.10100000352E+00 0. -1.
       -3    1    3    3    0  502  0.44539930914E+03  0.78195050309E+03 -0.42558227164E+03  0.99546341671E+03  0.10100000352E+00 0.  1.
</event>
<event>
 5   0  0.7843846E-05  0.2005364E+04  0.7818609E-02  0.8604117E-01
       -2   -1    0    0    0  501  0.00000000000E+00  0.00000000000E+00  0.85264877294E+03  0.85264877295E+03  0.25500000920E-02 0. -1.
        2   -1    0    0  501    0  0.00000000000E+00  0.00000000000E+00 -0.11791150657E+04  0.11791150657E+04  0.25500000920E-02 0.  1.
    10030    2    1    2    0    0  0.00000000000E+00  0.00000000000E+00 -0.32646629271E+03  0.20317638386E+04  0.20053638212E+04 0.  0.
        2    1    3    3  502    0 -0.15840435494E+03  0.79129973385E+03 -0.76615026108E+03  0.11127593770E+04  0.25500000920E-02 0.  1.
       -2    1    3    3    0  502  0.15840435494E+03 -0.79129973385E+03  0.43968396837E+03  0.91900446164E+03  0.25500000920E-02 0. -1.
</event>
<event>
 5   0  0.8022574E-05  0.1906003E+04  0.7818609E-02  0.8651874E-01
       -2   -1    0    0    0  501  0.00000000000E+00  0.00000000000E+00  0.10565793145E+04  0.10565793145E+04  0.25500000920E-02 0. -1.
        2   -1    0    0  501    0  0.00000000000E+00  0.00000000000E+00 -0.85957734046E+03  0.85957734046E+03  0.25500000920E-02 0.  1.
    10030    2    1    2    0    0  0.00000000000E+00  0.00000000000E+00  0.19700197404E+03  0.19161566550E+04  0.19060027672E+04 0.  0.
        1    1    3    3  502    0 -0.88043028330E+02  0.36380664585E+03  0.97958581079E+03  0.10486635357E+04  0.50400001928E-02 0. -1.
       -1    1    3    3    0  502  0.88043028330E+02 -0.36380664585E+03 -0.78258383675E+03  0.86749311926E+03  0.50400001928E-02 0.  1.
</event>
<event>
 5   0  0.3549426E-05  0.2007198E+04  0.7818609E-02  0.8603263E-01
       -1   -1    0    0    0  501  0.00000000000E+00  0.00000000000E+00  0.83555796569E+03  0.83555796571E+03  0.50400001928E-02 0.  1.
        1   -1    0    0  501    0  0.00000000000E+00  0.00000000000E+00 -0.12054346865E+04  0.12054346865E+04  0.50400001928E-02 0. -1.
    10030    2    1    2    0    0  0.00000000000E+00  0.00000000000E+00 -0.36987672083E+03  0.20409926522E+04  0.20071976031E+04 0.  0.
        5    1    3    3  502    0  0.37383404268E+03 -0.81309855246E+03  0.27691980603E+03  0.93679657154E+03  0.46999998093E+01 0.  1.
       -5    1    3    3    0  502 -0.37383404268E+03  0.81309855246E+03 -0.64679652686E+03  0.11041960807E+04  0.46999998093E+01 0. -1.
</event>
<event>
 5   0  0.3549426E-05  0.1995453E+04  0.7818609E-02  0.8608749E-01
       -1   -1    0    0    0  501  0.00000000000E+00  0.00000000000E+00  0.17741737259E+04  0.17741737259E+04  0.50400001928E-02 0.  1.
        1   -1    0    0  501    0  0.00000000000E+00  0.00000000000E+00 -0.56108288072E+03  0.56108288074E+03  0.50400001928E-02 0. -1.
    10030    2    1    2    0    0  0.00000000000E+00  0.00000000000E+00  0.12130908451E+04  0.23352566066E+04  0.19954533370E+04 0.  0.
        5    1    3    3  502    0 -0.53324607403E+03 -0.74346577261E+03  0.10722316631E+04  0.14095373567E+04  0.46999998093E+01 0.  1.
       -5    1    3    3    0  502  0.53324607403E+03  0.74346577261E+03  0.14085918203E+03  0.92571924992E+03  0.46999998093E+01 0. -1.
</event>
<event>
 5   0  0.7843846E-05  0.2006351E+04  0.7818609E-02  0.8603657E-01
       -2   -1    0    0    0  501  0.00000000000E+00  0.00000000000E+00  0.12647372600E+04  0.12647372600E+04  0.25500000920E-02 0. -1.
        2   -1    0    0  501    0  0.00000000000E+00  0.00000000000E+00 -0.79570732959E+03  0.79570732959E+03  0.25500000920E-02 0.  1.
    10030    2    1    2    0    0  0.00000000000E+00  0.00000000000E+00  0.46902993044E+03  0.20604445896E+04  0.20063506252E+04 0.  0.
        2    1    3    3  502    0 -0.65176565527E+03  0.58663780954E+02 -0.54632746666E+03  0.85247499049E+03  0.25500000920E-02 0.  1.
       -2    1    3    3    0  502  0.65176565527E+03 -0.58663780954E+02  0.10153573971E+04  0.12079695991E+04  0.25500000920E-02 0. -1.
</event>
<event>
 5   0  0.3970042E-05  0.1997638E+04  0.7818609E-02  0.8607726E-01
       -1   -1    0    0    0  501  0.00000000000E+00  0.00000000000E+00  0.16188943153E+04  0.16188943153E+04  0.50400001928E-02 0. -1.
        1   -1    0    0  501    0  0.00000000000E+00  0.00000000000E+00 -0.61624724882E+03  0.61624724884E+03  0.50400001928E-02 0.  1.
    10030    2    1    2    0    0  0.00000000000E+00  0.00000000000E+00  0.10026470664E+04  0.22351415641E+04  0.19976377729E+04 0.  0.
        3    1    3    3  502    0  0.19021377778E+02  0.97209143386E+03  0.24540375334E+03  0.10027694555E+04  0.10100000352E+00 0.  1.
       -3    1    3    3    0  502 -0.19021377778E+02 -0.97209143386E+03  0.75724331311E+03  0.12323721086E+04  0.10100000352E+00 0. -1.
</event>
<event>
 5   0  0.3549426E-05  0.1992595E+04  0.7818609E-02  0.8610091E-01
       -1   -1    0    0    0  501  0.00000000000E+00  0.00000000000E+00  0.15328419491E+04  0.15328419491E+04  0.50400001928E-02 0. -1.
        1   -1    0    0  501    0  0.00000000000E+00  0.00000000000E+00 -0.64756100474E+03  0.64756100476E+03  0.50400001928E-02 0.  1.
    10030    2    1    2    0    0  0.00000000000E+00  0.00000000000E+00  0.88528094436E+03  0.21804029539E+04  0.19925949641E+04 0.  0.
        5    1    3    3  502    0  0.25861367438E+03 -0.93015270997E+03  0.17344204033E+03  0.98090230288E+03  0.46999998093E+01 0.  1.
       -5    1    3    3    0  502 -0.25861367438E+03  0.93015270997E+03  0.71183890403E+03  0.11995006510E+04  0.46999998093E+01 0. -1.
</event>
<event>
 5   0  0.8011197E-05  0.1994121E+04  0.7818609E-02  0.8609374E-01
        2   -1    0    0  501    0  0.00000000000E+00  0.00000000000E+00  0.78610845419E+03  0.78610845420E+03  0.25500000920E-02 0. -1.
       -2   -1    0    0    0  501  0.00000000000E+00  0.00000000000E+00 -0.12646212591E+04  0.12646212591E+04  0.25500000920E-02 0.  1.
    10030    2    1    2    0    0  0.00000000000E+00  0.00000000000E+00 -0.47851280493E+03  0.20507297133E+04  0.19941208220E+04 0.  0.
        5    1    3    3  502    0  0.76805770348E+03 -0.18108115184E+03 -0.86598635504E+03  0.11716046588E+04  0.46999998093E+01 0.  1.
       -5    1    3    3    0  502 -0.76805770348E+03  0.18108115184E+03  0.38747355011E+03  0.87912505451E+03  0.46999998093E+01 0. -1.
</event>
<event>
 5   0  0.7935008E-05  0.1946652E+04  0.7818609E-02  0.8631977E-01
        2   -1    0    0  501    0  0.00000000000E+00  0.00000000000E+00  0.80961859842E+03  0.80961859843E+03  0.25500000920E-02 0.  1.
       -2   -1    0    0    0  501  0.00000000000E+00  0.00000000000E+00 -0.11701359560E+04  0.11701359560E+04  0.25500000920E-02 0. -1.
    10030    2    1    2    0    0  0.00000000000E+00  0.00000000000E+00 -0.36051735760E+03  0.19797545544E+04  0.19466523395E+04 0.  0.
        3    1    3    3  502    0  0.12057198462E+03 -0.95638262331E+03 -0.31730358632E+03  0.10148334355E+04  0.10100000352E+00 0. -1.
       -3    1    3    3    0  502 -0.12057198462E+03  0.95638262331E+03 -0.43213771281E+02  0.96492111899E+03  0.10100000352E+00 0.  1.
</event>
<event>
 5   0  0.3549426E-05  0.1995865E+04  0.7818609E-02  0.8608557E-01
       -1   -1    0    0    0  501  0.00000000000E+00  0.00000000000E+00  0.54113284464E+03  0.54113284467E+03  0.50400001928E-02 0. -1.
        1   -1    0    0  501    0  0.00000000000E+00  0.00000000000E+00 -0.18403406777E+04  0.18403406777E+04  0.50400001928E-02 0.  1.
    10030    2    1    2    0    0  0.00000000000E+00  0.00000000000E+00 -0.12992078331E+04  0.23814735224E+04  0.19958645105E+04 0.  0.
        5    1    3    3  502    0  0.36393098784E+03 -0.19673590520E+03  0.43397768743E+03  0.59959111359E+03  0.46999998093E+01 0. -1.
       -5    1    3    3    0  502 -0.36393098784E+03  0.19673590520E+03 -0.17331855205E+04  0.17818824088E+04  0.46999998093E+01 0.  1.
</event>
<event>
 5   0  0.7843846E-05  0.2039236E+04  0.7818609E-02  0.8588493E-01
        2   -1    0    0  501    0  0.00000000000E+00  0.00000000000E+00  0.13242037783E+04  0.13242037783E+04  0.25500000920E-02 0. -1.
       -2   -1    0    0    0  501  0.00000000000E+00  0.00000000000E+00 -0.78509111565E+03  0.78509111565E+03  0.25500000920E-02 0.  1.
    10030    2    1    2    0    0  0.00000000000E+00  0.00000000000E+00  0.53911266266E+03  0.21092948940E+04  0.20392357604E+04 0.  0.
        2    1    3    3  502    0 -0.88693165378E+03 -0.17232803732E+03  0.75831086364E+03  0.11795677500E+04  0.25500000920E-02 0.  1.
       -2    1    3    3    0  502  0.88693165378E+03  0.17232803732E+03 -0.21919820097E+03  0.92972714397E+03  0.25500000920E-02 0. -1.
</event>
<event>
 5   0  0.3818907E-05  0.1979111E+04  0.7818609E-02  0.8616450E-01
        1   -1    0    0  501    0  0.00000000000E+00  0.00000000000E+00  0.22369332052E+04  0.22369332052E+04  0.50400001928E-02 0.  1.
       -1   -1    0    0    0  501  0.00000000000E+00  0.00000000000E+00 -0.43775097138E+03  0.43775097141E+03  0.50400001928E-02 0. -1.
    10030    2    1    2    0    0  0.00000000000E+00  0.00000000000E+00  0.17991822338E+04  0.26746841766E+04  0.19791105917E+04 0.  0.
        1    1    3    3  502    0  0.40681667568E+03  0.98938294814E+02  0.21113378498E+04  0.21524488634E+04  0.50400001928E-02 0.  1.
       -1    1    3    3    0  502 -0.40681667568E+03 -0.98938294814E+02 -0.31215561592E+03  0.52223531321E+03  0.50400001928E-02 0. -1.
</event>
<event>
 5   0  0.2859625E-05  0.2001070E+04  0.7818609E-02  0.8606120E-01
       -3   -1    0    0    0  501  0.00000000000E+00  0.00000000000E+00  0.18263166476E+04  0.18263166504E+04  0.10100000352E+00 0. -1.
        3   -1    0    0  501    0  0.00000000000E+00  0.00000000000E+00 -0.54813641567E+03  0.54813642497E+03  0.10100000352E+00 0.  1.
    10030    2    1    2    0    0  0.00000000000E+00  0.00000000000E+00  0.12781802319E+04  0.23744530754E+04  0.20010703890E+04 0.  0.
        1    1    3    3  502    0 -0.13783357575E+03 -0.39401754841E+03 -0.43987507848E+03  0.60641405636E+03  0.50400001928E-02 0.  1.
       -1    1    3    3    0  502  0.13783357575E+03  0.39401754841E+03  0.17180553104E+04  0.17680390190E+04  0.50400001928E-02 0. -1.
</event>
<event>
 5   0  0.8022574E-05  0.2010271E+04  0.7818609E-02  0.8601833E-01
       -2   -1    0    0    0  501  0.00000000000E+00  0.00000000000E+00  0.59220382025E+03  0.59220382026E+03  0.25500000920E-02 0. -1.
        2   -1    0    0  501    0  0.00000000000E+00  0.00000000000E+00 -0.17059966642E+04  0.17059966642E+04  0.25500000920E-02 0.  1.
    10030    2    1    2    0    0  0.00000000000E+00  0.00000000000E+00 -0.11137928440E+04  0.22982004845E+04  0.20102713667E+04 0.  0.
        1    1    3    3  502    0 -0.59181283432E+03  0.39060544726E+03  0.25751497773E+03  0.75440639583E+03  0.50400001928E-02 0. -1.
       -1    1    3    3    0  502  0.59181283432E+03 -0.39060544726E+03 -0.13713078217E+04  0.15437940887E+04  0.50400001928E-02 0.  1.
</event>
<event>
 5   0  0.3772949E-05  0.2011377E+04  0.7818609E-02  0.8601320E-01
        1   -1    0    0  501    0  0.00000000000E+00  0.00000000000E+00  0.12471110151E+04  0.12471110151E+04  0.50400001928E-02 0. -1.
       -1   -1    0    0    0  501  0.00000000000E+00  0.00000000000E+00 -0.81100183856E+03  0.81100183858E+03  0.50400001928E-02 0.  1.
    10030    2    1    2    0    0  0.00000000000E+00  0.00000000000E+00  0.43610917652E+03  0.20581128537E+04  0.20113769673E+04 0.  0.
        2    1    3    3  502    0  0.31085530057E+03 -0.48713771336E+03  0.10602684777E+04  0.12075195296E+04  0.25500000920E-02 0. -1.
       -2    1    3    3    0  502 -0.31085530057E+03  0.48713771336E+03 -0.62415930116E+03  0.85059332404E+03  0.25500000920E-02 0.  1.
</event>
<event>
 5   0  0.3970042E-05  0.1936123E+04  0.7818609E-02  0.8637082E-01
        1   -1    0    0  501    0  0.00000000000E+00  0.00000000000E+00  0.16596130047E+04  0.16596130047E+04  0.50400001928E-02 0. -1.
       -1   -1    0    0    0  501  0.00000000000E+00  0.00000000000E+00 -0.56467582687E+03  0.56467582690E+03  0.50400001928E-02 0.  1.
    10030    2    1    2    0    0  0.00000000000E+00  0.00000000000E+00  0.10949371778E+04  0.22242888316E+04  0.19361232871E+04 0.  0.
        3    1    3    3  502    0 -0.73662570463E+03 -0.39084183021E+03 -0.17413876624E+02  0.83407314923E+03  0.10100000352E+00 0.  1.
       -3    1    3    3    0  502  0.73662570463E+03  0.39084183021E+03  0.11123510544E+04  0.13902156824E+04  0.10100000352E+00 0. -1.
</event>
<event>
 5   0  0.3549426E-05  0.1999860E+04  0.7818609E-02  0.8606686E-01
       -1   -1    0    0    0  501  0.00000000000E+00  0.00000000000E+00  0.54334967598E+03  0.54334967600E+03  0.50400001928E-02 0.  1.
        1   -1    0    0  501    0  0.00000000000E+00  0.00000000000E+00 -0.18401783661E+04  0.18401783661E+04  0.50400001928E-02 0. -1.
    10030    2    1    2    0    0  0.00000000000E+00  0.00000000000E+00 -0.12968286901E+04  0.23835280421E+04  0.19998603141E+04 0.  0.
        5    1    3    3  502    0  0.66999139795E+01 -0.22032767702E+02  0.54302040637E+03  0.54352882484E+03  0.46999998093E+01 0.  1.
       -5    1    3    3    0  502 -0.66999139795E+01  0.22032767702E+02 -0.18398490965E+04  0.18399992173E+04  0.46999998093E+01 0. -1.
</event>
<event>
 5   0  0.3772949E-05  0.1998420E+04  0.7818609E-02  0.8607360E-01
        1   -1    0    0  501    0  0.00000000000E+00  0.00000000000E+00  0.24823819463E+04  0.24823819464E+04  0.50400001928E-02 0.  1.
       -1   -1    0    0    0  501  0.00000000000E+00  0.00000000000E+00 -0.40220250008E+03  0.40220250011E+03  0.50400001928E-02 0. -1.
    10030    2    1    2    0    0  0.00000000000E+00  0.00000000000E+00  0.20801794463E+04  0.28845844465E+04  0.19984196006E+04 0.  0.
        2    1    3    3  502    0  0.85531355165E+03  0.28492097503E+03  0.16620719301E+04  0.18908263629E+04  0.25500000920E-02 0.  1.
       -2    1    3    3    0  502 -0.85531355165E+03 -0.28492097503E+03  0.41810751616E+03  0.99375808360E+03  0.25500000920E-02 0. -1.
</event>
<event>
 5   0  0.7857136E-05  0.2019934E+04  0.7818609E-02  0.8597357E-01
       -2   -1    0    0    0  501  0.00000000000E+00  0.00000000000E+00  0.10736642947E+04  0.10736642947E+04  0.25500000920E-02 0. -1.
        2   -1    0    0  501    0  0.00000000000E+00  0.00000000000E+00 -0.95004876263E+03  0.95004876263E+03  0.25500000920E-02 0.  1.
    10030    2    1    2    0    0  0.00000000000E+00  0.00000000000E+00  0.12361553211E+03  0.20237130574E+04  0.20199340927E+04 0.  0.
        4    1    3    3  502    0  0.45619552464E+03 -0.89358921205E+03 -0.54235456973E+02  0.10047681993E+04  0.12699999809E+01 0. -1.
       -4    1    3    3    0  502 -0.45619552464E+03  0.89358921205E+03  0.17785098908E+03  0.10189448581E+04  0.12699999809E+01 0.  1.
</event>
<event>
 5   0  0.3787698E-05  0.1960029E+04  0.7818609E-02  0.8625540E-01
       -1   -1    0    0    0  501  0.00000000000E+00  0.00000000000E+00  0.60673208868E+03  0.60673208870E+03  0.50400001928E-02 0.  1.
        1   -1    0    0  501    0  0.00000000000E+00  0.00000000000E+00 -0.15829523580E+04  0.15829523580E+04  0.50400001928E-02 0. -1.
    10030    2    1    2    0    0  0.00000000000E+00  0.00000000000E+00 -0.97622026929E+03  0.21896844467E+04  0.19600285615E+04 0.  0.
        4    1    3    3  502    0 -0.54510806340E+03  0.81046700042E+03 -0.57767076360E+03  0.11347707626E+04  0.12699999809E+01 0. -1.
       -4    1    3    3    0  502  0.54510806340E+03 -0.81046700042E+03 -0.39854950570E+03  0.10549136841E+04  0.12699999809E+01 0.  1.
</event>
<event>
 5   0  0.3549426E-05  0.2000764E+04  0.7818609E-02  0.8606264E-01
       -1   -1    0    0    0  501  0.00000000000E+00  0.00000000000E+00  0.10989987916E+04  0.10989987916E+04  0.50400001928E-02 0. -1.
        1   -1    0    0  501    0  0.00000000000E+00  0.00000000000E+00 -0.91061406727E+03  0.91061406729E+03  0.50400001928E-02 0.  1.
    10030    2    1    2    0    0  0.00000000000E+00  0.00000000000E+00  0.18838472433E+03  0.20096128589E+04  0.20007636138E+04 0.  0.
        5    1    3    3  502    0  0.45409533310E+03  0.74859021429E+03  0.58022491807E+03  0.10503679955E+04  0.46999998093E+01 0. -1.
       -5    1    3    3    0  502 -0.45409533310E+03 -0.74859021429E+03 -0.39184019374E+03  0.95924486337E+03  0.46999998093E+01 0.  1.
</event>
<event>
 5   0  0.2859625E-05  0.1780613E+04  0.7818609E-02  0.8716678E-01
        4   -1    0    0  501    0  0.00000000000E+00  0.00000000000E+00  0.53537715287E+03  0.53537865919E+03  0.12699999809E+01 0.  1.
       -4   -1    0    0    0  501  0.00000000000E+00  0.00000000000E+00 -0.14805324226E+04  0.14805329673E+04  0.12699999809E+01 0. -1.
    10030    2    1    2    0    0  0.00000000000E+00  0.00000000000E+00 -0.94515526974E+03  0.20159116265E+04  0.17806125918E+04 0.  0.
        1    1    3    3  502    0  0.56516340425E+03  0.43711249295E+03 -0.10739675718E+04  0.12899160245E+04  0.50400001928E-02 0. -1.
       -1    1    3    3    0  502 -0.56516340425E+03 -0.43711249295E+03  0.12881230201E+03  0.72599560203E+03  0.50400001928E-02 0.  1.
</event>
<event>
 5   0  0.8022574E-05  0.2014551E+04  0.7818609E-02  0.8599847E-01
        2   -1    0    0  501    0  0.00000000000E+00  0.00000000000E+00  0.14517487055E+04  0.14517487055E+04  0.25500000920E-02 0. -1.
       -2   -1    0    0    0  501  0.00000000000E+00  0.00000000000E+00 -0.69888432560E+03  0.69888432561E+03  0.25500000920E-02 0.  1.
    10030    2    1    2    0    0  0.00000000000E+00  0.00000000000E+00  0.75286437987E+03  0.21506330311E+04  0.20145514786E+04 0.  0.
        1    1    3    3  502    0  0.23650444415E+03 -0.89432154436E+03  0.80192664667E+03  0.12242678316E+04  0.50400001928E-02 0. -1.
       -1    1    3    3    0  502 -0.23650444415E+03  0.89432154436E+03 -0.49062266794E+02  0.92636519950E+03  0.50400001928E-02 0.  1.
</event>
<event>
 5   0  0.7935008E-05  0.1996024E+04  0.7818609E-02  0.8608482E-01
       -2   -1    0    0    0  501  0.00000000000E+00  0.00000000000E+00  0.57117276746E+03  0.57117276747E+03  0.25500000920E-02 0.  1.
        2   -1    0    0  501    0  0.00000000000E+00  0.00000000000E+00 -0.17438293389E+04  0.17438293389E+04  0.25500000920E-02 0. -1.
    10030    2    1    2    0    0  0.00000000000E+00  0.00000000000E+00 -0.11726565714E+04  0.23150021063E+04  0.19960238771E+04 0.  0.
        3    1    3    3  502    0  0.12434304235E+03  0.68967385370E+03  0.23780125963E+03  0.74004098936E+03  0.10100000352E+00 0.  1.
       -3    1    3    3    0  502 -0.12434304235E+03 -0.68967385370E+03 -0.14104578310E+04  0.15749611170E+04  0.10100000352E+00 0. -1.
</event>
<event>
 5   0  0.7935008E-05  0.1995793E+04  0.7818609E-02  0.8608590E-01
        2   -1    0    0  501    0  0.00000000000E+00  0.00000000000E+00  0.77534397002E+03  0.77534397002E+03  0.25500000920E-02 0.  1.
       -2   -1    0    0    0  501  0.00000000000E+00  0.00000000000E+00 -0.12843296106E+04  0.12843296106E+04  0.25500000920E-02 0. -1.
    10030    2    1    2    0    0  0.00000000000E+00  0.00000000000E+00 -0.50898564056E+03  0.20596735806E+04  0.19957927939E+04 0.  0.
        3    1    3    3  502    0  0.12057227957E+03  0.78754430251E+03 -0.87458563991E+03  0.11830738585E+04  0.10100000352E+00 0. -1.
       -3    1    3    3    0  502 -0.12057227957E+03 -0.78754430251E+03  0.36559999935E+03  0.87659972207E+03  0.10100000352E+00 0.  1.
</event>
<event>
 5   0  0.3787698E-05  0.2003490E+04  0.7818609E-02  0.8604991E-01
       -1   -1    0    0    0  501  0.00000000000E+00  0.00000000000E+00  0.23003850489E+04  0.23003850489E+04  0.50400001928E-02 0.  1.
        1   -1    0    0  501    0  0.00000000000E+00  0.00000000000E+00 -0.43622846066E+03  0.43622846069E+03  0.50400001928E-02 0. -1.
    10030    2    1    2    0    0  0.00000000000E+00  0.00000000000E+00  0.18641565883E+04  0.27366135096E+04  0.20034903832E+04 0.  0.
        4    1    3    3  502    0 -0.86439132028E+03 -0.48186214122E+03  0.71990539496E+03  0.12237764781E+04  0.12699999809E+01 0. -1.
       -4    1    3    3    0  502  0.86439132028E+03  0.48186214122E+03  0.11442511933E+04  0.15128370315E+04  0.12699999809E+01 0.  1.
</event>
<event>
 5   0  0.8022574E-05  0.1989645E+04  0.7818609E-02  0.8611477E-01
        2   -1    0    0  501    0  0.00000000000E+00  0.00000000000E+00  0.79965885767E+03  0.79965885768E+03  0.25500000920E-02 0.  1.
       -2   -1    0    0    0  501  0.00000000000E+00  0.00000000000E+00 -0.12376177350E+04  0.12376177350E+04  0.25500000920E-02 0. -1.
    10030    2    1    2    0    0  0.00000000000E+00  0.00000000000E+00 -0.43795887729E+03  0.20372765926E+04  0.19896451786E+04 0.  0.
        1    1    3    3  502    0  0.52443866301E+03 -0.38521250298E+02  0.64572058425E+03  0.83275138603E+03  0.50400001928E-02 0.  1.
       -1    1    3    3    0  502 -0.52443866301E+03  0.38521250298E+02 -0.10836794615E+04  0.12045252066E+04  0.50400001928E-02 0. -1.
</event>
<event>
 5   0  0.3772949E-05  0.2009465E+04  0.7818609E-02  0.8602208E-01
       -1   -1    0    0    0  501  0.00000000000E+00  0.00000000000E+00  0.87344745098E+03  0.87344745099E+03  0.50400001928E-02 0. -1.
        1   -1    0    0  501    0  0.00000000000E+00  0.00000000000E+00 -0.11557503431E+04  0.11557503431E+04  0.50400001928E-02 0.  1.
    10030    2    1    2    0    0  0.00000000000E+00  0.00000000000E+00 -0.28230289211E+03  0.20291977941E+04  0.20094647956E+04 0.  0.
        2    1    3    3  502    0 -0.55594867466E+03  0.47815673299E+03  0.55245187738E+03  0.91810449677E+03  0.25500000920E-02 0. -1.
       -2    1    3    3    0  502  0.55594867466E+03 -0.47815673299E+03 -0.83475476949E+03  0.11110932973E+04  0.25500000920E-02 0.  1.
</event>
<event>
 5   0  0.3818907E-05  0.1976222E+04  0.7818609E-02  0.8617819E-01
        1   -1    0    0  501    0  0.00000000000E+00  0.00000000000E+00  0.98077974003E+03  0.98077974004E+03  0.50400001928E-02 0.  1.
       -1   -1    0    0    0  501  0.00000000000E+00  0.00000000000E+00 -0.99549740476E+03  0.99549740477E+03  0.50400001928E-02 0. -1.
    10030    2    1    2    0    0  0.00000000000E+00  0.00000000000E+00 -0.14717664727E+02  0.19762771448E+04  0.19762223416E+04 0.  0.
        1    1    3    3  502    0 -0.13769442022E+03 -0.88792859045E+03 -0.41845021310E+03  0.99120003832E+03  0.50400001928E-02 0. -1.
       -1    1    3    3    0  502  0.13769442022E+03  0.88792859045E+03  0.40373254837E+03  0.98507710649E+03  0.50400001928E-02 0.  1.
</event>
<event>
 5   0  0.3549426E-05  0.2002670E+04  0.7818609E-02  0.8605373E-01
        1   -1    0    0  501    0  0.00000000000E+00  0.00000000000E+00  0.14223908951E+04  0.14223908951E+04  0.50400001928E-02 0.  1.
       -1   -1    0    0    0  501  0.00000000000E+00  0.00000000000E+00 -0.70492019358E+03  0.70492019360E+03  0.50400001928E-02 0. -1.
    10030    2    1    2    0    0  0.00000000000E+00  0.00000000000E+00  0.71747070155E+03  0.21273110887E+04  0.20026702826E+04 0.  0.
        5    1    3    3  502    0 -0.72298229836E+03  0.13668079975E+03  0.10801696213E+04  0.13069711341E+04  0.46999998093E+01 0.  1.
       -5    1    3    3    0  502  0.72298229836E+03 -0.13668079975E+03 -0.36269891971E+03  0.82033995461E+03  0.46999998093E+01 0. -1.
</event>
<event>
 5   0  0.7843846E-05  0.2010176E+04  0.7818609E-02  0.8601878E-01
       -2   -1    0    0    0  501  0.00000000000E+00  0.00000000000E+00  0.19962614842E+04  0.19962614842E+04  0.25500000920E-02 0. -1.
        2   -1    0    0  501    0  0.00000000000E+00  0.00000000000E+00 -0.50604683167E+03  0.50604683168E+03  0.25500000920E-02 0.  1.
    10030    2    1    2    0    0  0.00000000000E+00  0.00000000000E+00  0.14902146525E+04  0.25023083158E+04  0.20101759120E+04 0.  0.
        2    1    3    3  502    0  0.34033613564E+03 -0.13751831895E+03  0.19098375938E+04  0.19447929473E+04  0.25500000920E-02 0. -1.
       -2    1    3    3    0  502 -0.34033613564E+03  0.13751831895E+03 -0.41962294130E+03  0.55751536852E+03  0.25500000920E-02 0.  1.
</event>
<event>
 5   0  0.8022574E-05  0.1912051E+04  0.7818609E-02  0.8648881E-01
        2   -1    0    0  501    0  0.00000000000E+00  0.00000000000E+00  0.17230978994E+04  0.17230978994E+04  0.25500000920E-02 0.  1.
       -2   -1    0    0    0  501  0.00000000000E+00  0.00000000000E+00 -0.53043112086E+03  0.53043112086E+03  0.25500000920E-02 0. -1.
    10030    2    1    2    0    0  0.00000000000E+00  0.00000000000E+00  0.11926667786E+04  0.22535290203E+04  0.19120509932E+04 0.  0.
        1    1    3    3  502    0  0.14347092555E+03  0.93853007358E+03  0.46423559094E+03  0.10568525391E+04  0.50400001928E-02 0. -1.
       -1    1    3    3    0  502 -0.14347092555E+03 -0.93853007358E+03  0.72843118763E+03  0.11966764812E+04  0.50400001928E-02 0.  1.
</event>
<event>
 5   0  0.7935008E-05  0.1999493E+04  0.7818609E-02  0.8606858E-01
       -2   -1    0    0    0  501  0.00000000000E+00  0.00000000000E+00  0.64884534199E+03  0.64884534199E+03  0.25500000920E-02 0.  1.
        2   -1    0    0  501    0  0.00000000000E+00  0.00000000000E+00 -0.15404175063E+04  0.15404175063E+04  0.25500000920E-02 0. -1.
    10030    2    1    2    0    0  0.00000000000E+00  0.00000000000E+00 -0.89157216435E+03  0.21892628483E+04  0.19994926594E+04 0.  0.
        3    1    3    3  502    0  0.85074939981E+03  0.16696904776E+03  0.99297828910E+02  0.87264727881E+03  0.10100000352E+00 0.  1.
       -3    1    3    3    0  502 -0.85074939981E+03 -0.16696904776E+03 -0.99086999326E+03  0.13166155695E+04  0.10100000352E+00 0. -1.
</event>
<event>
 5   0  0.2859625E-05  0.1998523E+04  0.7818609E-02  0.8607312E-01
       -3   -1    0    0    0  501  0.00000000000E+00  0.00000000000E+00  0.11365033179E+04  0.11365033223E+04  0.10100000352E+00 0.  1.
        3   -1    0    0  501    0  0.00000000000E+00  0.00000000000E+00 -0.87859240882E+03  0.87859241462E+03  0.10100000352E+00 0. -1.
    10030    2    1    2    0    0  0.00000000000E+00  0.00000000000E+00  0.25791090904E+03  0.20150957370E+04  0.19985226524E+04 0.  0.
        4    1    3    3  502    0 -0.66944389957E+03 -0.38586599515E+03  0.76782952043E+03  0.10893169815E+04  0.12699999809E+01 0.  1.
       -4    1    3    3    0  502  0.66944389957E+03  0.38586599515E+03 -0.50991861140E+03  0.92577875544E+03  0.12699999809E+01 0. -1.
</event>
<event>
 5   0  0.2859625E-05  0.2008281E+04  0.7818609E-02  0.8602759E-01
        4   -1    0    0  501    0  0.00000000000E+00  0.00000000000E+00  0.10903326192E+04  0.10903333589E+04  0.12699999809E+01 0. -1.
       -4   -1    0    0    0  501  0.00000000000E+00  0.00000000000E+00 -0.92476009824E+03  0.92476097030E+03  0.12699999809E+01 0.  1.
    10030    2    1    2    0    0  0.00000000000E+00  0.00000000000E+00  0.16557252098E+03  0.20150943292E+04  0.20082805819E+04 0.  0.
        4    1    3    3  502    0 -0.27304425964E+03 -0.52037168880E+03 -0.73419750379E+03  0.94041876295E+03  0.12699999809E+01 0.  1.
       -4    1    3    3    0  502  0.27304425964E+03  0.52037168880E+03  0.89977002477E+03  0.10746755662E+04  0.12699999809E+01 0. -1.
</event>
<event>
 5   0  0.7857136E-05  0.2023974E+04  0.7818609E-02  0.8595493E-01
       -2   -1    0    0    0  501  0.00000000000E+00  0.00000000000E+00  0.83619249006E+03  0.83619249006E+03  0.25500000920E-02 0. -1.
        2   -1    0    0  501    0  0.00000000000E+00  0.00000000000E+00 -0.12247393947E+04  0.12247393947E+04  0.25500000920E-02 0.  1.
    10030    2    1    2    0    0  0.00000000000E+00  0.00000000000E+00 -0.38854690460E+03  0.20609318847E+04  0.20239741936E+04 0.  0.
        4    1    3    3  502    0 -0.52872012963E+02  0.14993399533E+03 -0.12119429669E+04  0.12223268878E+04  0.12699999809E+01 0.  1.
       -4    1    3    3    0  502  0.52872012963E+02 -0.14993399533E+03  0.82339606226E+03  0.83860499697E+03  0.12699999809E+01 0. -1.
</event>
<event>
 5   0  0.8022574E-05  0.2009831E+04  0.7818609E-02  0.8602038E-01
       -2   -1    0    0    0  501  0.00000000000E+00  0.00000000000E+00  0.52490085376E+03  0.52490085376E+03  0.25500000920E-02 0. -1.
        2   -1    0    0  501    0  0.00000000000E+00  0.00000000000E+00 -0.19238962836E+04  0.19238962836E+04  0.25500000920E-02 0.  1.
    10030    2    1    2    0    0  0.00000000000E+00  0.00000000000E+00 -0.13989954299E+04  0.24487971374E+04  0.20098306414E+04 0.  0.
        1    1    3    3  502    0  0.65639362398E+03  0.58508729607E+03 -0.10675039197E+03  0.88576259790E+03  0.50400001928E-02 0. -1.
       -1    1    3    3    0  502 -0.65639362398E+03 -0.58508729607E+03 -0.12922450379E+04  0.15630345395E+04  0.50400001928E-02 0.  1.
</event>
<event>
 5   0  0.3818907E-05  0.2003938E+04  0.7818609E-02  0.8604782E-01
       -1   -1    0    0    0  501  0.00000000000E+00  0.00000000000E+00  0.48376225146E+03  0.48376225149E+03  0.50400001928E-02 0. -1.
        1   -1    0    0  501    0  0.00000000000E+00  0.00000000000E+00 -0.20752785660E+04  0.20752785660E+04  0.50400001928E-02 0.  1.
    10030    2    1    2    0    0  0.00000000000E+00  0.00000000000E+00 -0.15915163146E+04  0.25590408175E+04  0.20039375555E+04 0.  0.
        1    1    3    3  502    0 -0.73871295400E+03  0.43854757543E+03 -0.14542782670E+04  0.16890666305E+04  0.50400001928E-02 0.  1.
       -1    1    3    3    0  502  0.73871295400E+03 -0.43854757543E+03 -0.13723804752E+03  0.86997418700E+03  0.50400001928E-02 0. -1.
</event>
<event>
 5   0  0.3549426E-05  0.1997832E+04  0.7818609E-02  0.8607635E-01
        1   -1    0    0  501    0  0.00000000000E+00  0.00000000000E+00  0.10188757592E+04  0.10188757593E+04  0.50400001928E-02 0. -1.
       -1   -1    0    0    0  501  0.00000000000E+00  0.00000000000E+00 -0.97934684283E+03  0.97934684284E+03  0.50400001928E-02 0.  1.
    10030    2    1    2    0    0  0.00000000000E+00  0.00000000000E+00  0.39528916417E+02  0.19982226021E+04  0.19978315826E+04 0.  0.
        5    1    3    3  502    0  0.69171457683E+02 -0.39180434891E+03 -0.89666556369E+03  0.98098244709E+03  0.46999998093E+01 0.  1.
       -5    1    3    3    0  502 -0.69171457683E+02  0.39180434891E+03  0.93619448011E+03  0.10172401550E+04  0.46999998093E+01 0. -1.
</event>
<event>
 5   0  0.8011197E-05  0.1998407E+04  0.7818609E-02  0.8607366E-01
       -2   -1    0    0    0  501  0.00000000000E+00  0.00000000000E+00  0.12703562550E+04  0.12703562550E+04  0.25500000920E-02 0.  1.
        2   -1    0    0  501    0  0.00000000000E+00  0.00000000000E+00 -0.78592728311E+03  0.78592728311E+03  0.25500000920E-02 0. -1.
    10030    2    1    2    0    0  0.00000000000E+00  0.00000000000E+00  0.48442897188E+03  0.20562835381E+04  0.19984070057E+04 0.  0.
        5    1    3    3  502    0  0.84919727147E+03  0.42118517233E+03 -0.82931751501E+02  0.95154228528E+03  0.46999998093E+01 0. -1.
       -5    1    3    3    0  502 -0.84919727147E+03 -0.42118517233E+03  0.56736072338E+03  0.11047412528E+04  0.46999998093E+01 0.  1.
</event>
<event>
 5   0  0.8011197E-05  0.1989324E+04  0.7818609E-02  0.8611628E-01
       -2   -1    0    0    0  501  0.00000000000E+00  0.00000000000E+00  0.19818450641E+04  0.19818450641E+04  0.25500000920E-02 0.  1.
        2   -1    0    0  501    0  0.00000000000E+00  0.00000000000E+00 -0.49920774213E+03  0.49920774214E+03  0.25500000920E-02 0. -1.
    10030    2    1    2    0    0  0.00000000000E+00  0.00000000000E+00  0.14826373220E+04  0.24810528063E+04  0.19893239050E+04 0.  0.
        5    1    3    3  502    0  0.41877321767E+03  0.45887261759E+03  0.17101126602E+04  0.18194621424E+04  0.46999998093E+01 0.  1.
       -5    1    3    3    0  502 -0.41877321767E+03 -0.45887261759E+03 -0.22747533823E+03  0.66159066386E+03  0.46999998093E+01 0. -1.
</event>
<event>
 5   0  0.8011197E-05  0.1996550E+04  0.7818609E-02  0.8608235E-01
        2   -1    0    0  501    0  0.00000000000E+00  0.00000000000E+00  0.13386585832E+04  0.13386585832E+04  0.25500000920E-02 0.  1.
       -2   -1    0    0    0  501  0.00000000000E+00  0.00000000000E+00 -0.74444153495E+03  0.74444153496E+03  0.25500000920E-02 0. -1.
    10030    2    1    2    0    0  0.00000000000E+00  0.00000000000E+00  0.59421704820E+03  0.20831001181E+04  0.19965500749E+04 0.  0.
        5    1    3    3  502    0  0.25386255316E+03  0.92000067541E+03 -0.82981972861E+01  0.95443092402E+03  0.46999998093E+01 0. -1.
       -5    1    3    3    0  502 -0.25386255316E+03 -0.92000067541E+03  0.60251524548E+03  0.11286691941E+04  0.46999998093E+01 0.  1.
</event>
<event>
 5   0  0.7857136E-05  0.1942322E+04  0.7818609E-02  0.8634072E-01
       -2   -1    0    0    0  501  0.00000000000E+00  0.00000000000E+00  0.13361746542E+04  0.13361746542E+04  0.25500000920E-02 0. -1.
        2   -1    0    0  501    0  0.00000000000E+00  0.00000000000E+00 -0.70586080002E+03  0.70586080002E+03  0.25500000920E-02 0.  1.
    10030    2    1    2    0    0  0.00000000000E+00  0.00000000000E+00  0.63031385414E+03  0.20420354542E+04  0.19423216112E+04 0.  0.
        4    1    3    3  502    0  0.46468048046E+03  0.17217189658E+02  0.12115275822E+04  0.12976999175E+04  0.12699999809E+01 0. -1.
       -4    1    3    3    0  502 -0.46468048046E+03 -0.17217189658E+02 -0.58121372808E+03  0.74433553667E+03  0.12699999809E+01 0.  1.
</event>
<event>
 5   0  0.7857136E-05  0.1990701E+04  0.7818609E-02  0.8610981E-01
        2   -1    0    0  501    0  0.00000000000E+00  0.00000000000E+00  0.15355393394E+04  0.15355393394E+04  0.25500000920E-02 0. -1.
       -2   -1    0    0    0  501  0.00000000000E+00  0.00000000000E+00 -0.64519516817E+03  0.64519516817E+03  0.25500000920E-02 0.  1.
    10030    2    1    2    0    0  0.00000000000E+00  0.00000000000E+00  0.89034417121E+03  0.21807345076E+04  0.19907009442E+04 0.  0.
        4    1    3    3  502    0 -0.31956320652E+03 -0.74614758272E+03 -0.18589699867E+03  0.83271613721E+03  0.12699999809E+01 0.  1.
       -4    1    3    3    0  502  0.31956320652E+03  0.74614758272E+03  0.10762411699E+04  0.13480183703E+04  0.12699999809E+01 0. -1.
</event>
<event>
 5   0  0.3549426E-05  0.2008885E+04  0.7818609E-02  0.8602478E-01
        1   -1    0    0  501    0  0.00000000000E+00  0.00000000000E+00  0.11315556670E+04  0.11315556670E+04  0.50400001928E-02 0.  1.
       -1   -1    0    0    0  501  0.00000000000E+00  0.00000000000E+00 -0.89160846825E+03  0.89160846826E+03  0.50400001928E-02 0. -1.
    10030    2    1    2    0    0  0.00000000000E+00  0.00000000000E+00  0.23994719878E+03  0.20231641353E+04  0.20088848798E+04 0.  0.
        5    1    3    3  502    0  0.49713865758E+03  0.75263830953E+03 -0.32506248581E+03  0.95880080283E+03  0.46999998093E+01 0. -1.
       -5    1    3    3    0  502 -0.49713865758E+03 -0.75263830953E+03  0.56500968459E+03  0.10643633325E+04  0.46999998093E+01 0.  1.
</event>
<event>
 5   0  0.7935008E-05  0.1999969E+04  0.7818609E-02  0.8606635E-01
       -2   -1    0    0    0  501  0.00000000000E+00  0.00000000000E+00  0.11678696143E+04  0.11678696143E+04  0.25500000920E-02 0. -1.
        2   -1    0    0  501    0  0.00000000000E+00  0.00000000000E+00 -0.85623337107E+03  0.85623337108E+03  0.25500000920E-02 0.  1.
    10030    2    1    2    0    0  0.00000000000E+00  0.00000000000E+00  0.31163624326E+03  0.20241029854E+04  0.19999689366E+04 0.  0.
        3    1    3    3  502    0  0.69449279323E+03  0.68408616362E+03 -0.69749859095E+02  0.97732245045E+03  0.10100000352E+00 0.  1.
       -3    1    3    3    0  502 -0.69449279323E+03 -0.68408616362E+03  0.38138610235E+03  0.10467805350E+04  0.10100000352E+00 0. -1.
</event>
<event>
 5   0  0.7843846E-05  0.2005958E+04  0.7818609E-02  0.8603840E-01
        2   -1    0    0  501    0  0.00000000000E+00  0.00000000000E+00  0.13863496269E+04  0.13863496269E+04  0.25500000920E-02 0. -1.
       -2   -1    0    0    0  501  0.00000000000E+00  0.00000000000E+00 -0.72562262886E+03  0.72562262887E+03  0.25500000920E-02 0.  1.
    10030    2    1    2    0    0  0.00000000000E+00  0.00000000000E+00  0.66072699805E+03  0.21119722558E+04  0.20059577870E+04 0.  0.
        2    1    3    3  502    0  0.33612384609E+03 -0.88484047516E+03 -0.18898304206E+02  0.94672015522E+03  0.25500000920E-02 0.  1.
       -2    1    3    3    0  502 -0.33612384609E+03  0.88484047516E+03  0.67962530226E+03  0.11652521006E+04  0.25500000920E-02 0. -1.
</event>
<event>
 5   0  0.3970042E-05  0.1993272E+04  0.7818609E-02  0.8609772E-01
        1   -1    0    0  501    0  0.00000000000E+00  0.00000000000E+00  0.80072479601E+03  0.80072479603E+03  0.50400001928E-02 0. -1.
       -1   -1    0    0    0  501  0.00000000000E+00  0.00000000000E+00 -0.12404808428E+04  0.12404808428E+04  0.50400001928E-02 0.  1.
    10030    2    1    2    0    0  0.00000000000E+00  0.00000000000E+00 -0.43975604677E+03  0.20412056388E+04  0.19932724549E+04 0.  0.
        3    1    3    3  502    0  0.38244152264E+03 -0.11697027481E+03 -0.11547050494E+04  0.12220013603E+04  0.10100000352E+00 0.  1.
       -3    1    3    3    0  502 -0.38244152264E+03  0.11697027481E+03  0.71494900258E+03  0.81920427850E+03  0.10100000352E+00 0. -1.
</event>
<event>
 5   0  0.8011197E-05  0.1997393E+04  0.7818609E-02  0.8607841E-01
        2   -1    0    0  501    0  0.00000000000E+00  0.00000000000E+00  0.10312918106E+04  0.10312918106E+04  0.25500000920E-02 0. -1.
       -2   -1    0    0    0  501  0.00000000000E+00  0.00000000000E+00 -0.96713108048E+03  0.96713108048E+03  0.25500000920E-02 0.  1.
    10030    2    1    2    0    0  0.00000000000E+00  0.00000000000E+00  0.64160730110E+02  0.19984228911E+04  0.19973926635E+04 0.  0.
        5    1    3    3  502    0  0.39793736678E+03  0.18659586354E+03 -0.86515422716E+03  0.97040511692E+03  0.46999998093E+01 0.  1.
       -5    1    3    3    0  502 -0.39793736678E+03 -0.18659586354E+03  0.92931495727E+03  0.10280177742E+04  0.46999998093E+01 0. -1.
</event>
<event>
 5   0  0.7843846E-05  0.2001559E+04  0.7818609E-02  0.8605892E-01
       -2   -1    0    0    0  501  0.00000000000E+00  0.00000000000E+00  0.56915237672E+03  0.56915237673E+03  0.25500000920E-02 0.  1.
        2   -1    0    0  501    0  0.00000000000E+00  0.00000000000E+00 -0.17597390099E+04  0.17597390099E+04  0.25500000920E-02 0. -1.
    10030    2    1    2    0    0  0.00000000000E+00  0.00000000000E+00 -0.11905866332E+04  0.23288913866E+04  0.20015590323E+04 0.  0.
        2    1    3    3  502    0 -0.15311695851E+03  0.26152842787E+03 -0.17050663256E+04  0.17317889872E+04  0.25500000920E-02 0. -1.
       -2    1    3    3    0  502  0.15311695851E+03 -0.26152842787E+03  0.51447969237E+03  0.59710239946E+03  0.25500000920E-02 0.  1.
</event>
<event>
 5   0  0.3818907E-05  0.1999364E+04  0.7818609E-02  0.8606918E-01
       -1   -1    0    0    0  501  0.00000000000E+00  0.00000000000E+00  0.86650370546E+03  0.86650370547E+03  0.50400001928E-02 0.  1.
        1   -1    0    0  501    0  0.00000000000E+00  0.00000000000E+00 -0.11533297029E+04  0.11533297029E+04  0.50400001928E-02 0. -1.
    10030    2    1    2    0    0  0.00000000000E+00  0.00000000000E+00 -0.28682599741E+03  0.20198334084E+04  0.19993643602E+04 0.  0.
        1    1    3    3  502    0 -0.97122371292E+03 -0.23601087164E+03 -0.12351800563E+03  0.10070915201E+04  0.50400001928E-02 0. -1.
       -1    1    3    3    0  502  0.97122371292E+03  0.23601087164E+03 -0.16330799178E+03  0.10127418883E+04  0.50400001928E-02 0.  1.
</event>
<event>
 5   0  0.8011197E-05  0.1965549E+04  0.7818609E-02  0.8622899E-01
        2   -1    0    0  501    0  0.00000000000E+00  0.00000000000E+00  0.97795308999E+03  0.97795308999E+03  0.25500000920E-02 0. -1.
       -2   -1    0    0    0  501  0.00000000000E+00  0.00000000000E+00 -0.98761936002E+03  0.98761936003E+03  0.25500000920E-02 0.  1.
    10030    2    1    2    0    0  0.00000000000E+00  0.00000000000E+00 -0.96662700348E+01  0.19655724500E+04  0.19655486815E+04 0.  0.
        5    1    3    3  502    0 -0.10085577541E+03  0.89506395994E+03  0.38825168022E+03  0.98085311694E+03  0.46999998093E+01 0. -1.
       -5    1    3    3    0  502  0.10085577541E+03 -0.89506395994E+03 -0.39791795025E+03  0.98471933308E+03  0.46999998093E+01 0.  1.
</event>
<event>
 5   0  0.8011197E-05  0.2001927E+04  0.7818609E-02  0.8605720E-01
       -2   -1    0    0    0  501  0.00000000000E+00  0.00000000000E+00  0.83413507022E+03  0.83413507022E+03  0.25500000920E-02 0. -1.
        2   -1    0    0  501    0  0.00000000000E+00  0.00000000000E+00 -0.12011582206E+04  0.12011582206E+04  0.25500000920E-02 0.  1.
    10030    2    1    2    0    0  0.00000000000E+00  0.00000000000E+00 -0.36702315040E+03  0.20352932908E+04  0.20019272681E+04 0.  0.
        5    1    3    3  502    0 -0.25336672867E+03 -0.21200376873E+03 -0.11441224099E+04  0.11908729890E+04  0.46999998093E+01 0.  1.
       -5    1    3    3    0  502  0.25336672867E+03  0.21200376873E+03  0.77709925946E+03  0.84442030186E+03  0.46999998093E+01 0. -1.
</event>
<event>
 5   0  0.7935008E-05  0.1996637E+04  0.7818609E-02  0.8608195E-01
       -2   -1    0    0    0  501  0.00000000000E+00  0.00000000000E+00  0.95610320469E+03  0.95610320469E+03  0.25500000920E-02 0. -1.
        2   -1    0    0  501    0  0.00000000000E+00  0.00000000000E+00 -0.10423973221E+04  0.10423973221E+04  0.25500000920E-02 0.  1.
    10030    2    1    2    0    0  0.00000000000E+00  0.00000000000E+00 -0.86294117413E+02  0.19985005268E+04  0.19966365921E+04 0.  0.
        3    1    3    3  502    0 -0.49362947041E+03  0.26260340521E+02 -0.91129737316E+03  0.10367365008E+04  0.10100000352E+00 0.  1.
       -3    1    3    3    0  502  0.49362947041E+03 -0.26260340521E+02  0.82500325575E+03  0.96176402601E+03  0.10100000352E+00 0. -1.
</event>
<event>
 5   0  0.3772949E-05  0.2042807E+04  0.7818609E-02  0.8586865E-01
       -1   -1    0    0    0  501  0.00000000000E+00  0.00000000000E+00  0.78583141749E+03  0.78583141751E+03  0.50400001928E-02 0.  1.
        1   -1    0    0  501    0  0.00000000000E+00  0.00000000000E+00 -0.13275937338E+04  0.13275937338E+04  0.50400001928E-02 0. -1.
    10030    2    1    2    0    0  0.00000000000E+00  0.00000000000E+00 -0.54176231635E+03  0.21134251514E+04  0.20428067610E+04 0.  0.
        2    1    3    3  502    0  0.32700463568E+03 -0.22716277908E+03  0.70223557116E+03  0.80726065020E+03  0.25500000920E-02 0.  1.
       -2    1    3    3    0  502 -0.32700463568E+03  0.22716277908E+03 -0.12439978875E+04  0.13061645012E+04  0.25500000920E-02 0. -1.
</event>
<event>
 5   0  0.3549426E-05  0.2032536E+04  0.7818609E-02  0.8591558E-01
        1   -1    0    0  501    0  0.00000000000E+00  0.00000000000E+00  0.50233273729E+03  0.50233273732E+03  0.50400001928E-02 0. -1.
       -1   -1    0    0    0  501  0.00000000000E+00  0.00000000000E+00 -0.20560097888E+04  0.20560097888E+04  0.50400001928E-02 0.  1.
    10030    2    1    2    0    0  0.00000000000E+00  0.00000000000E+00 -0.15536770515E+04  0.25583425261E+04  0.20325363713E+04 0.  0.
        5    1    3    3  502    0  0.30414997410E+03  0.96536526566E+02  0.43762397204E+03  0.54163026006E+03  0.46999998093E+01 0. -1.
       -5    1    3    3    0  502 -0.30414997410E+03 -0.96536526566E+02 -0.19913010235E+04  0.20167122660E+04  0.46999998093E+01 0.  1.
</event>
<event>
 5   0  0.7843846E-05  0.1991471E+04  0.7818609E-02  0.8610619E-01
        2   -1    0    0  501    0  0.00000000000E+00  0.00000000000E+00  0.14557541091E+04  0.14557541091E+04  0.25500000920E-02 0.  1.
       -2   -1    0    0    0  501  0.00000000000E+00  0.00000000000E+00 -0.68108284170E+03  0.68108284171E+03  0.25500000920E-02 0. -1.
    10030    2    1    2    0    0  0.00000000000E+00  0.00000000000E+00  0.77467126737E+03  0.21368369508E+04  0.19914709593E+04 0.  0.
        2    1    3    3  502    0  0.58216077219E+03 -0.80779097910E+03  0.37961940647E+03  0.10656210979E+04  0.25500000920E-02 0.  1.
       -2    1    3    3    0  502 -0.58216077219E+03  0.80779097910E+03  0.39505186091E+03  0.10712158529E+04  0.25500000920E-02 0. -1.
</event>
<event>
 5   0  0.8022574E-05  0.2004672E+04  0.7818609E-02  0.8604439E-01
       -2   -1    0    0    0  501  0.00000000000E+00  0.00000000000E+00  0.47011618516E+03  0.47011618517E+03  0.25500000920E-02 0.  1.
        2   -1    0    0  501    0  0.00000000000E+00  0.00000000000E+00 -0.21370833554E+04  0.21370833554E+04  0.25500000920E-02 0. -1.
    10030    2    1    2    0    0  0.00000000000E+00  0.00000000000E+00 -0.16669671702E+04  0.26071995405E+04  0.20046720175E+04 0.  0.
        1    1    3    3  502    0 -0.55009021675E+03 -0.42010448548E+03 -0.17763597885E+04  0.19064472517E+04  0.50400001928E-02 0. -1.
       -1    1    3    3    0  502  0.55009021675E+03  0.42010448548E+03  0.10939261834E+03  0.70075228880E+03  0.50400001928E-02 0.  1.
</event>
<event>
 5   0  0.3772949E-05  0.1985936E+04  0.7818609E-02  0.8613225E-01
       -1   -1    0    0    0  501  0.00000000000E+00  0.00000000000E+00  0.11709244336E+04  0.11709244336E+04  0.50400001928E-02 0.  1.
        1   -1    0    0  501    0  0.00000000000E+00  0.00000000000E+00 -0.84205691023E+03  0.84205691024E+03  0.50400001928E-02 0. -1.
    10030    2    1    2    0    0  0.00000000000E+00  0.00000000000E+00  0.32886752334E+03  0.20129813438E+04  0.19859355585E+04 0.  0.
        2    1    3    3  502    0 -0.93681015488E+03  0.72390330019E+02 -0.16108050071E+03  0.95331031353E+03  0.25500000920E-02 0. -1.
       -2    1    3    3    0  502  0.93681015488E+03 -0.72390330019E+02  0.48994802405E+03  0.10596710303E+04  0.25500000920E-02 0.  1.
</event>
<event>
 5   0  0.3970042E-05  0.1993512E+04  0.7818609E-02  0.8609660E-01
       -1   -1    0    0    0  501  0.00000000000E+00  0.00000000000E+00  0.73133265948E+03  0.73133265950E+03  0.50400001928E-02 0. -1.
        1   -1    0    0  501    0  0.00000000000E+00  0.00000000000E+00 -0.13585097709E+04  0.13585097709E+04  0.50400001928E-02 0.  1.
    10030    2    1    2    0    0  0.00000000000E+00  0.00000000000E+00 -0.62717711137E+03  0.20898424304E+04  0.19935120403E+04 0.  0.
        3    1    3    3  502    0  0.44941506893E+03 -0.61651106503E+01  0.61907081549E+03  0.76502326603E+03  0.10100000352E+00 0. -1.
       -3    1    3    3    0  502 -0.44941506893E+03  0.61651106503E+01 -0.12462479269E+04  0.13248191643E+04  0.10100000352E+00 0.  1.
</event>
<event>
 5   0  0.7843846E-05  0.2020792E+04  0.7818609E-02  0.8596961E-01
        2   -1    0    0  501    0  0.00000000000E+00  0.00000000000E+00  0.11293454045E+04  0.11293454045E+04  0.25500000920E-02 0.  1.
       -2   -1    0    0    0  501  0.00000000000E+00  0.00000000000E+00 -0.90397533928E+03  0.90397533928E+03  0.25500000920E-02 0. -1.
    10030    2    1    2    0    0  0.00000000000E+00  0.00000000000E+00  0.22537006518E+03  0.20333207437E+04  0.20207923151E+04 0.  0.
        2    1    3    3  502    0 -0.89425889812E+03  0.34002763814E+03  0.43963434954E+03  0.10528989186E+04  0.25500000920E-02 0.  1.
       -2    1    3    3    0  502  0.89425889812E+03 -0.34002763814E+03 -0.21426428436E+03  0.98042182510E+03  0.25500000920E-02 0. -1.
</event>
<event>
 5   0  0.3818907E-05  0.2004999E+04  0.7818609E-02  0.8604287E-01
        1   -1    0    0  501    0  0.00000000000E+00  0.00000000000E+00  0.11001924266E+04  0.11001924266E+04  0.50400001928E-02 0.  1.
       -1   -1    0    0    0  501  0.00000000000E+00  0.00000000000E+00 -0.91348121355E+03  0.91348121357E+03  0.50400001928E-02 0. -1.
    10030    2    1    2    0    0  0.00000000000E+00  0.00000000000E+00  0.18671121301E+03  0.20136736401E+04  0.20049988658E+04 0.  0.
        1    1    3    3  502    0  0.11565205498E+03 -0.10459468829E+03 -0.90122675575E+03  0.91461746754E+03  0.50400001928E-02 0. -1.
       -1    1    3    3    0  502 -0.11565205498E+03  0.10459468829E+03  0.10879379688E+04  0.10990561726E+04  0.50400001928E-02 0.  1.
</event>
<event>
 5   0  0.3818907E-05  0.2006738E+04  0.7818609E-02  0.8603477E-01
       -1   -1    0    0    0  501  0.00000000000E+00  0.00000000000E+00  0.44215883517E+03  0.44215883520E+03  0.50400001928E-02 0. -1.
        1   -1    0    0  501    0  0.00000000000E+00  0.00000000000E+00 -0.22768955247E+04  0.22768955247E+04  0.50400001928E-02 0.  1.
    10030    2    1    2    0    0  0.00000000000E+00  0.00000000000E+00 -0.18347366896E+04  0.27190543599E+04  0.20067381225E+04 0.  0.
        1    1    3    3  502    0  0.96745362698E+03 -0.17593415442E+02 -0.12770678800E+04  0.16022416855E+04  0.50400001928E-02 0.  1.
       -1    1    3    3    0  502 -0.96745362698E+03  0.17593415442E+02 -0.55766880960E+03  0.11168126745E+04  0.50400001928E-02 0. -1.
</event>
<event>
 5   0  0.3772949E-05  0.2009618E+04  0.7818609E-02  0.8602137E-01
        1   -1    0    0  501    0  0.00000000000E+00  0.00000000000E+00  0.97281641775E+03  0.97281641777E+03  0.50400001928E-02 0.  1.
       -1   -1    0    0    0  501  0.00000000000E+00  0.00000000000E+00 -0.10378536036E+04  0.10378536036E+04  0.50400001928E-02 0. -1.
    10030    2    1    2    0    0  0.00000000000E+00  0.00000000000E+00 -0.65037185850E+02  0.20106700214E+04  0.20096178988E+04 0.  0.
        2    1    3    3  502    0  0.72580715326E+03 -0.64895955169E+02 -0.72471424323E+03  0.10277247896E+04  0.25500000920E-02 0. -1.
       -2    1    3    3    0  502 -0.72580715326E+03  0.64895955169E+02  0.65967705738E+03  0.98294523182E+03  0.25500000920E-02 0.  1.
</event>
<event>
 5   0  0.7857136E-05  0.1996177E+04  0.7818609E-02  0.8608410E-01
        2   -1    0    0  501    0  0.00000000000E+00  0.00000000000E+00  0.21074983281E+04  0.21074983281E+04  0.25500000920E-02 0.  1.
       -2   -1    0    0    0  501  0.00000000000E+00  0.00000000000E+00 -0.47268386739E+03  0.47268386740E+03  0.25500000920E-02 0. -1.
    10030    2    1    2    0    0  0.00000000000E+00  0.00000000000E+00  0.16348144607E+04  0.25801821955E+04  0.19961768061E+04 0.  0.
        4    1    3    3  502    0 -0.26055818195E+03  0.81125839325E+03  0.14558815929E+03  0.86442366455E+03  0.12699999809E+01 0.  1.
       -4    1    3    3    0  502  0.26055818195E+03 -0.81125839325E+03  0.14892263014E+04  0.17157585310E+04  0.12699999809E+01 0. -1.
</event>
<event>
 5   0  0.8011197E-05  0.2000441E+04  0.7818609E-02  0.8606415E-01
        2   -1    0    0  501    0  0.00000000000E+00  0.00000000000E+00  0.18733585359E+04  0.18733585359E+04  0.25500000920E-02 0.  1.
       -2   -1    0    0    0  501  0.00000000000E+00  0.00000000000E+00 -0.53403597262E+03  0.53403597262E+03  0.25500000920E-02 0. -1.
    10030    2    1    2    0    0  0.00000000000E+00  0.00000000000E+00  0.13393225633E+04  0.24073945086E+04  0.20004407992E+04 0.  0.
        5    1    3    3  502    0  0.59280384222E+03 -0.78665429093E+03  0.46060539897E+03  0.10873917382E+04  0.46999998093E+01 0. -1.
       -5    1    3    3    0  502 -0.59280384222E+03  0.78665429093E+03  0.87871716435E+03  0.13200027703E+04  0.46999998093E+01 0.  1.
</event>
<event>
 5   0  0.7857136E-05  0.2043346E+04  0.7818609E-02  0.8586619E-01
        2   -1    0    0  501    0  0.00000000000E+00  0.00000000000E+00  0.15913607670E+04  0.15913607670E+04  0.25500000920E-02 0. -1.
       -2   -1    0    0    0  501  0.00000000000E+00  0.00000000000E+00 -0.65592622556E+03  0.65592622556E+03  0.25500000920E-02 0.  1.
    10030    2    1    2    0    0  0.00000000000E+00  0.00000000000E+00  0.93543454143E+03  0.22472869926E+04  0.20433455522E+04 0.  0.
        4    1    3    3  502    0 -0.66055904168E+03  0.75582681548E+03  0.67697348321E+03  0.12107465186E+04  0.12699999809E+01 0.  1.
       -4    1    3    3    0  502  0.66055904168E+03 -0.75582681548E+03  0.25846105822E+03  0.10365404739E+04  0.12699999809E+01 0. -1.
</event>
<event>
 5   0  0.8022574E-05  0.2000634E+04  0.7818609E-02  0.8606324E-01
       -2   -1    0    0    0  501  0.00000000000E+00  0.00000000000E+00  0.55500520563E+03  0.55500520564E+03  0.25500000920E-02 0.  1.
        2   -1    0    0  501    0  0.00000000000E+00  0.00000000000E+00 -0.18029282162E+04  0.18029282162E+04  0.25500000920E-02 0. -1.
    10030    2    1    2    0    0  0.00000000000E+00  0.00000000000E+00 -0.12479230105E+04  0.23579334218E+04  0.20006344447E+04 0.  0.
        1    1    3    3  502    0 -0.17193543288E+03 -0.78270402978E+03 -0.13295904137E+04  0.15524168447E+04  0.50400001928E-02 0. -1.
       -1    1    3    3    0  502  0.17193543288E+03  0.78270402978E+03  0.81667403165E+02  0.80551657716E+03  0.50400001928E-02 0.  1.
</event>
<event>
 5   0  0.8011197E-05  0.1996598E+04  0.7818609E-02  0.8608213E-01
        2   -1    0    0  501    0  0.00000000000E+00  0.00000000000E+00  0.85544062587E+03  0.85544062587E+03  0.25500000920E-02 0.  1.
       -2   -1    0    0    0  501  0.00000000000E+00  0.00000000000E+00 -0.11650148594E+04  0.11650148594E+04  0.25500000920E-02 0. -1.
    10030    2    1    2    0    0  0.00000000000E+00  0.00000000000E+00 -0.30957423352E+03  0.20204554853E+04  0.19965981473E+04 0.  0.
        5    1    3    3  502    0  0.68782371499E+03  0.17314676170E+03  0.55610088317E+03  0.90130546778E+03  0.46999998093E+01 0.  1.
       -5    1    3    3    0  502 -0.68782371499E+03 -0.17314676170E+03 -0.86567511669E+03  0.11191500175E+04  0.46999998093E+01 0. -1.
</event>
<event>
 5   0  0.7935008E-05  0.2003110E+04  0.7818609E-02  0.8605168E-01
        2   -1    0    0  501    0  0.00000000000E+00  0.00000000000E+00  0.10253125818E+04  0.10253125818E+04  0.25500000920E-02 0. -1.
       -2   -1    0    0    0  501  0.00000000000E+00  0.00000000000E+00 -0.97834790894E+03  0.97834790894E+03  0.25500000920E-02 0.  1.
    10030    2    1    2    0    0  0.00000000000E+00  0.00000000000E+00  0.46964672899E+02  0.20036604908E+04  0.20031100024E+04 0.  0.
        3    1    3    3  502    0  0.27329926990E+03 -0.71587513721E+03  0.66859577979E+03  0.10169513410E+04  0.10100000352E+00 0. -1.
       -3    1    3    3    0  502 -0.27329926990E+03  0.71587513721E+03 -0.62163110689E+03  0.98670914978E+03  0.10100000352E+00 0.  1.
</event>
<event>
 5   0  0.7857136E-05  0.2002401E+04  0.7818609E-02  0.8605499E-01
       -2   -1    0    0    0  501  0.00000000000E+00  0.00000000000E+00  0.58754091136E+03  0.58754091136E+03  0.25500000920E-02 0. -1.
        2   -1    0    0  501    0  0.00000000000E+00  0.00000000000E+00 -0.17060988196E+04  0.17060988196E+04  0.25500000920E-02 0.  1.
    10030    2    1    2    0    0  0.00000000000E+00  0.00000000000E+00 -0.11185579083E+04  0.22936397310E+04  0.20024014137E+04 0.  0.
        4    1    3    3  502    0  0.53837949928E+03 -0.50808047888E+03 -0.13314164578E+04  0.15233744304E+04  0.12699999809E+01 0.  1.
       -4    1    3    3    0  502 -0.53837949928E+03  0.50808047888E+03  0.21285854953E+03  0.77026530057E+03  0.12699999809E+01 0. -1.
</event>
<event>
 5   0  0.3970042E-05  0.1993404E+04  0.7818609E-02  0.8609711E-01
       -1   -1    0    0    0  501  0.00000000000E+00  0.00000000000E+00  0.11859736468E+04  0.11859736468E+04  0.50400001928E-02 0. -1.
        1   -1    0    0  501    0  0.00000000000E+00  0.00000000000E+00 -0.83763635117E+03  0.83763635119E+03  0.50400001928E-02 0.  1.
    10030    2    1    2    0    0  0.00000000000E+00  0.00000000000E+00  0.34833729566E+03  0.20236099980E+04  0.19934037605E+04 0.  0.
        3    1    3    3  502    0 -0.39706505319E+03 -0.51225302250E+03 -0.59450458723E+03  0.87948822048E+03  0.10100000352E+00 0. -1.
       -3    1    3    3    0  502  0.39706505319E+03  0.51225302250E+03  0.94284188289E+03  0.11441217775E+04  0.10100000352E+00 0.  1.
</event>
<event>
 5   0  0.3772949E-05  0.1911077E+04  0.7818609E-02  0.8649362E-01
       -1   -1    0    0    0  501  0.00000000000E+00  0.00000000000E+00  0.75196472226E+03  0.75196472228E+03  0.50400001928E-02 0.  1.
        1   -1    0    0  501    0  0.00000000000E+00  0.00000000000E+00 -0.12142245365E+04  0.12142245365E+04  0.50400001928E-02 0. -1.
    10030    2    1    2    0    0  0.00000000000E+00  0.00000000000E+00 -0.46225981424E+03  0.19661892588E+04  0.19110772003E+04 0.  0.
        2    1    3    3  502    0  0.79909411660E+03  0.33285847054E+03 -0.64740635253E+03  0.10809630678E+04  0.25500000920E-02 0. -1.
       -2    1    3    3    0  502 -0.79909411660E+03 -0.33285847054E+03  0.18514653829E+03  0.88522619101E+03  0.25500000920E-02 0.  1.
</event>
<event>
 5   0  0.3549426E-05  0.1990465E+04  0.7818609E-02  0.8611091E-01
        1   -1    0    0  501    0  0.00000000000E+00  0.00000000000E+00  0.59248465903E+03  0.59248465905E+03  0.50400001928E-02 0.  1.
       -1   -1    0    0    0  501  0.00000000000E+00  0.00000000000E+00 -0.16717531197E+04  0.16717531197E+04  0.50400001928E-02 0. -1.
    10030    2    1    2    0    0  0.00000000000E+00  0.00000000000E+00 -0.10792684607E+04  0.22642377788E+04  0.19904653498E+04 0.  0.
        5    1    3    3  502    0  0.21043567793E+03  0.63880696005E+03 -0.13740880920E+04  0.15298685176E+04  0.46999998093E+01 0. -1.
       -5    1    3    3    0  502 -0.21043567793E+03 -0.63880696005E+03  0.29481963127E+03  0.73436926115E+03  0.46999998093E+01 0.  1.
</event>
<event>
 5   0  0.7857136E-05  0.2013230E+04  0.7818609E-02  0.8600460E-01
        2   -1    0    0  501    0  0.00000000000E+00  0.00000000000E+00  0.16662308506E+04  0.16662308506E+04  0.25500000920E-02 0.  1.
       -2   -1    0    0    0  501  0.00000000000E+00  0.00000000000E+00 -0.60812302911E+03  0.60812302911E+03  0.25500000920E-02 0. -1.
    10030    2    1    2    0    0  0.00000000000E+00  0.00000000000E+00  0.10581078215E+04  0.22743538797E+04  0.20132295965E+04 0.  0.
        4    1    3    3  502    0  0.87468342054E+03 -0.95417544034E+02  0.10814505413E+04  0.13941708934E+04  0.12699999809E+01 0.  1.
       -4    1    3    3    0  502 -0.87468342054E+03  0.95417544034E+02 -0.23342719823E+02  0.88018298629E+03  0.12699999809E+01 0. -1.
</event>
<event>
 5   0  0.3818907E-05  0.1995853E+04  0.7818609E-02  0.8608562E-01
        1   -1    0    0  501    0  0.00000000000E+00  0.00000000000E+00  0.12963499678E+04  0.12963499678E+04  0.50400001928E-02 0.  1.
       -1   -1    0    0    0  501  0.00000000000E+00  0.00000000000E+00 -0.76820099124E+03  0.76820099125E+03  0.50400001928E-02 0. -1.
    10030    2    1    2    0    0  0.00000000000E+00  0.00000000000E+00  0.52814897656E+03  0.20645509591E+04  0.19958530309E+04 0.  0.
        1    1    3    3  502    0 -0.54090095515E+03  0.31379770076E+03  0.10685413199E+04  0.12380724505E+04  0.50400001928E-02 0.  1.
       -1    1    3    3    0  502  0.54090095515E+03 -0.31379770076E+03 -0.54039234338E+03  0.82647850855E+03  0.50400001928E-02 0. -1.
</event>
<event>
 5   0  0.3549426E-05  0.2017265E+04  0.7818609E-02  0.8598591E-01
       -1   -1    0    0    0  501  0.00000000000E+00  0.00000000000E+00  0.94885315937E+03  0.94885315939E+03  0.50400001928E-02 0. -1.
        1   -1    0    0  501    0  0.00000000000E+00  0.00000000000E+00 -0.10721777014E+04  0.10721777014E+04  0.50400001928E-02 0.  1.
    10030    2    1    2    0    0  0.00000000000E+00  0.00000000000E+00 -0.12332454203E+03  0.20210308608E+04  0.20172646821E+04 0.  0.
        5    1    3    3  502    0 -0.82281019075E+03 -0.18984067422E+03 -0.61429069281E+03  0.10442371555E+04  0.46999998093E+01 0.  1.
       -5    1    3    3    0  502  0.82281019075E+03  0.18984067422E+03  0.49096615078E+03  0.97679370534E+03  0.46999998093E+01 0. -1.
</event>
<event>
 5   0  0.3818907E-05  0.1982326E+04  0.7818609E-02  0.8614929E-01
       -1   -1    0    0    0  501  0.00000000000E+00  0.00000000000E+00  0.15043326002E+04  0.15043326003E+04  0.50400001928E-02 0.  1.
        1   -1    0    0  501    0  0.00000000000E+00  0.00000000000E+00 -0.65304947309E+03  0.65304947311E+03  0.50400001928E-02 0. -1.
    10030    2    1    2    0    0  0.00000000000E+00  0.00000000000E+00  0.85128312716E+03  0.21573820734E+04  0.19823255151E+04 0.  0.
        1    1    3    3  502    0 -0.93875337722E+03 -0.30610754568E+03  0.33174455584E+03  0.10416401409E+04  0.50400001928E-02 0.  1.
       -1    1    3    3    0  502  0.93875337722E+03  0.30610754568E+03  0.51953857132E+03  0.11157419325E+04  0.50400001928E-02 0. -1.
</event>
<event>
 5   0  0.3772949E-05  0.2057765E+04  0.7818609E-02  0.8580080E-01
       -1   -1    0    0    0  501  0.00000000000E+00  0.00000000000E+00  0.90120978499E+03  0.90120978501E+03  0.50400001928E-02 0.  1.
        1   -1    0    0  501    0  0.00000000000E+00  0.00000000000E+00 -0.11746419465E+04  0.11746419465E+04  0.50400001928E-02 0. -1.
    10030    2    1    2    0    0  0.00000000000E+00  0.00000000000E+00 -0.27343216147E+03  0.20758517315E+04  0.20577646280E+04 0.  0.
        2    1    3    3  502    0  0.66522004867E+03  0.32677075739E+03 -0.85664283472E+03  0.11327549547E+04  0.25500000920E-02 0. -1.
       -2    1    3    3    0  502 -0.66522004867E+03 -0.32677075739E+03  0.58321067325E+03  0.94309677681E+03  0.25500000920E-02 0.  1.
</event>
<event>
 5   0  0.8011197E-05  0.1994850E+04  0.7818609E-02  0.8609032E-01
        2   -1    0    0  501    0  0.00000000000E+00  0.00000000000E+00  0.12463690993E+04  0.12463690993E+04  0.25500000920E-02 0.  1.
       -2   -1    0    0    0  501  0.00000000000E+00  0.00000000000E+00 -0.79820418507E+03  0.79820418508E+03  0.25500000920E-02 0. -1.
    10030    2    1    2    0    0  0.00000000000E+00  0.00000000000E+00  0.44816491423E+03  0.20445732844E+04  0.19948504016E+04 0.  0.
        5    1    3    3  502    0 -0.98740929260E+03 -0.60934948257E+02  0.93853316308E+02  0.99374076801E+03  0.46999998093E+01 0. -1.
       -5    1    3    3    0  502  0.98740929260E+03  0.60934948257E+02  0.35431159792E+03  0.10508325164E+04  0.46999998093E+01 0.  1.
</event>
<event>
 5   0  0.7857136E-05  0.2029652E+04  0.7818609E-02  0.8592882E-01
        2   -1    0    0  501    0  0.00000000000E+00  0.00000000000E+00  0.68058163031E+03  0.68058163031E+03  0.25500000920E-02 0. -1.
       -2   -1    0    0    0  501  0.00000000000E+00  0.00000000000E+00 -0.15132230117E+04  0.15132230117E+04  0.25500000920E-02 0.  1.
    10030    2    1    2    0    0  0.00000000000E+00  0.00000000000E+00 -0.83264138138E+03  0.21938046420E+04  0.20296519744E+04 0.  0.
        4    1    3    3  502    0  0.53039413717E+02 -0.10134381637E+04 -0.41601407858E+03  0.10967859488E+04  0.12699999809E+01 0. -1.
       -4    1    3    3    0  502 -0.53039413717E+02  0.10134381637E+04 -0.41662730279E+03  0.10970186932E+04  0.12699999809E+01 0.  1.
</event>
<event>
 5   0  0.3970042E-05  0.1988485E+04  0.7818609E-02  0.8612024E-01
        1   -1    0    0  501    0  0.00000000000E+00  0.00000000000E+00  0.17698849797E+04  0.17698849797E+04  0.50400001928E-02 0.  1.
       -1   -1    0    0    0  501  0.00000000000E+00  0.00000000000E+00 -0.55852085913E+03  0.55852085915E+03  0.50400001928E-02 0. -1.
    10030    2    1    2    0    0  0.00000000000E+00  0.00000000000E+00  0.12113641205E+04  0.23284058388E+04  0.19884845279E+04 0.  0.
        3    1    3    3  502    0  0.45980261223E+03  0.12081379821E+03 -0.41680380710E+03  0.63224982394E+03  0.10100000352E+00 0. -1.
       -3    1    3    3    0  502 -0.45980261223E+03 -0.12081379821E+03  0.16281679276E+04  0.16961560149E+04  0.10100000352E+00 0.  1.
</event>
<event>
 5   0  0.3772949E-05  0.1952759E+04  0.7818609E-02  0.8629031E-01
       -1   -1    0    0    0  501  0.00000000000E+00  0.00000000000E+00  0.80749612648E+03  0.80749612649E+03  0.50400001928E-02 0.  1.
        1   -1    0    0  501    0  0.00000000000E+00  0.00000000000E+00 -0.11805843507E+04  0.11805843507E+04  0.50400001928E-02 0. -1.
    10030    2    1    2    0    0  0.00000000000E+00  0.00000000000E+00 -0.37308822419E+03  0.19880804772E+04  0.19527593709E+04 0.  0.
        2    1    3    3  502    0  0.51004065851E+03  0.24039637475E+03  0.62498451726E+03  0.84174671793E+03  0.25500000920E-02 0.  1.
       -2    1    3    3    0  502 -0.51004065851E+03 -0.24039637475E+03 -0.99807274145E+03  0.11463337592E+04  0.25500000920E-02 0. -1.
</event>
<event>
 5   0  0.7857136E-05  0.1999298E+04  0.7818609E-02  0.8606949E-01
        2   -1    0    0  501    0  0.00000000000E+00  0.00000000000E+00  0.68905208623E+03  0.68905208623E+03  0.25500000920E-02 0.  1.
       -2   -1    0    0    0  501  0.00000000000E+00  0.00000000000E+00 -0.14502507643E+04  0.14502507643E+04  0.25500000920E-02 0. -1.
    10030    2    1    2    0    0  0.00000000000E+00  0.00000000000E+00 -0.76119867807E+03  0.21393028505E+04  0.19992981916E+04 0.  0.
        4    1    3    3  502    0  0.84559271285E+03 -0.47844079609E+03 -0.63237207706E+03  0.11592362521E+04  0.12699999809E+01 0. -1.
       -4    1    3    3    0  502 -0.84559271285E+03  0.47844079609E+03 -0.12882660102E+03  0.98006659846E+03  0.12699999809E+01 0.  1.
</event>
<event>
 5   0  0.3818907E-05  0.2000809E+04  0.7818609E-02  0.8606242E-01
       -1   -1    0    0    0  501  0.00000000000E+00  0.00000000000E+00  0.92599146186E+03  0.92599146188E+03  0.50400001928E-02 0. -1.
        1   -1    0    0  501    0  0.00000000000E+00  0.00000000000E+00 -0.10807975402E+04  0.10807975402E+04  0.50400001928E-02 0.  1.
    10030    2    1    2    0    0  0.00000000000E+00  0.00000000000E+00 -0.15480607835E+03  0.20067890021E+04  0.20008091306E+04 0.  0.
        1    1    3    3  502    0 -0.45710752353E+03  0.20785957145E+03 -0.94523836385E+03  0.10703403450E+04  0.50400001928E-02 0.  1.
       -1    1    3    3    0  502  0.45710752353E+03 -0.20785957145E+03  0.79043228550E+03  0.93644865716E+03  0.50400001928E-02 0. -1.
</event>
<event>
 5   0  0.7857136E-05  0.1990100E+04  0.7818609E-02  0.8611263E-01
        2   -1    0    0  501    0  0.00000000000E+00  0.00000000000E+00  0.15483845384E+04  0.15483845384E+04  0.25500000920E-02 0. -1.
       -2   -1    0    0    0  501  0.00000000000E+00  0.00000000000E+00 -0.63945628660E+03  0.63945628660E+03  0.25500000920E-02 0.  1.
    10030    2    1    2    0    0  0.00000000000E+00  0.00000000000E+00  0.90892825181E+03  0.21878408250E+04  0.19900997233E+04 0.  0.
        4    1    3    3  502    0  0.35690647765E+03  0.48251902261E+02 -0.56528688843E+03  0.67026961664E+03  0.12699999809E+01 0.  1.
       -4    1    3    3    0  502 -0.35690647765E+03 -0.48251902261E+02  0.14742151402E+04  0.15175712084E+04  0.12699999809E+01 0. -1.
</event>
<event>
 5   0  0.3818907E-05  0.2008424E+04  0.7818609E-02  0.8602692E-01
        1   -1    0    0  501    0  0.00000000000E+00  0.00000000000E+00  0.12934611456E+04  0.12934611456E+04  0.50400001928E-02 0.  1.
       -1   -1    0    0    0  501  0.00000000000E+00  0.00000000000E+00 -0.77964593469E+03  0.77964593470E+03  0.50400001928E-02 0. -1.
    10030    2    1    2    0    0  0.00000000000E+00  0.00000000000E+00  0.51381521087E+03  0.20731070803E+04  0.20084239830E+04 0.  0.
        1    1    3    3  502    0  0.78318770366E+03 -0.20687853962E+03 -0.35572204251E+03  0.88471457594E+03  0.50400001928E-02 0. -1.
       -1    1    3    3    0  502 -0.78318770366E+03  0.20687853962E+03  0.86953725338E+03  0.11883925043E+04  0.50400001928E-02 0.  1.
</event>
<event>
 5   0  0.3818907E-05  0.2006910E+04  0.7818609E-02  0.8603397E-01
       -1   -1    0    0    0  501  0.00000000000E+00  0.00000000000E+00  0.11138388148E+04  0.11138388148E+04  0.50400001928E-02 0.  1.
        1   -1    0    0  501    0  0.00000000000E+00  0.00000000000E+00 -0.90401047318E+03  0.90401047320E+03  0.50400001928E-02 0. -1.
    10030    2    1    2    0    0  0.00000000000E+00  0.00000000000E+00  0.20982834158E+03  0.20178492880E+04  0.20069100169E+04 0.  0.
        1    1    3    3  502    0 -0.35347210506E+03 -0.21311737052E+03 -0.81470809867E+03  0.91329668167E+03  0.50400001928E-02 0. -1.
       -1    1    3    3    0  502  0.35347210506E+03  0.21311737052E+03  0.10245364403E+04  0.11045526063E+04  0.50400001928E-02 0.  1.
</event>
<event>
 5   0  0.7935008E-05  0.1996537E+04  0.7818609E-02  0.8608241E-01
       -2   -1    0    0    0  501  0.00000000000E+00  0.00000000000E+00  0.11628053906E+04  0.11628053906E+04  0.25500000920E-02 0.  1.
        2   -1    0    0  501    0  0.00000000000E+00  0.00000000000E+00 -0.85701350385E+03  0.85701350385E+03  0.25500000920E-02 0. -1.
    10030    2    1    2    0    0  0.00000000000E+00  0.00000000000E+00  0.30579188672E+03  0.20198188944E+04  0.19965369238E+04 0.  0.
        3    1    3    3  502    0  0.57636876925E+03 -0.15551595049E+03  0.96232208896E+03  0.11324530816E+04  0.10100000352E+00 0.  1.
       -3    1    3    3    0  502 -0.57636876925E+03  0.15551595049E+03 -0.65653020224E+03  0.88736581277E+03  0.10100000352E+00 0. -1.
</event>
<event>
 5   0  0.3549426E-05  0.1889544E+04  0.7818609E-02  0.8660078E-01
        1   -1    0    0  501    0  0.00000000000E+00  0.00000000000E+00  0.24878534530E+04  0.24878534530E+04  0.50400001928E-02 0.  1.
       -1   -1    0    0    0  501  0.00000000000E+00  0.00000000000E+00 -0.35878092144E+03  0.35878092148E+03  0.50400001928E-02 0. -1.
    10030    2    1    2    0    0  0.00000000000E+00  0.00000000000E+00  0.21290725315E+04  0.28466343745E+04  0.18895442353E+04 0.  0.
        5    1    3    3  502    0  0.32325561283E+03 -0.20165002801E+03 -0.23789744725E+03  0.44919284326E+03  0.46999998093E+01 0. -1.
       -5    1    3    3    0  502 -0.32325561283E+03  0.20165002801E+03  0.23669699788E+04  0.23974415312E+04  0.46999998093E+01 0.  1.
</event>
<event>
 5   0  0.7935008E-05  0.1997922E+04  0.7818609E-02  0.8607593E-01
       -2   -1    0    0    0  501  0.00000000000E+00  0.00000000000E+00  0.74268354168E+03  0.74268354168E+03  0.25500000920E-02 0. -1.
        2   -1    0    0  501    0  0.00000000000E+00  0.00000000000E+00 -0.13436723799E+04  0.13436723799E+04  0.25500000920E-02 0.  1.
    10030    2    1    2    0    0  0.00000000000E+00  0.00000000000E+00 -0.60098883820E+03  0.20863559216E+04  0.19979222827E+04 0.  0.
        3    1    3    3  502    0 -0.17795083566E+03 -0.19185965194E+02  0.72580329652E+03  0.74754600969E+03  0.10100000352E+00 0. -1.
       -3    1    3    3    0  502  0.17795083566E+03  0.19185965194E+02 -0.13267921347E+04  0.13388099119E+04  0.10100000352E+00 0.  1.
</event>
<event>
 5   0  0.7857136E-05  0.2004634E+04  0.7818609E-02  0.8604457E-01
       -2   -1    0    0    0  501  0.00000000000E+00  0.00000000000E+00  0.12626728285E+04  0.12626728285E+04  0.25500000920E-02 0. -1.
        2   -1    0    0  501    0  0.00000000000E+00  0.00000000000E+00 -0.79564509750E+03  0.79564509751E+03  0.25500000920E-02 0.  1.
    10030    2    1    2    0    0  0.00000000000E+00  0.00000000000E+00  0.46702773102E+03  0.20583179260E+04  0.20046340771E+04 0.  0.
        4    1    3    3  502    0  0.24704429092E+03  0.78106456715E+03 -0.35948604204E+03  0.89460861109E+03  0.12699999809E+01 0.  1.
       -4    1    3    3    0  502 -0.24704429092E+03 -0.78106456715E+03  0.82651377306E+03  0.11637093149E+04  0.12699999809E+01 0. -1.
</event>
<event>
 5   0  0.7935008E-05  0.2003062E+04  0.7818609E-02  0.8605190E-01
        2   -1    0    0  501    0  0.00000000000E+00  0.00000000000E+00  0.40036141966E+03  0.40036141967E+03  0.25500000920E-02 0.  1.
       -2   -1    0    0    0  501  0.00000000000E+00  0.00000000000E+00 -0.25053982690E+04  0.25053982690E+04  0.25500000920E-02 0. -1.
    10030    2    1    2    0    0  0.00000000000E+00  0.00000000000E+00 -0.21050368493E+04  0.29057596887E+04  0.20030624631E+04 0.  0.
        3    1    3    3  502    0 -0.30747403626E+03  0.48868642723E+03  0.13463984827E+03  0.59285968498E+03  0.10100000352E+00 0.  1.
       -3    1    3    3    0  502  0.30747403626E+03 -0.48868642723E+03 -0.22396766976E+04  0.23129000037E+04  0.10100000352E+00 0. -1.
</event>
<event>
 5   0  0.8022574E-05  0.2094248E+04  0.7818609E-02  0.8563781E-01
       -2   -1    0    0    0  501  0.00000000000E+00  0.00000000000E+00  0.56817539823E+03  0.56817539823E+03  0.25500000920E-02 0.  1.
        2   -1    0    0  501    0  0.00000000000E+00  0.00000000000E+00 -0.19298074658E+04  0.19298074658E+04  0.25500000920E-02 0. -1.
    10030    2    1    2    0    0  0.00000000000E+00  0.00000000000E+00 -0.13616320675E+04  0.24979828640E+04  0.20942484336E+04 0.  0.
        1    1    3    3  502    0  0.10742164774E+03 -0.94260663189E+02 -0.19181199863E+04  0.19234367068E+04  0.50400001928E-02 0. -1.
       -1    1    3    3    0  502 -0.10742164774E+03  0.94260663189E+02  0.55648791877E+03  0.57454615724E+03  0.50400001928E-02 0.  1.
</event>
<event>
 5   0  0.3772949E-05  0.2020719E+04  0.7818609E-02  0.8596995E-01
       -1   -1    0    0    0  501  0.00000000000E+00  0.00000000000E+00  0.18387890326E+04  0.18387890326E+04  0.50400001928E-02 0.  1.
        1   -1    0    0  501    0  0.00000000000E+00  0.00000000000E+00 -0.55516232676E+03  0.55516232678E+03  0.50400001928E-02 0. -1.
    10030    2    1    2    0    0  0.00000000000E+00  0.00000000000E+00  0.12836267059E+04  0.23939513594E+04  0.20207190778E+04 0.  0.
        2    1    3    3  502    0 -0.39055282766E+02  0.96364722051E+03  0.28505233905E+03  0.10056819163E+04  0.25500000920E-02 0.  1.
       -2    1    3    3    0  502  0.39055282766E+02 -0.96364722051E+03  0.99857436683E+03  0.13882694432E+04  0.25500000920E-02 0. -1.
</event>
<event>
 5   0  0.3787698E-05  0.2001737E+04  0.7818609E-02  0.8605809E-01
       -1   -1    0    0    0  501  0.00000000000E+00  0.00000000000E+00  0.85300833341E+03  0.85300833343E+03  0.50400001928E-02 0. -1.
        1   -1    0    0  501    0  0.00000000000E+00  0.00000000000E+00 -0.11743586664E+04  0.11743586664E+04  0.50400001928E-02 0.  1.
    10030    2    1    2    0    0  0.00000000000E+00  0.00000000000E+00 -0.32135033295E+03  0.20273669998E+04  0.20017369746E+04 0.  0.
        4    1    3    3  502    0 -0.57250757319E+03 -0.77294543294E+03 -0.44085149227E+03  0.10580931976E+04  0.12699999809E+01 0.  1.
       -4    1    3    3    0  502  0.57250757319E+03  0.77294543294E+03  0.11950115932E+03  0.96927380221E+03  0.12699999809E+01 0. -1.
</event>
<event>
 5   0  0.8011197E-05  0.1979525E+04  0.7818609E-02  0.8616253E-01
        2   -1    0    0  501    0  0.00000000000E+00  0.00000000000E+00  0.94851830160E+03  0.94851830160E+03  0.25500000920E-02 0.  1.
       -2   -1    0    0    0  501  0.00000000000E+00  0.00000000000E+00 -0.10328006166E+04  0.10328006166E+04  0.25500000920E-02 0. -1.
    10030    2    1    2    0    0  0.00000000000E+00  0.00000000000E+00 -0.84282314979E+02  0.19813189182E+04  0.19795254853E+04 0.  0.
        5    1    3    3  502    0 -0.64761331817E+03  0.64986945216E+03 -0.41379263679E+03  0.10064689518E+04  0.46999998093E+01 0. -1.
       -5    1    3    3    0  502  0.64761331817E+03 -0.64986945216E+03  0.32951032181E+03  0.97484996635E+03  0.46999998093E+01 0.  1.
</event>
<event>
 5   0  0.3818907E-05  0.2038889E+04  0.7818609E-02  0.8588652E-01
       -1   -1    0    0    0  501  0.00000000000E+00  0.00000000000E+00  0.90245603537E+03  0.90245603538E+03  0.50400001928E-02 0.  1.
        1   -1    0    0  501    0  0.00000000000E+00  0.00000000000E+00 -0.11515983762E+04  0.11515983763E+04  0.50400001928E-02 0. -1.
    10030    2    1    2    0    0  0.00000000000E+00  0.00000000000E+00 -0.24914234087E+03  0.20540544116E+04  0.20388888199E+04 0.  0.
        1    1    3    3  502    0 -0.38752738553E+03  0.39152358714E+03  0.73959629296E+03  0.92220977571E+03  0.50400001928E-02 0.  1.
       -1    1    3    3    0  502  0.38752738553E+03 -0.39152358714E+03 -0.98873863383E+03  0.11318446359E+04  0.50400001928E-02 0. -1.
</event>
<event>
 5   0  0.3787698E-05  0.1991964E+04  0.7818609E-02  0.8610387E-01
        1   -1    0    0  501    0  0.00000000000E+00  0.00000000000E+00  0.69987876833E+03  0.69987876835E+03  0.50400001928E-02 0. -1.
       -1   -1    0    0    0  501  0.00000000000E+00  0.00000000000E+00 -0.14173597868E+04  0.14173597868E+04  0.50400001928E-02 0.  1.
    10030    2    1    2    0    0  0.00000000000E+00  0.00000000000E+00 -0.71748101847E+03  0.21172385552E+04  0.19919638771E+04 0.  0.
        4    1    3    3  502    0 -0.18058124210E+03 -0.97686175169E+03 -0.28276102798E+03  0.10328716662E+04  0.12699999809E+01 0.  1.
       -4    1    3    3    0  502  0.18058124210E+03  0.97686175169E+03 -0.43471999049E+03  0.10843668890E+04  0.12699999809E+01 0. -1.
</event>
<event>
 5   0  0.3549426E-05  0.2013310E+04  0.7818609E-02  0.8600423E-01
       -1   -1    0    0    0  501  0.00000000000E+00  0.00000000000E+00  0.55983407841E+03  0.55983407843E+03  0.50400001928E-02 0. -1.
        1   -1    0    0  501    0  0.00000000000E+00  0.00000000000E+00 -0.18100975293E+04  0.18100975293E+04  0.50400001928E-02 0.  1.
    10030    2    1    2    0    0  0.00000000000E+00  0.00000000000E+00 -0.12502634509E+04  0.23699316078E+04  0.20133099932E+04 0.  0.
        5    1    3    3  502    0  0.33475560306E+03  0.92931650689E+03 -0.85351265022E+03  0.13054487419E+04  0.46999998093E+01 0. -1.
       -5    1    3    3    0  502 -0.33475560306E+03 -0.92931650689E+03 -0.39675080069E+03  0.10644828658E+04  0.46999998093E+01 0.  1.
</event>
<event>
 5   0  0.7857136E-05  0.2010290E+04  0.7818609E-02  0.8601825E-01
        2   -1    0    0  501    0  0.00000000000E+00  0.00000000000E+00  0.22578573562E+04  0.22578573562E+04  0.25500000920E-02 0.  1.
       -2   -1    0    0    0  501  0.00000000000E+00  0.00000000000E+00 -0.44746680460E+03  0.44746680461E+03  0.25500000920E-02 0. -1.
    10030    2    1    2    0    0  0.00000000000E+00  0.00000000000E+00  0.18103905516E+04  0.27053241608E+04  0.20102897467E+04 0.  0.
        4    1    3    3  502    0  0.81588924292E+03 -0.19708660553E+03  0.16101748021E+03  0.85466170420E+03  0.12699999809E+01 0. -1.
       -4    1    3    3    0  502 -0.81588924292E+03  0.19708660553E+03  0.16493730714E+04  0.18506624566E+04  0.12699999809E+01 0.  1.
</event>
<event>
 5   0  0.3818907E-05  0.1957430E+04  0.7818609E-02  0.8626786E-01
        1   -1    0    0  501    0  0.00000000000E+00  0.00000000000E+00  0.10325195726E+04  0.10325195726E+04  0.50400001928E-02 0.  1.
       -1   -1    0    0    0  501  0.00000000000E+00  0.00000000000E+00 -0.92771415915E+03  0.92771415917E+03  0.50400001928E-02 0. -1.
    10030    2    1    2    0    0  0.00000000000E+00  0.00000000000E+00  0.10480541340E+03  0.19602337317E+04  0.19574299753E+04 0.  0.
        1    1    3    3  502    0  0.17974738970E+03  0.22564810153E+03 -0.88416778686E+03  0.93004239966E+03  0.50400001928E-02 0. -1.
       -1    1    3    3    0  502 -0.17974738970E+03 -0.22564810153E+03  0.98897320025E+03  0.10301913321E+04  0.50400001928E-02 0.  1.
</event>
<event>
 5   0  0.7843846E-05  0.1994467E+04  0.7818609E-02  0.8609212E-01
        2   -1    0    0  501    0  0.00000000000E+00  0.00000000000E+00  0.13982217142E+04  0.13982217142E+04  0.25500000920E-02 0.  1.
       -2   -1    0    0    0  501  0.00000000000E+00  0.00000000000E+00 -0.71124235541E+03  0.71124235542E+03  0.25500000920E-02 0. -1.
    10030    2    1    2    0    0  0.00000000000E+00  0.00000000000E+00  0.68697935878E+03  0.21094640696E+04  0.19944668515E+04 0.  0.
        2    1    3    3  502    0 -0.11051713491E+03 -0.72804244667E+03  0.10547320658E+04  0.12863590369E+04  0.25500000920E-02 0.  1.
       -2    1    3    3    0  502  0.11051713491E+03  0.72804244667E+03 -0.36775270704E+03  0.82310503266E+03  0.25500000920E-02 0. -1.
</event>
<event>
 5   0  0.8011197E-05  0.2007891E+04  0.7818609E-02  0.8602940E-01
        2   -1    0    0  501    0  0.00000000000E+00  0.00000000000E+00  0.90509169652E+03  0.90509169652E+03  0.25500000920E-02 0. -1.
       -2   -1    0    0    0  501  0.00000000000E+00  0.00000000000E+00 -0.11135958076E+04  0.11135958076E+04  0.25500000920E-02 0.  1.
    10030    2    1    2    0    0  0.00000000000E+00  0.00000000000E+00 -0.20850411109E+03  0.20186875041E+04  0.20078907528E+04 0.  0.
        5    1    3    3  502    0 -0.62694391376E+03  0.69375835598E+03  0.26312340867E+03  0.97139865435E+03  0.46999998093E+01 0. -1.
       -5    1    3    3    0  502  0.62694391376E+03 -0.69375835598E+03 -0.47162751976E+03  0.10472888498E+04  0.46999998093E+01 0.  1.
</event>
<event>
 5   0  0.3970042E-05  0.2003723E+04  0.7818609E-02  0.8604882E-01
       -1   -1    0    0    0  501  0.00000000000E+00  0.00000000000E+00  0.54665059354E+03  0.54665059356E+03  0.50400001928E-02 0. -1.
        1   -1    0    0  501    0  0.00000000000E+00  0.00000000000E+00 -0.18361396500E+04  0.18361396500E+04  0.50400001928E-02 0.  1.
    10030    2    1    2    0    0  0.00000000000E+00  0.00000000000E+00 -0.12894890565E+04  0.23827902436E+04  0.20037233637E+04 0.  0.
        3    1    3    3  502    0 -0.63796824646E+03  0.76727996509E+03 -0.53834907966E+03  0.11338173442E+04  0.10100000352E+00 0. -1.
       -3    1    3    3    0  502  0.63796824646E+03 -0.76727996509E+03 -0.75113997680E+03  0.12489728993E+04  0.10100000352E+00 0.  1.
</event>
<event>
 5   0  0.3549426E-05  0.1982564E+04  0.7818609E-02  0.8614816E-01
       -1   -1    0    0    0  501  0.00000000000E+00  0.00000000000E+00  0.98742075907E+03  0.98742075908E+03  0.50400001928E-02 0. -1.
        1   -1    0    0  501    0  0.00000000000E+00  0.00000000000E+00 -0.99515832239E+03  0.99515832241E+03  0.50400001928E-02 0.  1.
    10030    2    1    2    0    0  0.00000000000E+00  0.00000000000E+00 -0.77375633289E+01  0.19825790815E+04  0.19825639824E+04 0.  0.
        5    1    3    3  502    0  0.22600134333E+02  0.52235013057E+03 -0.84604944784E+03  0.99457638377E+03  0.46999998093E+01 0.  1.
       -5    1    3    3    0  502 -0.22600134333E+02 -0.52235013057E+03  0.83831188451E+03  0.98800269771E+03  0.46999998093E+01 0. -1.
</event>
<event>
 5   0  0.7843846E-05  0.1999097E+04  0.7818609E-02  0.8607043E-01
        2   -1    0    0  501    0  0.00000000000E+00  0.00000000000E+00  0.94016265192E+03  0.94016265193E+03  0.25500000920E-02 0.  1.
       -2   -1    0    0    0  501  0.00000000000E+00  0.00000000000E+00 -0.10626851372E+04  0.10626851372E+04  0.25500000920E-02 0. -1.
    10030    2    1    2    0    0  0.00000000000E+00  0.00000000000E+00 -0.12252248527E+03  0.20028477891E+04  0.19990966728E+04 0.  0.
        2    1    3    3  502    0 -0.48506147797E+03  0.39659377306E+03  0.71899764406E+03  0.95369223044E+03  0.25500000920E-02 0.  1.
       -2    1    3    3    0  502  0.48506147797E+03 -0.39659377306E+03 -0.84152012933E+03  0.10491555587E+04  0.25500000920E-02 0. -1.
</event>
<event>
 5   0  0.3787698E-05  0.2010533E+04  0.7818609E-02  0.8601712E-01
        1   -1    0    0  501    0  0.00000000000E+00  0.00000000000E+00  0.17678004468E+04  0.17678004468E+04  0.50400001928E-02 0.  1.
       -1   -1    0    0    0  501  0.00000000000E+00  0.00000000000E+00 -0.57164839420E+03  0.57164839422E+03  0.50400001928E-02 0. -1.
    10030    2    1    2    0    0  0.00000000000E+00  0.00000000000E+00  0.11961520526E+04  0.23394488411E+04  0.20105325531E+04 0.  0.
        4    1    3    3  502    0 -0.93362701279E+03 -0.31330029848E+03  0.36320758282E+03  0.10496370026E+04  0.12699999809E+01 0. -1.
       -4    1    3    3    0  502  0.93362701279E+03  0.31330029848E+03  0.83294446981E+03  0.12898118385E+04  0.12699999809E+01 0.  1.
</event>
<event>
 5   0  0.7935008E-05  0.2012254E+04  0.7818609E-02  0.8600913E-01
        2   -1    0    0  501    0  0.00000000000E+00  0.00000000000E+00  0.20122446923E+04  0.20122446923E+04  0.25500000920E-02 0.  1.
       -2   -1    0    0    0  501  0.00000000000E+00  0.00000000000E+00 -0.50306599578E+03  0.50306599579E+03  0.25500000920E-02 0. -1.
    10030    2    1    2    0    0  0.00000000000E+00  0.00000000000E+00  0.15091786965E+04  0.25153106881E+04  0.20122543377E+04 0.  0.
        3    1    3    3  502    0 -0.70942717170E+03 -0.64047205799E+03  0.11474950550E+04  0.14933975628E+04  0.10100000352E+00 0.  1.
       -3    1    3    3    0  502  0.70942717170E+03  0.64047205799E+03  0.36168364154E+03  0.10219131254E+04  0.10100000352E+00 0. -1.
</event>
<event>
 5   0  0.8011197E-05  0.2005224E+04  0.7818609E-02  0.8604182E-01
       -2   -1    0    0    0  501  0.00000000000E+00  0.00000000000E+00  0.12830038077E+04  0.12830038077E+04  0.25500000920E-02 0.  1.
        2   -1    0    0  501    0  0.00000000000E+00  0.00000000000E+00 -0.78349775658E+03  0.78349775658E+03  0.25500000920E-02 0. -1.
    10030    2    1    2    0    0  0.00000000000E+00  0.00000000000E+00  0.49950605109E+03  0.20665015643E+04  0.20052237830E+04 0.  0.
        5    1    3    3  502    0 -0.54596745552E+03 -0.55868394795E+03  0.89744960499E+03  0.11898092703E+04  0.46999998093E+01 0.  1.
       -5    1    3    3    0  502  0.54596745552E+03  0.55868394795E+03 -0.39794355390E+03  0.87669229395E+03  0.46999998093E+01 0. -1.
</event>
<event>
 5   0  0.7857136E-05  0.2012234E+04  0.7818609E-02  0.8600922E-01
        2   -1    0    0  501    0  0.00000000000E+00  0.00000000000E+00  0.14599691417E+04  0.14599691417E+04  0.25500000920E-02 0.  1.
       -2   -1    0    0    0  501  0.00000000000E+00  0.00000000000E+00 -0.69335120994E+03  0.69335120995E+03  0.25500000920E-02 0. -1.
    10030    2    1    2    0    0  0.00000000000E+00  0.00000000000E+00  0.76661793176E+03  0.21533203516E+04  0.20122339535E+04 0.  0.
        4    1    3    3  502    0 -0.61199775338E+03 -0.50036065051E+03  0.10493360497E+04  0.13137769175E+04  0.12699999809E+01 0.  1.
       -4    1    3    3    0  502  0.61199775338E+03  0.50036065051E+03 -0.28271811798E+03  0.83954343417E+03  0.12699999809E+01 0. -1.
</event>
<event>
 5   0  0.3787698E-05  0.1951195E+04  0.7818609E-02  0.8629785E-01
        1   -1    0    0  501    0  0.00000000000E+00  0.00000000000E+00  0.18593169500E+04  0.18593169500E+04  0.50400001928E-02 0. -1.
       -1   -1    0    0    0  501  0.00000000000E+00  0.00000000000E+00 -0.51190344139E+03  0.51190344142E+03  0.50400001928E-02 0.  1.
    10030    2    1    2    0    0  0.00000000000E+00  0.00000000000E+00  0.13474135086E+04  0.23712203914E+04  0.19511952700E+04 0.  0.
        4    1    3    3  502    0  0.11934464211E+03  0.61695106336E+03 -0.23320821436E+03  0.67026818687E+03  0.12699999809E+01 0.  1.
       -4    1    3    3    0  502 -0.11934464211E+03 -0.61695106336E+03  0.15806217230E+04  0.17009522045E+04  0.12699999809E+01 0. -1.
</event>
<event>
 5   0  0.8022574E-05  0.1999751E+04  0.7818609E-02  0.8606737E-01
        2   -1    0    0  501    0  0.00000000000E+00  0.00000000000E+00  0.24877318924E+04  0.24877318924E+04  0.25500000920E-02 0. -1.
       -2   -1    0    0    0  501  0.00000000000E+00  0.00000000000E+00 -0.40187264967E+03  0.40187264968E+03  0.25500000920E-02 0.  1.
    10030    2    1    2    0    0  0.00000000000E+00  0.00000000000E+00  0.20858592428E+04  0.28896045421E+04  0.19997513918E+04 0.  0.
        1    1    3    3  502    0  0.43532012273E+02 -0.23076155503E+03 -0.36146007010E+03  0.43104444513E+03  0.50400001928E-02 0.  1.
       -1    1    3    3    0  502 -0.43532012273E+02  0.23076155503E+03  0.24473193129E+04  0.24585600970E+04  0.50400001928E-02 0. -1.
</event>
<event>
 5   0  0.3787698E-05  0.2000988E+04  0.7818609E-02  0.8606159E-01
        1   -1    0    0  501    0  0.00000000000E+00  0.00000000000E+00  0.10101692031E+04  0.10101692031E+04  0.50400001928E-02 0.  1.
       -1   -1    0    0    0  501  0.00000000000E+00  0.00000000000E+00 -0.99091131686E+03  0.99091131688E+03  0.50400001928E-02 0. -1.
    10030    2    1    2    0    0  0.00000000000E+00  0.00000000000E+00  0.19257886215E+02  0.20010805200E+04  0.20009878513E+04 0.  0.
        4    1    3    3  502    0 -0.33445146708E+03  0.90405972266E+03 -0.25834748746E+03  0.99796132348E+03  0.12699999809E+01 0. -1.
       -4    1    3    3    0  502  0.33445146708E+03 -0.90405972266E+03  0.27760537367E+03  0.10031191965E+04  0.12699999809E+01 0.  1.
</event>
<event>
 5   0  0.7857136E-05  0.2005912E+04  0.7818609E-02  0.8603862E-01
       -2   -1    0    0    0  501  0.00000000000E+00  0.00000000000E+00  0.95826950663E+03  0.95826950664E+03  0.25500000920E-02 0.  1.
        2   -1    0    0  501    0  0.00000000000E+00  0.00000000000E+00 -0.10497261390E+04  0.10497261390E+04  0.25500000920E-02 0. -1.
    10030    2    1    2    0    0  0.00000000000E+00  0.00000000000E+00 -0.91456632351E+02  0.20079956456E+04  0.20059118119E+04 0.  0.
        4    1    3    3  502    0  0.28339538237E+03 -0.48437378737E+03 -0.87784876054E+03  0.10418977723E+04  0.12699999809E+01 0. -1.
       -4    1    3    3    0  502 -0.28339538237E+03  0.48437378737E+03  0.78639212819E+03  0.96609787332E+03  0.12699999809E+01 0.  1.
</event>
<event>
 5   0  0.3818907E-05  0.1977505E+04  0.7818609E-02  0.8617210E-01
       -1   -1    0    0    0  501  0.00000000000E+00  0.00000000000E+00  0.43081733476E+03  0.43081733479E+03  0.50400001928E-02 0. -1.
        1   -1    0    0  501    0  0.00000000000E+00  0.00000000000E+00 -0.22692491041E+04  0.22692491041E+04  0.50400001928E-02 0.  1.
    10030    2    1    2    0    0  0.00000000000E+00  0.00000000000E+00 -0.18384317693E+04  0.27000664389E+04  0.19775053486E+04 0.  0.
        1    1    3    3  502    0 -0.71855151067E+03 -0.64904895916E+03 -0.64596372235E+03  0.11639802213E+04  0.50400001928E-02 0. -1.
       -1    1    3    3    0  502  0.71855151067E+03  0.64904895916E+03 -0.11924680469E+04  0.15360862176E+04  0.50400001928E-02 0.  1.
</event>
<event>
 5   0  0.8011197E-05  0.1984294E+04  0.7818609E-02  0.8613999E-01
        2   -1    0    0  501    0  0.00000000000E+00  0.00000000000E+00  0.13387702468E+04  0.13387702468E+04  0.25500000920E-02 0.  1.
       -2   -1    0    0    0  501  0.00000000000E+00  0.00000000000E+00 -0.73526822475E+03  0.73526822475E+03  0.25500000920E-02 0. -1.
    10030    2    1    2    0    0  0.00000000000E+00  0.00000000000E+00  0.60350202201E+03  0.20740384715E+04  0.19842935495E+04 0.  0.
        5    1    3    3  502    0 -0.33249943256E+02 -0.79826228539E+03 -0.31307468546E+03  0.85811775630E+03  0.46999998093E+01 0. -1.
       -5    1    3    3    0  502  0.33249943256E+02  0.79826228539E+03  0.91657670747E+03  0.12159207152E+04  0.46999998093E+01 0.  1.
</event>
<event>
 5   0  0.8011197E-05  0.1993080E+04  0.7818609E-02  0.8609863E-01
       -2   -1    0    0    0  501  0.00000000000E+00  0.00000000000E+00  0.39944584258E+03  0.39944584259E+03  0.25500000920E-02 0.  1.
        2   -1    0    0  501    0  0.00000000000E+00  0.00000000000E+00 -0.24861750156E+04  0.24861750156E+04  0.25500000920E-02 0. -1.
    10030    2    1    2    0    0  0.00000000000E+00  0.00000000000E+00 -0.20867291731E+04  0.28856208582E+04  0.19930803034E+04 0.  0.
        5    1    3    3  502    0  0.20563722144E+03  0.60980745331E+03 -0.21449625972E+04  0.22394281481E+04  0.46999998093E+01 0. -1.
       -5    1    3    3    0  502 -0.20563722144E+03 -0.60980745331E+03  0.58233424157E+02  0.64619271015E+03  0.46999998093E+01 0.  1.
</event>
<event>
 5   0  0.7843846E-05  0.2001503E+04  0.7818609E-02  0.8605918E-01
        2   -1    0    0  501    0  0.00000000000E+00  0.00000000000E+00  0.17475440629E+04  0.17475440629E+04  0.25500000920E-02 0. -1.
       -2   -1    0    0    0  501  0.00000000000E+00  0.00000000000E+00 -0.57309185456E+03  0.57309185457E+03  0.25500000920E-02 0.  1.
    10030    2    1    2    0    0  0.00000000000E+00  0.00000000000E+00  0.11744522084E+04  0.23206359175E+04  0.20015027034E+04 0.  0.
        2    1    3    3  502    0  0.41109788226E+03 -0.87186501794E+03  0.89910046250E+03  0.13181546647E+04  0.25500000920E-02 0. -1.
       -2    1    3    3    0  502 -0.41109788226E+03  0.87186501794E+03  0.27535174586E+03  0.10024812528E+04  0.25500000920E-02 0.  1.
</event>
<event>
 5   0  0.7843846E-05  0.2032323E+04  0.7818609E-02  0.8591656E-01
       -2   -1    0    0    0  501  0.00000000000E+00  0.00000000000E+00  0.51423116826E+03  0.51423116827E+03  0.25500000920E-02 0.  1.
        2   -1    0    0  501    0  0.00000000000E+00  0.00000000000E+00 -0.20080151143E+04  0.20080151143E+04  0.25500000920E-02 0. -1.
    10030    2    1    2    0    0  0.00000000000E+00  0.00000000000E+00 -0.14937839460E+04  0.25222462826E+04  0.20323227678E+04 0.  0.
        2    1    3    3  502    0 -0.16459241188E+03  0.54112503102E+03  0.30081824319E+03  0.64062358425E+03  0.25500000920E-02 0.  1.
       -2    1    3    3    0  502  0.16459241188E+03 -0.54112503102E+03 -0.17946021892E+04  0.18816226983E+04  0.25500000920E-02 0. -1.
</event>
<event>
 5   0  0.8022574E-05  0.2047822E+04  0.7818609E-02  0.8584583E-01
        2   -1    0    0  501    0  0.00000000000E+00  0.00000000000E+00  0.62999658273E+03  0.62999658273E+03  0.25500000920E-02 0.  1.
       -2   -1    0    0    0  501  0.00000000000E+00  0.00000000000E+00 -0.16641260510E+04  0.16641260510E+04  0.25500000920E-02 0. -1.
    10030    2    1    2    0    0  0.00000000000E+00  0.00000000000E+00 -0.10341294683E+04  0.22941226337E+04  0.20478219897E+04 0.  0.
        1    1    3    3  502    0  0.54773379607E+03 -0.79641554430E+03 -0.89548490829E+03  0.13176430668E+04  0.50400001928E-02 0. -1.
       -1    1    3    3    0  502 -0.54773379607E+03  0.79641554430E+03 -0.13864455998E+03  0.97647956691E+03  0.50400001928E-02 0.  1.
</event>
<event>
 5   0  0.3970042E-05  0.1999503E+04  0.7818609E-02  0.8606853E-01
       -1   -1    0    0    0  501  0.00000000000E+00  0.00000000000E+00  0.59263271592E+03  0.59263271594E+03  0.50400001928E-02 0.  1.
        1   -1    0    0  501    0  0.00000000000E+00  0.00000000000E+00 -0.16865467690E+04  0.16865467691E+04  0.50400001928E-02 0. -1.
    10030    2    1    2    0    0  0.00000000000E+00  0.00000000000E+00 -0.10939140531E+04  0.22791794850E+04  0.19995027305E+04 0.  0.
        3    1    3    3  502    0  0.84945609086E+02  0.47478977106E+03  0.45123719002E+03  0.66049685470E+03  0.10100000352E+00 0.  1.
       -3    1    3    3    0  502 -0.84945609086E+02 -0.47478977106E+03 -0.15451512431E+04  0.16186826303E+04  0.10100000352E+00 0. -1.
</event>
<event>
 5   0  0.3970042E-05  0.2003135E+04  0.7818609E-02  0.8605156E-01
        1   -1    0    0  501    0  0.00000000000E+00  0.00000000000E+00  0.13456549947E+04  0.13456549947E+04  0.50400001928E-02 0.  1.
       -1   -1    0    0    0  501  0.00000000000E+00  0.00000000000E+00 -0.74546426311E+03  0.74546426313E+03  0.50400001928E-02 0. -1.
    10030    2    1    2    0    0  0.00000000000E+00  0.00000000000E+00  0.60019073161E+03  0.20911192579E+04  0.20031352516E+04 0.  0.
        3    1    3    3  502    0  0.86530621502E+03  0.25819394937E+03  0.75239094225E+03  0.11753770040E+04  0.10100000352E+00 0.  1.
       -3    1    3    3    0  502 -0.86530621502E+03 -0.25819394937E+03 -0.15220021064E+03  0.91574225390E+03  0.10100000352E+00 0. -1.
</event>
<event>
 5   0  0.2859625E-05  0.2007342E+04  0.7818609E-02  0.8603196E-01
       -3   -1    0    0    0  501  0.00000000000E+00  0.00000000000E+00  0.14913842434E+04  0.14913842468E+04  0.10100000352E+00 0.  1.
        3   -1    0    0  501    0  0.00000000000E+00  0.00000000000E+00 -0.67545025642E+03  0.67545026398E+03  0.10100000352E+00 0. -1.
    10030    2    1    2    0    0  0.00000000000E+00  0.00000000000E+00  0.81593398693E+03  0.21668345108E+04  0.20073424038E+04 0.  0.
        3    1    3    3  502    0 -0.47061492043E+03  0.18541176011E+03  0.13437362269E+04  0.14357865377E+04  0.10100000352E+00 0.  1.
       -3    1    3    3    0  502  0.47061492043E+03 -0.18541176011E+03 -0.52780224000E+03  0.73104797303E+03  0.10100000352E+00 0. -1.
</event>
<event>
 5   0  0.7935008E-05  0.1992450E+04  0.7818609E-02  0.8610159E-01
       -2   -1    0    0    0  501  0.00000000000E+00  0.00000000000E+00  0.85529243226E+03  0.85529243227E+03  0.25500000920E-02 0.  1.
        2   -1    0    0  501    0  0.00000000000E+00  0.00000000000E+00 -0.11603802527E+04  0.11603802527E+04  0.25500000920E-02 0. -1.
    10030    2    1    2    0    0  0.00000000000E+00  0.00000000000E+00 -0.30508782046E+03  0.20156726850E+04  0.19924501988E+04 0.  0.
        3    1    3    3  502    0  0.37165612468E+03 -0.75126890346E+03  0.39218448030E+03  0.92538744162E+03  0.10100000352E+00 0.  1.
       -3    1    3    3    0  502 -0.37165612468E+03  0.75126890346E+03 -0.69727230076E+03  0.10902852434E+04  0.10100000352E+00 0. -1.
</event>
<event>
 5   0  0.3818907E-05  0.1998761E+04  0.7818609E-02  0.8607200E-01
       -1   -1    0    0    0  501  0.00000000000E+00  0.00000000000E+00  0.19299032985E+04  0.19299032985E+04  0.50400001928E-02 0. -1.
        1   -1    0    0  501    0  0.00000000000E+00  0.00000000000E+00 -0.51751895662E+03  0.51751895664E+03  0.50400001928E-02 0.  1.
    10030    2    1    2    0    0  0.00000000000E+00  0.00000000000E+00  0.14123843418E+04  0.24474222551E+04  0.19987611577E+04 0.  0.
        1    1    3    3  502    0 -0.11789110821E+03 -0.51212706340E+03 -0.33467115435E+03  0.62303870188E+03  0.50400001928E-02 0.  1.
       -1    1    3    3    0  502  0.11789110821E+03  0.51212706340E+03  0.17470554962E+04  0.18243835532E+04  0.50400001928E-02 0. -1.
</event>
<event>
 5   0  0.7843846E-05  0.1992174E+04  0.7818609E-02  0.8610288E-01
        2   -1    0    0  501    0  0.00000000000E+00  0.00000000000E+00  0.12973176076E+04  0.12973176076E+04  0.25500000920E-02 0.  1.
       -2   -1    0    0    0  501  0.00000000000E+00  0.00000000000E+00 -0.76480071965E+03  0.76480071966E+03  0.25500000920E-02 0. -1.
    10030    2    1    2    0    0  0.00000000000E+00  0.00000000000E+00  0.53251688796E+03  0.20621183273E+04  0.19921741289E+04 0.  0.
        2    1    3    3  502    0 -0.10523392042E+03 -0.62399003494E+03  0.10625205399E+04  0.12366841308E+04  0.25500000920E-02 0.  1.
       -2    1    3    3    0  502  0.10523392042E+03  0.62399003494E+03 -0.53000365189E+03  0.82543419649E+03  0.25500000920E-02 0. -1.
</event>
<event>
 5   0  0.3787698E-05  0.2014935E+04  0.7818609E-02  0.8599670E-01
        1   -1    0    0  501    0  0.00000000000E+00  0.00000000000E+00  0.77556819428E+03  0.77556819430E+03  0.50400001928E-02 0.  1.
       -1   -1    0    0    0  501  0.00000000000E+00  0.00000000000E+00 -0.13087063483E+04  0.13087063484E+04  0.50400001928E-02 0. -1.
    10030    2    1    2    0    0  0.00000000000E+00  0.00000000000E+00 -0.53313815406E+03  0.20842745427E+04  0.20149352540E+04 0.  0.
        4    1    3    3  502    0  0.65350701524E+03 -0.46843204102E+03 -0.89449199536E+03  0.12027541472E+04  0.12699999809E+01 0. -1.
       -4    1    3    3    0  502 -0.65350701524E+03  0.46843204102E+03  0.36135384129E+03  0.88152039542E+03  0.12699999809E+01 0.  1.
</event>
<event>
 5   0  0.3818907E-05  0.2007341E+04  0.7818609E-02  0.8603196E-01
        1   -1    0    0  501    0  0.00000000000E+00  0.00000000000E+00  0.10331615465E+04  0.10331615465E+04  0.50400001928E-02 0.  1.
       -1   -1    0    0    0  501  0.00000000000E+00  0.00000000000E+00 -0.97502173143E+03  0.97502173144E+03  0.50400001928E-02 0. -1.
    10030    2    1    2    0    0  0.00000000000E+00  0.00000000000E+00  0.58139815099E+02  0.20081832780E+04  0.20073414856E+04 0.  0.
        1    1    3    3  502    0  0.40267256304E+03 -0.16445827955E+03  0.93397299063E+03  0.10302898942E+04  0.50400001928E-02 0.  1.
       -1    1    3    3    0  502 -0.40267256304E+03  0.16445827955E+03 -0.87583317553E+03  0.97789338382E+03  0.50400001928E-02 0. -1.
</event>
<event>
 5   0  0.3772949E-05  0.1980709E+04  0.7818609E-02  0.8615693E-01
       -1   -1    0    0    0  501  0.00000000000E+00  0.00000000000E+00  0.60717711645E+03  0.60717711647E+03  0.50400001928E-02 0. -1.
        1   -1    0    0  501    0  0.00000000000E+00  0.00000000000E+00 -0.16153481684E+04  0.16153481684E+04  0.50400001928E-02 0.  1.
    10030    2    1    2    0    0  0.00000000000E+00  0.00000000000E+00 -0.10081710520E+04  0.22225252849E+04  0.19807094113E+04 0.  0.
        2    1    3    3  502    0 -0.72236173132E+03  0.63204159611E+03 -0.23033485536E+03  0.98708520184E+03  0.25500000920E-02 0. -1.
       -2    1    3    3    0  502  0.72236173132E+03 -0.63204159611E+03 -0.77783619662E+03  0.12354400831E+04  0.25500000920E-02 0.  1.
</event>
<event>
 5   0  0.3970042E-05  0.1985851E+04  0.7818609E-02  0.8613265E-01
        1   -1    0    0  501    0  0.00000000000E+00  0.00000000000E+00  0.12264487416E+04  0.12264487417E+04  0.50400001928E-02 0. -1.
       -1   -1    0    0    0  501  0.00000000000E+00  0.00000000000E+00 -0.80386631145E+03  0.80386631147E+03  0.50400001928E-02 0.  1.
    10030    2    1    2    0    0  0.00000000000E+00  0.00000000000E+00  0.42258243019E+03  0.20303150531E+04  0.19858507760E+04 0.  0.
        3    1    3    3  502    0 -0.15334640432E+03 -0.77006427561E+03 -0.41008904896E+03  0.88582568634E+03  0.10100000352E+00 0.  1.
       -3    1    3    3    0  502  0.15334640432E+03  0.77006427561E+03  0.83267147915E+03  0.11444893668E+04  0.10100000352E+00 0. -1.
</event>
<event>
 5   0  0.7857136E-05  0.1965470E+04  0.7818609E-02  0.8622937E-01
       -2   -1    0    0    0  501  0.00000000000E+00  0.00000000000E+00  0.67755616203E+03  0.67755616203E+03  0.25500000920E-02 0.  1.
        2   -1    0    0  501    0  0.00000000000E+00  0.00000000000E+00 -0.14253696533E+04  0.14253696533E+04  0.25500000920E-02 0. -1.
    10030    2    1    2    0    0  0.00000000000E+00  0.00000000000E+00 -0.74781349123E+03  0.21029258153E+04  0.19654699100E+04 0.  0.
        4    1    3    3  502    0 -0.49394578596E+03 -0.25674416178E+03 -0.12404000993E+04  0.13595933302E+04  0.12699999809E+01 0. -1.
       -4    1    3    3    0  502  0.49394578596E+03  0.25674416178E+03  0.49258660810E+03  0.74333248513E+03  0.12699999809E+01 0.  1.
</event>
<event>
 5   0  0.7857136E-05  0.2040535E+04  0.7818609E-02  0.8587900E-01
       -2   -1    0    0    0  501  0.00000000000E+00  0.00000000000E+00  0.88134721467E+03  0.88134721467E+03  0.25500000920E-02 0.  1.
        2   -1    0    0  501    0  0.00000000000E+00  0.00000000000E+00 -0.11810851697E+04  0.11810851697E+04  0.25500000920E-02 0. -1.
    10030    2    1    2    0    0  0.00000000000E+00  0.00000000000E+00 -0.29973795503E+03  0.20624323844E+04  0.20405353460E+04 0.  0.
        4    1    3    3  502    0 -0.64842949830E+03  0.78762513160E+03 -0.13832938929E+03  0.10295391178E+04  0.12699999809E+01 0. -1.
       -4    1    3    3    0  502  0.64842949830E+03 -0.78762513160E+03 -0.16140856574E+03  0.10328932666E+04  0.12699999809E+01 0.  1.
</event>
<event>
 5   0  0.3772949E-05  0.1898406E+04  0.7818609E-02  0.8655650E-01
        1   -1    0    0  501    0  0.00000000000E+00  0.00000000000E+00  0.81752000109E+03  0.81752000111E+03  0.50400001928E-02 0. -1.
       -1   -1    0    0    0  501  0.00000000000E+00  0.00000000000E+00 -0.11020973567E+04  0.11020973567E+04  0.50400001928E-02 0.  1.
    10030    2    1    2    0    0  0.00000000000E+00  0.00000000000E+00 -0.28457735563E+03  0.19196173578E+04  0.18984063130E+04 0.  0.
        2    1    3    3  502    0 -0.90092648364E+03 -0.17718351481E+03 -0.38565202312E+03  0.99588654464E+03  0.25500000920E-02 0.  1.
       -2    1    3    3    0  502  0.90092648364E+03  0.17718351481E+03  0.10107466749E+03  0.92373081320E+03  0.25500000920E-02 0. -1.
</event>
<event>
 5   0  0.7857136E-05  0.1973546E+04  0.7818609E-02  0.8619090E-01
       -2   -1    0    0    0  501  0.00000000000E+00  0.00000000000E+00  0.94493206281E+03  0.94493206281E+03  0.25500000920E-02 0. -1.
        2   -1    0    0  501    0  0.00000000000E+00  0.00000000000E+00 -0.10304663429E+04  0.10304663429E+04  0.25500000920E-02 0.  1.
    10030    2    1    2    0    0  0.00000000000E+00  0.00000000000E+00 -0.85534280093E+02  0.19753984057E+04  0.19735457300E+04 0.  0.
        4    1    3    3  502    0 -0.79634736895E+03 -0.36843468012E+03 -0.49463952874E+03  0.10072651696E+04  0.12699999809E+01 0. -1.
       -4    1    3    3    0  502  0.79634736895E+03  0.36843468012E+03  0.40910524864E+03  0.96813323614E+03  0.12699999809E+01 0.  1.
</event>
<event>
 5   0  0.8022574E-05  0.1942691E+04  0.7818609E-02  0.8633893E-01
       -2   -1    0    0    0  501  0.00000000000E+00  0.00000000000E+00  0.95552862516E+03  0.95552862517E+03  0.25500000920E-02 0. -1.
        2   -1    0    0  501    0  0.00000000000E+00  0.00000000000E+00 -0.98742397564E+03  0.98742397564E+03  0.25500000920E-02 0.  1.
    10030    2    1    2    0    0  0.00000000000E+00  0.00000000000E+00 -0.31895350479E+02  0.19429526008E+04  0.19426907874E+04 0.  0.
        1    1    3    3  502    0 -0.83040651152E+03  0.35516987279E+03  0.34157953735E+03  0.96560716302E+03  0.50400001928E-02 0.  1.
       -1    1    3    3    0  502  0.83040651152E+03 -0.35516987279E+03 -0.37347488783E+03  0.97734543779E+03  0.50400001928E-02 0. -1.
</event>
<event>
 5   0  0.7857136E-05  0.1992664E+04  0.7818609E-02  0.8610058E-01
       -2   -1    0    0    0  501  0.00000000000E+00  0.00000000000E+00  0.60893318788E+03  0.60893318789E+03  0.25500000920E-02 0.  1.
        2   -1    0    0  501    0  0.00000000000E+00  0.00000000000E+00 -0.16301904845E+04  0.16301904845E+04  0.25500000920E-02 0. -1.
    10030    2    1    2    0    0  0.00000000000E+00  0.00000000000E+00 -0.10212572966E+04  0.22391236724E+04  0.19926636330E+04 0.  0.
        4    1    3    3  502    0 -0.79061397155E+02  0.72156529213E+03  0.25625424546E+03  0.76978894934E+03  0.12699999809E+01 0.  1.
       -4    1    3    3    0  502  0.79061397155E+02 -0.72156529213E+03 -0.12775115421E+04  0.14693347230E+04  0.12699999809E+01 0. -1.
</event>
<event>
 5   0  0.3970042E-05  0.1967176E+04  0.7818609E-02  0.8622123E-01
       -1   -1    0    0    0  501  0.00000000000E+00  0.00000000000E+00  0.47376981944E+03  0.47376981946E+03  0.50400001928E-02 0.  1.
        1   -1    0    0  501    0  0.00000000000E+00  0.00000000000E+00 -0.20420155329E+04  0.20420155329E+04  0.50400001928E-02 0. -1.
    10030    2    1    2    0    0  0.00000000000E+00  0.00000000000E+00 -0.15682457134E+04  0.25157853523E+04  0.19671759762E+04 0.  0.
        3    1    3    3  502    0 -0.67425923059E+03 -0.49703580858E+02  0.12949412044E+03  0.68837830690E+03  0.10100000352E+00 0.  1.
       -3    1    3    3    0  502  0.67425923059E+03  0.49703580858E+02 -0.16977398339E+04  0.18274070454E+04  0.10100000352E+00 0. -1.
</event>
<event>
 5   0  0.8011197E-05  0.1995325E+04  0.7818609E-02  0.8608809E-01
       -2   -1    0    0    0  501  0.00000000000E+00  0.00000000000E+00  0.56400267852E+03  0.56400267853E+03  0.25500000920E-02 0.  1.
        2   -1    0    0  501    0  0.00000000000E+00  0.00000000000E+00 -0.17647621703E+04  0.17647621703E+04  0.25500000920E-02 0. -1.
    10030    2    1    2    0    0  0.00000000000E+00  0.00000000000E+00 -0.12007594918E+04  0.23287648489E+04  0.19953251274E+04 0.  0.
        5    1    3    3  502    0  0.31103336056E+03 -0.59767445817E+03  0.25834076206E+03  0.72160830696E+03  0.46999998093E+01 0.  1.
       -5    1    3    3    0  502 -0.31103336056E+03  0.59767445817E+03 -0.14591002539E+04  0.16071565419E+04  0.46999998093E+01 0. -1.
</event>
<event>
 5   0  0.3549426E-05  0.2002577E+04  0.7818609E-02  0.8605417E-01
       -1   -1    0    0    0  501  0.00000000000E+00  0.00000000000E+00  0.10196727363E+04  0.10196727363E+04  0.50400001928E-02 0.  1.
        1   -1    0    0  501    0  0.00000000000E+00  0.00000000000E+00 -0.98323609006E+03  0.98323609007E+03  0.50400001928E-02 0. -1.
    10030    2    1    2    0    0  0.00000000000E+00  0.00000000000E+00  0.36436646217E+02  0.20029088264E+04  0.20025773737E+04 0.  0.
        5    1    3    3  502    0  0.16822071153E+03 -0.54521823824E+03  0.84115205746E+03  0.10164251123E+04  0.46999998093E+01 0.  1.
       -5    1    3    3    0  502 -0.16822071153E+03  0.54521823824E+03 -0.80471541124E+03  0.98648371410E+03  0.46999998093E+01 0. -1.
</event>
<event>
 5   0  0.3970042E-05  0.1996982E+04  0.7818609E-02  0.8608033E-01
       -1   -1    0    0    0  501  0.00000000000E+00  0.00000000000E+00  0.19360122109E+04  0.19360122109E+04  0.50400001928E-02 0.  1.
        1   -1    0    0  501    0  0.00000000000E+00  0.00000000000E+00 -0.51496789887E+03  0.51496789889E+03  0.50400001928E-02 0. -1.
    10030    2    1    2    0    0  0.00000000000E+00  0.00000000000E+00  0.14210443120E+04  0.24509801098E+04  0.19969818632E+04 0.  0.
        3    1    3    3  502    0  0.90703900449E+03 -0.52195711331E+02  0.20218910613E+03  0.93076559497E+03  0.10100000352E+00 0. -1.
       -3    1    3    3    0  502 -0.90703900449E+03  0.52195711331E+02  0.12188552059E+04  0.15202145148E+04  0.10100000352E+00 0.  1.
</event>
<event>
 5   0  0.7935008E-05  0.1991496E+04  0.7818609E-02  0.8610607E-01
        2   -1    0    0  501    0  0.00000000000E+00  0.00000000000E+00  0.82563136366E+03  0.82563136366E+03  0.25500000920E-02 0.  1.
       -2   -1    0    0    0  501  0.00000000000E+00  0.00000000000E+00 -0.12009165590E+04  0.12009165590E+04  0.25500000920E-02 0. -1.
    10030    2    1    2    0    0  0.00000000000E+00  0.00000000000E+00 -0.37528519531E+03  0.20265479226E+04  0.19914962980E+04 0.  0.
        3    1    3    3  502    0  0.76877719176E+01 -0.81115506791E+03  0.40000104514E+03  0.90445148700E+03  0.10100000352E+00 0.  1.
       -3    1    3    3    0  502 -0.76877719176E+01  0.81115506791E+03 -0.77528624044E+03  0.11220964356E+04  0.10100000352E+00 0. -1.
</event>
<event>
 5   0  0.3818907E-05  0.1969555E+04  0.7818609E-02  0.8620989E-01
       -1   -1    0    0    0  501  0.00000000000E+00  0.00000000000E+00  0.68177892448E+03  0.68177892449E+03  0.50400001928E-02 0. -1.
        1   -1    0    0  501    0  0.00000000000E+00  0.00000000000E+00 -0.14224352931E+04  0.14224352931E+04  0.50400001928E-02 0.  1.
    10030    2    1    2    0    0  0.00000000000E+00  0.00000000000E+00 -0.74065636860E+03  0.21042142176E+04  0.19695546748E+04 0.  0.
        1    1    3    3  502    0  0.16639611465E+03 -0.38815196851E+03  0.58012345864E+03  0.71756034235E+03  0.50400001928E-02 0. -1.
       -1    1    3    3    0  502 -0.16639611465E+03  0.38815196851E+03 -0.13207798272E+04  0.13866538752E+04  0.50400001928E-02 0.  1.
</event>
<event>
 5   0  0.3787698E-05  0.2014949E+04  0.7818609E-02  0.8599663E-01
       -1   -1    0    0    0  501  0.00000000000E+00  0.00000000000E+00  0.10919167084E+04  0.10919167084E+04  0.50400001928E-02 0. -1.
        1   -1    0    0  501    0  0.00000000000E+00  0.00000000000E+00 -0.92956264219E+03  0.92956264220E+03  0.50400001928E-02 0.  1.
    10030    2    1    2    0    0  0.00000000000E+00  0.00000000000E+00  0.16235406619E+03  0.20214793506E+04  0.20149491115E+04 0.  0.
        4    1    3    3  502    0  0.34817849080E+03  0.85421690438E+03  0.48756834423E+03  0.10433787828E+04  0.12699999809E+01 0. -1.
       -4    1    3    3    0  502 -0.34817849080E+03 -0.85421690438E+03 -0.32521427804E+03  0.97810056780E+03  0.12699999809E+01 0.  1.
</event>
<event>
 5   0  0.3549426E-05  0.1994108E+04  0.7818609E-02  0.8609381E-01
       -1   -1    0    0    0  501  0.00000000000E+00  0.00000000000E+00  0.10448198743E+04  0.10448198744E+04  0.50400001928E-02 0. -1.
        1   -1    0    0  501    0  0.00000000000E+00  0.00000000000E+00 -0.95147140617E+03  0.95147140619E+03  0.50400001928E-02 0.  1.
    10030    2    1    2    0    0  0.00000000000E+00  0.00000000000E+00  0.93348468170E+02  0.19962912805E+04  0.19941075548E+04 0.  0.
        5    1    3    3  502    0  0.77972207722E+03  0.61609193511E+03  0.12774658867E+03  0.10019366602E+04  0.46999998093E+01 0. -1.
       -5    1    3    3    0  502 -0.77972207722E+03 -0.61609193511E+03 -0.34398120498E+02  0.99435462030E+03  0.46999998093E+01 0.  1.
</event>
<event>
 5   0  0.3787698E-05  0.2004869E+04  0.7818609E-02  0.8604347E-01
       -1   -1    0    0    0  501  0.00000000000E+00  0.00000000000E+00  0.49470576534E+03  0.49470576537E+03  0.50400001928E-02 0.  1.
        1   -1    0    0  501    0  0.00000000000E+00  0.00000000000E+00 -0.20312587302E+04  0.20312587302E+04  0.50400001928E-02 0. -1.
    10030    2    1    2    0    0  0.00000000000E+00  0.00000000000E+00 -0.15365529648E+04  0.25259644956E+04  0.20048694768E+04 0.  0.
        4    1    3    3  502    0 -0.46554947916E+03 -0.49798136066E+03  0.15769827504E+03  0.69970859075E+03  0.12699999809E+01 0.  1.
       -4    1    3    3    0  502  0.46554947916E+03  0.49798136066E+03 -0.16942512399E+04  0.18262559048E+04  0.12699999809E+01 0. -1.
</event>
<event>
 5   0  0.3818907E-05  0.2032401E+04  0.7818609E-02  0.8591620E-01
        1   -1    0    0  501    0  0.00000000000E+00  0.00000000000E+00  0.10079784878E+04  0.10079784878E+04  0.50400001928E-02 0.  1.
       -1   -1    0    0    0  501  0.00000000000E+00  0.00000000000E+00 -0.10244898593E+04  0.10244898594E+04  0.50400001928E-02 0. -1.
    10030    2    1    2    0    0  0.00000000000E+00  0.00000000000E+00 -0.16511371550E+02  0.20324683472E+04  0.20324012785E+04 0.  0.
        1    1    3    3  502    0 -0.85741753848E+03  0.36052429642E+03  0.40105127980E+03  0.10129090446E+04  0.50400001928E-02 0.  1.
       -1    1    3    3    0  502  0.85741753848E+03 -0.36052429642E+03 -0.41756265135E+03  0.10195593026E+04  0.50400001928E-02 0. -1.
</event>
<event>
 5   0  0.7857136E-05  0.1997123E+04  0.7818609E-02  0.8607967E-01
       -2   -1    0    0    0  501  0.00000000000E+00  0.00000000000E+00  0.10554819790E+04  0.10554819790E+04  0.25500000920E-02 0. -1.
        2   -1    0    0  501    0  0.00000000000E+00  0.00000000000E+00 -0.94471051475E+03  0.94471051476E+03  0.25500000920E-02 0.  1.
    10030    2    1    2    0    0  0.00000000000E+00  0.00000000000E+00  0.11077146426E+03  0.20001924938E+04  0.19971228542E+04 0.  0.
        4    1    3    3  502    0  0.12826440585E+03  0.66766416516E+03 -0.67710432443E+03  0.95953065314E+03  0.12699999809E+01 0.  1.
       -4    1    3    3    0  502 -0.12826440585E+03 -0.66766416516E+03  0.78787578869E+03  0.10406618406E+04  0.12699999809E+01 0. -1.
</event>
<event>
 5   0  0.3787698E-05  0.1988992E+04  0.7818609E-02  0.8611785E-01
       -1   -1    0    0    0  501  0.00000000000E+00  0.00000000000E+00  0.43281392353E+03  0.43281392356E+03  0.50400001928E-02 0.  1.
        1   -1    0    0  501    0  0.00000000000E+00  0.00000000000E+00 -0.22850974736E+04  0.22850974736E+04  0.50400001928E-02 0. -1.
    10030    2    1    2    0    0  0.00000000000E+00  0.00000000000E+00 -0.18522835500E+04  0.27179113971E+04  0.19889917076E+04 0.  0.
        4    1    3    3  502    0  0.17169561441E+03 -0.85945298026E+03 -0.15683591831E+04  0.17966332261E+04  0.12699999809E+01 0. -1.
       -4    1    3    3    0  502 -0.17169561441E+03  0.85945298026E+03 -0.28392436697E+03  0.92127817099E+03  0.12699999809E+01 0.  1.
</event>
<event>
 5   0  0.3818907E-05  0.1995497E+04  0.7818609E-02  0.8608729E-01
        1   -1    0    0  501    0  0.00000000000E+00  0.00000000000E+00  0.98360432372E+03  0.98360432373E+03  0.50400001928E-02 0.  1.
       -1   -1    0    0    0  501  0.00000000000E+00  0.00000000000E+00 -0.10120963110E+04  0.10120963110E+04  0.50400001928E-02 0. -1.
    10030    2    1    2    0    0  0.00000000000E+00  0.00000000000E+00 -0.28491987234E+02  0.19957006347E+04  0.19954972388E+04 0.  0.
        1    1    3    3  502    0 -0.29705617408E+03  0.64271018525E+03  0.68880756164E+03  0.98781304394E+03  0.50400001928E-02 0.  1.
       -1    1    3    3    0  502  0.29705617408E+03 -0.64271018525E+03 -0.71729954887E+03  0.10078875908E+04  0.50400001928E-02 0. -1.
</event>
<event>
 5   0  0.3970042E-05  0.1998112E+04  0.7818609E-02  0.8607504E-01
       -1   -1    0    0    0  501  0.00000000000E+00  0.00000000000E+00  0.12555289509E+04  0.12555289509E+04  0.50400001928E-02 0.  1.
        1   -1    0    0  501    0  0.00000000000E+00  0.00000000000E+00 -0.79497394558E+03  0.79497394560E+03  0.50400001928E-02 0. -1.
    10030    2    1    2    0    0  0.00000000000E+00  0.00000000000E+00  0.46055500533E+03  0.20505028965E+04  0.19981119127E+04 0.  0.
        3    1    3    3  502    0 -0.35907985793E+03  0.64996985298E+03  0.91616862949E+03  0.11793066277E+04  0.10100000352E+00 0.  1.
       -3    1    3    3    0  502  0.35907985793E+03 -0.64996985298E+03 -0.45561362417E+03  0.87119626886E+03  0.10100000352E+00 0. -1.
</event>
<event>
 5   0  0.3970042E-05  0.2004287E+04  0.7818609E-02  0.8604619E-01
       -1   -1    0    0    0  501  0.00000000000E+00  0.00000000000E+00  0.63477247884E+03  0.63477247886E+03  0.50400001928E-02 0.  1.
        1   -1    0    0  501    0  0.00000000000E+00  0.00000000000E+00 -0.15821287486E+04  0.15821287486E+04  0.50400001928E-02 0. -1.
    10030    2    1    2    0    0  0.00000000000E+00  0.00000000000E+00 -0.94735626975E+03  0.22169012275E+04  0.20042871926E+04 0.  0.
        3    1    3    3  502    0 -0.22697578466E+03 -0.90095577082E+03 -0.88908793670E+03  0.12859691587E+04  0.10100000352E+00 0. -1.
       -3    1    3    3    0  502  0.22697578466E+03  0.90095577082E+03 -0.58268333054E+02  0.93093206875E+03  0.10100000352E+00 0.  1.
</event>
<event>
 5   0  0.7857136E-05  0.1999189E+04  0.7818609E-02  0.8607000E-01
       -2   -1    0    0    0  501  0.00000000000E+00  0.00000000000E+00  0.49949802984E+03  0.49949802984E+03  0.25500000920E-02 0. -1.
        2   -1    0    0  501    0  0.00000000000E+00  0.00000000000E+00 -0.20003871239E+04  0.20003871239E+04  0.25500000920E-02 0.  1.
    10030    2    1    2    0    0  0.00000000000E+00  0.00000000000E+00 -0.15008890940E+04  0.24998851537E+04  0.19991892630E+04 0.  0.
        4    1    3    3  502    0  0.24491787282E+03 -0.41845985033E+03 -0.18434936096E+04  0.19061908908E+04  0.12699999809E+01 0.  1.
       -4    1    3    3    0  502 -0.24491787282E+03  0.41845985033E+03  0.34260451558E+03  0.59369426287E+03  0.12699999809E+01 0. -1.
</event>
<event>
 5   0  0.3772949E-05  0.1936268E+04  0.7818609E-02  0.8637011E-01
        1   -1    0    0  501    0  0.00000000000E+00  0.00000000000E+00  0.13781324868E+04  0.13781324868E+04  0.50400001928E-02 0.  1.
       -1   -1    0    0    0  501  0.00000000000E+00  0.00000000000E+00 -0.68011151400E+03  0.68011151402E+03  0.50400001928E-02 0. -1.
    10030    2    1    2    0    0  0.00000000000E+00  0.00000000000E+00  0.69802097276E+03  0.20582440008E+04  0.19362683410E+04 0.  0.
        2    1    3    3  502    0 -0.44651991342E+02 -0.48353606059E+03  0.12393175981E+04  0.13310556078E+04  0.25500000920E-02 0.  1.
       -2    1    3    3    0  502  0.44651991342E+02  0.48353606059E+03 -0.54129662533E+03  0.72718839294E+03  0.25500000920E-02 0. -1.
</event>
<event>
 5   0  0.3787698E-05  0.1999779E+04  0.7818609E-02  0.8606724E-01
        1   -1    0    0  501    0  0.00000000000E+00  0.00000000000E+00  0.16975032662E+04  0.16975032662E+04  0.50400001928E-02 0. -1.
       -1   -1    0    0    0  501  0.00000000000E+00  0.00000000000E+00 -0.58897039516E+03  0.58897039518E+03  0.50400001928E-02 0.  1.
    10030    2    1    2    0    0  0.00000000000E+00  0.00000000000E+00  0.11085328711E+04  0.22864736614E+04  0.19997791573E+04 0.  0.
        4    1    3    3  502    0  0.30851188840E+03 -0.62204855785E+03 -0.26836209771E+03  0.74440837045E+03  0.12699999809E+01 0.  1.
       -4    1    3    3    0  502 -0.30851188840E+03  0.62204855785E+03  0.13768949688E+04  0.15420652909E+04  0.12699999809E+01 0. -1.
</event>
<event>
 5   0  0.7857136E-05  0.1997408E+04  0.7818609E-02  0.8607833E-01
        2   -1    0    0  501    0  0.00000000000E+00  0.00000000000E+00  0.10992631949E+04  0.10992631949E+04  0.25500000920E-02 0. -1.
       -2   -1    0    0    0  501  0.00000000000E+00  0.00000000000E+00 -0.90734384368E+03  0.90734384368E+03  0.25500000920E-02 0.  1.
    10030    2    1    2    0    0  0.00000000000E+00  0.00000000000E+00  0.19191935124E+03  0.20066070386E+04  0.19974080129E+04 0.  0.
        4    1    3    3  502    0  0.97005420175E+03 -0.87766262809E+02 -0.12573744954E+03  0.98209958270E+03  0.12699999809E+01 0. -1.
       -4    1    3    3    0  502 -0.97005420175E+03  0.87766262809E+02  0.31765680078E+03  0.10245074559E+04  0.12699999809E+01 0.  1.
</event>
<event>
 5   0  0.8011197E-05  0.2038409E+04  0.7818609E-02  0.8588871E-01
        2   -1    0    0  501    0  0.00000000000E+00  0.00000000000E+00  0.10026213462E+04  0.10026213462E+04  0.25500000920E-02 0.  1.
       -2   -1    0    0    0  501  0.00000000000E+00  0.00000000000E+00 -0.10360614700E+04  0.10360614700E+04  0.25500000920E-02 0. -1.
    10030    2    1    2    0    0  0.00000000000E+00  0.00000000000E+00 -0.33440123843E+02  0.20386828162E+04  0.20384085418E+04 0.  0.
        5    1    3    3  502    0 -0.73325329443E+03 -0.43272270536E+03 -0.57701497169E+03  0.10285318182E+04  0.46999998093E+01 0. -1.
       -5    1    3    3    0  502  0.73325329443E+03  0.43272270536E+03  0.54357484784E+03  0.10101509980E+04  0.46999998093E+01 0.  1.
</event>
<event>
 5   0  0.3787698E-05  0.2098096E+04  0.7818609E-02  0.8562083E-01
        1   -1    0    0  501    0  0.00000000000E+00  0.00000000000E+00  0.15563846795E+04  0.15563846795E+04  0.50400001928E-02 0. -1.
       -1   -1    0    0    0  501  0.00000000000E+00  0.00000000000E+00 -0.70708843082E+03  0.70708843084E+03  0.50400001928E-02 0.  1.
    10030    2    1    2    0    0  0.00000000000E+00  0.00000000000E+00  0.84929624868E+03  0.22634731103E+04  0.20980958994E+04 0.  0.
        4    1    3    3  502    0  0.60372683434E+03 -0.16538308723E+03  0.13328234096E+04  0.14725004279E+04  0.12699999809E+01 0. -1.
       -4    1    3    3    0  502 -0.60372683434E+03  0.16538308723E+03 -0.48352716097E+03  0.79097268242E+03  0.12699999809E+01 0.  1.
</event>
<event>
 5   0  0.7857136E-05  0.1996446E+04  0.7818609E-02  0.8608284E-01
        2   -1    0    0  501    0  0.00000000000E+00  0.00000000000E+00  0.22736400665E+04  0.22736400665E+04  0.25500000920E-02 0. -1.
       -2   -1    0    0    0  501  0.00000000000E+00  0.00000000000E+00 -0.43826159845E+03  0.43826159846E+03  0.25500000920E-02 0.  1.
    10030    2    1    2    0    0  0.00000000000E+00  0.00000000000E+00  0.18353784681E+04  0.27119016650E+04  0.19964459721E+04 0.  0.
        4    1    3    3  502    0  0.30258852499E+03  0.42151016042E+03  0.20760620397E+04  0.21399219229E+04  0.12699999809E+01 0. -1.
       -4    1    3    3    0  502 -0.30258852499E+03 -0.42151016042E+03 -0.24068357159E+03  0.57197974206E+03  0.12699999809E+01 0.  1.
</event>
<event>
 5   0  0.7935008E-05  0.1976651E+04  0.7818609E-02  0.8617616E-01
        2   -1    0    0  501    0  0.00000000000E+00  0.00000000000E+00  0.11220141284E+04  0.11220141285E+04  0.25500000920E-02 0. -1.
       -2   -1    0    0    0  501  0.00000000000E+00  0.00000000000E+00 -0.87056575650E+03  0.87056575650E+03  0.25500000920E-02 0.  1.
    10030    2    1    2    0    0  0.00000000000E+00  0.00000000000E+00  0.25144837195E+03  0.19925798850E+04  0.19766507820E+04 0.  0.
        3    1    3    3  502    0  0.35773738644E+03 -0.16162356781E+03 -0.78860714047E+03  0.88090830824E+03  0.10100000352E+00 0.  1.
       -3    1    3    3    0  502 -0.35773738644E+03  0.16162356781E+03  0.10400555124E+04  0.11116715767E+04  0.10100000352E+00 0. -1.
</event>
<event>
 5   0  0.3549426E-05  0.2006701E+04  0.7818609E-02  0.8603494E-01
        1   -1    0    0  501    0  0.00000000000E+00  0.00000000000E+00  0.17808733568E+04  0.17808733568E+04  0.50400001928E-02 0.  1.
       -1   -1    0    0    0  501  0.00000000000E+00  0.00000000000E+00 -0.56529152802E+03  0.56529152804E+03  0.50400001928E-02 0. -1.
    10030    2    1    2    0    0  0.00000000000E+00  0.00000000000E+00  0.12155818288E+04  0.23461648849E+04  0.20067013940E+04 0.  0.
        5    1    3    3  502    0  0.79322236493E+03  0.37188267799E+03  0.35984293066E+02  0.87682119372E+03  0.46999998093E+01 0. -1.
       -5    1    3    3    0  502 -0.79322236493E+03 -0.37188267799E+03  0.11795975357E+04  0.14693436912E+04  0.46999998093E+01 0.  1.
</event>
<event>
 5   0  0.7843846E-05  0.1987611E+04  0.7818609E-02  0.8612435E-01
       -2   -1    0    0    0  501  0.00000000000E+00  0.00000000000E+00  0.12856405323E+04  0.12856405323E+04  0.25500000920E-02 0.  1.
        2   -1    0    0  501    0  0.00000000000E+00  0.00000000000E+00 -0.76821586627E+03  0.76821586628E+03  0.25500000920E-02 0. -1.
    10030    2    1    2    0    0  0.00000000000E+00  0.00000000000E+00  0.51742466598E+03  0.20538563985E+04  0.19876110839E+04 0.  0.
        2    1    3    3  502    0  0.88563284244E+03 -0.38480283331E+03  0.50155721286E+03  0.10881077106E+04  0.25500000920E-02 0.  1.
       -2    1    3    3    0  502 -0.88563284244E+03  0.38480283331E+03  0.15867453117E+02  0.96574868791E+03  0.25500000920E-02 0. -1.
</event>
<event>
 5   0  0.3549426E-05  0.2009913E+04  0.7818609E-02  0.8602000E-01
       -1   -1    0    0    0  501  0.00000000000E+00  0.00000000000E+00  0.11468629958E+04  0.11468629958E+04  0.50400001928E-02 0.  1.
        1   -1    0    0  501    0  0.00000000000E+00  0.00000000000E+00 -0.88060850982E+03  0.88060850983E+03  0.50400001928E-02 0. -1.
    10030    2    1    2    0    0  0.00000000000E+00  0.00000000000E+00  0.26625448598E+03  0.20274715056E+04  0.20099127481E+04 0.  0.
        5    1    3    3  502    0 -0.93064096489E+03  0.36669463160E+03  0.35547131664E+02  0.10009211992E+04  0.46999998093E+01 0. -1.
       -5    1    3    3    0  502  0.93064096489E+03 -0.36669463160E+03  0.23070735432E+03  0.10265503065E+04  0.46999998093E+01 0.  1.
</event>
<event>
 5   0  0.7843846E-05  0.2008276E+04  0.7818609E-02  0.8602761E-01
        2   -1    0    0  501    0  0.00000000000E+00  0.00000000000E+00  0.13346134245E+04  0.13346134245E+04  0.25500000920E-02 0. -1.
       -2   -1    0    0    0  501  0.00000000000E+00  0.00000000000E+00 -0.75549463635E+03  0.75549463636E+03  0.25500000920E-02 0.  1.
    10030    2    1    2    0    0  0.00000000000E+00  0.00000000000E+00  0.57911878812E+03  0.20901080608E+04  0.20082761601E+04 0.  0.
        2    1    3    3  502    0 -0.86082769760E+03 -0.32981034082E+03  0.70389461696E+03  0.11598563780E+04  0.25500000920E-02 0. -1.
       -2    1    3    3    0  502  0.86082769760E+03  0.32981034082E+03 -0.12477582884E+03  0.93025168280E+03  0.25500000920E-02 0.  1.
</event>
<event>
 5   0  0.3970042E-05  0.2001130E+04  0.7818609E-02  0.8606092E-01
       -1   -1    0    0    0  501  0.00000000000E+00  0.00000000000E+00  0.60667618391E+03  0.60667618393E+03  0.50400001928E-02 0.  1.
        1   -1    0    0  501    0  0.00000000000E+00  0.00000000000E+00 -0.16501890839E+04  0.16501890839E+04  0.50400001928E-02 0. -1.
    10030    2    1    2    0    0  0.00000000000E+00  0.00000000000E+00 -0.10435129000E+04  0.22568652678E+04  0.20011300969E+04 0.  0.
        3    1    3    3  502    0 -0.39510020733E+02 -0.99821247578E+03 -0.58496550639E+03  0.11576587763E+04  0.10100000352E+00 0.  1.
       -3    1    3    3    0  502  0.39510020733E+02  0.99821247578E+03 -0.45854739357E+03  0.10992064915E+04  0.10100000352E+00 0. -1.
</event>
<event>
 5   0  0.7935008E-05  0.2007045E+04  0.7818609E-02  0.8603334E-01
       -2   -1    0    0    0  501  0.00000000000E+00  0.00000000000E+00  0.59230718791E+03  0.59230718792E+03  0.25500000920E-02 0.  1.
        2   -1    0    0  501    0  0.00000000000E+00  0.00000000000E+00 -0.17002274346E+04  0.17002274346E+04  0.25500000920E-02 0. -1.
    10030    2    1    2    0    0  0.00000000000E+00  0.00000000000E+00 -0.11079202467E+04  0.22925346226E+04  0.20070445243E+04 0.  0.
        3    1    3    3  502    0 -0.65887954443E+03 -0.12758067704E+03  0.29826250249E+03  0.73441106596E+03  0.10100000352E+00 0.  1.
       -3    1    3    3    0  502  0.65887954443E+03  0.12758067704E+03 -0.14061827492E+04  0.15581235566E+04  0.10100000352E+00 0. -1.
</event>
<event>
 5   0  0.3772949E-05  0.2013166E+04  0.7818609E-02  0.8600490E-01
        1   -1    0    0  501    0  0.00000000000E+00  0.00000000000E+00  0.12198888214E+04  0.12198888214E+04  0.50400001928E-02 0. -1.
       -1   -1    0    0    0  501  0.00000000000E+00  0.00000000000E+00 -0.83057486556E+03  0.83057486558E+03  0.50400001928E-02 0.  1.
    10030    2    1    2    0    0  0.00000000000E+00  0.00000000000E+00  0.38931395581E+03  0.20504636870E+04  0.20131656602E+04 0.  0.
        2    1    3    3  502    0 -0.65917156979E+03  0.70995152123E+03 -0.83665063578E+02  0.97238786695E+03  0.25500000920E-02 0. -1.
       -2    1    3    3    0  502  0.65917156979E+03 -0.70995152123E+03  0.47297901939E+03  0.10780758200E+04  0.25500000920E-02 0.  1.
</event>
<event>
 5   0  0.3818907E-05  0.1986630E+04  0.7818609E-02  0.8612897E-01
        1   -1    0    0  501    0  0.00000000000E+00  0.00000000000E+00  0.88242819053E+03  0.88242819055E+03  0.50400001928E-02 0. -1.
       -1   -1    0    0    0  501  0.00000000000E+00  0.00000000000E+00 -0.11181354607E+04  0.11181354607E+04  0.50400001928E-02 0.  1.
    10030    2    1    2    0    0  0.00000000000E+00  0.00000000000E+00 -0.23570727014E+03  0.20005636512E+04  0.19866295592E+04 0.  0.
        1    1    3    3  502    0 -0.54375925515E+03  0.72825352300E+03  0.28576545214E+03  0.95272725110E+03  0.50400001928E-02 0. -1.
       -1    1    3    3    0  502  0.54375925515E+03 -0.72825352300E+03 -0.52147272229E+03  0.10478364001E+04  0.50400001928E-02 0.  1.
</event>
<event>
 5   0  0.7843846E-05  0.2090987E+04  0.7818609E-02  0.8565224E-01
       -2   -1    0    0    0  501  0.00000000000E+00  0.00000000000E+00  0.15044585077E+04  0.15044585078E+04  0.25500000920E-02 0. -1.
        2   -1    0    0  501    0  0.00000000000E+00  0.00000000000E+00 -0.72654500590E+03  0.72654500591E+03  0.25500000920E-02 0.  1.
    10030    2    1    2    0    0  0.00000000000E+00  0.00000000000E+00  0.77791350184E+03  0.22310035137E+04  0.20909871500E+04 0.  0.
        2    1    3    3  502    0 -0.96340049202E+03  0.28415833428E+03  0.79408429842E+02  0.10075674497E+04  0.25500000920E-02 0.  1.
       -2    1    3    3    0  502  0.96340049202E+03 -0.28415833428E+03  0.69850507200E+03  0.12234360640E+04  0.25500000920E-02 0. -1.
</event>
<event>
 5   0  0.3970042E-05  0.2004935E+04  0.7818609E-02  0.8604317E-01
       -1   -1    0    0    0  501  0.00000000000E+00  0.00000000000E+00  0.55586319747E+03  0.55586319749E+03  0.50400001928E-02 0.  1.
        1   -1    0    0  501    0  0.00000000000E+00  0.00000000000E+00 -0.18078929211E+04  0.18078929212E+04  0.50400001928E-02 0. -1.
    10030    2    1    2    0    0  0.00000000000E+00  0.00000000000E+00 -0.12520297237E+04  0.23637561186E+04  0.20049350512E+04 0.  0.
        3    1    3    3  502    0 -0.39613903114E+03 -0.90411964832E+03 -0.83219174985E+03  0.12910854306E+04  0.10100000352E+00 0. -1.
       -3    1    3    3    0  502  0.39613903114E+03  0.90411964832E+03 -0.41983797382E+03  0.10726706880E+04  0.10100000352E+00 0.  1.
</event>
<event>
 5   0  0.7857136E-05  0.2007291E+04  0.7818609E-02  0.8603219E-01
       -2   -1    0    0    0  501  0.00000000000E+00  0.00000000000E+00  0.77441057396E+03  0.77441057397E+03  0.25500000920E-02 0.  1.
        2   -1    0    0  501    0  0.00000000000E+00  0.00000000000E+00 -0.13007369344E+04  0.13007369344E+04  0.25500000920E-02 0. -1.
    10030    2    1    2    0    0  0.00000000000E+00  0.00000000000E+00 -0.52632636048E+03  0.20751475084E+04  0.20072911458E+04 0.  0.
        4    1    3    3  502    0 -0.47832156323E+03 -0.83484799267E+03  0.32042232149E+02  0.96269985263E+03  0.12699999809E+01 0. -1.
       -4    1    3    3    0  502  0.47832156323E+03  0.83484799267E+03 -0.55836859263E+03  0.11124476558E+04  0.12699999809E+01 0.  1.
</event>
<event>
 5   0  0.7935008E-05  0.1992146E+04  0.7818609E-02  0.8610302E-01
       -2   -1    0    0    0  501  0.00000000000E+00  0.00000000000E+00  0.53109649587E+03  0.53109649587E+03  0.25500000920E-02 0.  1.
        2   -1    0    0  501    0  0.00000000000E+00  0.00000000000E+00 -0.18681373042E+04  0.18681373042E+04  0.25500000920E-02 0. -1.
    10030    2    1    2    0    0  0.00000000000E+00  0.00000000000E+00 -0.13370408083E+04  0.23992338001E+04  0.19921457538E+04 0.  0.
        3    1    3    3  502    0  0.24752481293E+03  0.11883232016E+02 -0.18304192362E+04  0.18471178453E+04  0.10100000352E+00 0. -1.
       -3    1    3    3    0  502 -0.24752481293E+03 -0.11883232016E+02  0.49337842784E+03  0.55211595474E+03  0.10100000352E+00 0.  1.
</event>
<event>
 5   0  0.8011197E-05  0.1981235E+04  0.7818609E-02  0.8615444E-01
        2   -1    0    0  501    0  0.00000000000E+00  0.00000000000E+00  0.34553285816E+03  0.34553285817E+03  0.25500000920E-02 0. -1.
       -2   -1    0    0    0  501  0.00000000000E+00  0.00000000000E+00 -0.28400286328E+04  0.28400286328E+04  0.25500000920E-02 0.  1.
    10030    2    1    2    0    0  0.00000000000E+00  0.00000000000E+00 -0.24944957746E+04  0.31855614910E+04  0.19812351812E+04 0.  0.
        5    1    3    3  502    0 -0.90625786149E+03  0.24296008889E+03 -0.17581553873E+04  0.19928535752E+04  0.46999998093E+01 0.  1.
       -5    1    3    3    0  502  0.90625786149E+03 -0.24296008889E+03 -0.73634038733E+03  0.11927079158E+04  0.46999998093E+01 0. -1.
</event>
<event>
 5   0  0.3787698E-05  0.1962100E+04  0.7818609E-02  0.8624548E-01
        1   -1    0    0  501    0  0.00000000000E+00  0.00000000000E+00  0.12337070701E+04  0.12337070701E+04  0.50400001928E-02 0.  1.
       -1   -1    0    0    0  501  0.00000000000E+00  0.00000000000E+00 -0.78013557950E+03  0.78013557952E+03  0.50400001928E-02 0. -1.
    10030    2    1    2    0    0  0.00000000000E+00  0.00000000000E+00  0.45357149061E+03  0.20138426496E+04  0.19620996714E+04 0.  0.
        4    1    3    3  502    0  0.78591588079E+03 -0.48022872157E+03 -0.12002108396E+03  0.92881110576E+03  0.12699999809E+01 0. -1.
       -4    1    3    3    0  502 -0.78591588079E+03  0.48022872157E+03  0.57359257457E+03  0.10850315439E+04  0.12699999809E+01 0.  1.
</event>
<event>
 5   0  0.3970042E-05  0.1996235E+04  0.7818609E-02  0.8608383E-01
        1   -1    0    0  501    0  0.00000000000E+00  0.00000000000E+00  0.20205600857E+04  0.20205600857E+04  0.50400001928E-02 0. -1.
       -1   -1    0    0    0  501  0.00000000000E+00  0.00000000000E+00 -0.49305081716E+03  0.49305081718E+03  0.50400001928E-02 0.  1.
    10030    2    1    2    0    0  0.00000000000E+00  0.00000000000E+00  0.15275092685E+04  0.25136109029E+04  0.19962352581E+04 0.  0.
        3    1    3    3  502    0 -0.64789209810E+03 -0.41370471920E+03 -0.37899372390E+02  0.76964416330E+03  0.10100000352E+00 0.  1.
       -3    1    3    3    0  502  0.64789209810E+03  0.41370471920E+03  0.15654086409E+04  0.17439667396E+04  0.10100000352E+00 0. -1.
</event>
<event>
 5   0  0.3549426E-05  0.2059455E+04  0.7818609E-02  0.8579317E-01
       -1   -1    0    0    0  501  0.00000000000E+00  0.00000000000E+00  0.11127008495E+04  0.11127008495E+04  0.50400001928E-02 0. -1.
        1   -1    0    0  501    0  0.00000000000E+00  0.00000000000E+00 -0.95294130479E+03  0.95294130481E+03  0.50400001928E-02 0.  1.
    10030    2    1    2    0    0  0.00000000000E+00  0.00000000000E+00  0.15975954468E+03  0.20656421543E+04  0.20594548787E+04 0.  0.
        5    1    3    3  502    0 -0.33376065111E+03  0.10439123067E+03  0.10513052862E+04  0.11079524340E+04  0.46999998093E+01 0. -1.
       -5    1    3    3    0  502  0.33376065111E+03 -0.10439123067E+03 -0.89154574147E+03  0.95768972032E+03  0.46999998093E+01 0.  1.
</event>
<event>
 5   0  0.7857136E-05  0.1998036E+04  0.7818609E-02  0.8607539E-01
       -2   -1    0    0    0  501  0.00000000000E+00  0.00000000000E+00  0.11014392303E+04  0.11014392303E+04  0.25500000920E-02 0. -1.
        2   -1    0    0  501    0  0.00000000000E+00  0.00000000000E+00 -0.90612091986E+03  0.90612091987E+03  0.25500000920E-02 0.  1.
    10030    2    1    2    0    0  0.00000000000E+00  0.00000000000E+00  0.19531831040E+03  0.20075601501E+04  0.19980361643E+04 0.  0.
        4    1    3    3  502    0 -0.78095265790E+03  0.44637654224E+03 -0.33903473244E+03  0.96129352128E+03  0.12699999809E+01 0.  1.
       -4    1    3    3    0  502  0.78095265790E+03 -0.44637654224E+03  0.53435304284E+03  0.10462666288E+04  0.12699999809E+01 0. -1.
</event>
<event>
 5   0  0.7857136E-05  0.1965419E+04  0.7818609E-02  0.8622961E-01
        2   -1    0    0  501    0  0.00000000000E+00  0.00000000000E+00  0.12442674325E+04  0.12442674325E+04  0.25500000920E-02 0. -1.
       -2   -1    0    0    0  501  0.00000000000E+00  0.00000000000E+00 -0.77613360370E+03  0.77613360371E+03  0.25500000920E-02 0.  1.
    10030    2    1    2    0    0  0.00000000000E+00  0.00000000000E+00  0.46813382882E+03  0.20204010362E+04  0.19654188016E+04 0.  0.
        4    1    3    3  502    0 -0.20681601716E+02  0.63635309300E+03 -0.53543466587E+03  0.83190437067E+03  0.12699999809E+01 0.  1.
       -4    1    3    3    0  502  0.20681601716E+02 -0.63635309300E+03  0.10035684947E+04  0.11884966656E+04  0.12699999809E+01 0. -1.
</event>
<event>
 5   0  0.8011197E-05  0.2004458E+04  0.7818609E-02  0.8604539E-01
        2   -1    0    0  501    0  0.00000000000E+00  0.00000000000E+00  0.40812280041E+03  0.40812280041E+03  0.25500000920E-02 0. -1.
       -2   -1    0    0    0  501  0.00000000000E+00  0.00000000000E+00 -0.24611792137E+04  0.24611792137E+04  0.25500000920E-02 0.  1.
    10030    2    1    2    0    0  0.00000000000E+00  0.00000000000E+00 -0.20530564133E+04  0.28693020141E+04  0.20044583837E+04 0.  0.
        5    1    3    3  502    0 -0.48463226656E+03  0.60501876530E+03 -0.19358435275E+04  0.20852885635E+04  0.46999998093E+01 0.  1.
       -5    1    3    3    0  502  0.48463226656E+03 -0.60501876530E+03 -0.11721288581E+03  0.78401345062E+03  0.46999998093E+01 0. -1.
</event>
<event>
 5   0  0.7857136E-05  0.1999089E+04  0.7818609E-02  0.8607047E-01
        2   -1    0    0  501    0  0.00000000000E+00  0.00000000000E+00  0.58988633885E+03  0.58988633885E+03  0.25500000920E-02 0.  1.
       -2   -1    0    0    0  501  0.00000000000E+00  0.00000000000E+00 -0.16936970489E+04  0.16936970489E+04  0.25500000920E-02 0. -1.
    10030    2    1    2    0    0  0.00000000000E+00  0.00000000000E+00 -0.11038107100E+04  0.22835833877E+04  0.19990885436E+04 0.  0.
        4    1    3    3  502    0 -0.19105417768E+03 -0.97758981127E+03 -0.45699301735E+03  0.10959141247E+04  0.12699999809E+01 0. -1.
       -4    1    3    3    0  502  0.19105417768E+03  0.97758981127E+03 -0.64681769269E+03  0.11876692630E+04  0.12699999809E+01 0.  1.
</event>
<event>
 5   0  0.7843846E-05  0.2023667E+04  0.7818609E-02  0.8595635E-01
       -2   -1    0    0    0  501  0.00000000000E+00  0.00000000000E+00  0.12780739120E+04  0.12780739120E+04  0.25500000920E-02 0. -1.
        2   -1    0    0  501    0  0.00000000000E+00  0.00000000000E+00 -0.80105476280E+03  0.80105476280E+03  0.25500000920E-02 0.  1.
    10030    2    1    2    0    0  0.00000000000E+00  0.00000000000E+00  0.47701914920E+03  0.20791286748E+04  0.20236671608E+04 0.  0.
        2    1    3    3  502    0 -0.10346565954E+02 -0.29639840398E+03  0.12324147961E+04  0.12675982388E+04  0.25500000920E-02 0. -1.
       -2    1    3    3    0  502  0.10346565954E+02  0.29639840398E+03 -0.75539564688E+03  0.81153043605E+03  0.25500000920E-02 0.  1.
</event>
<event>
 5   0  0.8011197E-05  0.2006811E+04  0.7818609E-02  0.8603443E-01
       -2   -1    0    0    0  501  0.00000000000E+00  0.00000000000E+00  0.55194283203E+03  0.55194283204E+03  0.25500000920E-02 0. -1.
        2   -1    0    0  501    0  0.00000000000E+00  0.00000000000E+00 -0.18241420721E+04  0.18241420721E+04  0.25500000920E-02 0.  1.
    10030    2    1    2    0    0  0.00000000000E+00  0.00000000000E+00 -0.12721992401E+04  0.23760849042E+04  0.20068105454E+04 0.  0.
        5    1    3    3  502    0 -0.58544627704E+03  0.42153682241E+03  0.18962311899E+03  0.74593542161E+03  0.46999998093E+01 0. -1.
       -5    1    3    3    0  502  0.58544627704E+03 -0.42153682241E+03 -0.14618223591E+04  0.16301494826E+04  0.46999998093E+01 0.  1.
</event>
<event>
 5   0  0.8011197E-05  0.2001398E+04  0.7818609E-02  0.8605968E-01
        2   -1    0    0  501    0  0.00000000000E+00  0.00000000000E+00  0.88115728276E+03  0.88115728276E+03  0.25500000920E-02 0.  1.
       -2   -1    0    0    0  501  0.00000000000E+00  0.00000000000E+00 -0.11364577984E+04  0.11364577985E+04  0.25500000920E-02 0. -1.
    10030    2    1    2    0    0  0.00000000000E+00  0.00000000000E+00 -0.25530051569E+03  0.20176150812E+04  0.20013975773E+04 0.  0.
        5    1    3    3  502    0 -0.92919219852E+02  0.99142642107E+03 -0.22752700414E+03  0.10214455235E+04  0.46999998093E+01 0. -1.
       -5    1    3    3    0  502  0.92919219852E+02 -0.99142642107E+03 -0.27773511553E+02  0.99616955774E+03  0.46999998093E+01 0.  1.
</event>
<event>
 5   0  0.3772949E-05  0.1992926E+04  0.7818609E-02  0.8609935E-01
        1   -1    0    0  501    0  0.00000000000E+00  0.00000000000E+00  0.90316118809E+03  0.90316118811E+03  0.50400001928E-02 0.  1.
       -1   -1    0    0    0  501  0.00000000000E+00  0.00000000000E+00 -0.10994034357E+04  0.10994034357E+04  0.50400001928E-02 0. -1.
    10030    2    1    2    0    0  0.00000000000E+00  0.00000000000E+00 -0.19624224761E+03  0.20025646238E+04  0.19929260029E+04 0.  0.
        2    1    3    3  502    0  0.50442889492E+03 -0.80259018453E+03  0.21051090792E+03  0.97103777305E+03  0.25500000920E-02 0.  1.
       -2    1    3    3    0  502 -0.50442889492E+03  0.80259018453E+03 -0.40675315553E+03  0.10315268508E+04  0.25500000920E-02 0. -1.
</event>
<event>
 5   0  0.3772949E-05  0.2008656E+04  0.7818609E-02  0.8602585E-01
       -1   -1    0    0    0  501  0.00000000000E+00  0.00000000000E+00  0.80023133157E+03  0.80023133158E+03  0.50400001928E-02 0. -1.
        1   -1    0    0  501    0  0.00000000000E+00  0.00000000000E+00 -0.12604785824E+04  0.12604785824E+04  0.50400001928E-02 0.  1.
    10030    2    1    2    0    0  0.00000000000E+00  0.00000000000E+00 -0.46024725085E+03  0.20607099140E+04  0.20086557241E+04 0.  0.
        2    1    3    3  502    0 -0.17109957573E+02 -0.95839614899E+02 -0.12556263056E+04  0.12593948554E+04  0.25500000920E-02 0.  1.
       -2    1    3    3    0  502  0.17109957573E+02  0.95839614899E+02  0.79537905475E+03  0.80131505863E+03  0.25500000920E-02 0. -1.
</event>
<event>
 5   0  0.2859625E-05  0.2009317E+04  0.7818609E-02  0.8602277E-01
       -4   -1    0    0    0  501  0.00000000000E+00  0.00000000000E+00  0.73900736074E+03  0.73900845200E+03  0.12699999809E+01 0.  1.
        4   -1    0    0  501    0  0.00000000000E+00  0.00000000000E+00 -0.13658015588E+04  0.13658021492E+04  0.12699999809E+01 0. -1.
    10030    2    1    2    0    0  0.00000000000E+00  0.00000000000E+00 -0.62679419803E+03  0.21048106012E+04  0.20093174713E+04 0.  0.
        1    1    3    3  502    0 -0.23673240613E+03  0.83963849302E+03  0.20858600521E+03  0.89696329505E+03  0.50400001928E-02 0.  1.
       -1    1    3    3    0  502  0.23673240613E+03 -0.83963849302E+03 -0.83538020324E+03  0.12078473062E+04  0.50400001928E-02 0. -1.
</event>
<event>
 5   0  0.3549426E-05  0.1967949E+04  0.7818609E-02  0.8621754E-01
        1   -1    0    0  501    0  0.00000000000E+00  0.00000000000E+00  0.14636184354E+04  0.14636184354E+04  0.50400001928E-02 0. -1.
       -1   -1    0    0    0  501  0.00000000000E+00  0.00000000000E+00 -0.66151514521E+03  0.66151514523E+03  0.50400001928E-02 0.  1.
    10030    2    1    2    0    0  0.00000000000E+00  0.00000000000E+00  0.80210329019E+03  0.21251335806E+04  0.19679489443E+04 0.  0.
        5    1    3    3  502    0  0.85250943741E+03  0.25440578393E+03 -0.52866138366E+02  0.89124158474E+03  0.46999998093E+01 0.  1.
       -5    1    3    3    0  502 -0.85250943741E+03 -0.25440578393E+03  0.85496942855E+03  0.12338919959E+04  0.46999998093E+01 0. -1.
</event>
<event>
 5   0  0.7935008E-05  0.2022120E+04  0.7818609E-02  0.8596348E-01
       -2   -1    0    0    0  501  0.00000000000E+00  0.00000000000E+00  0.70862540602E+03  0.70862540603E+03  0.25500000920E-02 0.  1.
        2   -1    0    0  501    0  0.00000000000E+00  0.00000000000E+00 -0.14425715173E+04  0.14425715173E+04  0.25500000920E-02 0. -1.
    10030    2    1    2    0    0  0.00000000000E+00  0.00000000000E+00 -0.73394611129E+03  0.21511969233E+04  0.20221204981E+04 0.  0.
        3    1    3    3  502    0 -0.84341342497E+03  0.27612374779E+03 -0.88230318245E+03  0.12514189728E+04  0.10100000352E+00 0. -1.
       -3    1    3    3    0  502  0.84341342497E+03 -0.27612374779E+03  0.14835707117E+03  0.89977795054E+03  0.10100000352E+00 0.  1.
</event>
<event>
 5   0  0.3818907E-05  0.2001730E+04  0.7818609E-02  0.8605812E-01
        1   -1    0    0  501    0  0.00000000000E+00  0.00000000000E+00  0.16928949493E+04  0.16928949493E+04  0.50400001928E-02 0.  1.
       -1   -1    0    0    0  501  0.00000000000E+00  0.00000000000E+00 -0.59172619413E+03  0.59172619415E+03  0.50400001928E-02 0. -1.
    10030    2    1    2    0    0  0.00000000000E+00  0.00000000000E+00  0.11011687551E+04  0.22846211434E+04  0.20017295376E+04 0.  0.
        1    1    3    3  502    0 -0.45172248686E+03  0.87752199597E+03  0.74030595932E+03  0.12337548265E+04  0.50400001928E-02 0.  1.
       -1    1    3    3    0  502  0.45172248686E+03 -0.87752199597E+03  0.36086279580E+03  0.10508663169E+04  0.50400001928E-02 0. -1.
</event>
<event>
 5   0  0.3772949E-05  0.1995414E+04  0.7818609E-02  0.8608768E-01
       -1   -1    0    0    0  501  0.00000000000E+00  0.00000000000E+00  0.77020450054E+03  0.77020450055E+03  0.50400001928E-02 0. -1.
        1   -1    0    0  501    0  0.00000000000E+00  0.00000000000E+00 -0.12924087173E+04  0.12924087173E+04  0.50400001928E-02 0.  1.
    10030    2    1    2    0    0  0.00000000000E+00  0.00000000000E+00 -0.52220421680E+03  0.20626132179E+04  0.19954137522E+04 0.  0.
        2    1    3    3  502    0  0.37202988342E+03 -0.63293231515E+03 -0.95943444817E+03  0.12081076153E+04  0.25500000920E-02 0.  1.
       -2    1    3    3    0  502 -0.37202988342E+03  0.63293231515E+03  0.43723023137E+03  0.85450560264E+03  0.25500000920E-02 0. -1.
</event>
<event>
 5   0  0.3549426E-05  0.1980166E+04  0.7818609E-02  0.8615950E-01
       -1   -1    0    0    0  501  0.00000000000E+00  0.00000000000E+00  0.76345463270E+03  0.76345463271E+03  0.50400001928E-02 0.  1.
        1   -1    0    0  501    0  0.00000000000E+00  0.00000000000E+00 -0.12839852817E+04  0.12839852817E+04  0.50400001928E-02 0. -1.
    10030    2    1    2    0    0  0.00000000000E+00  0.00000000000E+00 -0.52053064898E+03  0.20474399144E+04  0.19801661664E+04 0.  0.
        5    1    3    3  502    0  0.25701919355E+03  0.20840207697E+03 -0.12251086625E+04  0.12690167912E+04  0.46999998093E+01 0. -1.
       -5    1    3    3    0  502 -0.25701919355E+03 -0.20840207697E+03  0.70457801351E+03  0.77842312316E+03  0.46999998093E+01 0.  1.
</event>
<event>
 5   0  0.7843846E-05  0.1996719E+04  0.7818609E-02  0.8608156E-01
       -2   -1    0    0    0  501  0.00000000000E+00  0.00000000000E+00  0.78263806943E+03  0.78263806944E+03  0.25500000920E-02 0.  1.
        2   -1    0    0  501    0  0.00000000000E+00  0.00000000000E+00 -0.12735408306E+04  0.12735408306E+04  0.25500000920E-02 0. -1.
    10030    2    1    2    0    0  0.00000000000E+00  0.00000000000E+00 -0.49090276119E+03  0.20561789001E+04  0.19967188455E+04 0.  0.
        2    1    3    3  502    0  0.85648533143E+03 -0.28011163974E+03  0.19710426596E+03  0.92243143124E+03  0.25500000920E-02 0.  1.
       -2    1    3    3    0  502 -0.85648533143E+03  0.28011163974E+03 -0.68800702715E+03  0.11337474688E+04  0.25500000920E-02 0. -1.
</event>
<event>
 5   0  0.7857136E-05  0.1991174E+04  0.7818609E-02  0.8610758E-01
        2   -1    0    0  501    0  0.00000000000E+00  0.00000000000E+00  0.67398912246E+03  0.67398912247E+03  0.25500000920E-02 0.  1.
       -2   -1    0    0    0  501  0.00000000000E+00  0.00000000000E+00 -0.14706373308E+04  0.14706373308E+04  0.25500000920E-02 0. -1.
    10030    2    1    2    0    0  0.00000000000E+00  0.00000000000E+00 -0.79664820831E+03  0.21446264532E+04  0.19911740899E+04 0.  0.
        4    1    3    3  502    0 -0.72804602322E+03 -0.57382959579E+03 -0.78943493390E+03  0.12175962158E+04  0.12699999809E+01 0.  1.
       -4    1    3    3    0  502  0.72804602322E+03  0.57382959579E+03 -0.72132744093E+01  0.92703023745E+03  0.12699999809E+01 0. -1.
</event>
<event>
 5   0  0.3970042E-05  0.1999551E+04  0.7818609E-02  0.8606830E-01
       -1   -1    0    0    0  501  0.00000000000E+00  0.00000000000E+00  0.15765848992E+04  0.15765848992E+04  0.50400001928E-02 0.  1.
        1   -1    0    0  501    0  0.00000000000E+00  0.00000000000E+00 -0.63399780499E+03  0.63399780501E+03  0.50400001928E-02 0. -1.
    10030    2    1    2    0    0  0.00000000000E+00  0.00000000000E+00  0.94258709419E+03  0.22105827042E+04  0.19995513152E+04 0.  0.
        3    1    3    3  502    0  0.80595171470E+02  0.80869538068E+03 -0.17245658463E+03  0.83079786000E+03  0.10100000352E+00 0. -1.
       -3    1    3    3    0  502 -0.80595171470E+02 -0.80869538068E+03  0.11150436788E+04  0.13797848442E+04  0.10100000352E+00 0.  1.
</event>
<event>
 5   0  0.7843846E-05  0.2012733E+04  0.7818609E-02  0.8600691E-01
       -2   -1    0    0    0  501  0.00000000000E+00  0.00000000000E+00  0.10396910770E+04  0.10396910770E+04  0.25500000920E-02 0.  1.
        2   -1    0    0  501    0  0.00000000000E+00  0.00000000000E+00 -0.97410977284E+03  0.97410977284E+03  0.25500000920E-02 0. -1.
    10030    2    1    2    0    0  0.00000000000E+00  0.00000000000E+00  0.65581304166E+02  0.20138008499E+04  0.20127327084E+04 0.  0.
        2    1    3    3  502    0  0.73722642453E+03 -0.68087900639E+03 -0.42576718835E+02  0.10044460162E+04  0.25500000920E-02 0.  1.
       -2    1    3    3    0  502 -0.73722642453E+03  0.68087900639E+03  0.10815802300E+03  0.10093548337E+04  0.25500000920E-02 0. -1.
</event>
<event>
 5   0  0.3549426E-05  0.2006989E+04  0.7818609E-02  0.8603360E-01
        1   -1    0    0  501    0  0.00000000000E+00  0.00000000000E+00  0.21349371974E+04  0.21349371974E+04  0.50400001928E-02 0. -1.
       -1   -1    0    0    0  501  0.00000000000E+00  0.00000000000E+00 -0.47167722450E+03  0.47167722453E+03  0.50400001928E-02 0.  1.
    10030    2    1    2    0    0  0.00000000000E+00  0.00000000000E+00  0.16632599729E+04  0.26066144219E+04  0.20069890401E+04 0.  0.
        5    1    3    3  502    0  0.48001475065E+03  0.69395789833E+03  0.15370268961E+04  0.17534153800E+04  0.46999998093E+01 0. -1.
       -5    1    3    3    0  502 -0.48001475065E+03 -0.69395789833E+03  0.12623307682E+03  0.85319904195E+03  0.46999998093E+01 0.  1.
</event>
<event>
 5   0  0.2859625E-05  0.1995567E+04  0.7818609E-02  0.8608696E-01
        3   -1    0    0  501    0  0.00000000000E+00  0.00000000000E+00  0.96915406283E+03  0.96915406810E+03  0.10100000352E+00 0. -1.
       -3   -1    0    0    0  501  0.00000000000E+00  0.00000000000E+00 -0.10272588629E+04  0.10272588678E+04  0.10100000352E+00 0.  1.
    10030    2    1    2    0    0  0.00000000000E+00  0.00000000000E+00 -0.58104800022E+02  0.19964129359E+04  0.19955671983E+04 0.  0.
        3    1    3    3  502    0 -0.73544893963E+03  0.71094440625E+02  0.64177823051E+03  0.97868221076E+03  0.10100000352E+00 0. -1.
       -3    1    3    3    0  502  0.73544893963E+03 -0.71094440625E+02 -0.69988303054E+03  0.10177307252E+04  0.10100000352E+00 0.  1.
</event>
<event>
 5   0  0.3787698E-05  0.2001106E+04  0.7818609E-02  0.8606104E-01
        1   -1    0    0  501    0  0.00000000000E+00  0.00000000000E+00  0.20222550201E+04  0.20222550201E+04  0.50400001928E-02 0. -1.
       -1   -1    0    0    0  501  0.00000000000E+00  0.00000000000E+00 -0.49504436930E+03  0.49504436933E+03  0.50400001928E-02 0.  1.
    10030    2    1    2    0    0  0.00000000000E+00  0.00000000000E+00  0.15272106508E+04  0.25172993895E+04  0.20011056554E+04 0.  0.
        4    1    3    3  502    0  0.49699771053E+03  0.74759365178E+03  0.20782103642E+03  0.92146306955E+03  0.12699999809E+01 0. -1.
       -4    1    3    3    0  502 -0.49699771053E+03 -0.74759365178E+03  0.13193896144E+04  0.15958363199E+04  0.12699999809E+01 0.  1.
</event>
<event>
 5   0  0.3772949E-05  0.2013757E+04  0.7818609E-02  0.8600216E-01
        1   -1    0    0  501    0  0.00000000000E+00  0.00000000000E+00  0.12613185706E+04  0.12613185706E+04  0.50400001928E-02 0.  1.
       -1   -1    0    0    0  501  0.00000000000E+00  0.00000000000E+00 -0.80376532280E+03  0.80376532281E+03  0.50400001928E-02 0. -1.
    10030    2    1    2    0    0  0.00000000000E+00  0.00000000000E+00  0.45755324780E+03  0.20650838934E+04  0.20137568156E+04 0.  0.
        2    1    3    3  502    0 -0.36469354445E+03 -0.92917038061E+03  0.93330046171E+02  0.10025315332E+04  0.25500000920E-02 0. -1.
       -2    1    3    3    0  502  0.36469354445E+03  0.92917038061E+03  0.36422320163E+03  0.10625523602E+04  0.25500000920E-02 0.  1.
</event>
<event>
 5   0  0.3549426E-05  0.1996772E+04  0.7818609E-02  0.8608131E-01
       -1   -1    0    0    0  501  0.00000000000E+00  0.00000000000E+00  0.10791423001E+04  0.10791423002E+04  0.50400001928E-02 0.  1.
        1   -1    0    0  501    0  0.00000000000E+00  0.00000000000E+00 -0.92367287533E+03  0.92367287534E+03  0.50400001928E-02 0. -1.
    10030    2    1    2    0    0  0.00000000000E+00  0.00000000000E+00  0.15546942482E+03  0.20028151755E+04  0.19967718661E+04 0.  0.
        5    1    3    3  502    0  0.93739755217E+03  0.21774430934E+03  0.34429385345E+03  0.10220993604E+04  0.46999998093E+01 0.  1.
       -5    1    3    3    0  502 -0.93739755217E+03 -0.21774430934E+03 -0.18882442863E+03  0.98071581506E+03  0.46999998093E+01 0. -1.
</event>
<event>
 5   0  0.3818907E-05  0.1997217E+04  0.7818609E-02  0.8607923E-01
        1   -1    0    0  501    0  0.00000000000E+00  0.00000000000E+00  0.54993181310E+03  0.54993181313E+03  0.50400001928E-02 0.  1.
       -1   -1    0    0    0  501  0.00000000000E+00  0.00000000000E+00 -0.18133501016E+04  0.18133501016E+04  0.50400001928E-02 0. -1.
    10030    2    1    2    0    0  0.00000000000E+00  0.00000000000E+00 -0.12634182885E+04  0.23632819148E+04  0.19972169729E+04 0.  0.
        1    1    3    3  502    0  0.40916027023E+03  0.62815656895E+02  0.44362579228E+03  0.60676336168E+03  0.50400001928E-02 0.  1.
       -1    1    3    3    0  502 -0.40916027023E+03 -0.62815656895E+02 -0.17070440808E+04  0.17565185531E+04  0.50400001928E-02 0. -1.
</event>
<event>
 5   0  0.7935008E-05  0.2000835E+04  0.7818609E-02  0.8606230E-01
        2   -1    0    0  501    0  0.00000000000E+00  0.00000000000E+00  0.10148602076E+04  0.10148602076E+04  0.25500000920E-02 0. -1.
       -2   -1    0    0    0  501  0.00000000000E+00  0.00000000000E+00 -0.98618019926E+03  0.98618019927E+03  0.25500000920E-02 0.  1.
    10030    2    1    2    0    0  0.00000000000E+00  0.00000000000E+00  0.28680008351E+02  0.20010404069E+04  0.20008348675E+04 0.  0.
        3    1    3    3  502    0  0.58586119283E+03  0.28721484525E+03  0.77277753709E+03  0.10113905460E+04  0.10100000352E+00 0. -1.
       -3    1    3    3    0  502 -0.58586119283E+03 -0.28721484525E+03 -0.74409752874E+03  0.98964986084E+03  0.10100000352E+00 0.  1.
</event>
<event>
 5   0  0.7935008E-05  0.2001734E+04  0.7818609E-02  0.8605810E-01
       -2   -1    0    0    0  501  0.00000000000E+00  0.00000000000E+00  0.15917834811E+04  0.15917834811E+04  0.25500000920E-02 0.  1.
        2   -1    0    0  501    0  0.00000000000E+00  0.00000000000E+00 -0.62931615001E+03  0.62931615001E+03  0.25500000920E-02 0. -1.
    10030    2    1    2    0    0  0.00000000000E+00  0.00000000000E+00  0.96246733110E+03  0.22210996311E+04  0.20017343000E+04 0.  0.
        3    1    3    3  502    0  0.11120916645E+03 -0.86515346341E+03 -0.63343364348E+02  0.87456868567E+03  0.10100000352E+00 0. -1.
       -3    1    3    3    0  502 -0.11120916645E+03  0.86515346341E+03  0.10258106954E+04  0.13465309454E+04  0.10100000352E+00 0.  1.
</event>
<event>
 5   0  0.3549426E-05  0.1790880E+04  0.7818609E-02  0.8711165E-01
        1   -1    0    0  501    0  0.00000000000E+00  0.00000000000E+00  0.14930678564E+04  0.14930678565E+04  0.50400001928E-02 0.  1.
       -1   -1    0    0    0  501  0.00000000000E+00  0.00000000000E+00 -0.53702358286E+03  0.53702358288E+03  0.50400001928E-02 0. -1.
    10030    2    1    2    0    0  0.00000000000E+00  0.00000000000E+00  0.95604427359E+03  0.20300914393E+04  0.17908798394E+04 0.  0.
        5    1    3    3  502    0  0.28614315644E+03 -0.55157851943E+03 -0.25282318839E+03  0.67086393826E+03  0.46999998093E+01 0. -1.
       -5    1    3    3    0  502 -0.28614315644E+03  0.55157851943E+03  0.12088674620E+04  0.13592275011E+04  0.46999998093E+01 0.  1.
</event>
<event>
 5   0  0.3970042E-05  0.2023454E+04  0.7818609E-02  0.8595733E-01
       -1   -1    0    0    0  501  0.00000000000E+00  0.00000000000E+00  0.62607401123E+03  0.62607401125E+03  0.50400001928E-02 0. -1.
        1   -1    0    0  501    0  0.00000000000E+00  0.00000000000E+00 -0.16349365959E+04  0.16349365959E+04  0.50400001928E-02 0.  1.
    10030    2    1    2    0    0  0.00000000000E+00  0.00000000000E+00 -0.10088625847E+04  0.22610106071E+04  0.20234537926E+04 0.  0.
        3    1    3    3  502    0 -0.41872492924E+03 -0.13728381194E+03  0.51321056230E+03  0.67643366478E+03  0.10100000352E+00 0. -1.
       -3    1    3    3    0  502  0.41872492924E+03  0.13728381194E+03 -0.15220731470E+04  0.15845769424E+04  0.10100000352E+00 0.  1.
</event>
<event>
 5   0  0.3970042E-05  0.1998435E+04  0.7818609E-02  0.8607353E-01
       -1   -1    0    0    0  501  0.00000000000E+00  0.00000000000E+00  0.78539827656E+03  0.78539827658E+03  0.50400001928E-02 0. -1.
        1   -1    0    0  501    0  0.00000000000E+00  0.00000000000E+00 -0.12712472868E+04  0.12712472869E+04  0.50400001928E-02 0.  1.
    10030    2    1    2    0    0  0.00000000000E+00  0.00000000000E+00 -0.48584901029E+03  0.20566455634E+04  0.19984348158E+04 0.  0.
        3    1    3    3  502    0  0.91388020086E+03 -0.74617931794E+02  0.16574507781E+03  0.93178125024E+03  0.10100000352E+00 0. -1.
       -3    1    3    3    0  502 -0.91388020086E+03  0.74617931794E+02 -0.65159408810E+03  0.11248643132E+04  0.10100000352E+00 0.  1.
</event>
<event>
 5   0  0.7843846E-05  0.1993388E+04  0.7818609E-02  0.8609718E-01
        2   -1    0    0  501    0  0.00000000000E+00  0.00000000000E+00  0.15327790582E+04  0.15327790582E+04  0.25500000920E-02 0. -1.
       -2   -1    0    0    0  501  0.00000000000E+00  0.00000000000E+00 -0.64810314387E+03  0.64810314387E+03  0.25500000920E-02 0.  1.
    10030    2    1    2    0    0  0.00000000000E+00  0.00000000000E+00  0.88467591430E+03  0.21808822020E+04  0.19933879968E+04 0.  0.
        2    1    3    3  502    0  0.15577739532E+03  0.98436984773E+03  0.45566268766E+03  0.10958462844E+04  0.25500000920E-02 0. -1.
       -2    1    3    3    0  502 -0.15577739532E+03 -0.98436984773E+03  0.42901322664E+03  0.10850359177E+04  0.25500000920E-02 0.  1.
</event>
<event>
 5   0  0.7843846E-05  0.2005429E+04  0.7818609E-02  0.8604087E-01
       -2   -1    0    0    0  501  0.00000000000E+00  0.00000000000E+00  0.66450745932E+03  0.66450745932E+03  0.25500000920E-02 0. -1.
        2   -1    0    0  501    0  0.00000000000E+00  0.00000000000E+00 -0.15130550768E+04  0.15130550768E+04  0.25500000920E-02 0.  1.
    10030    2    1    2    0    0  0.00000000000E+00  0.00000000000E+00 -0.84854761743E+03  0.21775625361E+04  0.20054290163E+04 0.  0.
        2    1    3    3  502    0 -0.34425366363E+03 -0.93950040860E+03 -0.35336310934E+03  0.10611489480E+04  0.25500000920E-02 0.  1.
       -2    1    3    3    0  502  0.34425366363E+03  0.93950040860E+03 -0.49518450810E+03  0.11164135881E+04  0.25500000920E-02 0. -1.
</event>
<event>
 5   0  0.3787698E-05  0.2028190E+04  0.7818609E-02  0.8593553E-01
       -1   -1    0    0    0  501  0.00000000000E+00  0.00000000000E+00  0.87140990571E+03  0.87140990572E+03  0.50400001928E-02 0.  1.
        1   -1    0    0  501    0  0.00000000000E+00  0.00000000000E+00 -0.11801429577E+04  0.11801429577E+04  0.50400001928E-02 0. -1.
    10030    2    1    2    0    0  0.00000000000E+00  0.00000000000E+00 -0.30873305201E+03  0.20515528635E+04  0.20281896001E+04 0.  0.
        4    1    3    3  502    0 -0.74214025635E+03 -0.13658123534E+03 -0.83963634675E+03  0.11289009707E+04  0.12699999809E+01 0. -1.
       -4    1    3    3    0  502  0.74214025635E+03  0.13658123534E+03  0.53090329474E+03  0.92265189276E+03  0.12699999809E+01 0.  1.
</event>
<event>
 5   0  0.8022574E-05  0.1997503E+04  0.7818609E-02  0.8607789E-01
       -2   -1    0    0    0  501  0.00000000000E+00  0.00000000000E+00  0.10346181424E+04  0.10346181424E+04  0.25500000920E-02 0.  1.
        2   -1    0    0  501    0  0.00000000000E+00  0.00000000000E+00 -0.96412845655E+03  0.96412845655E+03  0.25500000920E-02 0. -1.
    10030    2    1    2    0    0  0.00000000000E+00  0.00000000000E+00  0.70489685883E+02  0.19987465990E+04  0.19975032343E+04 0.  0.
        1    1    3    3  502    0  0.76038981291E+03 -0.60369247865E+03  0.26962880838E+03  0.10076393059E+04  0.50400001928E-02 0.  1.
       -1    1    3    3    0  502 -0.76038981291E+03  0.60369247865E+03 -0.19913912250E+03  0.99110729313E+03  0.50400001928E-02 0. -1.
</event>
<event>
 5   0  0.2859625E-05  0.2005627E+04  0.7818609E-02  0.8603995E-01
       -3   -1    0    0    0  501  0.00000000000E+00  0.00000000000E+00  0.90766565836E+03  0.90766566398E+03  0.10100000352E+00 0. -1.
        3   -1    0    0  501    0  0.00000000000E+00  0.00000000000E+00 -0.11079348417E+04  0.11079348463E+04  0.10100000352E+00 0.  1.
    10030    2    1    2    0    0  0.00000000000E+00  0.00000000000E+00 -0.20026918335E+03  0.20156005103E+04  0.20056265034E+04 0.  0.
        1    1    3    3  502    0  0.26691222512E+02 -0.85223938250E+03  0.43032557110E+03  0.95509396585E+03  0.50400001928E-02 0. -1.
       -1    1    3    3    0  502 -0.26691222512E+02  0.85223938250E+03 -0.63059475445E+03  0.10605065444E+04  0.50400001928E-02 0.  1.
</event>
<event>
 5   0  0.8011197E-05  0.2007916E+04  0.7818609E-02  0.8602929E-01
        2   -1    0    0  501    0  0.00000000000E+00  0.00000000000E+00  0.13008700000E+04  0.13008700000E+04  0.25500000920E-02 0. -1.
       -2   -1    0    0    0  501  0.00000000000E+00  0.00000000000E+00 -0.77481358993E+03  0.77481358993E+03  0.25500000920E-02 0.  1.
    10030    2    1    2    0    0  0.00000000000E+00  0.00000000000E+00  0.52605641011E+03  0.20756835900E+04  0.20079160887E+04 0.  0.
        5    1    3    3  502    0 -0.80632573070E+03 -0.21113404490E+03  0.84153210310E+03  0.11844564743E+04  0.46999998093E+01 0. -1.
       -5    1    3    3    0  502  0.80632573070E+03  0.21113404490E+03 -0.31547569299E+03  0.89122711570E+03  0.46999998093E+01 0.  1.
</event>
<event>
 5   0  0.8011197E-05  0.1901509E+04  0.7818609E-02  0.8654106E-01
       -2   -1    0    0    0  501  0.00000000000E+00  0.00000000000E+00  0.70488050496E+03  0.70488050497E+03  0.25500000920E-02 0. -1.
        2   -1    0    0  501    0  0.00000000000E+00  0.00000000000E+00 -0.12823933161E+04  0.12823933161E+04  0.25500000920E-02 0.  1.
    10030    2    1    2    0    0  0.00000000000E+00  0.00000000000E+00 -0.57751281109E+03  0.19872738210E+04  0.19015089252E+04 0.  0.
        5    1    3    3  502    0 -0.26177446099E+03  0.90145046946E+03 -0.13104220113E+03  0.94780428665E+03  0.46999998093E+01 0. -1.
       -5    1    3    3    0  502  0.26177446099E+03 -0.90145046946E+03 -0.44647060996E+03  0.10394695344E+04  0.46999998093E+01 0.  1.
</event>
<event>
 5   0  0.7843846E-05  0.1996916E+04  0.7818609E-02  0.8608064E-01
       -2   -1    0    0    0  501  0.00000000000E+00  0.00000000000E+00  0.89027934620E+03  0.89027934620E+03  0.25500000920E-02 0. -1.
        2   -1    0    0  501    0  0.00000000000E+00  0.00000000000E+00 -0.11197815444E+04  0.11197815444E+04  0.25500000920E-02 0.  1.
    10030    2    1    2    0    0  0.00000000000E+00  0.00000000000E+00 -0.22950219818E+03  0.20100608906E+04  0.19969160035E+04 0.  0.
        2    1    3    3  502    0  0.47293450151E+03  0.26054725840E+03 -0.96014054221E+03  0.11015542553E+04  0.25500000920E-02 0.  1.
       -2    1    3    3    0  502 -0.47293450151E+03 -0.26054725840E+03  0.73063834403E+03  0.90850663528E+03  0.25500000920E-02 0. -1.
</event>
<event>
 5   0  0.3549426E-05  0.1997420E+04  0.7818609E-02  0.8607828E-01
       -1   -1    0    0    0  501  0.00000000000E+00  0.00000000000E+00  0.74460107965E+03  0.74460107966E+03  0.50400001928E-02 0. -1.
        1   -1    0    0  501    0  0.00000000000E+00  0.00000000000E+00 -0.13395379740E+04  0.13395379740E+04  0.50400001928E-02 0.  1.
    10030    2    1    2    0    0  0.00000000000E+00  0.00000000000E+00 -0.59493689433E+03  0.20841390536E+04  0.19974197573E+04 0.  0.
        5    1    3    3  502    0 -0.11938671374E+03  0.63227735610E+03  0.49947948939E+03  0.81457331946E+03  0.46999998093E+01 0. -1.
       -5    1    3    3    0  502  0.11938671374E+03 -0.63227735610E+03 -0.10944163837E+04  0.12695657342E+04  0.46999998093E+01 0.  1.
</event>
<event>
 5   0  0.7935008E-05  0.1972061E+04  0.7818609E-02  0.8619796E-01
       -2   -1    0    0    0  501  0.00000000000E+00  0.00000000000E+00  0.64072764854E+03  0.64072764854E+03  0.25500000920E-02 0.  1.
        2   -1    0    0  501    0  0.00000000000E+00  0.00000000000E+00 -0.15174243155E+04  0.15174243155E+04  0.25500000920E-02 0. -1.
    10030    2    1    2    0    0  0.00000000000E+00  0.00000000000E+00 -0.87669666699E+03  0.21581519641E+04  0.19720605605E+04 0.  0.
        3    1    3    3  502    0  0.81921567440E+03  0.20410140623E+03 -0.99581263890E+03  0.13055322774E+04  0.10100000352E+00 0. -1.
       -3    1    3    3    0  502 -0.81921567440E+03 -0.20410140623E+03  0.11911597191E+03  0.85261968672E+03  0.10100000352E+00 0.  1.
</event>
<event>
 5   0  0.3970042E-05  0.2008006E+04  0.7818609E-02  0.8602887E-01
        1   -1    0    0  501    0  0.00000000000E+00  0.00000000000E+00  0.68413461235E+03  0.68413461237E+03  0.50400001928E-02 0.  1.
       -1   -1    0    0    0  501  0.00000000000E+00  0.00000000000E+00 -0.14734260174E+04  0.14734260174E+04  0.50400001928E-02 0. -1.
    10030    2    1    2    0    0  0.00000000000E+00  0.00000000000E+00 -0.78929140501E+03  0.21575606297E+04  0.20080057144E+04 0.  0.
        3    1    3    3  502    0 -0.70779701300E+02  0.92365892895E+03 -0.81060403713E+03  0.12309486173E+04  0.10100000352E+00 0. -1.
       -3    1    3    3    0  502  0.70779701300E+02 -0.92365892895E+03  0.21312632127E+02  0.92661201246E+03  0.10100000352E+00 0.  1.
</event>
<event>
 5   0  0.7857136E-05  0.2124202E+04  0.7818609E-02  0.8550656E-01
       -2   -1    0    0    0  501  0.00000000000E+00  0.00000000000E+00  0.64219766422E+03  0.64219766423E+03  0.25500000920E-02 0.  1.
        2   -1    0    0  501    0  0.00000000000E+00  0.00000000000E+00 -0.17565601378E+04  0.17565601378E+04  0.25500000920E-02 0. -1.
    10030    2    1    2    0    0  0.00000000000E+00  0.00000000000E+00 -0.11143624736E+04  0.23987578021E+04  0.21242022668E+04 0.  0.
        4    1    3    3  502    0  0.97872479456E+03 -0.12497147540E+03 -0.10011035018E+04  0.14056066047E+04  0.12699999809E+01 0.  1.
       -4    1    3    3    0  502 -0.97872479456E+03  0.12497147540E+03 -0.11325897184E+03  0.99315119732E+03  0.12699999809E+01 0. -1.
</event>
<event>
 5   0  0.3772949E-05  0.2036106E+04  0.7818609E-02  0.8589923E-01
       -1   -1    0    0    0  501  0.00000000000E+00  0.00000000000E+00  0.89324759461E+03  0.89324759462E+03  0.50400001928E-02 0. -1.
        1   -1    0    0  501    0  0.00000000000E+00  0.00000000000E+00 -0.11602967917E+04  0.11602967917E+04  0.50400001928E-02 0.  1.
    10030    2    1    2    0    0  0.00000000000E+00  0.00000000000E+00 -0.26704919710E+03  0.20535443863E+04  0.20361064002E+04 0.  0.
        2    1    3    3  502    0  0.98170363900E+02  0.58836185123E+03  0.69854115434E+03  0.91856781603E+03  0.25500000920E-02 0. -1.
       -2    1    3    3    0  502 -0.98170363900E+02 -0.58836185123E+03 -0.96559035144E+03  0.11349765703E+04  0.25500000920E-02 0.  1.
</event>
<event>
 5   0  0.3818907E-05  0.1997656E+04  0.7818609E-02  0.8607717E-01
        1   -1    0    0  501    0  0.00000000000E+00  0.00000000000E+00  0.23967482135E+04  0.23967482135E+04  0.50400001928E-02 0.  1.
       -1   -1    0    0    0  501  0.00000000000E+00  0.00000000000E+00 -0.41625474716E+03  0.41625474719E+03  0.50400001928E-02 0. -1.
    10030    2    1    2    0    0  0.00000000000E+00  0.00000000000E+00  0.19804934663E+04  0.28130029607E+04  0.19976564486E+04 0.  0.
        1    1    3    3  502    0 -0.39871313348E+03  0.85037705334E+03  0.51159010701E+03  0.10695034985E+04  0.50400001928E-02 0. -1.
       -1    1    3    3    0  502  0.39871313348E+03 -0.85037705334E+03  0.14689033593E+04  0.17434994622E+04  0.50400001928E-02 0.  1.
</event>
<event>
 5   0  0.8011197E-05  0.1997896E+04  0.7818609E-02  0.8607605E-01
        2   -1    0    0  501    0  0.00000000000E+00  0.00000000000E+00  0.10996937450E+04  0.10996937450E+04  0.25500000920E-02 0. -1.
       -2   -1    0    0    0  501  0.00000000000E+00  0.00000000000E+00 -0.90743185782E+03  0.90743185782E+03  0.25500000920E-02 0.  1.
    10030    2    1    2    0    0  0.00000000000E+00  0.00000000000E+00  0.19226188716E+03  0.20071256028E+04  0.19978960314E+04 0.  0.
        5    1    3    3  502    0  0.94264474050E+02  0.69149153719E+03 -0.62189364356E+03  0.93478346743E+03  0.46999998093E+01 0.  1.
       -5    1    3    3    0  502 -0.94264474050E+02 -0.69149153719E+03  0.81415553073E+03  0.10723421354E+04  0.46999998093E+01 0. -1.
</event>
<event>
 5   0  0.3549426E-05  0.1973831E+04  0.7818609E-02  0.8618954E-01
       -1   -1    0    0    0  501  0.00000000000E+00  0.00000000000E+00  0.19857848708E+04  0.19857848708E+04  0.50400001928E-02 0. -1.
        1   -1    0    0  501    0  0.00000000000E+00  0.00000000000E+00 -0.49048722555E+03  0.49048722557E+03  0.50400001928E-02 0.  1.
    10030    2    1    2    0    0  0.00000000000E+00  0.00000000000E+00  0.14952976452E+04  0.24762720963E+04  0.19738309065E+04 0.  0.
        5    1    3    3  502    0 -0.53728214812E+01  0.98564741663E+03  0.80975005791E+03  0.12756358977E+04  0.46999998093E+01 0.  1.
       -5    1    3    3    0  502  0.53728214812E+01 -0.98564741663E+03  0.68554758730E+03  0.12006361987E+04  0.46999998093E+01 0. -1.
</event>
<event>
 5   0  0.7935008E-05  0.2007566E+04  0.7818609E-02  0.8603092E-01
        2   -1    0    0  501    0  0.00000000000E+00  0.00000000000E+00  0.77862319492E+03  0.77862319492E+03  0.25500000920E-02 0.  1.
       -2   -1    0    0    0  501  0.00000000000E+00  0.00000000000E+00 -0.12940536490E+04  0.12940536490E+04  0.25500000920E-02 0. -1.
    10030    2    1    2    0    0  0.00000000000E+00  0.00000000000E+00 -0.51543045410E+03  0.20726768439E+04  0.20075658760E+04 0.  0.
        3    1    3    3  502    0 -0.84655774198E+03 -0.52908277395E+03 -0.14947419216E+03  0.10094211889E+04  0.10100000352E+00 0. -1.
       -3    1    3    3    0  502  0.84655774198E+03  0.52908277395E+03 -0.36595626194E+03  0.10632556551E+04  0.10100000352E+00 0.  1.
</event>
<event>
 5   0  0.8022574E-05  0.2007116E+04  0.7818609E-02  0.8603301E-01
        2   -1    0    0  501    0  0.00000000000E+00  0.00000000000E+00  0.11517742661E+04  0.11517742661E+04  0.25500000920E-02 0. -1.
       -2   -1    0    0    0  501  0.00000000000E+00  0.00000000000E+00 -0.87441464195E+03  0.87441464196E+03  0.25500000920E-02 0.  1.
    10030    2    1    2    0    0  0.00000000000E+00  0.00000000000E+00  0.27735962416E+03  0.20261889081E+04  0.20071156245E+04 0.  0.
        1    1    3    3  502    0  0.76251854471E+03  0.33114355453E+02 -0.51912356710E+03  0.92304949461E+03  0.50400001928E-02 0.  1.
       -1    1    3    3    0  502 -0.76251854471E+03 -0.33114355453E+02  0.79648319126E+03  0.11031394135E+04  0.50400001928E-02 0. -1.
</event>
<event>
 5   0  0.3772949E-05  0.2003939E+04  0.7818609E-02  0.8604781E-01
        1   -1    0    0  501    0  0.00000000000E+00  0.00000000000E+00  0.15719157979E+04  0.15719157979E+04  0.50400001928E-02 0. -1.
       -1   -1    0    0    0  501  0.00000000000E+00  0.00000000000E+00 -0.63867501065E+03  0.63867501067E+03  0.50400001928E-02 0.  1.
    10030    2    1    2    0    0  0.00000000000E+00  0.00000000000E+00  0.93324078728E+03  0.22105908086E+04  0.20039394592E+04 0.  0.
        2    1    3    3  502    0  0.23010027602E+03  0.27069296243E+03 -0.56686033838E+03  0.66899287005E+03  0.25500000920E-02 0.  1.
       -2    1    3    3    0  502 -0.23010027602E+03 -0.27069296243E+03  0.15001011257E+04  0.15415979386E+04  0.25500000920E-02 0. -1.
</event>
<event>
 5   0  0.3772949E-05  0.1985186E+04  0.7818609E-02  0.8613578E-01
       -1   -1    0    0    0  501  0.00000000000E+00  0.00000000000E+00  0.97459971443E+03  0.97459971444E+03  0.50400001928E-02 0.  1.
        1   -1    0    0  501    0  0.00000000000E+00  0.00000000000E+00 -0.10109188135E+04  0.10109188135E+04  0.50400001928E-02 0. -1.
    10030    2    1    2    0    0  0.00000000000E+00  0.00000000000E+00 -0.36319099053E+02  0.19855185279E+04  0.19851863257E+04 0.  0.
        2    1    3    3  502    0  0.11865679284E+03  0.98547082826E+03 -0.15159196113E+02  0.99270438151E+03  0.25500000920E-02 0. -1.
       -2    1    3    3    0  502 -0.11865679284E+03 -0.98547082826E+03 -0.21159902939E+02  0.99281414643E+03  0.25500000920E-02 0.  1.
</event>
<event>
 5   0  0.7935008E-05  0.1989024E+04  0.7818609E-02  0.8611770E-01
        2   -1    0    0  501    0  0.00000000000E+00  0.00000000000E+00  0.10974184185E+04  0.10974184185E+04  0.25500000920E-02 0.  1.
       -2   -1    0    0    0  501  0.00000000000E+00  0.00000000000E+00 -0.90125481963E+03  0.90125481963E+03  0.25500000920E-02 0. -1.
    10030    2    1    2    0    0  0.00000000000E+00  0.00000000000E+00  0.19616359884E+03  0.19986732381E+04  0.19890235180E+04 0.  0.
        3    1    3    3  502    0  0.35748909680E+03 -0.92728318793E+03  0.60469419656E+02  0.99564508027E+03  0.10100000352E+00 0. -1.
       -3    1    3    3    0  502 -0.35748909680E+03  0.92728318793E+03  0.13569417919E+03  0.10030281578E+04  0.10100000352E+00 0.  1.
</event>
<event>
 5   0  0.7935008E-05  0.1996294E+04  0.7818609E-02  0.8608355E-01
       -2   -1    0    0    0  501  0.00000000000E+00  0.00000000000E+00  0.63495222842E+03  0.63495222843E+03  0.25500000920E-02 0. -1.
        2   -1    0    0  501    0  0.00000000000E+00  0.00000000000E+00 -0.15690910260E+04  0.15690910260E+04  0.25500000920E-02 0.  1.
    10030    2    1    2    0    0  0.00000000000E+00  0.00000000000E+00 -0.93413879755E+03  0.22040432544E+04  0.19962944107E+04 0.  0.
        3    1    3    3  502    0  0.17391895923E+03  0.75540651848E+03  0.22718702577E+03  0.80777519609E+03  0.10100000352E+00 0. -1.
       -3    1    3    3    0  502 -0.17391895923E+03 -0.75540651848E+03 -0.11613258233E+04  0.13962680583E+04  0.10100000352E+00 0.  1.
</event>
<event>
 5   0  0.3787698E-05  0.1987841E+04  0.7818609E-02  0.8612326E-01
        1   -1    0    0  501    0  0.00000000000E+00  0.00000000000E+00  0.11160128212E+04  0.11160128212E+04  0.50400001928E-02 0. -1.
       -1   -1    0    0    0  501  0.00000000000E+00  0.00000000000E+00 -0.88518544817E+03  0.88518544818E+03  0.50400001928E-02 0.  1.
    10030    2    1    2    0    0  0.00000000000E+00  0.00000000000E+00  0.23082737302E+03  0.20011982694E+04  0.19878413511E+04 0.  0.
        4    1    3    3  502    0 -0.36904852286E+01 -0.38396001635E+03  0.10383275764E+04  0.11070522493E+04  0.12699999809E+01 0. -1.
       -4    1    3    3    0  502  0.36904852286E+01  0.38396001635E+03 -0.80750020340E+03  0.89414602008E+03  0.12699999809E+01 0.  1.
</event>
<event>
 5   0  0.3787698E-05  0.2048158E+04  0.7818609E-02  0.8584430E-01
        1   -1    0    0  501    0  0.00000000000E+00  0.00000000000E+00  0.12263480190E+04  0.12263480190E+04  0.50400001928E-02 0. -1.
       -1   -1    0    0    0  501  0.00000000000E+00  0.00000000000E+00 -0.85517160756E+03  0.85517160758E+03  0.50400001928E-02 0.  1.
    10030    2    1    2    0    0  0.00000000000E+00  0.00000000000E+00  0.37117641147E+03  0.20815196266E+04  0.20481582037E+04 0.  0.
        4    1    3    3  502    0  0.18886578331E+02 -0.13268582963E+03  0.12173959251E+04  0.12247516824E+04  0.12699999809E+01 0. -1.
       -4    1    3    3    0  502 -0.18886578331E+02  0.13268582963E+03 -0.84621951358E+03  0.85676794425E+03  0.12699999809E+01 0.  1.
</event>
<event>
 5   0  0.3818907E-05  0.1984015E+04  0.7818609E-02  0.8614131E-01
       -1   -1    0    0    0  501  0.00000000000E+00  0.00000000000E+00  0.68727487310E+03  0.68727487312E+03  0.50400001928E-02 0. -1.
        1   -1    0    0  501    0  0.00000000000E+00  0.00000000000E+00 -0.14318562582E+04  0.14318562582E+04  0.50400001928E-02 0.  1.
    10030    2    1    2    0    0  0.00000000000E+00  0.00000000000E+00 -0.74458138510E+03  0.21191311313E+04  0.19840149477E+04 0.  0.
        1    1    3    3  502    0  0.22180383011E+03 -0.54301715855E+03  0.48220074491E+03  0.75933005468E+03  0.50400001928E-02 0. -1.
       -1    1    3    3    0  502 -0.22180383011E+03  0.54301715855E+03 -0.12267821300E+04  0.13598010767E+04  0.50400001928E-02 0.  1.
</event>
<event>
 5   0  0.3818907E-05  0.1769886E+04  0.7818609E-02  0.8722480E-01
       -1   -1    0    0    0  501  0.00000000000E+00  0.00000000000E+00  0.34687462818E+03  0.34687462822E+03  0.50400001928E-02 0. -1.
        1   -1    0    0  501    0  0.00000000000E+00  0.00000000000E+00 -0.22576573560E+04  0.22576573560E+04  0.50400001928E-02 0.  1.
    10030    2    1    2    0    0  0.00000000000E+00  0.00000000000E+00 -0.19107827278E+04  0.26045319842E+04  0.17698859353E+04 0.  0.
        1    1    3    3  502    0  0.75152249765E+03  0.36003957965E+03 -0.51709338857E+03  0.98071409489E+03  0.50400001928E-02 0. -1.
       -1    1    3    3    0  502 -0.75152249765E+03 -0.36003957965E+03 -0.13936893393E+04  0.16238178894E+04  0.50400001928E-02 0.  1.
</event>
<event>
 5   0  0.3772949E-05  0.1990319E+04  0.7818609E-02  0.8611160E-01
       -1   -1    0    0    0  501  0.00000000000E+00  0.00000000000E+00  0.42515431176E+03  0.42515431179E+03  0.50400001928E-02 0.  1.
        1   -1    0    0  501    0  0.00000000000E+00  0.00000000000E+00 -0.23293726094E+04  0.23293726094E+04  0.50400001928E-02 0. -1.
    10030    2    1    2    0    0  0.00000000000E+00  0.00000000000E+00 -0.19042182976E+04  0.27545269212E+04  0.19903193800E+04 0.  0.
        2    1    3    3  502    0  0.41230395689E+02 -0.45203461925E+03  0.27354362315E+03  0.52996354243E+03  0.25500000920E-02 0.  1.
       -2    1    3    3    0  502 -0.41230395689E+02  0.45203461925E+03 -0.21777619208E+04  0.22245633788E+04  0.25500000920E-02 0. -1.
</event>
<event>
 5   0  0.3549426E-05  0.2003909E+04  0.7818609E-02  0.8604795E-01
        1   -1    0    0  501    0  0.00000000000E+00  0.00000000000E+00  0.12974372144E+04  0.12974372144E+04  0.50400001928E-02 0. -1.
       -1   -1    0    0    0  501  0.00000000000E+00  0.00000000000E+00 -0.77376583050E+03  0.77376583052E+03  0.50400001928E-02 0.  1.
    10030    2    1    2    0    0  0.00000000000E+00  0.00000000000E+00  0.52367138390E+03  0.20712030449E+04  0.20039087641E+04 0.  0.
        5    1    3    3  502    0  0.58949347196E+03  0.67713565391E+03 -0.19793413390E+03  0.91935589335E+03  0.46999998093E+01 0.  1.
       -5    1    3    3    0  502 -0.58949347196E+03 -0.67713565391E+03  0.72160551780E+03  0.11518471516E+04  0.46999998093E+01 0. -1.
</event>
<event>
 5   0  0.3772949E-05  0.1999973E+04  0.7818609E-02  0.8606633E-01
        1   -1    0    0  501    0  0.00000000000E+00  0.00000000000E+00  0.11011507610E+04  0.11011507610E+04  0.50400001928E-02 0.  1.
       -1   -1    0    0    0  501  0.00000000000E+00  0.00000000000E+00 -0.90811652229E+03  0.90811652231E+03  0.50400001928E-02 0. -1.
    10030    2    1    2    0    0  0.00000000000E+00  0.00000000000E+00  0.19303423869E+03  0.20092672833E+04  0.19999731994E+04 0.  0.
        2    1    3    3  502    0  0.51013828324E+03  0.74231866161E+03 -0.33989207293E+03  0.96270695679E+03  0.25500000920E-02 0. -1.
       -2    1    3    3    0  502 -0.51013828324E+03 -0.74231866161E+03  0.53292631162E+03  0.10465603265E+04  0.25500000920E-02 0.  1.
</event>
<event>
 5   0  0.8022574E-05  0.2018542E+04  0.7818609E-02  0.8598000E-01
       -2   -1    0    0    0  501  0.00000000000E+00  0.00000000000E+00  0.76195279655E+03  0.76195279655E+03  0.25500000920E-02 0. -1.
        2   -1    0    0  501    0  0.00000000000E+00  0.00000000000E+00 -0.13368647054E+04  0.13368647054E+04  0.25500000920E-02 0.  1.
    10030    2    1    2    0    0  0.00000000000E+00  0.00000000000E+00 -0.57491190888E+03  0.20988175020E+04  0.20185418508E+04 0.  0.
        1    1    3    3  502    0  0.29416146547E+03  0.70653245143E+03 -0.97158036973E+03  0.12368053556E+04  0.50400001928E-02 0.  1.
       -1    1    3    3    0  502 -0.29416146547E+03 -0.70653245143E+03  0.39666846086E+03  0.86201214641E+03  0.50400001928E-02 0. -1.
</event>
<event>
 5   0  0.8022574E-05  0.1998324E+04  0.7818609E-02  0.8607404E-01
       -2   -1    0    0    0  501  0.00000000000E+00  0.00000000000E+00  0.91541451031E+03  0.91541451031E+03  0.25500000920E-02 0. -1.
        2   -1    0    0  501    0  0.00000000000E+00  0.00000000000E+00 -0.10905715540E+04  0.10905715541E+04  0.25500000920E-02 0.  1.
    10030    2    1    2    0    0  0.00000000000E+00  0.00000000000E+00 -0.17515704374E+03  0.20059860644E+04  0.19983243231E+04 0.  0.
        1    1    3    3  502    0  0.91682050197E+03 -0.39646256350E+03 -0.63348287662E+02  0.10008773165E+04  0.50400001928E-02 0.  1.
       -1    1    3    3    0  502 -0.91682050197E+03  0.39646256350E+03 -0.11180875608E+03  0.10051087479E+04  0.50400001928E-02 0. -1.
</event>
<event>
 5   0  0.7843846E-05  0.2018765E+04  0.7818609E-02  0.8597897E-01
       -2   -1    0    0    0  501  0.00000000000E+00  0.00000000000E+00  0.62230675919E+03  0.62230675920E+03  0.25500000920E-02 0.  1.
        2   -1    0    0  501    0  0.00000000000E+00  0.00000000000E+00 -0.16372202283E+04  0.16372202283E+04  0.25500000920E-02 0. -1.
    10030    2    1    2    0    0  0.00000000000E+00  0.00000000000E+00 -0.10149134691E+04  0.22595269875E+04  0.20187651813E+04 0.  0.
        2    1    3    3  502    0 -0.85641253437E+03  0.53296425356E+03 -0.54873140126E+03  0.11483028674E+04  0.25500000920E-02 0.  1.
       -2    1    3    3    0  502  0.85641253437E+03 -0.53296425356E+03 -0.46618206780E+03  0.11112241200E+04  0.25500000920E-02 0. -1.
</event>
<event>
 5   0  0.3787698E-05  0.2051806E+04  0.7818609E-02  0.8582776E-01
       -1   -1    0    0    0  501  0.00000000000E+00  0.00000000000E+00  0.58449264488E+03  0.58449264490E+03  0.50400001928E-02 0.  1.
        1   -1    0    0  501    0  0.00000000000E+00  0.00000000000E+00 -0.18006667725E+04  0.18006667725E+04  0.50400001928E-02 0. -1.
    10030    2    1    2    0    0  0.00000000000E+00  0.00000000000E+00 -0.12161741276E+04  0.23851594174E+04  0.20518055312E+04 0.  0.
        4    1    3    3  502    0  0.43998931154E+02 -0.49787676764E+03 -0.16495561912E+04  0.17236166692E+04  0.12699999809E+01 0. -1.
       -4    1    3    3    0  502 -0.43998931154E+02  0.49787676764E+03  0.43338206358E+03  0.66154274815E+03  0.12699999809E+01 0.  1.
</event>
<event>
 5   0  0.3787698E-05  0.2004133E+04  0.7818609E-02  0.8604691E-01
        1   -1    0    0  501    0  0.00000000000E+00  0.00000000000E+00  0.11711582534E+04  0.11711582535E+04  0.50400001928E-02 0. -1.
       -1   -1    0    0    0  501  0.00000000000E+00  0.00000000000E+00 -0.85738807315E+03  0.85738807316E+03  0.50400001928E-02 0.  1.
    10030    2    1    2    0    0  0.00000000000E+00  0.00000000000E+00  0.31377018030E+03  0.20285463266E+04  0.20041328482E+04 0.  0.
        4    1    3    3  502    0  0.17770546425E+03  0.44937543167E+03  0.10454271638E+04  0.11517105011E+04  0.12699999809E+01 0. -1.
       -4    1    3    3    0  502 -0.17770546425E+03 -0.44937543167E+03 -0.73165698348E+03  0.87683582556E+03  0.12699999809E+01 0.  1.
</event>
<event>
 5   0  0.3818907E-05  0.1992996E+04  0.7818609E-02  0.8609902E-01
       -1   -1    0    0    0  501  0.00000000000E+00  0.00000000000E+00  0.46570826929E+03  0.46570826931E+03  0.50400001928E-02 0. -1.
        1   -1    0    0  501    0  0.00000000000E+00  0.00000000000E+00 -0.21322533310E+04  0.21322533310E+04  0.50400001928E-02 0.  1.
    10030    2    1    2    0    0  0.00000000000E+00  0.00000000000E+00 -0.16665450617E+04  0.25979616003E+04  0.19929957436E+04 0.  0.
        1    1    3    3  502    0  0.20141862591E+02 -0.10437046930E+03  0.45829693418E+03  0.47046250583E+03  0.50400001928E-02 0. -1.
       -1    1    3    3    0  502 -0.20141862591E+02  0.10437046930E+03 -0.21248419959E+04  0.21274990944E+04  0.50400001928E-02 0.  1.
</event>
<event>
 5   0  0.3772949E-05  0.1996860E+04  0.7818609E-02  0.8608090E-01
        1   -1    0    0  501    0  0.00000000000E+00  0.00000000000E+00  0.58128566797E+03  0.58128566799E+03  0.50400001928E-02 0. -1.
       -1   -1    0    0    0  501  0.00000000000E+00  0.00000000000E+00 -0.17149268902E+04  0.17149268903E+04  0.50400001928E-02 0.  1.
    10030    2    1    2    0    0  0.00000000000E+00  0.00000000000E+00 -0.11336412223E+04  0.22962125582E+04  0.19968599580E+04 0.  0.
        2    1    3    3  502    0 -0.54713733668E+03 -0.36616545280E+02  0.39262366608E+03  0.67442818724E+03  0.25500000920E-02 0. -1.
       -2    1    3    3    0  502  0.54713733668E+03  0.36616545280E+02 -0.15262648884E+04  0.16217843710E+04  0.25500000920E-02 0.  1.
</event>
<event>
 5   0  0.3772949E-05  0.1988980E+04  0.7818609E-02  0.8611790E-01
        1   -1    0    0  501    0  0.00000000000E+00  0.00000000000E+00  0.10771992134E+04  0.10771992134E+04  0.50400001928E-02 0.  1.
       -1   -1    0    0    0  501  0.00000000000E+00  0.00000000000E+00 -0.91813156924E+03  0.91813156926E+03  0.50400001928E-02 0. -1.
    10030    2    1    2    0    0  0.00000000000E+00  0.00000000000E+00  0.15906764411E+03  0.19953307826E+04  0.19889802454E+04 0.  0.
        2    1    3    3  502    0  0.26068827946E+01 -0.47652805728E+03  0.95520386617E+03  0.10674737520E+04  0.25500000920E-02 0.  1.
       -2    1    3    3    0  502 -0.26068827946E+01  0.47652805728E+03 -0.79613622206E+03  0.92785703064E+03  0.25500000920E-02 0. -1.
</event>
<event>
 5   0  0.7935008E-05  0.2008392E+04  0.7818609E-02  0.8602707E-01
        2   -1    0    0  501    0  0.00000000000E+00  0.00000000000E+00  0.22092814890E+04  0.22092814890E+04  0.25500000920E-02 0.  1.
       -2   -1    0    0    0  501  0.00000000000E+00  0.00000000000E+00 -0.45644222863E+03  0.45644222864E+03  0.25500000920E-02 0. -1.
    10030    2    1    2    0    0  0.00000000000E+00  0.00000000000E+00  0.17528392603E+04  0.26657237176E+04  0.20083917611E+04 0.  0.
        3    1    3    3  502    0  0.46550587336E+03 -0.63906768617E+03  0.54669866881E+02  0.79252257393E+03  0.10100000352E+00 0. -1.
       -3    1    3    3    0  502 -0.46550587336E+03  0.63906768617E+03  0.16981693934E+04  0.18732011437E+04  0.10100000352E+00 0.  1.
</event>
<event>
 5   0  0.8022574E-05  0.2003136E+04  0.7818609E-02  0.8605156E-01
       -2   -1    0    0    0  501  0.00000000000E+00  0.00000000000E+00  0.67811460513E+03  0.67811460513E+03  0.25500000920E-02 0. -1.
        2   -1    0    0  501    0  0.00000000000E+00  0.00000000000E+00 -0.14793051348E+04  0.14793051348E+04  0.25500000920E-02 0.  1.
    10030    2    1    2    0    0  0.00000000000E+00  0.00000000000E+00 -0.80119052970E+03  0.21574197400E+04  0.20031359588E+04 0.  0.
        1    1    3    3  502    0 -0.40416404700E+03  0.89385032250E+03 -0.18299050598E+03  0.99789904360E+03  0.50400001928E-02 0. -1.
       -1    1    3    3    0  502  0.40416404700E+03 -0.89385032250E+03 -0.61820002372E+03  0.11595206964E+04  0.50400001928E-02 0.  1.
</event>
<event>
 5   0  0.7935008E-05  0.1996553E+04  0.7818609E-02  0.8608234E-01
        2   -1    0    0  501    0  0.00000000000E+00  0.00000000000E+00  0.37323072329E+03  0.37323072330E+03  0.25500000920E-02 0. -1.
       -2   -1    0    0    0  501  0.00000000000E+00  0.00000000000E+00 -0.26700807012E+04  0.26700807012E+04  0.25500000920E-02 0.  1.
    10030    2    1    2    0    0  0.00000000000E+00  0.00000000000E+00 -0.22968499779E+04  0.30433114245E+04  0.19965531812E+04 0.  0.
        3    1    3    3  502    0 -0.96783997881E+03  0.23316189273E+02 -0.77724330977E+03  0.12415172339E+04  0.10100000352E+00 0. -1.
       -3    1    3    3    0  502  0.96783997881E+03 -0.23316189273E+02 -0.15196066681E+04  0.18017941906E+04  0.10100000352E+00 0.  1.
</event>
<event>
 5   0  0.3818907E-05  0.1989423E+04  0.7818609E-02  0.8611582E-01
        1   -1    0    0  501    0  0.00000000000E+00  0.00000000000E+00  0.15749012875E+04  0.15749012875E+04  0.50400001928E-02 0.  1.
       -1   -1    0    0    0  501  0.00000000000E+00  0.00000000000E+00 -0.62826208652E+03  0.62826208654E+03  0.50400001928E-02 0. -1.
    10030    2    1    2    0    0  0.00000000000E+00  0.00000000000E+00  0.94663920098E+03  0.22031633740E+04  0.19894227997E+04 0.  0.
        1    1    3    3  502    0 -0.47295886441E+02  0.62835008475E+03  0.13256804351E+04  0.14678178858E+04  0.50400001928E-02 0.  1.
       -1    1    3    3    0  502  0.47295886441E+02 -0.62835008475E+03 -0.37904123412E+03  0.73534548824E+03  0.50400001928E-02 0. -1.
</event>
<event>
 5   0  0.7843846E-05  0.2006089E+04  0.7818609E-02  0.8603779E-01
       -2   -1    0    0    0  501  0.00000000000E+00  0.00000000000E+00  0.12490395415E+04  0.12490395415E+04  0.25500000920E-02 0.  1.
        2   -1    0    0  501    0  0.00000000000E+00  0.00000000000E+00 -0.80549767062E+03  0.80549767062E+03  0.25500000920E-02 0. -1.
    10030    2    1    2    0    0  0.00000000000E+00  0.00000000000E+00  0.44354187090E+03  0.20545372121E+04  0.20060891717E+04 0.  0.
        2    1    3    3  502    0  0.42111587908E+03 -0.45623420195E+03 -0.58504271278E+03  0.85309038584E+03  0.25500000920E-02 0. -1.
       -2    1    3    3    0  502 -0.42111587908E+03  0.45623420195E+03  0.10285845837E+04  0.12014468263E+04  0.25500000920E-02 0.  1.
</event>
<event>
 5   0  0.7843846E-05  0.2007315E+04  0.7818609E-02  0.8603208E-01
        2   -1    0    0  501    0  0.00000000000E+00  0.00000000000E+00  0.15893920249E+04  0.15893920249E+04  0.25500000920E-02 0.  1.
       -2   -1    0    0    0  501  0.00000000000E+00  0.00000000000E+00 -0.63378242989E+03  0.63378242990E+03  0.25500000920E-02 0. -1.
    10030    2    1    2    0    0  0.00000000000E+00  0.00000000000E+00  0.95560959502E+03  0.22231744548E+04  0.20073153610E+04 0.  0.
        2    1    3    3  502    0  0.25004612092E+03  0.85101510109E+03 -0.42358843846E+02  0.88800002057E+03  0.25500000920E-02 0. -1.
       -2    1    3    3    0  502 -0.25004612092E+03 -0.85101510109E+03  0.99796843886E+03  0.13351744342E+04  0.25500000920E-02 0.  1.
</event>
<event>
 5   0  0.3787698E-05  0.1996504E+04  0.7818609E-02  0.8608257E-01
       -1   -1    0    0    0  501  0.00000000000E+00  0.00000000000E+00  0.94566469865E+03  0.94566469866E+03  0.50400001928E-02 0.  1.
        1   -1    0    0  501    0  0.00000000000E+00  0.00000000000E+00 -0.10537640460E+04  0.10537640460E+04  0.50400001928E-02 0. -1.
    10030    2    1    2    0    0  0.00000000000E+00  0.00000000000E+00 -0.10809934738E+03  0.19994287447E+04  0.19965044043E+04 0.  0.
        4    1    3    3  502    0 -0.60523946683E+03  0.12416126225E+02 -0.84896092260E+03  0.10426913414E+04  0.12699999809E+01 0. -1.
       -4    1    3    3    0  502  0.60523946683E+03 -0.12416126225E+02  0.74086157521E+03  0.95673740333E+03  0.12699999809E+01 0.  1.
</event>
<event>
 5   0  0.3772949E-05  0.1964110E+04  0.7818609E-02  0.8623586E-01
       -1   -1    0    0    0  501  0.00000000000E+00  0.00000000000E+00  0.15796405549E+04  0.15796405549E+04  0.50400001928E-02 0. -1.
        1   -1    0    0  501    0  0.00000000000E+00  0.00000000000E+00 -0.61053921558E+03  0.61053921560E+03  0.50400001928E-02 0.  1.
    10030    2    1    2    0    0  0.00000000000E+00  0.00000000000E+00  0.96910133934E+03  0.21901797705E+04  0.19641104911E+04 0.  0.
        2    1    3    3  502    0 -0.39401535895E+03  0.51004628205E+03  0.13108068680E+04  0.14606881796E+04  0.25500000920E-02 0. -1.
       -2    1    3    3    0  502  0.39401535895E+03 -0.51004628205E+03 -0.34170552863E+03  0.72949159092E+03  0.25500000920E-02 0.  1.
</event>
<event>
 5   0  0.3549426E-05  0.2106347E+04  0.7818609E-02  0.8558453E-01
        1   -1    0    0  501    0  0.00000000000E+00  0.00000000000E+00  0.84699928030E+03  0.84699928031E+03  0.50400001928E-02 0.  1.
       -1   -1    0    0    0  501  0.00000000000E+00  0.00000000000E+00 -0.13095335327E+04  0.13095335327E+04  0.50400001928E-02 0. -1.
    10030    2    1    2    0    0  0.00000000000E+00  0.00000000000E+00 -0.46253425239E+03  0.21565328130E+04  0.21063465619E+04 0.  0.
        5    1    3    3  502    0 -0.87720351146E+03  0.41861894132E+03  0.18388657550E+03  0.98922402983E+03  0.46999998093E+01 0.  1.
       -5    1    3    3    0  502  0.87720351146E+03 -0.41861894132E+03 -0.64642082789E+03  0.11673087832E+04  0.46999998093E+01 0. -1.
</event>
<event>
 5   0  0.7857136E-05  0.2002847E+04  0.7818609E-02  0.8605291E-01
        2   -1    0    0  501    0  0.00000000000E+00  0.00000000000E+00  0.12251454114E+04  0.12251454114E+04  0.25500000920E-02 0.  1.
       -2   -1    0    0    0  501  0.00000000000E+00  0.00000000000E+00 -0.81855499985E+03  0.81855499986E+03  0.25500000920E-02 0. -1.
    10030    2    1    2    0    0  0.00000000000E+00  0.00000000000E+00  0.40659041154E+03  0.20437004113E+04  0.20028468759E+04 0.  0.
        4    1    3    3  502    0 -0.85825450725E+03 -0.11461549397E+03  0.71665747599E+03  0.11239826785E+04  0.12699999809E+01 0.  1.
       -4    1    3    3    0  502  0.85825450725E+03  0.11461549397E+03 -0.31006706445E+03  0.91971773280E+03  0.12699999809E+01 0. -1.
</event>
<event>
 5   0  0.3549426E-05  0.2005052E+04  0.7818609E-02  0.8604262E-01
       -1   -1    0    0    0  501  0.00000000000E+00  0.00000000000E+00  0.99389450598E+03  0.99389450599E+03  0.50400001928E-02 0. -1.
        1   -1    0    0  501    0  0.00000000000E+00  0.00000000000E+00 -0.10112329236E+04  0.10112329236E+04  0.50400001928E-02 0.  1.
    10030    2    1    2    0    0  0.00000000000E+00  0.00000000000E+00 -0.17338417632E+02  0.20051274296E+04  0.20050524652E+04 0.  0.
        5    1    3    3  502    0  0.64444066460E+03  0.74637732731E+03 -0.18937978930E+03  0.10041263265E+04  0.46999998093E+01 0. -1.
       -5    1    3    3    0  502 -0.64444066460E+03 -0.74637732731E+03  0.17204137167E+03  0.10010011031E+04  0.46999998093E+01 0.  1.
</event>
<event>
 5   0  0.8022574E-05  0.2004242E+04  0.7818609E-02  0.8604640E-01
        2   -1    0    0  501    0  0.00000000000E+00  0.00000000000E+00  0.24773926975E+04  0.24773926975E+04  0.25500000920E-02 0.  1.
       -2   -1    0    0    0  501  0.00000000000E+00  0.00000000000E+00 -0.40536422227E+03  0.40536422227E+03  0.25500000920E-02 0. -1.
    10030    2    1    2    0    0  0.00000000000E+00  0.00000000000E+00  0.20720284753E+04  0.28827569198E+04  0.20042418657E+04 0.  0.
        1    1    3    3  502    0  0.54953031143E+03 -0.17181313520E+03  0.22157439096E+04  0.22893283709E+04  0.50400001928E-02 0.  1.
       -1    1    3    3    0  502 -0.54953031143E+03  0.17181313520E+03 -0.14371543435E+03  0.59342854895E+03  0.50400001928E-02 0. -1.
</event>
<event>
 5   0  0.3549426E-05  0.1978683E+04  0.7818609E-02  0.8616653E-01
       -1   -1    0    0    0  501  0.00000000000E+00  0.00000000000E+00  0.67650532875E+03  0.67650532877E+03  0.50400001928E-02 0.  1.
        1   -1    0    0  501    0  0.00000000000E+00  0.00000000000E+00 -0.14468419849E+04  0.14468419849E+04  0.50400001928E-02 0. -1.
    10030    2    1    2    0    0  0.00000000000E+00  0.00000000000E+00 -0.77033665617E+03  0.21233473137E+04  0.19786827059E+04 0.  0.
        5    1    3    3  502    0  0.20277469455E+03 -0.37868455882E+03  0.57119906888E+03  0.71470975796E+03  0.46999998093E+01 0.  1.
       -5    1    3    3    0  502 -0.20277469455E+03  0.37868455882E+03 -0.13415357250E+04  0.14086375557E+04  0.46999998093E+01 0. -1.
</event>
<event>
 5   0  0.3970042E-05  0.1994728E+04  0.7818609E-02  0.8609090E-01
       -1   -1    0    0    0  501  0.00000000000E+00  0.00000000000E+00  0.89425725875E+03  0.89425725877E+03  0.50400001928E-02 0. -1.
        1   -1    0    0  501    0  0.00000000000E+00  0.00000000000E+00 -0.11123583716E+04  0.11123583716E+04  0.50400001928E-02 0.  1.
    10030    2    1    2    0    0  0.00000000000E+00  0.00000000000E+00 -0.21810111284E+03  0.20066156304E+04  0.19947275986E+04 0.  0.
        3    1    3    3  502    0 -0.86325821215E+02 -0.85011138407E+03  0.40840111039E+03  0.94706546231E+03  0.10100000352E+00 0. -1.
       -3    1    3    3    0  502  0.86325821215E+02  0.85011138407E+03 -0.62650222323E+03  0.10595501681E+04  0.10100000352E+00 0.  1.
</event>
<event>
 5   0  0.3970042E-05  0.2006636E+04  0.7818609E-02  0.8603524E-01
        1   -1    0    0  501    0  0.00000000000E+00  0.00000000000E+00  0.77484880535E+03  0.77484880536E+03  0.50400001928E-02 0.  1.
       -1   -1    0    0    0  501  0.00000000000E+00  0.00000000000E+00 -0.12991530269E+04  0.12991530269E+04  0.50400001928E-02 0. -1.
    10030    2    1    2    0    0  0.00000000000E+00  0.00000000000E+00 -0.52430422157E+03  0.20740018323E+04  0.20066361612E+04 0.  0.
        3    1    3    3  502    0  0.83602276449E+03 -0.15585349015E+03 -0.81239936490E+03  0.11761025089E+04  0.10100000352E+00 0. -1.
       -3    1    3    3    0  502 -0.83602276449E+03  0.15585349015E+03  0.28809514333E+03  0.89789932339E+03  0.10100000352E+00 0.  1.
</event>
<event>
 5   0  0.3549426E-05  0.2006106E+04  0.7818609E-02  0.8603771E-01
       -1   -1    0    0    0  501  0.00000000000E+00  0.00000000000E+00  0.70591318037E+03  0.70591318039E+03  0.50400001928E-02 0. -1.
        1   -1    0    0  501    0  0.00000000000E+00  0.00000000000E+00 -0.14252676837E+04  0.14252676837E+04  0.50400001928E-02 0.  1.
    10030    2    1    2    0    0  0.00000000000E+00  0.00000000000E+00 -0.71935450332E+03  0.21311808641E+04  0.20061059229E+04 0.  0.
        5    1    3    3  502    0 -0.67741815192E+03  0.25360467251E+03  0.37854506190E+03  0.81641235681E+03  0.46999998093E+01 0. -1.
       -5    1    3    3    0  502  0.67741815192E+03 -0.25360467251E+03 -0.10978995652E+04  0.13147685073E+04  0.46999998093E+01 0.  1.
</event>
<event>
 5   0  0.7857136E-05  0.2014182E+04  0.7818609E-02  0.8600019E-01
        2   -1    0    0  501    0  0.00000000000E+00  0.00000000000E+00  0.14932792522E+04  0.14932792522E+04  0.25500000920E-02 0.  1.
       -2   -1    0    0    0  501  0.00000000000E+00  0.00000000000E+00 -0.67919788596E+03  0.67919788597E+03  0.25500000920E-02 0. -1.
    10030    2    1    2    0    0  0.00000000000E+00  0.00000000000E+00  0.81408136628E+03  0.21724771382E+04  0.20141818302E+04 0.  0.
        4    1    3    3  502    0 -0.76505248072E+03 -0.48295125811E+03  0.88416703484E+03  0.12650297128E+04  0.12699999809E+01 0.  1.
       -4    1    3    3    0  502  0.76505248072E+03  0.48295125811E+03 -0.70085668558E+02  0.90744742537E+03  0.12699999809E+01 0. -1.
</event>
<event>
 5   0  0.7935008E-05  0.2009395E+04  0.7818609E-02  0.8602241E-01
        2   -1    0    0  501    0  0.00000000000E+00  0.00000000000E+00  0.11520023637E+04  0.11520023637E+04  0.25500000920E-02 0. -1.
       -2   -1    0    0    0  501  0.00000000000E+00  0.00000000000E+00 -0.87622826143E+03  0.87622826143E+03  0.25500000920E-02 0.  1.
    10030    2    1    2    0    0  0.00000000000E+00  0.00000000000E+00  0.27577410232E+03  0.20282306252E+04  0.20093949620E+04 0.  0.
        3    1    3    3  502    0  0.89040942701E+03  0.18978407391E+03 -0.29103158569E+03  0.95579617936E+03  0.10100000352E+00 0.  1.
       -3    1    3    3    0  502 -0.89040942701E+03 -0.18978407391E+03  0.56680568801E+03  0.10724344458E+04  0.10100000352E+00 0. -1.
</event>
<event>
 5   0  0.7843846E-05  0.2021648E+04  0.7818609E-02  0.8596566E-01
       -2   -1    0    0    0  501  0.00000000000E+00  0.00000000000E+00  0.75672540157E+03  0.75672540158E+03  0.25500000920E-02 0.  1.
        2   -1    0    0  501    0  0.00000000000E+00  0.00000000000E+00 -0.13502453723E+04  0.13502453723E+04  0.25500000920E-02 0. -1.
    10030    2    1    2    0    0  0.00000000000E+00  0.00000000000E+00 -0.59351997070E+03  0.21069707739E+04  0.20216478146E+04 0.  0.
        2    1    3    3  502    0  0.38922993225E+03 -0.81205168273E+03  0.18178913654E+03  0.91868121008E+03  0.25500000920E-02 0.  1.
       -2    1    3    3    0  502 -0.38922993225E+03  0.81205168273E+03 -0.77530910724E+03  0.11882895638E+04  0.25500000920E-02 0. -1.
</event>
<event>
 5   0  0.8022574E-05  0.1959912E+04  0.7818609E-02  0.8625596E-01
        2   -1    0    0  501    0  0.00000000000E+00  0.00000000000E+00  0.64152308996E+03  0.64152308997E+03  0.25500000920E-02 0. -1.
       -2   -1    0    0    0  501  0.00000000000E+00  0.00000000000E+00 -0.14969274957E+04  0.14969274957E+04  0.25500000920E-02 0.  1.
    10030    2    1    2    0    0  0.00000000000E+00  0.00000000000E+00 -0.85540440571E+03  0.21384505856E+04  0.19599117863E+04 0.  0.
        1    1    3    3  502    0  0.93386020371E+02  0.30868789511E+03  0.58196158219E+03  0.66534836632E+03  0.50400001928E-02 0. -1.
       -1    1    3    3    0  502 -0.93386020371E+02 -0.30868789511E+03 -0.14373659879E+04  0.14731022193E+04  0.50400001928E-02 0.  1.
</event>
<event>
 5   0  0.8011197E-05  0.1994976E+04  0.7818609E-02  0.8608973E-01
       -2   -1    0    0    0  501  0.00000000000E+00  0.00000000000E+00  0.60593811251E+03  0.60593811252E+03  0.25500000920E-02 0. -1.
        2   -1    0    0  501    0  0.00000000000E+00  0.00000000000E+00 -0.16420534328E+04  0.16420534328E+04  0.25500000920E-02 0.  1.
    10030    2    1    2    0    0  0.00000000000E+00  0.00000000000E+00 -0.10361153203E+04  0.22479915453E+04  0.19949764487E+04 0.  0.
        5    1    3    3  502    0 -0.80765064855E+03 -0.10141102993E+02 -0.11775718129E+04  0.14279705447E+04  0.46999998093E+01 0.  1.
       -5    1    3    3    0  502  0.80765064855E+03  0.10141102993E+02  0.14145649264E+03  0.82002100057E+03  0.46999998093E+01 0. -1.
</event>
<event>
 5   0  0.7935008E-05  0.1996488E+04  0.7818609E-02  0.8608264E-01
       -2   -1    0    0    0  501  0.00000000000E+00  0.00000000000E+00  0.13656821773E+04  0.13656821773E+04  0.25500000920E-02 0.  1.
        2   -1    0    0  501    0  0.00000000000E+00  0.00000000000E+00 -0.72966543861E+03  0.72966543862E+03  0.25500000920E-02 0. -1.
    10030    2    1    2    0    0  0.00000000000E+00  0.00000000000E+00  0.63601673869E+03  0.20953476159E+04  0.19964880014E+04 0.  0.
        3    1    3    3  502    0 -0.43647713333E+03 -0.86150076200E+03  0.52924402681E+02  0.96721086297E+03  0.10100000352E+00 0. -1.
       -3    1    3    3    0  502  0.43647713333E+03  0.86150076200E+03  0.58309233601E+03  0.11281367530E+04  0.10100000352E+00 0.  1.
</event>
<event>
 5   0  0.3818907E-05  0.1839751E+04  0.7818609E-02  0.8685441E-01
        1   -1    0    0  501    0  0.00000000000E+00  0.00000000000E+00  0.11319560338E+04  0.11319560338E+04  0.50400001928E-02 0. -1.
       -1   -1    0    0    0  501  0.00000000000E+00  0.00000000000E+00 -0.74752972505E+03  0.74752972507E+03  0.50400001928E-02 0.  1.
    10030    2    1    2    0    0  0.00000000000E+00  0.00000000000E+00  0.38442630876E+03  0.18794857589E+04  0.18397508339E+04 0.  0.
        1    1    3    3  502    0  0.44319309463E+03 -0.41916018353E+02 -0.63015337555E+03  0.77153765200E+03  0.50400001928E-02 0.  1.
       -1    1    3    3    0  502 -0.44319309463E+03  0.41916018353E+02  0.10145796843E+04  0.11079481069E+04  0.50400001928E-02 0. -1.
</event>
<event>
 5   0  0.3970042E-05  0.1997487E+04  0.7818609E-02  0.8607797E-01
       -1   -1    0    0    0  501  0.00000000000E+00  0.00000000000E+00  0.83668106776E+03  0.83668106777E+03  0.50400001928E-02 0. -1.
        1   -1    0    0  501    0  0.00000000000E+00  0.00000000000E+00 -0.11921964282E+04  0.11921964282E+04  0.50400001928E-02 0.  1.
    10030    2    1    2    0    0  0.00000000000E+00  0.00000000000E+00 -0.35551536043E+03  0.20288774960E+04  0.19974866012E+04 0.  0.
        3    1    3    3  502    0 -0.23282743157E+03  0.29897126421E+03  0.76082897215E+03  0.84997244942E+03  0.10100000352E+00 0. -1.
       -3    1    3    3    0  502  0.23282743157E+03 -0.29897126421E+03 -0.11163443326E+04  0.11789050466E+04  0.10100000352E+00 0.  1.
</event>
<event>
 5   0  0.3549426E-05  0.1997732E+04  0.7818609E-02  0.8607682E-01
        1   -1    0    0  501    0  0.00000000000E+00  0.00000000000E+00  0.10249541094E+04  0.10249541094E+04  0.50400001928E-02 0. -1.
       -1   -1    0    0    0  501  0.00000000000E+00  0.00000000000E+00 -0.97344237443E+03  0.97344237444E+03  0.50400001928E-02 0.  1.
    10030    2    1    2    0    0  0.00000000000E+00  0.00000000000E+00  0.51511734926E+02  0.19983964838E+04  0.19977324765E+04 0.  0.
        5    1    3    3  502    0  0.42390956775E+03 -0.69347746720E+03  0.60655314866E+03  0.10141691828E+04  0.46999998093E+01 0.  1.
       -5    1    3    3    0  502 -0.42390956775E+03  0.69347746720E+03 -0.55504141373E+03  0.98422730104E+03  0.46999998093E+01 0. -1.
</event>
<event>
 5   0  0.3970042E-05  0.1969485E+04  0.7818609E-02  0.8621022E-01
       -1   -1    0    0    0  501  0.00000000000E+00  0.00000000000E+00  0.11044404725E+04  0.11044404725E+04  0.50400001928E-02 0. -1.
        1   -1    0    0  501    0  0.00000000000E+00  0.00000000000E+00 -0.87801704167E+03  0.87801704168E+03  0.50400001928E-02 0.  1.
    10030    2    1    2    0    0  0.00000000000E+00  0.00000000000E+00  0.22642343082E+03  0.19824575142E+04  0.19694847614E+04 0.  0.
        3    1    3    3  502    0  0.55803256048E+03  0.26689698721E+03  0.88447222045E+03  0.10793171264E+04  0.10100000352E+00 0. -1.
       -3    1    3    3    0  502 -0.55803256048E+03 -0.26689698721E+03 -0.65804878963E+03  0.90314038780E+03  0.10100000352E+00 0.  1.
</event>
<event>
 5   0  0.7843846E-05  0.1993453E+04  0.7818609E-02  0.8609688E-01
       -2   -1    0    0    0  501  0.00000000000E+00  0.00000000000E+00  0.12328512645E+04  0.12328512645E+04  0.25500000920E-02 0. -1.
        2   -1    0    0  501    0  0.00000000000E+00  0.00000000000E+00 -0.80582645757E+03  0.80582645757E+03  0.25500000920E-02 0.  1.
    10030    2    1    2    0    0  0.00000000000E+00  0.00000000000E+00  0.42702480693E+03  0.20386777221E+04  0.19934534529E+04 0.  0.
        2    1    3    3  502    0  0.80014272592E+03  0.22336927253E+03  0.77677215254E+03  0.11373201795E+04  0.25500000920E-02 0. -1.
       -2    1    3    3    0  502 -0.80014272592E+03 -0.22336927253E+03 -0.34974734561E+03  0.90135754256E+03  0.25500000920E-02 0.  1.
</event>
<event>
 5   0  0.7935008E-05  0.1995839E+04  0.7818609E-02  0.8608568E-01
        2   -1    0    0  501    0  0.00000000000E+00  0.00000000000E+00  0.13387550417E+04  0.13387550417E+04  0.25500000920E-02 0. -1.
       -2   -1    0    0    0  501  0.00000000000E+00  0.00000000000E+00 -0.74385798339E+03  0.74385798339E+03  0.25500000920E-02 0.  1.
    10030    2    1    2    0    0  0.00000000000E+00  0.00000000000E+00  0.59489705831E+03  0.20826130251E+04  0.19958392977E+04 0.  0.
        3    1    3    3  502    0 -0.16231264633E+03 -0.65121101369E+03  0.10680849140E+04  0.12614382955E+04  0.10100000352E+00 0. -1.
       -3    1    3    3    0  502  0.16231264633E+03  0.65121101369E+03 -0.47318785574E+03  0.82117472960E+03  0.10100000352E+00 0.  1.
</event>
<event>
 5   0  0.3970042E-05  0.2002480E+04  0.7818609E-02  0.8605462E-01
        1   -1    0    0  501    0  0.00000000000E+00  0.00000000000E+00  0.20860642557E+04  0.20860642557E+04  0.50400001928E-02 0.  1.
       -1   -1    0    0    0  501  0.00000000000E+00  0.00000000000E+00 -0.48056113556E+03  0.48056113559E+03  0.50400001928E-02 0. -1.
    10030    2    1    2    0    0  0.00000000000E+00  0.00000000000E+00  0.16055031202E+04  0.25666253913E+04  0.20024798702E+04 0.  0.
        3    1    3    3  502    0 -0.17038089795E+03 -0.43129702351E+03  0.19401210682E+04  0.19947723034E+04  0.10100000352E+00 0.  1.
       -3    1    3    3    0  502  0.17038089795E+03  0.43129702351E+03 -0.33461794801E+03  0.57185308796E+03  0.10100000352E+00 0. -1.
</event>
<event>
 5   0  0.3772949E-05  0.1988690E+04  0.7818609E-02  0.8611927E-01
       -1   -1    0    0    0  501  0.00000000000E+00  0.00000000000E+00  0.17799169520E+04  0.17799169520E+04  0.50400001928E-02 0. -1.
        1   -1    0    0  501    0  0.00000000000E+00  0.00000000000E+00 -0.55548783744E+03  0.55548783746E+03  0.50400001928E-02 0.  1.
    10030    2    1    2    0    0  0.00000000000E+00  0.00000000000E+00  0.12244291146E+04  0.23354047895E+04  0.19886902409E+04 0.  0.
        2    1    3    3  502    0 -0.15965197367E+03  0.63528722691E+03 -0.26630371095E+03  0.70710415063E+03  0.25500000920E-02 0.  1.
       -2    1    3    3    0  502  0.15965197367E+03 -0.63528722691E+03  0.14907328255E+04  0.16283006388E+04  0.25500000920E-02 0. -1.
</event>
<event>
 5   0  0.7843846E-05  0.1978355E+04  0.7818609E-02  0.8616808E-01
       -2   -1    0    0    0  501  0.00000000000E+00  0.00000000000E+00  0.71704980754E+03  0.71704980754E+03  0.25500000920E-02 0. -1.
        2   -1    0    0  501    0  0.00000000000E+00  0.00000000000E+00 -0.13645805561E+04  0.13645805561E+04  0.25500000920E-02 0.  1.
    10030    2    1    2    0    0  0.00000000000E+00  0.00000000000E+00 -0.64753074857E+03  0.20816303637E+04  0.19783550997E+04 0.  0.
        2    1    3    3  502    0  0.83604754450E+03 -0.32256661149E+03  0.11696498884E+03  0.90371761305E+03  0.25500000920E-02 0. -1.
       -2    1    3    3    0  502 -0.83604754450E+03  0.32256661149E+03 -0.76449573741E+03  0.11779127506E+04  0.25500000920E-02 0.  1.
</event>
<event>
 5   0  0.3787698E-05  0.1994050E+04  0.7818609E-02  0.8609407E-01
        1   -1    0    0  501    0  0.00000000000E+00  0.00000000000E+00  0.10920357466E+04  0.10920357467E+04  0.50400001928E-02 0. -1.
       -1   -1    0    0    0  501  0.00000000000E+00  0.00000000000E+00 -0.91028083995E+03  0.91028083996E+03  0.50400001928E-02 0.  1.
    10030    2    1    2    0    0  0.00000000000E+00  0.00000000000E+00  0.18175490669E+03  0.20023165866E+04  0.19940503672E+04 0.  0.
        4    1    3    3  502    0  0.36697212004E+03 -0.54195827315E+03  0.84610584554E+03  0.10697121208E+04  0.12699999809E+01 0. -1.
       -4    1    3    3    0  502 -0.36697212004E+03  0.54195827315E+03 -0.66435093885E+03  0.93260446577E+03  0.12699999809E+01 0.  1.
</event>
<event>
 5   0  0.2859625E-05  0.2001068E+04  0.7818609E-02  0.8606122E-01
        3   -1    0    0  501    0  0.00000000000E+00  0.00000000000E+00  0.91142975808E+03  0.91142976368E+03  0.10100000352E+00 0. -1.
       -3   -1    0    0    0  501  0.00000000000E+00  0.00000000000E+00 -0.10983489944E+04  0.10983489990E+04  0.10100000352E+00 0.  1.
    10030    2    1    2    0    0  0.00000000000E+00  0.00000000000E+00 -0.18691923632E+03  0.20097787627E+04  0.20010676836E+04 0.  0.
        3    1    3    3  502    0  0.29192328603E+03  0.56811787306E+03  0.68001680663E+03  0.93295229788E+03  0.10100000352E+00 0. -1.
       -3    1    3    3    0  502 -0.29192328603E+03 -0.56811787306E+03 -0.86693604296E+03  0.10768264648E+04  0.10100000352E+00 0.  1.
</event>
<event>
 5   0  0.8022574E-05  0.2018900E+04  0.7818609E-02  0.8597835E-01
       -2   -1    0    0    0  501  0.00000000000E+00  0.00000000000E+00  0.12487582813E+04  0.12487582813E+04  0.25500000920E-02 0. -1.
        2   -1    0    0  501    0  0.00000000000E+00  0.00000000000E+00 -0.81600178902E+03  0.81600178902E+03  0.25500000920E-02 0.  1.
    10030    2    1    2    0    0  0.00000000000E+00  0.00000000000E+00  0.43275649232E+03  0.20647600704E+04  0.20188996920E+04 0.  0.
        1    1    3    3  502    0  0.46991722917E+03 -0.25516317904E+03  0.10920153994E+04  0.12159062804E+04  0.50400001928E-02 0. -1.
       -1    1    3    3    0  502 -0.46991722917E+03  0.25516317904E+03 -0.65925890704E+03  0.84885378997E+03  0.50400001928E-02 0.  1.
</event>
<event>
 5   0  0.3787698E-05  0.2013391E+04  0.7818609E-02  0.8600386E-01
        1   -1    0    0  501    0  0.00000000000E+00  0.00000000000E+00  0.95006971287E+03  0.95006971288E+03  0.50400001928E-02 0. -1.
       -1   -1    0    0    0  501  0.00000000000E+00  0.00000000000E+00 -0.10666960296E+04  0.10666960296E+04  0.50400001928E-02 0.  1.
    10030    2    1    2    0    0  0.00000000000E+00  0.00000000000E+00 -0.11662631670E+03  0.20167657425E+04  0.20133907624E+04 0.  0.
        4    1    3    3  502    0  0.46158416183E+03  0.64840005979E+03 -0.67574839309E+03  0.10440881570E+04  0.12699999809E+01 0.  1.
       -4    1    3    3    0  502 -0.46158416183E+03 -0.64840005979E+03  0.55912207639E+03  0.97267758543E+03  0.12699999809E+01 0. -1.
</event>
<event>
 5   0  0.3818907E-05  0.2000423E+04  0.7818609E-02  0.8606423E-01
       -1   -1    0    0    0  501  0.00000000000E+00  0.00000000000E+00  0.10125456569E+04  0.10125456569E+04  0.50400001928E-02 0.  1.
        1   -1    0    0  501    0  0.00000000000E+00  0.00000000000E+00 -0.98802745051E+03  0.98802745053E+03  0.50400001928E-02 0. -1.
    10030    2    1    2    0    0  0.00000000000E+00  0.00000000000E+00  0.24518206411E+02  0.20005731075E+04  0.20004228593E+04 0.  0.
        1    1    3    3  502    0 -0.55036949169E+03 -0.63220578492E+03 -0.53352190877E+03  0.99359768470E+03  0.50400001928E-02 0. -1.
       -1    1    3    3    0  502  0.55036949169E+03  0.63220578492E+03  0.55804011518E+03  0.10069754228E+04  0.50400001928E-02 0.  1.
</event>
<event>
 5   0  0.3772949E-05  0.1995662E+04  0.7818609E-02  0.8608652E-01
       -1   -1    0    0    0  501  0.00000000000E+00  0.00000000000E+00  0.78239855087E+03  0.78239855088E+03  0.50400001928E-02 0. -1.
        1   -1    0    0  501    0  0.00000000000E+00  0.00000000000E+00 -0.12725819906E+04  0.12725819906E+04  0.50400001928E-02 0.  1.
    10030    2    1    2    0    0  0.00000000000E+00  0.00000000000E+00 -0.49018343975E+03  0.20549805415E+04  0.19956615999E+04 0.  0.
        2    1    3    3  502    0  0.99553395585E+03  0.66357321552E+02 -0.25871967820E+03  0.10307410069E+04  0.25500000920E-02 0. -1.
       -2    1    3    3    0  502 -0.99553395585E+03 -0.66357321552E+02 -0.23146376155E+03  0.10242395346E+04  0.25500000920E-02 0.  1.
</event>
<event>
 5   0  0.8022574E-05  0.1974234E+04  0.7818609E-02  0.8618763E-01
        2   -1    0    0  501    0  0.00000000000E+00  0.00000000000E+00  0.94643566223E+03  0.94643566223E+03  0.25500000920E-02 0.  1.
       -2   -1    0    0    0  501  0.00000000000E+00  0.00000000000E+00 -0.10295465324E+04  0.10295465324E+04  0.25500000920E-02 0. -1.
    10030    2    1    2    0    0  0.00000000000E+00  0.00000000000E+00 -0.83110870183E+02  0.19759821946E+04  0.19742335771E+04 0.  0.
        1    1    3    3  502    0  0.19331031905E+03 -0.96661290971E+03 -0.93468102735E+02  0.99017457194E+03  0.50400001928E-02 0.  1.
       -1    1    3    3    0  502 -0.19331031905E+03  0.96661290971E+03  0.10357232552E+02  0.98580762269E+03  0.50400001928E-02 0. -1.
</event>
<event>
 5   0  0.8011197E-05  0.1966073E+04  0.7818609E-02  0.8622649E-01
        2   -1    0    0  501    0  0.00000000000E+00  0.00000000000E+00  0.16659427747E+04  0.16659427747E+04  0.25500000920E-02 0. -1.
       -2   -1    0    0    0  501  0.00000000000E+00  0.00000000000E+00 -0.58006837926E+03  0.58006837926E+03  0.25500000920E-02 0.  1.
    10030    2    1    2    0    0  0.00000000000E+00  0.00000000000E+00  0.10858743954E+04  0.22460111539E+04  0.19660729643E+04 0.  0.
        5    1    3    3  502    0  0.89048696413E+03 -0.40455372586E+03  0.65549473598E+03  0.11774235386E+04  0.46999998093E+01 0. -1.
       -5    1    3    3    0  502 -0.89048696413E+03  0.40455372586E+03  0.43037965945E+03  0.10685876153E+04  0.46999998093E+01 0.  1.
</event>
<event>
 5   0  0.3549426E-05  0.1978411E+04  0.7818609E-02  0.8616781E-01
        1   -1    0    0  501    0  0.00000000000E+00  0.00000000000E+00  0.54940947221E+03  0.54940947224E+03  0.50400001928E-02 0. -1.
       -1   -1    0    0    0  501  0.00000000000E+00  0.00000000000E+00 -0.17810528152E+04  0.17810528152E+04  0.50400001928E-02 0.  1.
    10030    2    1    2    0    0  0.00000000000E+00  0.00000000000E+00 -0.12316433430E+04  0.23304622875E+04  0.19784107634E+04 0.  0.
        5    1    3    3  502    0 -0.27222876411E+03  0.91126920990E+03 -0.93622558881E+03  0.13345637924E+04  0.46999998093E+01 0.  1.
       -5    1    3    3    0  502  0.27222876411E+03 -0.91126920990E+03 -0.29541775420E+03  0.99589849504E+03  0.46999998093E+01 0. -1.
</event>
<event>
 5   0  0.7857136E-05  0.1998025E+04  0.7818609E-02  0.8607544E-01
        2   -1    0    0  501    0  0.00000000000E+00  0.00000000000E+00  0.13854136169E+04  0.13854136169E+04  0.25500000920E-02 0. -1.
       -2   -1    0    0    0  501  0.00000000000E+00  0.00000000000E+00 -0.72038139753E+03  0.72038139753E+03  0.25500000920E-02 0.  1.
    10030    2    1    2    0    0  0.00000000000E+00  0.00000000000E+00  0.66503221940E+03  0.21057950145E+04  0.19980252226E+04 0.  0.
        4    1    3    3  502    0 -0.32792780941E+03  0.15622487559E+03  0.13133479689E+04  0.13626545271E+04  0.12699999809E+01 0. -1.
       -4    1    3    3    0  502  0.32792780941E+03 -0.15622487559E+03 -0.64831574952E+03  0.74314048733E+03  0.12699999809E+01 0.  1.
</event>
<event>
 5   0  0.3818907E-05  0.1977106E+04  0.7818609E-02  0.8617400E-01
        1   -1    0    0  501    0  0.00000000000E+00  0.00000000000E+00  0.78867008931E+03  0.78867008933E+03  0.50400001928E-02 0.  1.
       -1   -1    0    0    0  501  0.00000000000E+00  0.00000000000E+00 -0.12390945285E+04  0.12390945286E+04  0.50400001928E-02 0. -1.
    10030    2    1    2    0    0  0.00000000000E+00  0.00000000000E+00 -0.45042443923E+03  0.20277646179E+04  0.19771057559E+04 0.  0.
        1    1    3    3  502    0 -0.74819655188E+03  0.39232287971E+03 -0.75170890680E+03  0.11308322611E+04  0.50400001928E-02 0. -1.
       -1    1    3    3    0  502  0.74819655188E+03 -0.39232287971E+03  0.30128446757E+03  0.89693235676E+03  0.50400001928E-02 0.  1.
</event>
<event>
 5   0  0.3549426E-05  0.2005367E+04  0.7818609E-02  0.8604115E-01
        1   -1    0    0  501    0  0.00000000000E+00  0.00000000000E+00  0.23743660385E+04  0.23743660385E+04  0.50400001928E-02 0.  1.
       -1   -1    0    0    0  501  0.00000000000E+00  0.00000000000E+00 -0.42342852855E+03  0.42342852858E+03  0.50400001928E-02 0. -1.
    10030    2    1    2    0    0  0.00000000000E+00  0.00000000000E+00  0.19509375099E+04  0.27977945671E+04  0.20053671165E+04 0.  0.
        5    1    3    3  502    0  0.18238814049E+03 -0.89192573138E+03  0.15616909983E+04  0.18076774624E+04  0.46999998093E+01 0. -1.
       -5    1    3    3    0  502 -0.18238814049E+03  0.89192573138E+03  0.38924651165E+03  0.99011710465E+03  0.46999998093E+01 0.  1.
</event>
<event>
 5   0  0.3772949E-05  0.1995406E+04  0.7818609E-02  0.8608771E-01
       -1   -1    0    0    0  501  0.00000000000E+00  0.00000000000E+00  0.10239764695E+04  0.10239764695E+04  0.50400001928E-02 0. -1.
        1   -1    0    0  501    0  0.00000000000E+00  0.00000000000E+00 -0.97210414486E+03  0.97210414487E+03  0.50400001928E-02 0.  1.
    10030    2    1    2    0    0  0.00000000000E+00  0.00000000000E+00  0.51872324614E+02  0.19960806144E+04  0.19954064952E+04 0.  0.
        2    1    3    3  502    0 -0.27830728341E+03 -0.94725755186E+03  0.16972043951E+03  0.10017768420E+04  0.25500000920E-02 0.  1.
       -2    1    3    3    0  502  0.27830728341E+03  0.94725755186E+03 -0.11784811489E+03  0.99430377237E+03  0.25500000920E-02 0. -1.
</event>
<event>
 5   0  0.3772949E-05  0.1985232E+04  0.7818609E-02  0.8613556E-01
       -1   -1    0    0    0  501  0.00000000000E+00  0.00000000000E+00  0.43823412275E+03  0.43823412278E+03  0.50400001928E-02 0. -1.
        1   -1    0    0  501    0  0.00000000000E+00  0.00000000000E+00 -0.22483118278E+04  0.22483118279E+04  0.50400001928E-02 0.  1.
    10030    2    1    2    0    0  0.00000000000E+00  0.00000000000E+00 -0.18100777051E+04  0.26865459506E+04  0.19852324414E+04 0.  0.
        2    1    3    3  502    0  0.43520043313E+03  0.34271593800E+03 -0.20196836610E+04  0.20942721221E+04  0.25500000920E-02 0.  1.
       -2    1    3    3    0  502 -0.43520043313E+03 -0.34271593800E+03  0.20960595589E+03  0.59227382848E+03  0.25500000920E-02 0. -1.
</event>
<event>
 5   0  0.3549426E-05  0.1982133E+04  0.7818609E-02  0.8615020E-01
       -1   -1    0    0    0  501  0.00000000000E+00  0.00000000000E+00  0.15286467215E+04  0.15286467215E+04  0.50400001928E-02 0. -1.
        1   -1    0    0  501    0  0.00000000000E+00  0.00000000000E+00 -0.64253738226E+03  0.64253738228E+03  0.50400001928E-02 0.  1.
    10030    2    1    2    0    0  0.00000000000E+00  0.00000000000E+00  0.88610933925E+03  0.21711841038E+04  0.19821328541E+04 0.  0.
        5    1    3    3  502    0  0.19525742758E+03  0.34375240885E+03 -0.55241369641E+03  0.67931889683E+03  0.46999998093E+01 0.  1.
       -5    1    3    3    0  502 -0.19525742758E+03 -0.34375240885E+03  0.14385230357E+04  0.14918652070E+04  0.46999998093E+01 0. -1.
</event>
<event>
 5   0  0.3549426E-05  0.1962481E+04  0.7818609E-02  0.8624366E-01
        1   -1    0    0  501    0  0.00000000000E+00  0.00000000000E+00  0.10789181731E+04  0.10789181731E+04  0.50400001928E-02 0.  1.
       -1   -1    0    0    0  501  0.00000000000E+00  0.00000000000E+00 -0.89240576829E+03  0.89240576830E+03  0.50400001928E-02 0. -1.
    10030    2    1    2    0    0  0.00000000000E+00  0.00000000000E+00  0.18651240480E+03  0.19713239414E+04  0.19624808801E+04 0.  0.
        5    1    3    3  502    0  0.35316087301E+03 -0.87908417136E+03 -0.16343220482E+03  0.96137597127E+03  0.46999998093E+01 0. -1.
       -5    1    3    3    0  502 -0.35316087301E+03  0.87908417136E+03  0.34994460962E+03  0.10099479701E+04  0.46999998093E+01 0.  1.
</event>
<event>
 5   0  0.3772949E-05  0.1995953E+04  0.7818609E-02  0.8608515E-01
       -1   -1    0    0    0  501  0.00000000000E+00  0.00000000000E+00  0.11561461274E+04  0.11561461274E+04  0.50400001928E-02 0.  1.
        1   -1    0    0  501    0  0.00000000000E+00  0.00000000000E+00 -0.86144559034E+03  0.86144559035E+03  0.50400001928E-02 0. -1.
    10030    2    1    2    0    0  0.00000000000E+00  0.00000000000E+00  0.29470053703E+03  0.20175917177E+04  0.19959528884E+04 0.  0.
        2    1    3    3  502    0 -0.65079212884E+03  0.37885152934E+03 -0.51465289523E+03  0.91210003772E+03  0.25500000920E-02 0. -1.
       -2    1    3    3    0  502  0.65079212884E+03 -0.37885152934E+03  0.80935343226E+03  0.11054916800E+04  0.25500000920E-02 0.  1.
</event>
<event>
 5   0  0.3772949E-05  0.2002040E+04  0.7818609E-02  0.8605667E-01
       -1   -1    0    0    0  501  0.00000000000E+00  0.00000000000E+00  0.69420351886E+03  0.69420351888E+03  0.50400001928E-02 0.  1.
        1   -1    0    0  501    0  0.00000000000E+00  0.00000000000E+00 -0.14434404388E+04  0.14434404388E+04  0.50400001928E-02 0. -1.
    10030    2    1    2    0    0  0.00000000000E+00  0.00000000000E+00 -0.74923691990E+03  0.21376439576E+04  0.20020403911E+04 0.  0.
        2    1    3    3  502    0 -0.39773149045E+02 -0.36047773731E+02  0.69266572701E+03  0.69474250968E+03  0.25500000920E-02 0.  1.
       -2    1    3    3    0  502  0.39773149045E+02  0.36047773731E+02 -0.14419026469E+04  0.14429014480E+04  0.25500000920E-02 0. -1.
</event>
<event>
 5   0  0.2859625E-05  0.1997689E+04  0.7818609E-02  0.8607702E-01
       -4   -1    0    0    0  501  0.00000000000E+00  0.00000000000E+00  0.53227286473E+03  0.53227437984E+03  0.12699999809E+01 0. -1.
        4   -1    0    0  501    0  0.00000000000E+00  0.00000000000E+00 -0.18743921688E+04  0.18743925991E+04  0.12699999809E+01 0.  1.
    10030    2    1    2    0    0  0.00000000000E+00  0.00000000000E+00 -0.13421193041E+04  0.24066669789E+04  0.19976890952E+04 0.  0.
        4    1    3    3  502    0  0.59188300400E+03  0.80011197221E+03 -0.77317148300E+03  0.12602779112E+04  0.12699999809E+01 0.  1.
       -4    1    3    3    0  502 -0.59188300400E+03 -0.80011197221E+03 -0.56894782111E+03  0.11463890677E+04  0.12699999809E+01 0. -1.
</event>
<event>
 5   0  0.8022574E-05  0.2000781E+04  0.7818609E-02  0.8606256E-01
        2   -1    0    0  501    0  0.00000000000E+00  0.00000000000E+00  0.13111217918E+04  0.13111217918E+04  0.25500000920E-02 0.  1.
       -2   -1    0    0    0  501  0.00000000000E+00  0.00000000000E+00 -0.76330133297E+03  0.76330133297E+03  0.25500000920E-02 0. -1.
    10030    2    1    2    0    0  0.00000000000E+00  0.00000000000E+00  0.54782045886E+03  0.20744231248E+04  0.20007808590E+04 0.  0.
        1    1    3    3  502    0  0.31074806461E+03  0.36799194263E+03  0.11829944257E+04  0.12772854970E+04  0.50400001928E-02 0.  1.
       -1    1    3    3    0  502 -0.31074806461E+03 -0.36799194263E+03 -0.63517396685E+03  0.79713762782E+03  0.50400001928E-02 0. -1.
</event>
<event>
 5   0  0.3549426E-05  0.2012065E+04  0.7818609E-02  0.8601001E-01
        1   -1    0    0  501    0  0.00000000000E+00  0.00000000000E+00  0.19037159894E+04  0.19037159894E+04  0.50400001928E-02 0. -1.
       -1   -1    0    0    0  501  0.00000000000E+00  0.00000000000E+00 -0.53164514858E+03  0.53164514861E+03  0.50400001928E-02 0.  1.
    10030    2    1    2    0    0  0.00000000000E+00  0.00000000000E+00  0.13720708408E+04  0.24353611380E+04  0.20120649792E+04 0.  0.
        5    1    3    3  502    0  0.37070475421E+03  0.76671479579E+03  0.13342447074E+04  0.15828785873E+04  0.46999998093E+01 0. -1.
       -5    1    3    3    0  502 -0.37070475421E+03 -0.76671479579E+03  0.37826133387E+02  0.85248255070E+03  0.46999998093E+01 0.  1.
</event>
<event>
 5   0  0.3772949E-05  0.2018407E+04  0.7818609E-02  0.8598063E-01
        1   -1    0    0  501    0  0.00000000000E+00  0.00000000000E+00  0.92473313505E+03  0.92473313507E+03  0.50400001928E-02 0.  1.
       -1   -1    0    0    0  501  0.00000000000E+00  0.00000000000E+00 -0.11013894169E+04  0.11013894169E+04  0.50400001928E-02 0. -1.
    10030    2    1    2    0    0  0.00000000000E+00  0.00000000000E+00 -0.17665628180E+03  0.20261225519E+04  0.20184065878E+04 0.  0.
        2    1    3    3  502    0 -0.24149217683E+03 -0.96931496089E+03 -0.23240844500E+03  0.10256235421E+04  0.25500000920E-02 0. -1.
       -2    1    3    3    0  502  0.24149217683E+03  0.96931496089E+03  0.55752163199E+02  0.10004990098E+04  0.25500000920E-02 0.  1.
</event>
<event>
 5   0  0.3818907E-05  0.2009003E+04  0.7818609E-02  0.8602423E-01
        1   -1    0    0  501    0  0.00000000000E+00  0.00000000000E+00  0.70416577522E+03  0.70416577524E+03  0.50400001928E-02 0. -1.
       -1   -1    0    0    0  501  0.00000000000E+00  0.00000000000E+00 -0.14329346772E+04  0.14329346772E+04  0.50400001928E-02 0.  1.
    10030    2    1    2    0    0  0.00000000000E+00  0.00000000000E+00 -0.72876890198E+03  0.21371004524E+04  0.20090032930E+04 0.  0.
        1    1    3    3  502    0  0.82450996046E+03  0.29680336444E+03  0.15795891482E+03  0.89042682509E+03  0.50400001928E-02 0. -1.
       -1    1    3    3    0  502 -0.82450996046E+03 -0.29680336444E+03 -0.88672781680E+03  0.12466736274E+04  0.50400001928E-02 0.  1.
</event>
<event>
 5   0  0.8011197E-05  0.1886676E+04  0.7818609E-02  0.8661517E-01
       -2   -1    0    0    0  501  0.00000000000E+00  0.00000000000E+00  0.78958548990E+03  0.78958548990E+03  0.25500000920E-02 0. -1.
        2   -1    0    0  501    0  0.00000000000E+00  0.00000000000E+00 -0.11270304262E+04  0.11270304262E+04  0.25500000920E-02 0.  1.
    10030    2    1    2    0    0  0.00000000000E+00  0.00000000000E+00 -0.33744493634E+03  0.19166159161E+04  0.18866763063E+04 0.  0.
        5    1    3    3  502    0  0.61121538428E+03 -0.57831744519E+03  0.26445895995E+03  0.88204078414E+03  0.46999998093E+01 0. -1.
       -5    1    3    3    0  502 -0.61121538428E+03  0.57831744519E+03 -0.60190389629E+03  0.10345751320E+04  0.46999998093E+01 0.  1.
</event>
<event>
 5   0  0.8011197E-05  0.2001116E+04  0.7818609E-02  0.8606099E-01
       -2   -1    0    0    0  501  0.00000000000E+00  0.00000000000E+00  0.84286067275E+03  0.84286067275E+03  0.25500000920E-02 0.  1.
        2   -1    0    0  501    0  0.00000000000E+00  0.00000000000E+00 -0.11877596451E+04  0.11877596451E+04  0.25500000920E-02 0. -1.
    10030    2    1    2    0    0  0.00000000000E+00  0.00000000000E+00 -0.34489897234E+03  0.20306203178E+04  0.20011155824E+04 0.  0.
        5    1    3    3  502    0  0.18224290077E+03  0.30290938328E+03  0.77736796298E+03  0.85398454859E+03  0.46999998093E+01 0.  1.
       -5    1    3    3    0  502 -0.18224290077E+03 -0.30290938328E+03 -0.11222669353E+04  0.11766357693E+04  0.46999998093E+01 0. -1.
</event>
<event>
 5   0  0.7857136E-05  0.2001116E+04  0.7818609E-02  0.8606099E-01
       -2   -1    0    0    0  501  0.00000000000E+00  0.00000000000E+00  0.12320119313E+04  0.12320119313E+04  0.25500000920E-02 0. -1.
        2   -1    0    0  501    0  0.00000000000E+00  0.00000000000E+00 -0.81258619712E+03  0.81258619713E+03  0.25500000920E-02 0.  1.
    10030    2    1    2    0    0  0.00000000000E+00  0.00000000000E+00  0.41942573420E+03  0.20445981284E+04  0.20011155790E+04 0.  0.
        4    1    3    3  502    0 -0.36889998846E+03 -0.50180752221E+03  0.10098098381E+04  0.11864297336E+04  0.12699999809E+01 0. -1.
       -4    1    3    3    0  502  0.36889998846E+03  0.50180752221E+03 -0.59038410390E+03  0.85816839482E+03  0.12699999809E+01 0.  1.
</event>
<event>
 5   0  0.3549426E-05  0.1987470E+04  0.7818609E-02  0.8612501E-01
        1   -1    0    0  501    0  0.00000000000E+00  0.00000000000E+00  0.91574130306E+03  0.91574130308E+03  0.50400001928E-02 0. -1.
       -1   -1    0    0    0  501  0.00000000000E+00  0.00000000000E+00 -0.10783713158E+04  0.10783713159E+04  0.50400001928E-02 0.  1.
    10030    2    1    2    0    0  0.00000000000E+00  0.00000000000E+00 -0.16263001278E+03  0.19941126189E+04  0.19874699032E+04 0.  0.
        5    1    3    3  502    0  0.87978645225E+02 -0.77042893740E+03 -0.70483075277E+03  0.10479071856E+04  0.46999998093E+01 0.  1.
       -5    1    3    3    0  502 -0.87978645225E+02  0.77042893740E+03  0.54220073999E+03  0.94620543332E+03  0.46999998093E+01 0. -1.
</event>
<event>
 5   0  0.7843846E-05  0.1999484E+04  0.7818609E-02  0.8606862E-01
       -2   -1    0    0    0  501  0.00000000000E+00  0.00000000000E+00  0.95223130714E+03  0.95223130714E+03  0.25500000920E-02 0. -1.
        2   -1    0    0  501    0  0.00000000000E+00  0.00000000000E+00 -0.10496236802E+04  0.10496236802E+04  0.25500000920E-02 0.  1.
    10030    2    1    2    0    0  0.00000000000E+00  0.00000000000E+00 -0.97392373071E+02  0.20018549874E+04  0.19994844626E+04 0.  0.
        2    1    3    3  502    0 -0.41144040107E+03  0.61162280175E+03  0.62747023878E+03  0.96803127833E+03  0.25500000920E-02 0. -1.
       -2    1    3    3    0  502  0.41144040107E+03 -0.61162280175E+03 -0.72486261185E+03  0.10338237090E+04  0.25500000920E-02 0.  1.
</event>
<event>
 5   0  0.3772949E-05  0.2001445E+04  0.7818609E-02  0.8605945E-01
       -1   -1    0    0    0  501  0.00000000000E+00  0.00000000000E+00  0.13313233661E+04  0.13313233661E+04  0.50400001928E-02 0. -1.
        1   -1    0    0  501    0  0.00000000000E+00  0.00000000000E+00 -0.75221820985E+03  0.75221820987E+03  0.50400001928E-02 0.  1.
    10030    2    1    2    0    0  0.00000000000E+00  0.00000000000E+00  0.57910515625E+03  0.20835415760E+04  0.20014451571E+04 0.  0.
        2    1    3    3  502    0 -0.33725247783E+03  0.25059319577E+03  0.12350527850E+04  0.13045656616E+04  0.25500000920E-02 0. -1.
       -2    1    3    3    0  502  0.33725247783E+03 -0.25059319577E+03 -0.65594762876E+03  0.77897591442E+03  0.25500000920E-02 0.  1.
</event>
<event>
 5   0  0.7843846E-05  0.1988974E+04  0.7818609E-02  0.8611793E-01
        2   -1    0    0  501    0  0.00000000000E+00  0.00000000000E+00  0.11658492393E+04  0.11658492393E+04  0.25500000920E-02 0.  1.
       -2   -1    0    0    0  501  0.00000000000E+00  0.00000000000E+00 -0.84831279515E+03  0.84831279515E+03  0.25500000920E-02 0. -1.
    10030    2    1    2    0    0  0.00000000000E+00  0.00000000000E+00  0.31753644419E+03  0.20141620345E+04  0.19889744362E+04 0.  0.
        2    1    3    3  502    0 -0.33024505106E+03 -0.93491512301E+03  0.23639895093E+03  0.10193196481E+04  0.25500000920E-02 0.  1.
       -2    1    3    3    0  502  0.33024505106E+03  0.93491512301E+03  0.81137493261E+02  0.99484238641E+03  0.25500000920E-02 0. -1.
</event>
<event>
 5   0  0.3549426E-05  0.1986346E+04  0.7818609E-02  0.8613031E-01
       -1   -1    0    0    0  501  0.00000000000E+00  0.00000000000E+00  0.49940440002E+03  0.49940440005E+03  0.50400001928E-02 0.  1.
        1   -1    0    0  501    0  0.00000000000E+00  0.00000000000E+00 -0.19751379046E+04  0.19751379046E+04  0.50400001928E-02 0. -1.
    10030    2    1    2    0    0  0.00000000000E+00  0.00000000000E+00 -0.14757335046E+04  0.24745423047E+04  0.19863459520E+04 0.  0.
        5    1    3    3  502    0 -0.48423113792E+03  0.78747630798E+03 -0.11900881762E+04  0.15069607452E+04  0.46999998093E+01 0. -1.
       -5    1    3    3    0  502  0.48423113792E+03 -0.78747630798E+03 -0.28564532845E+03  0.96758155947E+03  0.46999998093E+01 0.  1.
</event>
<event>
 5   0  0.7857136E-05  0.1990145E+04  0.7818609E-02  0.8611242E-01
        2   -1    0    0  501    0  0.00000000000E+00  0.00000000000E+00  0.26419228633E+04  0.26419228633E+04  0.25500000920E-02 0.  1.
       -2   -1    0    0    0  501  0.00000000000E+00  0.00000000000E+00 -0.37479125440E+03  0.37479125441E+03  0.25500000920E-02 0. -1.
    10030    2    1    2    0    0  0.00000000000E+00  0.00000000000E+00  0.22671316089E+04  0.30167141177E+04  0.19901453052E+04 0.  0.
        4    1    3    3  502    0  0.14737241301E+03  0.45958921078E+03  0.24526194044E+04  0.24996568617E+04  0.12699999809E+01 0.  1.
       -4    1    3    3    0  502 -0.14737241301E+03 -0.45958921078E+03 -0.18548779548E+03  0.51705725597E+03  0.12699999809E+01 0. -1.
</event>
<event>
 5   0  0.3818907E-05  0.1997590E+04  0.7818609E-02  0.8607748E-01
        1   -1    0    0  501    0  0.00000000000E+00  0.00000000000E+00  0.10000395978E+04  0.10000395978E+04  0.50400001928E-02 0.  1.
       -1   -1    0    0    0  501  0.00000000000E+00  0.00000000000E+00 -0.99755163579E+03  0.99755163580E+03  0.50400001928E-02 0. -1.
    10030    2    1    2    0    0  0.00000000000E+00  0.00000000000E+00  0.24879620421E+01  0.19975912336E+04  0.19975896843E+04 0.  0.
        1    1    3    3  502    0  0.20782700114E+03  0.97383803340E+03  0.78952206683E+02  0.99889240094E+03  0.50400001928E-02 0.  1.
       -1    1    3    3    0  502 -0.20782700114E+03 -0.97383803340E+03 -0.76464244641E+02  0.99869883270E+03  0.50400001928E-02 0. -1.
</event>
<event>
 5   0  0.3549426E-05  0.1944777E+04  0.7818609E-02  0.8632883E-01
        1   -1    0    0  501    0  0.00000000000E+00  0.00000000000E+00  0.18991461592E+04  0.18991461592E+04  0.50400001928E-02 0.  1.
       -1   -1    0    0    0  501  0.00000000000E+00  0.00000000000E+00 -0.49787628668E+03  0.49787628671E+03  0.50400001928E-02 0. -1.
    10030    2    1    2    0    0  0.00000000000E+00  0.00000000000E+00  0.14012698725E+04  0.23970224459E+04  0.19447774553E+04 0.  0.
        5    1    3    3  502    0  0.15208278908E+03 -0.92266217164E+03  0.10292483890E+04  0.13906146102E+04  0.46999998093E+01 0.  1.
       -5    1    3    3    0  502 -0.15208278908E+03  0.92266217164E+03  0.37202148352E+03  0.10064078358E+04  0.46999998093E+01 0. -1.
</event>
<event>
 5   0  0.3787698E-05  0.2067618E+04  0.7818609E-02  0.8575643E-01
        1   -1    0    0  501    0  0.00000000000E+00  0.00000000000E+00  0.15133763669E+04  0.15133763669E+04  0.50400001928E-02 0. -1.
       -1   -1    0    0    0  501  0.00000000000E+00  0.00000000000E+00 -0.70620988555E+03  0.70620988557E+03  0.50400001928E-02 0.  1.
    10030    2    1    2    0    0  0.00000000000E+00  0.00000000000E+00  0.80716648130E+03  0.22195862524E+04  0.20676182925E+04 0.  0.
        4    1    3    3  502    0 -0.30173628390E+03 -0.56536625583E+03 -0.46725936796E+03  0.79310574207E+03  0.12699999809E+01 0.  1.
       -4    1    3    3    0  502  0.30173628390E+03  0.56536625583E+03  0.12744258493E+04  0.14264805104E+04  0.12699999809E+01 0. -1.
</event>
<event>
 5   0  0.7843846E-05  0.2006291E+04  0.7818609E-02  0.8603685E-01
        2   -1    0    0  501    0  0.00000000000E+00  0.00000000000E+00  0.97876004512E+03  0.97876004513E+03  0.25500000920E-02 0.  1.
       -2   -1    0    0    0  501  0.00000000000E+00  0.00000000000E+00 -0.10281385822E+04  0.10281385822E+04  0.25500000920E-02 0. -1.
    10030    2    1    2    0    0  0.00000000000E+00  0.00000000000E+00 -0.49378537059E+02  0.20068986273E+04  0.20062910707E+04 0.  0.
        2    1    3    3  502    0  0.68862619269E+03 -0.72883477694E+03 -0.54611530846E+02  0.10041855330E+04  0.25500000920E-02 0. -1.
       -2    1    3    3    0  502 -0.68862619269E+03  0.72883477694E+03  0.52329937872E+01  0.10027130943E+04  0.25500000920E-02 0.  1.
</event>
<event>
 5   0  0.7935008E-05  0.2007632E+04  0.7818609E-02  0.8603061E-01
        2   -1    0    0  501    0  0.00000000000E+00  0.00000000000E+00  0.13431921538E+04  0.13431921538E+04  0.25500000920E-02 0. -1.
       -2   -1    0    0    0  501  0.00000000000E+00  0.00000000000E+00 -0.75018791321E+03  0.75018791321E+03  0.25500000920E-02 0.  1.
    10030    2    1    2    0    0  0.00000000000E+00  0.00000000000E+00  0.59300424063E+03  0.20933800670E+04  0.20076319572E+04 0.  0.
        3    1    3    3  502    0 -0.79467092458E+02  0.68660384614E+02  0.13374480768E+04  0.13415649949E+04  0.10100000352E+00 0. -1.
       -3    1    3    3    0  502  0.79467092458E+02 -0.68660384614E+02 -0.74444383620E+03  0.75181507212E+03  0.10100000352E+00 0.  1.
</event>
<event>
 5   0  0.3549426E-05  0.1995132E+04  0.7818609E-02  0.8608900E-01
        1   -1    0    0  501    0  0.00000000000E+00  0.00000000000E+00  0.12612100483E+04  0.12612100483E+04  0.50400001928E-02 0. -1.
       -1   -1    0    0    0  501  0.00000000000E+00  0.00000000000E+00 -0.78903398785E+03  0.78903398787E+03  0.50400001928E-02 0.  1.
    10030    2    1    2    0    0  0.00000000000E+00  0.00000000000E+00  0.47217606044E+03  0.20502440362E+04  0.19951316688E+04 0.  0.
        5    1    3    3  502    0 -0.13495288016E+03 -0.94847686774E+03 -0.49611344370E+02  0.95932477503E+03  0.46999998093E+01 0.  1.
       -5    1    3    3    0  502  0.13495288016E+03  0.94847686774E+03  0.52178740481E+03  0.10909192611E+04  0.46999998093E+01 0. -1.
</event>
<event>
 5   0  0.8011197E-05  0.2007716E+04  0.7818609E-02  0.8603022E-01
        2   -1    0    0  501    0  0.00000000000E+00  0.00000000000E+00  0.85236483743E+03  0.85236483744E+03  0.25500000920E-02 0. -1.
       -2   -1    0    0    0  501  0.00000000000E+00  0.00000000000E+00 -0.11822763155E+04  0.11822763155E+04  0.25500000920E-02 0.  1.
    10030    2    1    2    0    0  0.00000000000E+00  0.00000000000E+00 -0.32991147803E+03  0.20346411529E+04  0.20077158757E+04 0.  0.
        5    1    3    3  502    0 -0.54050667040E+03 -0.47720961837E+03 -0.87277242721E+03  0.11320911095E+04  0.46999998093E+01 0.  1.
       -5    1    3    3    0  502  0.54050667040E+03  0.47720961837E+03  0.54286094918E+03  0.90255004335E+03  0.46999998093E+01 0. -1.
</event>
<event>
 5   0  0.8011197E-05  0.1976116E+04  0.7818609E-02  0.8617869E-01
        2   -1    0    0  501    0  0.00000000000E+00  0.00000000000E+00  0.99575688831E+03  0.99575688831E+03  0.25500000920E-02 0.  1.
       -2   -1    0    0    0  501  0.00000000000E+00  0.00000000000E+00 -0.98041830052E+03  0.98041830052E+03  0.25500000920E-02 0. -1.
    10030    2    1    2    0    0  0.00000000000E+00  0.00000000000E+00  0.15338587791E+02  0.19761751888E+04  0.19761156608E+04 0.  0.
        5    1    3    3  502    0 -0.42562493030E+03 -0.81856963891E+03  0.36126635780E+03  0.99083212822E+03  0.46999998093E+01 0.  1.
       -5    1    3    3    0  502  0.42562493030E+03  0.81856963891E+03 -0.34592777001E+03  0.98534306061E+03  0.46999998093E+01 0. -1.
</event>
<event>
 5   0  0.8011197E-05  0.1983923E+04  0.7818609E-02  0.8614174E-01
       -2   -1    0    0    0  501  0.00000000000E+00  0.00000000000E+00  0.54407585072E+03  0.54407585072E+03  0.25500000920E-02 0. -1.
        2   -1    0    0  501    0  0.00000000000E+00  0.00000000000E+00 -0.18085479523E+04  0.18085479523E+04  0.25500000920E-02 0.  1.
    10030    2    1    2    0    0  0.00000000000E+00  0.00000000000E+00 -0.12644721016E+04  0.23526238030E+04  0.19839226454E+04 0.  0.
        5    1    3    3  502    0 -0.82865956518E+03 -0.50079508632E+03 -0.37654206076E+03  0.10388832499E+04  0.46999998093E+01 0. -1.
       -5    1    3    3    0  502  0.82865956518E+03  0.50079508632E+03 -0.88793004079E+03  0.13137405531E+04  0.46999998093E+01 0.  1.
</event>
<event>
 5   0  0.3818907E-05  0.2007473E+04  0.7818609E-02  0.8603135E-01
        1   -1    0    0  501    0  0.00000000000E+00  0.00000000000E+00  0.12581319509E+04  0.12581319509E+04  0.50400001928E-02 0. -1.
       -1   -1    0    0    0  501  0.00000000000E+00  0.00000000000E+00 -0.80078007838E+03  0.80078007839E+03  0.50400001928E-02 0.  1.
    10030    2    1    2    0    0  0.00000000000E+00  0.00000000000E+00  0.45735187251E+03  0.20589120293E+04  0.20074730407E+04 0.  0.
        1    1    3    3  502    0 -0.63895760218E+03  0.44738187387E+02  0.10212772006E+04  0.12055187445E+04  0.50400001928E-02 0. -1.
       -1    1    3    3    0  502  0.63895760218E+03 -0.44738187387E+02 -0.56392532812E+03  0.85339328479E+03  0.50400001928E-02 0.  1.
</event>
<event>
 5   0  0.7857136E-05  0.1953269E+04  0.7818609E-02  0.8628786E-01
        2   -1    0    0  501    0  0.00000000000E+00  0.00000000000E+00  0.15274627183E+04  0.15274627183E+04  0.25500000920E-02 0.  1.
       -2   -1    0    0    0  501  0.00000000000E+00  0.00000000000E+00 -0.62444427453E+03  0.62444427454E+03  0.25500000920E-02 0. -1.
    10030    2    1    2    0    0  0.00000000000E+00  0.00000000000E+00  0.90301844375E+03  0.21519069928E+04  0.19532694120E+04 0.  0.
        4    1    3    3  502    0 -0.27990702947E+03  0.91930035575E+03  0.64344663286E+03  0.11564974152E+04  0.12699999809E+01 0.  1.
       -4    1    3    3    0  502  0.27990702947E+03 -0.91930035575E+03  0.25957181089E+03  0.99540957758E+03  0.12699999809E+01 0. -1.
</event>
<event>
 5   0  0.3818907E-05  0.2023921E+04  0.7818609E-02  0.8595518E-01
        1   -1    0    0  501    0  0.00000000000E+00  0.00000000000E+00  0.10994738690E+04  0.10994738690E+04  0.50400001928E-02 0.  1.
       -1   -1    0    0    0  501  0.00000000000E+00  0.00000000000E+00 -0.93141269369E+03  0.93141269370E+03  0.50400001928E-02 0. -1.
    10030    2    1    2    0    0  0.00000000000E+00  0.00000000000E+00  0.16806117531E+03  0.20308865627E+04  0.20239208660E+04 0.  0.
        1    1    3    3  502    0  0.64053114883E+03 -0.73367580647E+03 -0.19169425643E+03  0.99262632928E+03  0.50400001928E-02 0. -1.
       -1    1    3    3    0  502 -0.64053114883E+03  0.73367580647E+03  0.35975543174E+03  0.10382602334E+04  0.50400001928E-02 0.  1.
</event>
<event>
 5   0  0.3818907E-05  0.2018901E+04  0.7818609E-02  0.8597834E-01
       -1   -1    0    0    0  501  0.00000000000E+00  0.00000000000E+00  0.89977560087E+03  0.89977560088E+03  0.50400001928E-02 0. -1.
        1   -1    0    0  501    0  0.00000000000E+00  0.00000000000E+00 -0.11324943344E+04  0.11324943344E+04  0.50400001928E-02 0.  1.
    10030    2    1    2    0    0  0.00000000000E+00  0.00000000000E+00 -0.23271873353E+03  0.20322699353E+04  0.20189014540E+04 0.  0.
        1    1    3    3  502    0 -0.44023659694E+02  0.92822598735E+03 -0.51324056285E+03  0.10615825176E+04  0.50400001928E-02 0.  1.
       -1    1    3    3    0  502  0.44023659694E+02 -0.92822598735E+03  0.28052182932E+03  0.97068741774E+03  0.50400001928E-02 0. -1.
</event>
<event>
 5   0  0.3772949E-05  0.2028120E+04  0.7818609E-02  0.8593586E-01
       -1   -1    0    0    0  501  0.00000000000E+00  0.00000000000E+00  0.41024804369E+03  0.41024804372E+03  0.50400001928E-02 0. -1.
        1   -1    0    0  501    0  0.00000000000E+00  0.00000000000E+00 -0.25065744054E+04  0.25065744054E+04  0.50400001928E-02 0.  1.
    10030    2    1    2    0    0  0.00000000000E+00  0.00000000000E+00 -0.20963263618E+04  0.29168224492E+04  0.20281195687E+04 0.  0.
        2    1    3    3  502    0  0.75802262639E+02  0.97598477611E+03 -0.66758583314E+03  0.11848894931E+04  0.25500000920E-02 0. -1.
       -2    1    3    3    0  502 -0.75802262639E+02 -0.97598477611E+03 -0.14287405286E+04  0.17319329561E+04  0.25500000920E-02 0.  1.
</event>
<event>
 5   0  0.7857136E-05  0.1968969E+04  0.7818609E-02  0.8621268E-01
       -2   -1    0    0    0  501  0.00000000000E+00  0.00000000000E+00  0.98396348490E+03  0.98396348490E+03  0.25500000920E-02 0. -1.
        2   -1    0    0  501    0  0.00000000000E+00  0.00000000000E+00 -0.98500553796E+03  0.98500553796E+03  0.25500000920E-02 0.  1.
    10030    2    1    2    0    0  0.00000000000E+00  0.00000000000E+00 -0.10420530568E+01  0.19689690229E+04  0.19689687471E+04 0.  0.
        4    1    3    3  502    0  0.89097734116E+03  0.12551315547E+03 -0.40003790843E+03  0.98469595091E+03  0.12699999809E+01 0.  1.
       -4    1    3    3    0  502 -0.89097734116E+03 -0.12551315547E+03  0.39899585538E+03  0.98427307195E+03  0.12699999809E+01 0. -1.
</event>
<event>
 5   0  0.3787698E-05  0.1925373E+04  0.7818609E-02  0.8642329E-01
       -1   -1    0    0    0  501  0.00000000000E+00  0.00000000000E+00  0.12508995401E+04  0.12508995401E+04  0.50400001928E-02 0.  1.
        1   -1    0    0  501    0  0.00000000000E+00  0.00000000000E+00 -0.74087907782E+03  0.74087907784E+03  0.50400001928E-02 0. -1.
    10030    2    1    2    0    0  0.00000000000E+00  0.00000000000E+00  0.51002046224E+03  0.19917786179E+04  0.19253730004E+04 0.  0.
        4    1    3    3  502    0 -0.21692400694E+03  0.61842025908E+03 -0.47448039706E+03  0.80909387695E+03  0.12699999809E+01 0. -1.
       -4    1    3    3    0  502  0.21692400694E+03 -0.61842025908E+03  0.98450085929E+03  0.11826847409E+04  0.12699999809E+01 0.  1.
</event>
<event>
 5   0  0.3970042E-05  0.2007937E+04  0.7818609E-02  0.8602919E-01
       -1   -1    0    0    0  501  0.00000000000E+00  0.00000000000E+00  0.12145623049E+04  0.12145623049E+04  0.50400001928E-02 0.  1.
        1   -1    0    0  501    0  0.00000000000E+00  0.00000000000E+00 -0.82988944488E+03  0.82988944489E+03  0.50400001928E-02 0. -1.
    10030    2    1    2    0    0  0.00000000000E+00  0.00000000000E+00  0.38467286003E+03  0.20444517498E+04  0.20079366893E+04 0.  0.
        3    1    3    3  502    0 -0.67035769589E+02 -0.88855512005E+03 -0.27859871600E+03  0.93361729340E+03  0.10100000352E+00 0.  1.
       -3    1    3    3    0  502  0.67035769589E+02  0.88855512005E+03  0.66327157603E+03  0.11108344564E+04  0.10100000352E+00 0. -1.
</event>
<event>
 5   0  0.8022574E-05  0.1991322E+04  0.7818609E-02  0.8610689E-01
       -2   -1    0    0    0  501  0.00000000000E+00  0.00000000000E+00  0.14412018739E+04  0.14412018739E+04  0.25500000920E-02 0.  1.
        2   -1    0    0  501    0  0.00000000000E+00  0.00000000000E+00 -0.68785692081E+03  0.68785692081E+03  0.25500000920E-02 0. -1.
    10030    2    1    2    0    0  0.00000000000E+00  0.00000000000E+00  0.75334495308E+03  0.21290587947E+04  0.19913218557E+04 0.  0.
        1    1    3    3  502    0  0.62079592226E+03  0.75880538184E+03  0.19097079122E+03  0.99882081863E+03  0.50400001928E-02 0. -1.
       -1    1    3    3    0  502 -0.62079592226E+03 -0.75880538184E+03  0.56237416186E+03  0.11302379761E+04  0.50400001928E-02 0.  1.
</event>
<event>
 5   0  0.8011197E-05  0.1999793E+04  0.7818609E-02  0.8606717E-01
       -2   -1    0    0    0  501  0.00000000000E+00  0.00000000000E+00  0.97130157888E+03  0.97130157888E+03  0.25500000920E-02 0.  1.
        2   -1    0    0  501    0  0.00000000000E+00  0.00000000000E+00 -0.10293332568E+04  0.10293332568E+04  0.25500000920E-02 0. -1.
    10030    2    1    2    0    0  0.00000000000E+00  0.00000000000E+00 -0.58031677908E+02  0.20006348357E+04  0.19997930068E+04 0.  0.
        5    1    3    3  502    0 -0.15483120377E+01  0.51435701217E+03  0.82878629776E+03  0.97543546715E+03  0.46999998093E+01 0.  1.
       -5    1    3    3    0  502  0.15483120377E+01 -0.51435701217E+03 -0.88681797566E+03  0.10251993685E+04  0.46999998093E+01 0. -1.
</event>
<event>
 5   0  0.3787698E-05  0.2003654E+04  0.7818609E-02  0.8604914E-01
        1   -1    0    0  501    0  0.00000000000E+00  0.00000000000E+00  0.17219759687E+04  0.17219759687E+04  0.50400001928E-02 0. -1.
       -1   -1    0    0    0  501  0.00000000000E+00  0.00000000000E+00 -0.58285237355E+03  0.58285237357E+03  0.50400001928E-02 0.  1.
    10030    2    1    2    0    0  0.00000000000E+00  0.00000000000E+00  0.11391235952E+04  0.23048283423E+04  0.20036544418E+04 0.  0.
        4    1    3    3  502    0 -0.41569497800E+03 -0.10924107512E+03 -0.47140425056E+03  0.63793377994E+03  0.12699999809E+01 0.  1.
       -4    1    3    3    0  502  0.41569497800E+03  0.10924107512E+03  0.16105278457E+04  0.16668945623E+04  0.12699999809E+01 0. -1.
</event>
<event>
 5   0  0.7857136E-05  0.2006694E+04  0.7818609E-02  0.8603497E-01
       -2   -1    0    0    0  501  0.00000000000E+00  0.00000000000E+00  0.65488463852E+03  0.65488463853E+03  0.25500000920E-02 0.  1.
        2   -1    0    0  501    0  0.00000000000E+00  0.00000000000E+00 -0.15372258835E+04  0.15372258835E+04  0.25500000920E-02 0. -1.
    10030    2    1    2    0    0  0.00000000000E+00  0.00000000000E+00 -0.88234124498E+03  0.21921105220E+04  0.20066944133E+04 0.  0.
        4    1    3    3  502    0  0.29868757435E+03  0.88936546933E+03 -0.52610045392E+02  0.93965665798E+03  0.12699999809E+01 0.  1.
       -4    1    3    3    0  502 -0.29868757435E+03 -0.88936546933E+03 -0.82973119959E+03  0.12524538641E+04  0.12699999809E+01 0. -1.
</event>
<event>
 5   0  0.7843846E-05  0.2025564E+04  0.7818609E-02  0.8594761E-01
       -2   -1    0    0    0  501  0.00000000000E+00  0.00000000000E+00  0.10975092934E+04  0.10975092934E+04  0.25500000920E-02 0. -1.
        2   -1    0    0  501    0  0.00000000000E+00  0.00000000000E+00 -0.93459531241E+03  0.93459531241E+03  0.25500000920E-02 0.  1.
    10030    2    1    2    0    0  0.00000000000E+00  0.00000000000E+00  0.16291398097E+03  0.20321046058E+04  0.20255636657E+04 0.  0.
        2    1    3    3  502    0  0.31309993368E+03  0.74345331558E+03 -0.53287050335E+03  0.96680162094E+03  0.25500000920E-02 0.  1.
       -2    1    3    3    0  502 -0.31309993368E+03 -0.74345331558E+03  0.69578448432E+03  0.10653029849E+04  0.25500000920E-02 0. -1.
</event>
<event>
 5   0  0.3818907E-05  0.2012800E+04  0.7818609E-02  0.8600660E-01
        1   -1    0    0  501    0  0.00000000000E+00  0.00000000000E+00  0.65845896428E+03  0.65845896430E+03  0.50400001928E-02 0. -1.
       -1   -1    0    0    0  501  0.00000000000E+00  0.00000000000E+00 -0.15381988723E+04  0.15381988723E+04  0.50400001928E-02 0.  1.
    10030    2    1    2    0    0  0.00000000000E+00  0.00000000000E+00 -0.87973990805E+03  0.21966578366E+04  0.20127998771E+04 0.  0.
        1    1    3    3  502    0 -0.18331617112E+03 -0.22834404693E+03 -0.14906793309E+04  0.15191677623E+04  0.50400001928E-02 0.  1.
       -1    1    3    3    0  502  0.18331617112E+03  0.22834404693E+03  0.61093942287E+03  0.67749007432E+03  0.50400001928E-02 0. -1.
</event>
<event>
 5   0  0.7843846E-05  0.2002332E+04  0.7818609E-02  0.8605531E-01
        2   -1    0    0  501    0  0.00000000000E+00  0.00000000000E+00  0.88095099959E+03  0.88095099960E+03  0.25500000920E-02 0.  1.
       -2   -1    0    0    0  501  0.00000000000E+00  0.00000000000E+00 -0.11377854961E+04  0.11377854962E+04  0.25500000920E-02 0. -1.
    10030    2    1    2    0    0  0.00000000000E+00  0.00000000000E+00 -0.25683449656E+03  0.20187364957E+04  0.20023319107E+04 0.  0.
        2    1    3    3  502    0 -0.42478186674E+03 -0.20989923512E+03 -0.10175929180E+04  0.11224939510E+04  0.25500000920E-02 0. -1.
       -2    1    3    3    0  502  0.42478186674E+03  0.20989923512E+03  0.76075842146E+03  0.89624254476E+03  0.25500000920E-02 0.  1.
</event>
<event>
 5   0  0.3772949E-05  0.2000281E+04  0.7818609E-02  0.8606489E-01
       -1   -1    0    0    0  501  0.00000000000E+00  0.00000000000E+00  0.52424409988E+03  0.52424409990E+03  0.50400001928E-02 0.  1.
        1   -1    0    0  501    0  0.00000000000E+00  0.00000000000E+00 -0.19080447965E+04  0.19080447965E+04  0.50400001928E-02 0. -1.
    10030    2    1    2    0    0  0.00000000000E+00  0.00000000000E+00 -0.13838006966E+04  0.24322888964E+04  0.20002812071E+04 0.  0.
        2    1    3    3  502    0  0.89596786822E+03 -0.39194698676E+03 -0.43712455011E+03  0.10711950026E+04  0.25500000920E-02 0.  1.
       -2    1    3    3    0  502 -0.89596786822E+03  0.39194698676E+03 -0.94667614649E+03  0.13610938938E+04  0.25500000920E-02 0. -1.
</event>
<event>
 5   0  0.3787698E-05  0.1989145E+04  0.7818609E-02  0.8611713E-01
        1   -1    0    0  501    0  0.00000000000E+00  0.00000000000E+00  0.18287706974E+04  0.18287706974E+04  0.50400001928E-02 0.  1.
       -1   -1    0    0    0  501  0.00000000000E+00  0.00000000000E+00 -0.54089587620E+03  0.54089587622E+03  0.50400001928E-02 0. -1.
    10030    2    1    2    0    0  0.00000000000E+00  0.00000000000E+00  0.12878748212E+04  0.23696665737E+04  0.19891450714E+04 0.  0.
        4    1    3    3  502    0 -0.11224272607E+03 -0.80208102524E+03 -0.43763632493E+02  0.81107907694E+03  0.12699999809E+01 0. -1.
       -4    1    3    3    0  502  0.11224272607E+03  0.80208102524E+03  0.13316384537E+04  0.15585874967E+04  0.12699999809E+01 0.  1.
</event>
<event>
 5   0  0.8022574E-05  0.2005507E+04  0.7818609E-02  0.8604050E-01
        2   -1    0    0  501    0  0.00000000000E+00  0.00000000000E+00  0.16823653418E+04  0.16823653418E+04  0.25500000920E-02 0. -1.
       -2   -1    0    0    0  501  0.00000000000E+00  0.00000000000E+00 -0.59767890614E+03  0.59767890615E+03  0.25500000920E-02 0.  1.
    10030    2    1    2    0    0  0.00000000000E+00  0.00000000000E+00  0.10846864356E+04  0.22800442479E+04  0.20055066963E+04 0.  0.
        1    1    3    3  502    0 -0.71741456445E+03  0.61571835185E+03  0.92234671923E+03  0.13208013539E+04  0.50400001928E-02 0. -1.
       -1    1    3    3    0  502  0.71741456445E+03 -0.61571835185E+03  0.16233971639E+03  0.95924289397E+03  0.50400001928E-02 0.  1.
</event>
<event>
 5   0  0.7843846E-05  0.2133543E+04  0.7818609E-02  0.8546610E-01
       -2   -1    0    0    0  501  0.00000000000E+00  0.00000000000E+00  0.88701418099E+03  0.88701418099E+03  0.25500000920E-02 0. -1.
        2   -1    0    0  501    0  0.00000000000E+00  0.00000000000E+00 -0.12829575892E+04  0.12829575892E+04  0.25500000920E-02 0.  1.
    10030    2    1    2    0    0  0.00000000000E+00  0.00000000000E+00 -0.39594340817E+03  0.21699717702E+04  0.21335431331E+04 0.  0.
        2    1    3    3  502    0  0.60169536686E+02  0.17548615434E+03 -0.12664254128E+04  0.12799410494E+04  0.25500000920E-02 0.  1.
       -2    1    3    3    0  502 -0.60169536686E+02 -0.17548615434E+03  0.87048200467E+03  0.89003072081E+03  0.25500000920E-02 0. -1.
</event>
<event>
 5   0  0.3818907E-05  0.2008177E+04  0.7818609E-02  0.8602807E-01
        1   -1    0    0  501    0  0.00000000000E+00  0.00000000000E+00  0.14565508737E+04  0.14565508737E+04  0.50400001928E-02 0. -1.
       -1   -1    0    0    0  501  0.00000000000E+00  0.00000000000E+00 -0.69217859135E+03  0.69217859137E+03  0.50400001928E-02 0.  1.
    10030    2    1    2    0    0  0.00000000000E+00  0.00000000000E+00  0.76437228236E+03  0.21487294651E+04  0.20081766178E+04 0.  0.
        1    1    3    3  502    0 -0.24358624965E+03 -0.86404220557E+03  0.86343220294E+03  0.12455594579E+04  0.50400001928E-02 0.  1.
       -1    1    3    3    0  502  0.24358624965E+03  0.86404220557E+03 -0.99059920586E+02  0.90317000720E+03  0.50400001928E-02 0. -1.
</event>
<event>
 5   0  0.3772949E-05  0.2000664E+04  0.7818609E-02  0.8606310E-01
        1   -1    0    0  501    0  0.00000000000E+00  0.00000000000E+00  0.11830616373E+04  0.11830616373E+04  0.50400001928E-02 0. -1.
       -1   -1    0    0    0  501  0.00000000000E+00  0.00000000000E+00 -0.84582588138E+03  0.84582588140E+03  0.50400001928E-02 0.  1.
    10030    2    1    2    0    0  0.00000000000E+00  0.00000000000E+00  0.33723575594E+03  0.20288875187E+04  0.20006640419E+04 0.  0.
        2    1    3    3  502    0 -0.56582291413E+03  0.91604732598E+00  0.10051841274E+04  0.11534953573E+04  0.25500000920E-02 0. -1.
       -2    1    3    3    0  502  0.56582291413E+03 -0.91604732598E+00 -0.66794837149E+03  0.87539216142E+03  0.25500000920E-02 0.  1.
</event>
<event>
 5   0  0.8022574E-05  0.2185983E+04  0.7818609E-02  0.8524285E-01
        2   -1    0    0  501    0  0.00000000000E+00  0.00000000000E+00  0.19227207644E+04  0.19227207644E+04  0.25500000920E-02 0.  1.
       -2   -1    0    0    0  501  0.00000000000E+00  0.00000000000E+00 -0.62132297517E+03  0.62132297518E+03  0.25500000920E-02 0. -1.
    10030    2    1    2    0    0  0.00000000000E+00  0.00000000000E+00  0.13013977892E+04  0.25440437396E+04  0.21859831525E+04 0.  0.
        1    1    3    3  502    0  0.43001552340E+03  0.78024809936E+03  0.13876049335E+04  0.16489838987E+04  0.50400001928E-02 0. -1.
       -1    1    3    3    0  502 -0.43001552340E+03 -0.78024809936E+03 -0.86207144240E+02  0.89505984083E+03  0.50400001928E-02 0.  1.
</event>
<event>
 5   0  0.3772949E-05  0.2004339E+04  0.7818609E-02  0.8604595E-01
        1   -1    0    0  501    0  0.00000000000E+00  0.00000000000E+00  0.21015606017E+04  0.21015606017E+04  0.50400001928E-02 0.  1.
       -1   -1    0    0    0  501  0.00000000000E+00  0.00000000000E+00 -0.47790370432E+03  0.47790370434E+03  0.50400001928E-02 0. -1.
    10030    2    1    2    0    0  0.00000000000E+00  0.00000000000E+00  0.16236568974E+04  0.25794643060E+04  0.20043388899E+04 0.  0.
        2    1    3    3  502    0 -0.87048301709E+02  0.79873412668E+03  0.40963098076E+02  0.80450704619E+03  0.25500000920E-02 0. -1.
       -2    1    3    3    0  502  0.87048301709E+02 -0.79873412668E+03  0.15826937993E+04  0.17749572598E+04  0.25500000920E-02 0.  1.
</event>
<event>
 5   0  0.3970042E-05  0.2001513E+04  0.7818609E-02  0.8605914E-01
        1   -1    0    0  501    0  0.00000000000E+00  0.00000000000E+00  0.15972931303E+04  0.15972931303E+04  0.50400001928E-02 0.  1.
       -1   -1    0    0    0  501  0.00000000000E+00  0.00000000000E+00 -0.62700685133E+03  0.62700685135E+03  0.50400001928E-02 0. -1.
    10030    2    1    2    0    0  0.00000000000E+00  0.00000000000E+00  0.97028627894E+03  0.22242999816E+04  0.20015131639E+04 0.  0.
        3    1    3    3  502    0  0.49407997239E+03  0.47214777111E+01  0.14522863688E+04  0.15340381412E+04  0.10100000352E+00 0.  1.
       -3    1    3    3    0  502 -0.49407997239E+03 -0.47214777111E+01 -0.48200008988E+03  0.69026184041E+03  0.10100000352E+00 0. -1.
</event>
<event>
 5   0  0.7857136E-05  0.1842077E+04  0.7818609E-02  0.8684238E-01
        2   -1    0    0  501    0  0.00000000000E+00  0.00000000000E+00  0.35274141724E+03  0.35274141725E+03  0.25500000920E-02 0. -1.
       -2   -1    0    0    0  501  0.00000000000E+00  0.00000000000E+00 -0.24049106941E+04  0.24049106941E+04  0.25500000920E-02 0.  1.
    10030    2    1    2    0    0  0.00000000000E+00  0.00000000000E+00 -0.20521692768E+04  0.27576521113E+04  0.18420766614E+04 0.  0.
        4    1    3    3  502    0  0.49149518563E+03 -0.45552141513E+03 -0.19719956432E+04  0.20827471539E+04  0.12699999809E+01 0.  1.
       -4    1    3    3    0  502 -0.49149518563E+03  0.45552141513E+03 -0.80173633589E+02  0.67490495744E+03  0.12699999809E+01 0. -1.
</event>
<event>
 5   0  0.7857136E-05  0.2028256E+04  0.7818609E-02  0.8593523E-01
       -2   -1    0    0    0  501  0.00000000000E+00  0.00000000000E+00  0.14958459833E+04  0.14958459833E+04  0.25500000920E-02 0. -1.
        2   -1    0    0  501    0  0.00000000000E+00  0.00000000000E+00 -0.68754116214E+03  0.68754116214E+03  0.25500000920E-02 0.  1.
    10030    2    1    2    0    0  0.00000000000E+00  0.00000000000E+00  0.80830482117E+03  0.21833871455E+04  0.20282560842E+04 0.  0.
        4    1    3    3  502    0 -0.23358221644E+03 -0.79061290242E+03  0.10399392753E+04  0.13270662088E+04  0.12699999809E+01 0. -1.
       -4    1    3    3    0  502  0.23358221644E+03  0.79061290242E+03 -0.23163445414E+03  0.85632093665E+03  0.12699999809E+01 0.  1.
</event>
<event>
 5   0  0.7857136E-05  0.2022953E+04  0.7818609E-02  0.8595964E-01
       -2   -1    0    0    0  501  0.00000000000E+00  0.00000000000E+00  0.58694856081E+03  0.58694856081E+03  0.25500000920E-02 0. -1.
        2   -1    0    0  501    0  0.00000000000E+00  0.00000000000E+00 -0.17430571293E+04  0.17430571293E+04  0.25500000920E-02 0.  1.
    10030    2    1    2    0    0  0.00000000000E+00  0.00000000000E+00 -0.11561085685E+04  0.23300056901E+04  0.20229531616E+04 0.  0.
        4    1    3    3  502    0 -0.74336859694E+03  0.27218308251E+03  0.14711514699E+03  0.80518630185E+03  0.12699999809E+01 0. -1.
       -4    1    3    3    0  502  0.74336859694E+03 -0.27218308251E+03 -0.13032237155E+04  0.15248193883E+04  0.12699999809E+01 0.  1.
</event>
<event>
 5   0  0.7935008E-05  0.1983051E+04  0.7818609E-02  0.8614586E-01
        2   -1    0    0  501    0  0.00000000000E+00  0.00000000000E+00  0.20874949794E+04  0.20874949794E+04  0.25500000920E-02 0. -1.
       -2   -1    0    0    0  501  0.00000000000E+00  0.00000000000E+00 -0.47095798816E+03  0.47095798817E+03  0.25500000920E-02 0.  1.
    10030    2    1    2    0    0  0.00000000000E+00  0.00000000000E+00  0.16165369913E+04  0.25584529676E+04  0.19830506154E+04 0.  0.
        3    1    3    3  502    0 -0.69434479747E+03 -0.15111297038E+03 -0.83877603499E+02  0.71553147392E+03  0.10100000352E+00 0.  1.
       -3    1    3    3    0  502  0.69434479747E+03  0.15111297038E+03  0.17004145948E+04  0.18429214937E+04  0.10100000352E+00 0. -1.
</event>
<event>
 5   0  0.3818907E-05  0.2000031E+04  0.7818609E-02  0.8606606E-01
       -1   -1    0    0    0  501  0.00000000000E+00  0.00000000000E+00  0.63282089752E+03  0.63282089754E+03  0.50400001928E-02 0.  1.
        1   -1    0    0  501    0  0.00000000000E+00  0.00000000000E+00 -0.15802750137E+04  0.15802750137E+04  0.50400001928E-02 0. -1.
    10030    2    1    2    0    0  0.00000000000E+00  0.00000000000E+00 -0.94745411620E+03  0.22130959113E+04  0.20000310523E+04 0.  0.
        1    1    3    3  502    0 -0.65104259678E+03  0.66367573921E+03 -0.66095323433E+02  0.93203569752E+03  0.50400001928E-02 0.  1.
       -1    1    3    3    0  502  0.65104259678E+03 -0.66367573921E+03 -0.88135879276E+03  0.12810602137E+04  0.50400001928E-02 0. -1.
</event>
<event>
 5   0  0.7843846E-05  0.2018702E+04  0.7818609E-02  0.8597926E-01
        2   -1    0    0  501    0  0.00000000000E+00  0.00000000000E+00  0.14169221057E+04  0.14169221057E+04  0.25500000920E-02 0.  1.
       -2   -1    0    0    0  501  0.00000000000E+00  0.00000000000E+00 -0.71901616395E+03  0.71901616395E+03  0.25500000920E-02 0. -1.
    10030    2    1    2    0    0  0.00000000000E+00  0.00000000000E+00  0.69790594174E+03  0.21359382696E+04  0.20187024516E+04 0.  0.
        2    1    3    3  502    0  0.33697782084E+03  0.50273856319E+03 -0.50572644447E+03  0.78870739270E+03  0.25500000920E-02 0. -1.
       -2    1    3    3    0  502 -0.33697782084E+03 -0.50273856319E+03  0.12036323862E+04  0.13472308769E+04  0.25500000920E-02 0.  1.
</event>
<event>
 5   0  0.8022574E-05  0.2031376E+04  0.7818609E-02  0.8592090E-01
       -2   -1    0    0    0  501  0.00000000000E+00  0.00000000000E+00  0.86790520771E+03  0.86790520771E+03  0.25500000920E-02 0.  1.
        2   -1    0    0  501    0  0.00000000000E+00  0.00000000000E+00 -0.11886347243E+04  0.11886347243E+04  0.25500000920E-02 0. -1.
    10030    2    1    2    0    0  0.00000000000E+00  0.00000000000E+00 -0.32072951660E+03  0.20565399320E+04  0.20313761516E+04 0.  0.
        1    1    3    3  502    0  0.30019031246E+03  0.77993440573E+03  0.42402964647E+03  0.93713021617E+03  0.50400001928E-02 0.  1.
       -1    1    3    3    0  502 -0.30019031246E+03 -0.77993440573E+03 -0.74475916307E+03  0.11194097159E+04  0.50400001928E-02 0. -1.
</event>
<event>
 5   0  0.3772949E-05  0.1998754E+04  0.7818609E-02  0.8607203E-01
        1   -1    0    0  501    0  0.00000000000E+00  0.00000000000E+00  0.11821753995E+04  0.11821753995E+04  0.50400001928E-02 0. -1.
       -1   -1    0    0    0  501  0.00000000000E+00  0.00000000000E+00 -0.84484444502E+03  0.84484444503E+03  0.50400001928E-02 0.  1.
    10030    2    1    2    0    0  0.00000000000E+00  0.00000000000E+00  0.33733095450E+03  0.20270198446E+04  0.19987539312E+04 0.  0.
        2    1    3    3  502    0  0.86331632506E+02  0.94270418207E+03  0.49352342767E+03  0.10675718708E+04  0.25500000920E-02 0. -1.
       -2    1    3    3    0  502 -0.86331632506E+02 -0.94270418207E+03 -0.15619247316E+03  0.95944797376E+03  0.25500000920E-02 0.  1.
</event>
<event>
 5   0  0.3772949E-05  0.2000494E+04  0.7818609E-02  0.8606390E-01
        1   -1    0    0  501    0  0.00000000000E+00  0.00000000000E+00  0.81914144199E+03  0.81914144200E+03  0.50400001928E-02 0. -1.
       -1   -1    0    0    0  501  0.00000000000E+00  0.00000000000E+00 -0.12213939951E+04  0.12213939951E+04  0.50400001928E-02 0.  1.
    10030    2    1    2    0    0  0.00000000000E+00  0.00000000000E+00 -0.40225255310E+03  0.20405354371E+04  0.20004943773E+04 0.  0.
        2    1    3    3  502    0  0.92458900326E+03 -0.32656977928E+03  0.26363452668E+00  0.98056754749E+03  0.25500000920E-02 0.  1.
       -2    1    3    3    0  502 -0.92458900326E+03  0.32656977928E+03 -0.40251618762E+03  0.10599678896E+04  0.25500000920E-02 0. -1.
</event>
<event>
 5   0  0.7857136E-05  0.1974416E+04  0.7818609E-02  0.8618676E-01
       -2   -1    0    0    0  501  0.00000000000E+00  0.00000000000E+00  0.88072409014E+03  0.88072409014E+03  0.25500000920E-02 0.  1.
        2   -1    0    0  501    0  0.00000000000E+00  0.00000000000E+00 -0.11065664684E+04  0.11065664684E+04  0.25500000920E-02 0. -1.
    10030    2    1    2    0    0  0.00000000000E+00  0.00000000000E+00 -0.22584237829E+03  0.19872905586E+04  0.19744161123E+04 0.  0.
        4    1    3    3  502    0 -0.90209357231E+03 -0.39004939490E+03 -0.19218553288E+02  0.98299659682E+03  0.12699999809E+01 0.  1.
       -4    1    3    3    0  502  0.90209357231E+03  0.39004939490E+03 -0.20662382500E+03  0.10042939618E+04  0.12699999809E+01 0. -1.
</event>
<event>
 5   0  0.7857136E-05  0.2005824E+04  0.7818609E-02  0.8603902E-01
        2   -1    0    0  501    0  0.00000000000E+00  0.00000000000E+00  0.15225764119E+04  0.15225764119E+04  0.25500000920E-02 0.  1.
       -2   -1    0    0    0  501  0.00000000000E+00  0.00000000000E+00 -0.66061245792E+03  0.66061245793E+03  0.25500000920E-02 0. -1.
    10030    2    1    2    0    0  0.00000000000E+00  0.00000000000E+00  0.86196395400E+03  0.21831888699E+04  0.20058244648E+04 0.  0.
        4    1    3    3  502    0  0.47337915108E+03 -0.22677565331E+03  0.13611338952E+04  0.14588358753E+04  0.12699999809E+01 0.  1.
       -4    1    3    3    0  502 -0.47337915108E+03  0.22677565331E+03 -0.49916994118E+03  0.72435299454E+03  0.12699999809E+01 0. -1.
</event>
<event>
 5   0  0.7857136E-05  0.1993919E+04  0.7818609E-02  0.8609469E-01
       -2   -1    0    0    0  501  0.00000000000E+00  0.00000000000E+00  0.90518512065E+03  0.90518512066E+03  0.25500000920E-02 0.  1.
        2   -1    0    0  501    0  0.00000000000E+00  0.00000000000E+00 -0.10980383014E+04  0.10980383014E+04  0.25500000920E-02 0. -1.
    10030    2    1    2    0    0  0.00000000000E+00  0.00000000000E+00 -0.19285318077E+03  0.20032234221E+04  0.19939186868E+04 0.  0.
        4    1    3    3  502    0  0.56992160047E+03  0.17954061808E+03  0.70534570031E+03  0.92442394716E+03  0.12699999809E+01 0.  1.
       -4    1    3    3    0  502 -0.56992160047E+03 -0.17954061808E+03 -0.89819888108E+03  0.10787994749E+04  0.12699999809E+01 0. -1.
</event>
<event>
 5   0  0.3970042E-05  0.2010901E+04  0.7818609E-02  0.8601541E-01
        1   -1    0    0  501    0  0.00000000000E+00  0.00000000000E+00  0.35882515163E+03  0.35882515166E+03  0.50400001928E-02 0. -1.
       -1   -1    0    0    0  501  0.00000000000E+00  0.00000000000E+00 -0.28173346117E+04  0.28173346118E+04  0.50400001928E-02 0.  1.
    10030    2    1    2    0    0  0.00000000000E+00  0.00000000000E+00 -0.24585094601E+04  0.31761597634E+04  0.20109008124E+04 0.  0.
        3    1    3    3  502    0 -0.40946523436E+03 -0.61040814473E+03 -0.23128578296E+04  0.24268438828E+04  0.10100000352E+00 0.  1.
       -3    1    3    3    0  502  0.40946523436E+03  0.61040814473E+03 -0.14565163054E+03  0.74931588065E+03  0.10100000352E+00 0. -1.
</event>
<event>
 5   0  0.3549426E-05  0.2017458E+04  0.7818609E-02  0.8598502E-01
       -1   -1    0    0    0  501  0.00000000000E+00  0.00000000000E+00  0.82292627939E+03  0.82292627941E+03  0.50400001928E-02 0. -1.
        1   -1    0    0  501    0  0.00000000000E+00  0.00000000000E+00 -0.12364833681E+04  0.12364833681E+04  0.50400001928E-02 0.  1.
    10030    2    1    2    0    0  0.00000000000E+00  0.00000000000E+00 -0.41355708869E+03  0.20594096475E+04  0.20174584582E+04 0.  0.
        5    1    3    3  502    0  0.28863089403E+03  0.93606460833E+03 -0.45259250645E+03  0.10790675655E+04  0.46999998093E+01 0.  1.
       -5    1    3    3    0  502 -0.28863089403E+03 -0.93606460833E+03  0.39035417765E+02  0.98034208203E+03  0.46999998093E+01 0. -1.
</event>
<event>
 5   0  0.7843846E-05  0.1971654E+04  0.7818609E-02  0.8619989E-01
        2   -1    0    0  501    0  0.00000000000E+00  0.00000000000E+00  0.87087979238E+03  0.87087979238E+03  0.25500000920E-02 0.  1.
       -2   -1    0    0    0  501  0.00000000000E+00  0.00000000000E+00 -0.11159460824E+04  0.11159460824E+04  0.25500000920E-02 0. -1.
    10030    2    1    2    0    0  0.00000000000E+00  0.00000000000E+00 -0.24506629006E+03  0.19868258748E+04  0.19716540189E+04 0.  0.
        2    1    3    3  502    0  0.72714122135E+03  0.44057628943E+03 -0.62538513159E+03  0.10554375327E+04  0.25500000920E-02 0. -1.
       -2    1    3    3    0  502 -0.72714122135E+03 -0.44057628943E+03  0.38031884153E+03  0.93138834212E+03  0.25500000920E-02 0.  1.
</event>
<event>
 5   0  0.3772949E-05  0.1997594E+04  0.7818609E-02  0.8607746E-01
       -1   -1    0    0    0  501  0.00000000000E+00  0.00000000000E+00  0.49888709341E+03  0.49888709343E+03  0.50400001928E-02 0.  1.
        1   -1    0    0  501    0  0.00000000000E+00  0.00000000000E+00 -0.19996418955E+04  0.19996418955E+04  0.50400001928E-02 0. -1.
    10030    2    1    2    0    0  0.00000000000E+00  0.00000000000E+00 -0.15007548021E+04  0.24985289889E+04  0.19975940860E+04 0.  0.
        2    1    3    3  502    0 -0.24355733167E+03  0.70318277118E+03 -0.15836274976E+04  0.17497606221E+04  0.25500000920E-02 0. -1.
       -2    1    3    3    0  502  0.24355733167E+03 -0.70318277118E+03  0.82872695517E+02  0.74876836683E+03  0.25500000920E-02 0.  1.
</event>
<event>
 5   0  0.3772949E-05  0.2001511E+04  0.7818609E-02  0.8605915E-01
       -1   -1    0    0    0  501  0.00000000000E+00  0.00000000000E+00  0.77988930894E+03  0.77988930895E+03  0.50400001928E-02 0. -1.
        1   -1    0    0  501    0  0.00000000000E+00  0.00000000000E+00 -0.12841712571E+04  0.12841712571E+04  0.50400001928E-02 0.  1.
    10030    2    1    2    0    0  0.00000000000E+00  0.00000000000E+00 -0.50428194816E+03  0.20640605661E+04  0.20015108636E+04 0.  0.
        2    1    3    3  502    0 -0.60639663426E+02  0.11369309425E+03 -0.12755808865E+04  0.12820724966E+04  0.25500000920E-02 0.  1.
       -2    1    3    3    0  502  0.60639663426E+02 -0.11369309425E+03  0.77129893836E+03  0.78198806946E+03  0.25500000920E-02 0. -1.
</event>
<event>
 5   0  0.3818907E-05  0.1998520E+04  0.7818609E-02  0.8607313E-01
       -1   -1    0    0    0  501  0.00000000000E+00  0.00000000000E+00  0.48293853408E+03  0.48293853411E+03  0.50400001928E-02 0.  1.
        1   -1    0    0  501    0  0.00000000000E+00  0.00000000000E+00 -0.20675927042E+04  0.20675927042E+04  0.50400001928E-02 0. -1.
    10030    2    1    2    0    0  0.00000000000E+00  0.00000000000E+00 -0.15846541702E+04  0.25505312384E+04  0.19985196418E+04 0.  0.
        1    1    3    3  502    0  0.14270267788E+03 -0.95462379003E+03 -0.11222948281E+04  0.14802757567E+04  0.50400001928E-02 0. -1.
       -1    1    3    3    0  502 -0.14270267788E+03  0.95462379003E+03 -0.46235934210E+03  0.10702554817E+04  0.50400001928E-02 0.  1.
</event>
<event>
 5   0  0.7843846E-05  0.1985741E+04  0.7818609E-02  0.8613316E-01
        2   -1    0    0  501    0  0.00000000000E+00  0.00000000000E+00  0.14286156669E+04  0.14286156669E+04  0.25500000920E-02 0. -1.
       -2   -1    0    0    0  501  0.00000000000E+00  0.00000000000E+00 -0.69003305851E+03  0.69003305851E+03  0.25500000920E-02 0.  1.
    10030    2    1    2    0    0  0.00000000000E+00  0.00000000000E+00  0.73858260843E+03  0.21186487254E+04  0.19857412098E+04 0.  0.
        2    1    3    3  502    0  0.87986953292E+03 -0.36497580118E+03  0.70523384203E+02  0.95517081097E+03  0.25500000920E-02 0.  1.
       -2    1    3    3    0  502 -0.87986953292E+03  0.36497580118E+03  0.66805922422E+03  0.11634779145E+04  0.25500000920E-02 0. -1.
</event>
<event>
 5   0  0.7857136E-05  0.1999934E+04  0.7818609E-02  0.8606652E-01
        2   -1    0    0  501    0  0.00000000000E+00  0.00000000000E+00  0.13889335744E+04  0.13889335744E+04  0.25500000920E-02 0.  1.
       -2   -1    0    0    0  501  0.00000000000E+00  0.00000000000E+00 -0.71992921645E+03  0.71992921645E+03  0.25500000920E-02 0. -1.
    10030    2    1    2    0    0  0.00000000000E+00  0.00000000000E+00  0.66900435794E+03  0.21088627908E+04  0.19999338588E+04 0.  0.
        4    1    3    3  502    0  0.49535081791E+03 -0.79721198002E+03 -0.29270150307E+02  0.93903020638E+03  0.12699999809E+01 0. -1.
       -4    1    3    3    0  502 -0.49535081791E+03  0.79721198002E+03  0.69827450824E+03  0.11698325845E+04  0.12699999809E+01 0.  1.
</event>
<event>
 5   0  0.3818907E-05  0.1994526E+04  0.7818609E-02  0.8609184E-01
       -1   -1    0    0    0  501  0.00000000000E+00  0.00000000000E+00  0.11131010354E+04  0.11131010354E+04  0.50400001928E-02 0.  1.
        1   -1    0    0  501    0  0.00000000000E+00  0.00000000000E+00 -0.89348008434E+03  0.89348008436E+03  0.50400001928E-02 0. -1.
    10030    2    1    2    0    0  0.00000000000E+00  0.00000000000E+00  0.21962095102E+03  0.20065811197E+04  0.19945261161E+04 0.  0.
        1    1    3    3  502    0 -0.42007525170E+03  0.56043365931E+03 -0.60439896380E+03  0.92512010628E+03  0.50400001928E-02 0. -1.
       -1    1    3    3    0  502  0.42007525170E+03 -0.56043365931E+03  0.82401991481E+03  0.10814610135E+04  0.50400001928E-02 0.  1.
</event>
<event>
 5   0  0.8022574E-05  0.2028389E+04  0.7818609E-02  0.8593462E-01
       -2   -1    0    0    0  501  0.00000000000E+00  0.00000000000E+00  0.13941646381E+04  0.13941646381E+04  0.25500000920E-02 0.  1.
        2   -1    0    0  501    0  0.00000000000E+00  0.00000000000E+00 -0.73778278130E+03  0.73778278131E+03  0.25500000920E-02 0. -1.
    10030    2    1    2    0    0  0.00000000000E+00  0.00000000000E+00  0.65638185678E+03  0.21319474194E+04  0.20283891779E+04 0.  0.
        1    1    3    3  502    0  0.89600522036E+03 -0.19441984322E+03  0.78387633934E+03  0.12062696820E+04  0.50400001928E-02 0.  1.
       -1    1    3    3    0  502 -0.89600522036E+03  0.19441984322E+03 -0.12749448256E+03  0.92567773737E+03  0.50400001928E-02 0. -1.
</event>
<event>
 5   0  0.3772949E-05  0.1997176E+04  0.7818609E-02  0.8607942E-01
       -1   -1    0    0    0  501  0.00000000000E+00  0.00000000000E+00  0.95940747640E+03  0.95940747641E+03  0.50400001928E-02 0. -1.
        1   -1    0    0  501    0  0.00000000000E+00  0.00000000000E+00 -0.10393686435E+04  0.10393686435E+04  0.50400001928E-02 0.  1.
    10030    2    1    2    0    0  0.00000000000E+00  0.00000000000E+00 -0.79961167082E+02  0.19987761199E+04  0.19971760536E+04 0.  0.
        2    1    3    3  502    0  0.82321417192E+02 -0.46917717186E+03 -0.91833628572E+03  0.10345267362E+04  0.25500000920E-02 0.  1.
       -2    1    3    3    0  502 -0.82321417192E+02  0.46917717186E+03  0.83837511864E+03  0.96424938366E+03  0.25500000920E-02 0. -1.
</event>
<event>
 5   0  0.3818907E-05  0.1999029E+04  0.7818609E-02  0.8607075E-01
        1   -1    0    0  501    0  0.00000000000E+00  0.00000000000E+00  0.19332991119E+04  0.19332991119E+04  0.50400001928E-02 0. -1.
       -1   -1    0    0    0  501  0.00000000000E+00  0.00000000000E+00 -0.51674847252E+03  0.51674847254E+03  0.50400001928E-02 0.  1.
    10030    2    1    2    0    0  0.00000000000E+00  0.00000000000E+00  0.14165506394E+04  0.24500475845E+04  0.19990291274E+04 0.  0.
        1    1    3    3  502    0 -0.14526940417E+03  0.65529628597E+03 -0.19943826725E+03  0.70020857226E+03  0.50400001928E-02 0.  1.
       -1    1    3    3    0  502  0.14526940417E+03 -0.65529628597E+03  0.16159889066E+04  0.17498390122E+04  0.50400001928E-02 0. -1.
</event>
<event>
 5   0  0.3818907E-05  0.1982340E+04  0.7818609E-02  0.8614922E-01
       -1   -1    0    0    0  501  0.00000000000E+00  0.00000000000E+00  0.49786655435E+03  0.49786655437E+03  0.50400001928E-02 0.  1.
        1   -1    0    0  501    0  0.00000000000E+00  0.00000000000E+00 -0.19732551776E+04  0.19732551776E+04  0.50400001928E-02 0. -1.
    10030    2    1    2    0    0  0.00000000000E+00  0.00000000000E+00 -0.14753886233E+04  0.24711217320E+04  0.19823397854E+04 0.  0.
        1    1    3    3  502    0 -0.52563879990E+03 -0.66842485997E+03 -0.13725021311E+04  0.16145742601E+04  0.50400001928E-02 0. -1.
       -1    1    3    3    0  502  0.52563879990E+03  0.66842485997E+03 -0.10288649219E+03  0.85654747194E+03  0.50400001928E-02 0.  1.
</event>
<event>
 5   0  0.3818907E-05  0.2019518E+04  0.7818609E-02  0.8597549E-01
        1   -1    0    0  501    0  0.00000000000E+00  0.00000000000E+00  0.52582700616E+03  0.52582700618E+03  0.50400001928E-02 0.  1.
       -1   -1    0    0    0  501  0.00000000000E+00  0.00000000000E+00 -0.19390654255E+04  0.19390654255E+04  0.50400001928E-02 0. -1.
    10030    2    1    2    0    0  0.00000000000E+00  0.00000000000E+00 -0.14132384193E+04  0.24648924316E+04  0.20195177320E+04 0.  0.
        1    1    3    3  502    0  0.81854928072E+03  0.54009221842E+03 -0.41295317531E+03  0.10640737072E+04  0.50400001928E-02 0. -1.
       -1    1    3    3    0  502 -0.81854928072E+03 -0.54009221842E+03 -0.10002852440E+04  0.14008187244E+04  0.50400001928E-02 0.  1.
</event>
<event>
 5   0  0.3818907E-05  0.1955030E+04  0.7818609E-02  0.8627939E-01
        1   -1    0    0  501    0  0.00000000000E+00  0.00000000000E+00  0.15202104282E+04  0.15202104282E+04  0.50400001928E-02 0. -1.
       -1   -1    0    0    0  501  0.00000000000E+00  0.00000000000E+00 -0.62855466814E+03  0.62855466816E+03  0.50400001928E-02 0.  1.
    10030    2    1    2    0    0  0.00000000000E+00  0.00000000000E+00  0.89165576009E+03  0.21487650964E+04  0.19550297811E+04 0.  0.
        1    1    3    3  502    0  0.69948606797E+03 -0.17004147323E+03 -0.28102315246E+03  0.77276702449E+03  0.50400001928E-02 0.  1.
       -1    1    3    3    0  502 -0.69948606797E+03  0.17004147323E+03  0.11726789126E+04  0.13759980719E+04  0.50400001928E-02 0. -1.
</event>
<event>
 5   0  0.3772949E-05  0.2118349E+04  0.7818609E-02  0.8553203E-01
       -1   -1    0    0    0  501  0.00000000000E+00  0.00000000000E+00  0.13972285308E+04  0.13972285309E+04  0.50400001928E-02 0.  1.
        1   -1    0    0  501    0  0.00000000000E+00  0.00000000000E+00 -0.80291155345E+03  0.80291155347E+03  0.50400001928E-02 0. -1.
    10030    2    1    2    0    0  0.00000000000E+00  0.00000000000E+00  0.59431697739E+03  0.22001400843E+04  0.21183492916E+04 0.  0.
        2    1    3    3  502    0  0.81072421926E+03  0.11328272727E+03 -0.40091163541E+03  0.91150253725E+03  0.25500000920E-02 0. -1.
       -2    1    3    3    0  502 -0.81072421926E+03 -0.11328272727E+03  0.99522861281E+03  0.12886375471E+04  0.25500000920E-02 0.  1.
</event>
<event>
 5   0  0.3787698E-05  0.2009163E+04  0.7818609E-02  0.8602349E-01
       -1   -1    0    0    0  501  0.00000000000E+00  0.00000000000E+00  0.75256767226E+03  0.75256767227E+03  0.50400001928E-02 0. -1.
        1   -1    0    0  501    0  0.00000000000E+00  0.00000000000E+00 -0.13409876308E+04  0.13409876309E+04  0.50400001928E-02 0.  1.
    10030    2    1    2    0    0  0.00000000000E+00  0.00000000000E+00 -0.58841995859E+03  0.20935553031E+04  0.20091629500E+04 0.  0.
        4    1    3    3  502    0  0.81510711966E+03 -0.10409206883E+03 -0.89636513423E+03  0.12160209053E+04  0.12699999809E+01 0.  1.
       -4    1    3    3    0  502 -0.81510711966E+03  0.10409206883E+03  0.30794517564E+03  0.87753439785E+03  0.12699999809E+01 0. -1.
</event>
<event>
 5   0  0.7843846E-05  0.1985295E+04  0.7818609E-02  0.8613527E-01
        2   -1    0    0  501    0  0.00000000000E+00  0.00000000000E+00  0.18426624422E+04  0.18426624422E+04  0.25500000920E-02 0. -1.
       -2   -1    0    0    0  501  0.00000000000E+00  0.00000000000E+00 -0.53474229461E+03  0.53474229461E+03  0.25500000920E-02 0.  1.
    10030    2    1    2    0    0  0.00000000000E+00  0.00000000000E+00  0.13079201476E+04  0.23774047369E+04  0.19852954869E+04 0.  0.
        2    1    3    3  502    0  0.69633753170E+03 -0.69087769881E+03  0.83616846680E+03  0.12889436208E+04  0.25500000920E-02 0.  1.
       -2    1    3    3    0  502 -0.69633753170E+03  0.69087769881E+03  0.47175168084E+03  0.10884611160E+04  0.25500000920E-02 0. -1.
</event>
<event>
 5   0  0.3772949E-05  0.1991095E+04  0.7818609E-02  0.8610795E-01
       -1   -1    0    0    0  501  0.00000000000E+00  0.00000000000E+00  0.46318252381E+03  0.46318252383E+03  0.50400001928E-02 0. -1.
        1   -1    0    0  501    0  0.00000000000E+00  0.00000000000E+00 -0.21397939708E+04  0.21397939709E+04  0.50400001928E-02 0.  1.
    10030    2    1    2    0    0  0.00000000000E+00  0.00000000000E+00 -0.16766114470E+04  0.26029764947E+04  0.19910953487E+04 0.  0.
        2    1    3    3  502    0  0.38600402673E+03  0.13587745971E+02  0.36123929461E+03  0.52884550057E+03  0.25500000920E-02 0. -1.
       -2    1    3    3    0  502 -0.38600402673E+03 -0.13587745971E+02 -0.20378507417E+04  0.20741309941E+04  0.25500000920E-02 0.  1.
</event>
<event>
 5   0  0.3549426E-05  0.2004478E+04  0.7818609E-02  0.8604530E-01
       -1   -1    0    0    0  501  0.00000000000E+00  0.00000000000E+00  0.99264357740E+03  0.99264357742E+03  0.50400001928E-02 0.  1.
        1   -1    0    0  501    0  0.00000000000E+00  0.00000000000E+00 -0.10119269992E+04  0.10119269992E+04  0.50400001928E-02 0. -1.
    10030    2    1    2    0    0  0.00000000000E+00  0.00000000000E+00 -0.19283421756E+02  0.20045705766E+04  0.20044778238E+04 0.  0.
        5    1    3    3  502    0  0.21487240066E+03  0.34081414437E+03 -0.92736402987E+03  0.10111135265E+04  0.46999998093E+01 0. -1.
       -5    1    3    3    0  502 -0.21487240066E+03 -0.34081414437E+03  0.90808060811E+03  0.99345705010E+03  0.46999998093E+01 0.  1.
</event>
<event>
 5   0  0.8022574E-05  0.1994017E+04  0.7818609E-02  0.8609423E-01
       -2   -1    0    0    0  501  0.00000000000E+00  0.00000000000E+00  0.79329998374E+03  0.79329998375E+03  0.25500000920E-02 0. -1.
        2   -1    0    0  501    0  0.00000000000E+00  0.00000000000E+00 -0.12530260084E+04  0.12530260084E+04  0.25500000920E-02 0.  1.
    10030    2    1    2    0    0  0.00000000000E+00  0.00000000000E+00 -0.45972602463E+03  0.20463259921E+04  0.19940165617E+04 0.  0.
        1    1    3    3  502    0 -0.36974966755E+03 -0.38104190024E+03 -0.10958711436E+04  0.12177197172E+04  0.50400001928E-02 0.  1.
       -1    1    3    3    0  502  0.36974966755E+03  0.38104190024E+03  0.63614511895E+03  0.82860627489E+03  0.50400001928E-02 0. -1.
</event>
<event>
 5   0  0.8022574E-05  0.2019798E+04  0.7818609E-02  0.8597420E-01
        2   -1    0    0  501    0  0.00000000000E+00  0.00000000000E+00  0.13199234347E+04  0.13199234347E+04  0.25500000920E-02 0. -1.
       -2   -1    0    0    0  501  0.00000000000E+00  0.00000000000E+00 -0.77269310039E+03  0.77269310040E+03  0.25500000920E-02 0.  1.
    10030    2    1    2    0    0  0.00000000000E+00  0.00000000000E+00  0.54723033427E+03  0.20926165351E+04  0.20197977434E+04 0.  0.
        1    1    3    3  502    0 -0.11821226507E+03  0.85652865562E+03  0.81423234750E+03  0.11876825305E+04  0.50400001928E-02 0.  1.
       -1    1    3    3    0  502  0.11821226507E+03 -0.85652865562E+03 -0.26700201323E+03  0.90493400456E+03  0.50400001928E-02 0. -1.
</event>
<event>
 5   0  0.7843846E-05  0.2013601E+04  0.7818609E-02  0.8600288E-01
       -2   -1    0    0    0  501  0.00000000000E+00  0.00000000000E+00  0.83886973904E+03  0.83886973905E+03  0.25500000920E-02 0. -1.
        2   -1    0    0  501    0  0.00000000000E+00  0.00000000000E+00 -0.12083489111E+04  0.12083489111E+04  0.25500000920E-02 0.  1.
    10030    2    1    2    0    0  0.00000000000E+00  0.00000000000E+00 -0.36947917210E+03  0.20472186502E+04  0.20136010884E+04 0.  0.
        2    1    3    3  502    0 -0.81858295626E+03 -0.96421206342E+02 -0.77255496145E+03  0.11296974258E+04  0.25500000920E-02 0.  1.
       -2    1    3    3    0  502  0.81858295626E+03  0.96421206342E+02  0.40307578934E+03  0.91752122443E+03  0.25500000920E-02 0. -1.
</event>
<event>
 5   0  0.8011197E-05  0.2018865E+04  0.7818609E-02  0.8597851E-01
        2   -1    0    0  501    0  0.00000000000E+00  0.00000000000E+00  0.21197737233E+04  0.21197737233E+04  0.25500000920E-02 0.  1.
       -2   -1    0    0    0  501  0.00000000000E+00  0.00000000000E+00 -0.48068986160E+03  0.48068986161E+03  0.25500000920E-02 0. -1.
    10030    2    1    2    0    0  0.00000000000E+00  0.00000000000E+00  0.16390838617E+04  0.26004635849E+04  0.20188647678E+04 0.  0.
        5    1    3    3  502    0 -0.40235616595E+01 -0.99464117494E+03  0.10411683956E+04  0.14399239472E+04  0.46999998093E+01 0.  1.
       -5    1    3    3    0  502  0.40235616595E+01  0.99464117494E+03  0.59791546612E+03  0.11605396376E+04  0.46999998093E+01 0. -1.
</event>
<event>
 5   0  0.3787698E-05  0.2003686E+04  0.7818609E-02  0.8604899E-01
       -1   -1    0    0    0  501  0.00000000000E+00  0.00000000000E+00  0.90945443510E+03  0.90945443511E+03  0.50400001928E-02 0. -1.
        1   -1    0    0  501    0  0.00000000000E+00  0.00000000000E+00 -0.11036171586E+04  0.11036171586E+04  0.50400001928E-02 0.  1.
    10030    2    1    2    0    0  0.00000000000E+00  0.00000000000E+00 -0.19416272350E+03  0.20130715937E+04  0.20036861227E+04 0.  0.
        4    1    3    3  502    0 -0.37362452397E+03  0.51778815708E+03  0.67853739815E+03  0.93172660911E+03  0.12699999809E+01 0. -1.
       -4    1    3    3    0  502  0.37362452397E+03 -0.51778815708E+03 -0.87270012165E+03  0.10813449846E+04  0.12699999809E+01 0.  1.
</event>
<event>
 5   0  0.8022574E-05  0.1998870E+04  0.7818609E-02  0.8607149E-01
        2   -1    0    0  501    0  0.00000000000E+00  0.00000000000E+00  0.17038783100E+04  0.17038783100E+04  0.25500000920E-02 0. -1.
       -2   -1    0    0    0  501  0.00000000000E+00  0.00000000000E+00 -0.58623326428E+03  0.58623326429E+03  0.25500000920E-02 0.  1.
    10030    2    1    2    0    0  0.00000000000E+00  0.00000000000E+00  0.11176450457E+04  0.22901115743E+04  0.19988698243E+04 0.  0.
        1    1    3    3  502    0 -0.52435182242E+03  0.41982675800E+03  0.14066977070E+04  0.15588450145E+04  0.50400001928E-02 0. -1.
       -1    1    3    3    0  502  0.52435182242E+03 -0.41982675800E+03 -0.28905266129E+03  0.73126655976E+03  0.50400001928E-02 0.  1.
</event>
<event>
 5   0  0.3818907E-05  0.2003766E+04  0.7818609E-02  0.8604862E-01
       -1   -1    0    0    0  501  0.00000000000E+00  0.00000000000E+00  0.49964708801E+03  0.49964708803E+03  0.50400001928E-02 0. -1.
        1   -1    0    0  501    0  0.00000000000E+00  0.00000000000E+00 -0.20089569043E+04  0.20089569043E+04  0.50400001928E-02 0.  1.
    10030    2    1    2    0    0  0.00000000000E+00  0.00000000000E+00 -0.15093098163E+04  0.25086039923E+04  0.20037659217E+04 0.  0.
        1    1    3    3  502    0 -0.86403932134E+03 -0.21780327780E+03 -0.13280499929E+04  0.15992870287E+04  0.50400001928E-02 0.  1.
       -1    1    3    3    0  502  0.86403932134E+03  0.21780327780E+03 -0.18125982338E+03  0.90931696357E+03  0.50400001928E-02 0. -1.
</event>
<event>
 5   0  0.3772949E-05  0.1986013E+04  0.7818609E-02  0.8613188E-01
       -1   -1    0    0    0  501  0.00000000000E+00  0.00000000000E+00  0.72150678610E+03  0.72150678612E+03  0.50400001928E-02 0. -1.
        1   -1    0    0  501    0  0.00000000000E+00  0.00000000000E+00 -0.13666700492E+04  0.13666700492E+04  0.50400001928E-02 0.  1.
    10030    2    1    2    0    0  0.00000000000E+00  0.00000000000E+00 -0.64516326305E+03  0.20881768353E+04  0.19860128044E+04 0.  0.
        2    1    3    3  502    0  0.65813686996E+03 -0.50827442466E+03  0.24808560604E+03  0.86777502747E+03  0.25500000920E-02 0. -1.
       -2    1    3    3    0  502 -0.65813686996E+03  0.50827442466E+03 -0.89324886909E+03  0.12204018078E+04  0.25500000920E-02 0.  1.
</event>
<event>
 5   0  0.3818907E-05  0.1992586E+04  0.7818609E-02  0.8610095E-01
       -1   -1    0    0    0  501  0.00000000000E+00  0.00000000000E+00  0.11684689238E+04  0.11684689238E+04  0.50400001928E-02 0.  1.
        1   -1    0    0  501    0  0.00000000000E+00  0.00000000000E+00 -0.84948718181E+03  0.84948718183E+03  0.50400001928E-02 0. -1.
    10030    2    1    2    0    0  0.00000000000E+00  0.00000000000E+00  0.31898174198E+03  0.20179561056E+04  0.19925856299E+04 0.  0.
        1    1    3    3  502    0  0.21917556643E+03 -0.68135638749E+03  0.86136261483E+03  0.11199241090E+04  0.50400001928E-02 0.  1.
       -1    1    3    3    0  502 -0.21917556643E+03  0.68135638749E+03 -0.54238087285E+03  0.89803199662E+03  0.50400001928E-02 0. -1.
</event>
<event>
 5   0  0.3549426E-05  0.1966574E+04  0.7818609E-02  0.8622410E-01
       -1   -1    0    0    0  501  0.00000000000E+00  0.00000000000E+00  0.76698602055E+03  0.76698602057E+03  0.50400001928E-02 0.  1.
        1   -1    0    0  501    0  0.00000000000E+00  0.00000000000E+00 -0.12605873431E+04  0.12605873431E+04  0.50400001928E-02 0. -1.
    10030    2    1    2    0    0  0.00000000000E+00  0.00000000000E+00 -0.49360132250E+03  0.20275733636E+04  0.19665735377E+04 0.  0.
        5    1    3    3  502    0  0.31003000399E+02 -0.65829395142E+03 -0.99917470523E+03  0.11969479078E+04  0.46999998093E+01 0. -1.
       -5    1    3    3    0  502 -0.31003000399E+02  0.65829395142E+03  0.50557338272E+03  0.83062545580E+03  0.46999998093E+01 0.  1.
</event>
<event>
 5   0  0.3772949E-05  0.2001761E+04  0.7818609E-02  0.8605798E-01
       -1   -1    0    0    0  501  0.00000000000E+00  0.00000000000E+00  0.66954151973E+03  0.66954151975E+03  0.50400001928E-02 0. -1.
        1   -1    0    0  501    0  0.00000000000E+00  0.00000000000E+00 -0.14961904201E+04  0.14961904201E+04  0.50400001928E-02 0.  1.
    10030    2    1    2    0    0  0.00000000000E+00  0.00000000000E+00 -0.82664890034E+03  0.21657319398E+04  0.20017608326E+04 0.  0.
        2    1    3    3  502    0  0.30435445147E+03  0.34223315893E+02 -0.14442458882E+04  0.14763634557E+04  0.25500000920E-02 0.  1.
       -2    1    3    3    0  502 -0.30435445147E+03 -0.34223315893E+02  0.61759698791E+03  0.68936848416E+03  0.25500000920E-02 0. -1.
</event>
<event>
 5   0  0.8022574E-05  0.2004130E+04  0.7818609E-02  0.8604692E-01
        2   -1    0    0  501    0  0.00000000000E+00  0.00000000000E+00  0.13490849423E+04  0.13490849423E+04  0.25500000920E-02 0.  1.
       -2   -1    0    0    0  501  0.00000000000E+00  0.00000000000E+00 -0.74430800949E+03  0.74430800950E+03  0.25500000920E-02 0. -1.
    10030    2    1    2    0    0  0.00000000000E+00  0.00000000000E+00  0.60477693284E+03  0.20933929518E+04  0.20041304629E+04 0.  0.
        1    1    3    3  502    0  0.66755331940E+03  0.32988780801E+02 -0.47746977391E+03  0.82139702881E+03  0.50400001928E-02 0. -1.
       -1    1    3    3    0  502 -0.66755331940E+03 -0.32988780801E+02  0.10822467068E+04  0.12719959230E+04  0.50400001928E-02 0.  1.
</event>
<event>
 5   0  0.7935008E-05  0.2007827E+04  0.7818609E-02  0.8602970E-01
       -2   -1    0    0    0  501  0.00000000000E+00  0.00000000000E+00  0.70661385645E+03  0.70661385645E+03  0.25500000920E-02 0.  1.
        2   -1    0    0  501    0  0.00000000000E+00  0.00000000000E+00 -0.14262980146E+04  0.14262980146E+04  0.25500000920E-02 0. -1.
    10030    2    1    2    0    0  0.00000000000E+00  0.00000000000E+00 -0.71968415816E+03  0.21329118711E+04  0.20078266265E+04 0.  0.
        3    1    3    3  502    0 -0.11875477397E+03  0.45212041104E+03 -0.13036312883E+04  0.13849079784E+04  0.10100000352E+00 0. -1.
       -3    1    3    3    0  502  0.11875477397E+03 -0.45212041104E+03  0.58394713018E+03  0.74800389268E+03  0.10100000352E+00 0.  1.
</event>
<event>
 5   0  0.3818907E-05  0.1997303E+04  0.7818609E-02  0.8607882E-01
        1   -1    0    0  501    0  0.00000000000E+00  0.00000000000E+00  0.17315339551E+04  0.17315339551E+04  0.50400001928E-02 0. -1.
       -1   -1    0    0    0  501  0.00000000000E+00  0.00000000000E+00 -0.57596634296E+03  0.57596634298E+03  0.50400001928E-02 0.  1.
    10030    2    1    2    0    0  0.00000000000E+00  0.00000000000E+00  0.11555676122E+04  0.23075002981E+04  0.19973034621E+04 0.  0.
        1    1    3    3  502    0 -0.28470168500E+03  0.12528211339E+03 -0.51857507986E+03  0.60470717778E+03  0.50400001928E-02 0.  1.
       -1    1    3    3    0  502  0.28470168500E+03 -0.12528211339E+03  0.16741426920E+04  0.17027931203E+04  0.50400001928E-02 0. -1.
</event>
<event>
 5   0  0.3772949E-05  0.2033589E+04  0.7818609E-02  0.8591076E-01
       -1   -1    0    0    0  501  0.00000000000E+00  0.00000000000E+00  0.17798443321E+04  0.17798443321E+04  0.50400001928E-02 0. -1.
        1   -1    0    0  501    0  0.00000000000E+00  0.00000000000E+00 -0.58087720111E+03  0.58087720113E+03  0.50400001928E-02 0.  1.
    10030    2    1    2    0    0  0.00000000000E+00  0.00000000000E+00  0.11989671310E+04  0.23607215333E+04  0.20335889399E+04 0.  0.
        2    1    3    3  502    0 -0.22771925618E+03  0.47303181916E+02 -0.54958326029E+03  0.59677081921E+03  0.25500000920E-02 0.  1.
       -2    1    3    3    0  502  0.22771925618E+03 -0.47303181916E+02  0.17485503913E+04  0.17639507140E+04  0.25500000920E-02 0. -1.
</event>
<event>
 5   0  0.2859625E-05  0.2003909E+04  0.7818609E-02  0.8604795E-01
       -3   -1    0    0    0  501  0.00000000000E+00  0.00000000000E+00  0.14316266871E+04  0.14316266907E+04  0.10100000352E+00 0. -1.
        3   -1    0    0  501    0  0.00000000000E+00  0.00000000000E+00 -0.70123908978E+03  0.70123909706E+03  0.10100000352E+00 0.  1.
    10030    2    1    2    0    0  0.00000000000E+00  0.00000000000E+00  0.73038759734E+03  0.21328657877E+04  0.20039087869E+04 0.  0.
        5    1    3    3  502    0 -0.82711210131E+03  0.40700436176E+03 -0.52655871080E+02  0.92334268253E+03  0.46999998093E+01 0.  1.
       -5    1    3    3    0  502  0.82711210131E+03 -0.40700436176E+03  0.78304346842E+03  0.12095231052E+04  0.46999998093E+01 0. -1.
</event>
<event>
 5   0  0.3818907E-05  0.2006548E+04  0.7818609E-02  0.8603565E-01
       -1   -1    0    0    0  501  0.00000000000E+00  0.00000000000E+00  0.12961448574E+04  0.12961448575E+04  0.50400001928E-02 0.  1.
        1   -1    0    0  501    0  0.00000000000E+00  0.00000000000E+00 -0.77657909672E+03  0.77657909673E+03  0.50400001928E-02 0. -1.
    10030    2    1    2    0    0  0.00000000000E+00  0.00000000000E+00  0.51956576073E+03  0.20727239542E+04  0.20065482826E+04 0.  0.
        1    1    3    3  502    0  0.82125706013E+03 -0.72303027445E+02 -0.33079629902E+03  0.88832262048E+03  0.50400001928E-02 0. -1.
       -1    1    3    3    0  502 -0.82125706013E+03  0.72303027445E+02  0.85036205975E+03  0.11844013337E+04  0.50400001928E-02 0.  1.
</event>
<event>
 5   0  0.3772949E-05  0.2001445E+04  0.7818609E-02  0.8605945E-01
       -1   -1    0    0    0  501  0.00000000000E+00  0.00000000000E+00  0.67718313146E+03  0.67718313147E+03  0.50400001928E-02 0. -1.
        1   -1    0    0  501    0  0.00000000000E+00  0.00000000000E+00 -0.14788399697E+04  0.14788399697E+04  0.50400001928E-02 0.  1.
    10030    2    1    2    0    0  0.00000000000E+00  0.00000000000E+00 -0.80165683821E+03  0.21560231011E+04  0.20014449596E+04 0.  0.
        2    1    3    3  502    0  0.55914102007E+03 -0.82522998354E+03 -0.49598096230E+03  0.11133913602E+04  0.25500000920E-02 0. -1.
       -2    1    3    3    0  502 -0.55914102007E+03  0.82522998354E+03 -0.30567587590E+03  0.10426317409E+04  0.25500000920E-02 0.  1.
</event>
<event>
 5   0  0.3970042E-05  0.1984750E+04  0.7818609E-02  0.8613784E-01
        1   -1    0    0  501    0  0.00000000000E+00  0.00000000000E+00  0.20604320124E+04  0.20604320124E+04  0.50400001928E-02 0.  1.
       -1   -1    0    0    0  501  0.00000000000E+00  0.00000000000E+00 -0.47796212495E+03  0.47796212497E+03  0.50400001928E-02 0. -1.
    10030    2    1    2    0    0  0.00000000000E+00  0.00000000000E+00  0.15824698874E+04  0.25383941373E+04  0.19847503248E+04 0.  0.
        3    1    3    3  502    0  0.44996986330E+03  0.96172574258E+01 -0.33992505885E+03  0.56401633430E+03  0.10100000352E+00 0. -1.
       -3    1    3    3    0  502 -0.44996986330E+03 -0.96172574258E+01  0.19223949463E+04  0.19743778030E+04  0.10100000352E+00 0.  1.
</event>
<event>
 5   0  0.8022574E-05  0.2002411E+04  0.7818609E-02  0.8605494E-01
        2   -1    0    0  501    0  0.00000000000E+00  0.00000000000E+00  0.13099502812E+04  0.13099502812E+04  0.25500000920E-02 0. -1.
       -2   -1    0    0    0  501  0.00000000000E+00  0.00000000000E+00 -0.76522912404E+03  0.76522912405E+03  0.25500000920E-02 0.  1.
    10030    2    1    2    0    0  0.00000000000E+00  0.00000000000E+00  0.54472115715E+03  0.20751794052E+04  0.20024106534E+04 0.  0.
        1    1    3    3  502    0  0.18563228623E+03 -0.97885984353E+03  0.16984052654E+03  0.10106788528E+04  0.50400001928E-02 0. -1.
       -1    1    3    3    0  502 -0.18563228623E+03  0.97885984353E+03  0.37488063061E+03  0.10645005525E+04  0.50400001928E-02 0.  1.
</event>
<event>
 5   0  0.3549426E-05  0.2005801E+04  0.7818609E-02  0.8603913E-01
        1   -1    0    0  501    0  0.00000000000E+00  0.00000000000E+00  0.14664542487E+04  0.14664542487E+04  0.50400001928E-02 0. -1.
       -1   -1    0    0    0  501  0.00000000000E+00  0.00000000000E+00 -0.68587867142E+03  0.68587867144E+03  0.50400001928E-02 0.  1.
    10030    2    1    2    0    0  0.00000000000E+00  0.00000000000E+00  0.78057557727E+03  0.21523329201E+04  0.20058012781E+04 0.  0.
        5    1    3    3  502    0 -0.59577935330E+03 -0.80462135689E+03  0.32754361793E+03  0.10534113524E+04  0.46999998093E+01 0. -1.
       -5    1    3    3    0  502  0.59577935330E+03  0.80462135689E+03  0.45303195934E+03  0.10989215677E+04  0.46999998093E+01 0.  1.
</event>
<event>
 5   0  0.7843846E-05  0.2007148E+04  0.7818609E-02  0.8603286E-01
       -2   -1    0    0    0  501  0.00000000000E+00  0.00000000000E+00  0.40642687034E+03  0.40642687035E+03  0.25500000920E-02 0. -1.
        2   -1    0    0  501    0  0.00000000000E+00  0.00000000000E+00 -0.24780851075E+04  0.24780851075E+04  0.25500000920E-02 0.  1.
    10030    2    1    2    0    0  0.00000000000E+00  0.00000000000E+00 -0.20716582372E+04  0.28845119779E+04  0.20071476027E+04 0.  0.
        2    1    3    3  502    0 -0.30595973276E+03 -0.90436141383E+03 -0.14803604439E+04  0.17615186541E+04  0.25500000920E-02 0.  1.
       -2    1    3    3    0  502  0.30595973276E+03  0.90436141383E+03 -0.59129779327E+03  0.11229933238E+04  0.25500000920E-02 0. -1.
</event>
<event>
 5   0  0.3772949E-05  0.1966631E+04  0.7818609E-02  0.8622383E-01
       -1   -1    0    0    0  501  0.00000000000E+00  0.00000000000E+00  0.77222343306E+03  0.77222343308E+03  0.50400001928E-02 0. -1.
        1   -1    0    0  501    0  0.00000000000E+00  0.00000000000E+00 -0.12521103370E+04  0.12521103370E+04  0.50400001928E-02 0.  1.
    10030    2    1    2    0    0  0.00000000000E+00  0.00000000000E+00 -0.47988690391E+03  0.20243337701E+04  0.19666305632E+04 0.  0.
        2    1    3    3  502    0 -0.32016426634E+03  0.28688655517E+03  0.67036892647E+03  0.79636897891E+03  0.25500000920E-02 0. -1.
       -2    1    3    3    0  502  0.32016426634E+03 -0.28688655517E+03 -0.11502558304E+04  0.12279647912E+04  0.25500000920E-02 0.  1.
</event>
<event>
 5   0  0.7935008E-05  0.1991317E+04  0.7818609E-02  0.8610691E-01
        2   -1    0    0  501    0  0.00000000000E+00  0.00000000000E+00  0.11214599974E+04  0.11214599974E+04  0.25500000920E-02 0.  1.
       -2   -1    0    0    0  501  0.00000000000E+00  0.00000000000E+00 -0.88396862923E+03  0.88396862923E+03  0.25500000920E-02 0. -1.
    10030    2    1    2    0    0  0.00000000000E+00  0.00000000000E+00  0.23749136814E+03  0.20054286266E+04  0.19913166063E+04 0.  0.
        3    1    3    3  502    0 -0.56780916589E+03  0.80049910242E+03  0.28765243571E+03  0.10227169676E+04  0.10100000352E+00 0.  1.
       -3    1    3    3    0  502  0.56780916589E+03 -0.80049910242E+03 -0.50161067572E+02  0.98271165900E+03  0.10100000352E+00 0. -1.
</event>
<event>
 5   0  0.3818907E-05  0.2007462E+04  0.7818609E-02  0.8603140E-01
       -1   -1    0    0    0  501  0.00000000000E+00  0.00000000000E+00  0.14578798193E+04  0.14578798193E+04  0.50400001928E-02 0.  1.
        1   -1    0    0  501    0  0.00000000000E+00  0.00000000000E+00 -0.69105539188E+03  0.69105539190E+03  0.50400001928E-02 0. -1.
    10030    2    1    2    0    0  0.00000000000E+00  0.00000000000E+00  0.76682442737E+03  0.21489352112E+04  0.20074617903E+04 0.  0.
        1    1    3    3  502    0  0.27389198206E+03  0.93200413201E+03  0.11296725115E+03  0.97796222819E+03  0.50400001928E-02 0. -1.
       -1    1    3    3    0  502 -0.27389198206E+03 -0.93200413201E+03  0.65385717622E+03  0.11709729830E+04  0.50400001928E-02 0.  1.
</event>
<event>
 5   0  0.7935008E-05  0.1999488E+04  0.7818609E-02  0.8606860E-01
        2   -1    0    0  501    0  0.00000000000E+00  0.00000000000E+00  0.16747494798E+04  0.16747494798E+04  0.25500000920E-02 0.  1.
       -2   -1    0    0    0  501  0.00000000000E+00  0.00000000000E+00 -0.59679835984E+03  0.59679835985E+03  0.25500000920E-02 0. -1.
    10030    2    1    2    0    0  0.00000000000E+00  0.00000000000E+00  0.10779511199E+04  0.22715478396E+04  0.19994876771E+04 0.  0.
        3    1    3    3  502    0 -0.63304155940E+03 -0.70833724105E+03  0.18514199492E+03  0.96786405630E+03  0.10100000352E+00 0.  1.
       -3    1    3    3    0  502  0.63304155940E+03  0.70833724105E+03  0.89280912499E+03  0.13036837833E+04  0.10100000352E+00 0. -1.
</event>
<event>
 5   0  0.3970042E-05  0.1998293E+04  0.7818609E-02  0.8607419E-01
       -1   -1    0    0    0  501  0.00000000000E+00  0.00000000000E+00  0.93976108053E+03  0.93976108054E+03  0.50400001928E-02 0. -1.
        1   -1    0    0  501    0  0.00000000000E+00  0.00000000000E+00 -0.10622851164E+04  0.10622851164E+04  0.50400001928E-02 0.  1.
    10030    2    1    2    0    0  0.00000000000E+00  0.00000000000E+00 -0.12252403590E+03  0.20020461970E+04  0.19982934808E+04 0.  0.
        3    1    3    3  502    0 -0.60267037980E+03  0.53488189622E+03 -0.65312007193E+03  0.10372444592E+04  0.10100000352E+00 0.  1.
       -3    1    3    3    0  502  0.60267037980E+03 -0.53488189622E+03  0.53059603603E+03  0.96480173779E+03  0.10100000352E+00 0. -1.
</event>
<event>
 5   0  0.3549426E-05  0.1979202E+04  0.7818609E-02  0.8616406E-01
       -1   -1    0    0    0  501  0.00000000000E+00  0.00000000000E+00  0.76786010991E+03  0.76786010993E+03  0.50400001928E-02 0.  1.
        1   -1    0    0  501    0  0.00000000000E+00  0.00000000000E+00 -0.12753759685E+04  0.12753759685E+04  0.50400001928E-02 0. -1.
    10030    2    1    2    0    0  0.00000000000E+00  0.00000000000E+00 -0.50751585862E+03  0.20432360785E+04  0.19792021942E+04 0.  0.
        5    1    3    3  502    0  0.18221325911E+03 -0.92051328679E+03  0.70640717007E+02  0.94104122324E+03  0.46999998093E+01 0.  1.
       -5    1    3    3    0  502 -0.18221325911E+03  0.92051328679E+03 -0.57815657563E+03  0.11021948552E+04  0.46999998093E+01 0. -1.
</event>
<event>
 5   0  0.3970042E-05  0.1987483E+04  0.7818609E-02  0.8612495E-01
        1   -1    0    0  501    0  0.00000000000E+00  0.00000000000E+00  0.14185476138E+04  0.14185476138E+04  0.50400001928E-02 0.  1.
       -1   -1    0    0    0  501  0.00000000000E+00  0.00000000000E+00 -0.69614988357E+03  0.69614988358E+03  0.50400001928E-02 0. -1.
    10030    2    1    2    0    0  0.00000000000E+00  0.00000000000E+00  0.72239773024E+03  0.21146974974E+04  0.19874825848E+04 0.  0.
        3    1    3    3  502    0 -0.50526657806E+03 -0.78805881278E+03  0.71599528364E+03  0.11785500684E+04  0.10100000352E+00 0.  1.
       -3    1    3    3    0  502  0.50526657806E+03  0.78805881278E+03  0.64024466002E+01  0.93614742901E+03  0.10100000352E+00 0. -1.
</event>
<event>
 5   0  0.8011197E-05  0.1992090E+04  0.7818609E-02  0.8610328E-01
        2   -1    0    0  501    0  0.00000000000E+00  0.00000000000E+00  0.80286220133E+03  0.80286220133E+03  0.25500000920E-02 0.  1.
       -2   -1    0    0    0  501  0.00000000000E+00  0.00000000000E+00 -0.12357109418E+04  0.12357109418E+04  0.25500000920E-02 0. -1.
    10030    2    1    2    0    0  0.00000000000E+00  0.00000000000E+00 -0.43284874048E+03  0.20385731432E+04  0.19920899648E+04 0.  0.
        5    1    3    3  502    0  0.42674759745E+03  0.43880140484E+03  0.58767342122E+03  0.84855307720E+03  0.46999998093E+01 0.  1.
       -5    1    3    3    0  502 -0.42674759745E+03 -0.43880140484E+03 -0.10205221617E+04  0.11900200659E+04  0.46999998093E+01 0. -1.
</event>
<event>
 5   0  0.8022574E-05  0.2000769E+04  0.7818609E-02  0.8606261E-01
       -2   -1    0    0    0  501  0.00000000000E+00  0.00000000000E+00  0.61443823215E+03  0.61443823216E+03  0.25500000920E-02 0. -1.
        2   -1    0    0  501    0  0.00000000000E+00  0.00000000000E+00 -0.16287544532E+04  0.16287544532E+04  0.25500000920E-02 0.  1.
    10030    2    1    2    0    0  0.00000000000E+00  0.00000000000E+00 -0.10143162211E+04  0.22431926854E+04  0.20007688591E+04 0.  0.
        1    1    3    3  502    0  0.71127997468E+03 -0.54832955804E+03 -0.10012149795E+04  0.13449966326E+04  0.50400001928E-02 0.  1.
       -1    1    3    3    0  502 -0.71127997468E+03  0.54832955804E+03 -0.13101241566E+02  0.89819605274E+03  0.50400001928E-02 0. -1.
</event>
<event>
 5   0  0.8022574E-05  0.1993429E+04  0.7818609E-02  0.8609699E-01
       -2   -1    0    0    0  501  0.00000000000E+00  0.00000000000E+00  0.65313572413E+03  0.65313572414E+03  0.25500000920E-02 0. -1.
        2   -1    0    0  501    0  0.00000000000E+00  0.00000000000E+00 -0.15210315651E+04  0.15210315651E+04  0.25500000920E-02 0.  1.
    10030    2    1    2    0    0  0.00000000000E+00  0.00000000000E+00 -0.86789584100E+03  0.21741672893E+04  0.19934292591E+04 0.  0.
        1    1    3    3  502    0  0.13748112100E+03  0.92624675955E+03 -0.61511232532E+02  0.93841235604E+03  0.50400001928E-02 0. -1.
       -1    1    3    3    0  502 -0.13748112100E+03 -0.92624675955E+03 -0.80638460847E+03  0.12357549332E+04  0.50400001928E-02 0.  1.
</event>
<event>
 5   0  0.3772949E-05  0.1986770E+04  0.7818609E-02  0.8612831E-01
       -1   -1    0    0    0  501  0.00000000000E+00  0.00000000000E+00  0.68694640866E+03  0.68694640868E+03  0.50400001928E-02 0. -1.
        1   -1    0    0  501    0  0.00000000000E+00  0.00000000000E+00 -0.14365215122E+04  0.14365215123E+04  0.50400001928E-02 0.  1.
    10030    2    1    2    0    0  0.00000000000E+00  0.00000000000E+00 -0.74957510359E+03  0.21234679209E+04  0.19867695325E+04 0.  0.
        2    1    3    3  502    0  0.20203556301E+03 -0.65732544317E+03  0.39141784507E+03  0.79126672898E+03  0.25500000920E-02 0. -1.
       -2    1    3    3    0  502 -0.20203556301E+03  0.65732544317E+03 -0.11409929487E+04  0.13322011920E+04  0.25500000920E-02 0.  1.
</event>
<event>
 5   0  0.2859625E-05  0.2010188E+04  0.7818609E-02  0.8601872E-01
        4   -1    0    0  501    0  0.00000000000E+00  0.00000000000E+00  0.13358049057E+04  0.13358055094E+04  0.12699999809E+01 0. -1.
       -4   -1    0    0    0  501  0.00000000000E+00  0.00000000000E+00 -0.75625741123E+03  0.75625847759E+03  0.12699999809E+01 0.  1.
    10030    2    1    2    0    0  0.00000000000E+00  0.00000000000E+00  0.57954749446E+03  0.20920639870E+04  0.20101881572E+04 0.  0.
        2    1    3    3  502    0 -0.94707548287E+03  0.29823558898E+03  0.12748095431E+03  0.10010733392E+04  0.25500000920E-02 0. -1.
       -2    1    3    3    0  502  0.94707548287E+03 -0.29823558898E+03  0.45206654015E+03  0.10909906478E+04  0.25500000920E-02 0.  1.
</event>
<event>
 5   0  0.7843846E-05  0.1981567E+04  0.7818609E-02  0.8615287E-01
        2   -1    0    0  501    0  0.00000000000E+00  0.00000000000E+00  0.15683099988E+04  0.15683099988E+04  0.25500000920E-02 0. -1.
       -2   -1    0    0    0  501  0.00000000000E+00  0.00000000000E+00 -0.62592983263E+03  0.62592983264E+03  0.25500000920E-02 0.  1.
    10030    2    1    2    0    0  0.00000000000E+00  0.00000000000E+00  0.94238016613E+03  0.21942398314E+04  0.19815670718E+04 0.  0.
        2    1    3    3  502    0 -0.54346862935E+03  0.81153065709E+03  0.65552522117E+03  0.11762880064E+04  0.25500000920E-02 0. -1.
       -2    1    3    3    0  502  0.54346862935E+03 -0.81153065709E+03  0.28685494496E+03  0.10179518250E+04  0.25500000920E-02 0.  1.
</event>
<event>
 5   0  0.3549426E-05  0.1990223E+04  0.7818609E-02  0.8611206E-01
        1   -1    0    0  501    0  0.00000000000E+00  0.00000000000E+00  0.10751653162E+04  0.10751653162E+04  0.50400001928E-02 0. -1.
       -1   -1    0    0    0  501  0.00000000000E+00  0.00000000000E+00 -0.92101805578E+03  0.92101805580E+03  0.50400001928E-02 0.  1.
    10030    2    1    2    0    0  0.00000000000E+00  0.00000000000E+00  0.15414726043E+03  0.19961833720E+04  0.19902227707E+04 0.  0.
        5    1    3    3  502    0  0.18315728954E+03 -0.20468893493E+03 -0.88223240019E+03  0.92401312260E+03  0.46999998093E+01 0.  1.
       -5    1    3    3    0  502 -0.18315728954E+03  0.20468893493E+03  0.10363796606E+04  0.10721702494E+04  0.46999998093E+01 0. -1.
</event>
<event>
 5   0  0.3787698E-05  0.2000351E+04  0.7818609E-02  0.8606456E-01
       -1   -1    0    0    0  501  0.00000000000E+00  0.00000000000E+00  0.13271661968E+04  0.13271661968E+04  0.50400001928E-02 0.  1.
        1   -1    0    0  501    0  0.00000000000E+00  0.00000000000E+00 -0.75374977197E+03  0.75374977199E+03  0.50400001928E-02 0. -1.
    10030    2    1    2    0    0  0.00000000000E+00  0.00000000000E+00  0.57341642483E+03  0.20809159688E+04  0.20003511874E+04 0.  0.
        4    1    3    3  502    0 -0.37029448229E+03  0.36538878845E+03  0.11753509653E+04  0.12853320485E+04  0.12699999809E+01 0.  1.
       -4    1    3    3    0  502  0.37029448229E+03 -0.36538878845E+03 -0.60193454048E+03  0.79558392031E+03  0.12699999809E+01 0. -1.
</event>
<event>
 5   0  0.3970042E-05  0.2000667E+04  0.7818609E-02  0.8606309E-01
       -1   -1    0    0    0  501  0.00000000000E+00  0.00000000000E+00  0.57709829535E+03  0.57709829537E+03  0.50400001928E-02 0. -1.
        1   -1    0    0  501    0  0.00000000000E+00  0.00000000000E+00 -0.17339635340E+04  0.17339635340E+04  0.50400001928E-02 0.  1.
    10030    2    1    2    0    0  0.00000000000E+00  0.00000000000E+00 -0.11568652387E+04  0.23110618294E+04  0.20006672884E+04 0.  0.
        3    1    3    3  502    0 -0.64495098158E+02 -0.59102741932E+03  0.35086335483E+03  0.69034638555E+03  0.10100000352E+00 0. -1.
       -3    1    3    3    0  502  0.64495098158E+02  0.59102741932E+03 -0.15077285935E+04  0.16207154438E+04  0.10100000352E+00 0.  1.
</event>
<event>
 5   0  0.3549426E-05  0.2002069E+04  0.7818609E-02  0.8605654E-01
       -1   -1    0    0    0  501  0.00000000000E+00  0.00000000000E+00  0.57497689888E+03  0.57497689891E+03  0.50400001928E-02 0.  1.
        1   -1    0    0  501    0  0.00000000000E+00  0.00000000000E+00 -0.17428001321E+04  0.17428001321E+04  0.50400001928E-02 0. -1.
    10030    2    1    2    0    0  0.00000000000E+00  0.00000000000E+00 -0.11678232333E+04  0.23177770310E+04  0.20020687455E+04 0.  0.
        5    1    3    3  502    0 -0.58372608396E+03 -0.43856762976E+03  0.20889124359E+03  0.75943093736E+03  0.46999998093E+01 0.  1.
       -5    1    3    3    0  502  0.58372608396E+03  0.43856762976E+03 -0.13767144768E+04  0.15583460937E+04  0.46999998093E+01 0. -1.
</event>
<event>
 5   0  0.7843846E-05  0.1999495E+04  0.7818609E-02  0.8606857E-01
       -2   -1    0    0    0  501  0.00000000000E+00  0.00000000000E+00  0.28709485644E+03  0.28709485645E+03  0.25500000920E-02 0.  1.
        2   -1    0    0  501    0  0.00000000000E+00  0.00000000000E+00 -0.34814111978E+04  0.34814111978E+04  0.25500000920E-02 0. -1.
    10030    2    1    2    0    0  0.00000000000E+00  0.00000000000E+00 -0.31943163414E+04  0.37685060543E+04  0.19994951844E+04 0.  0.
        2    1    3    3  502    0 -0.18036929230E+03  0.25775624810E+03  0.19137283121E+03  0.36823216260E+03  0.25500000920E-02 0.  1.
       -2    1    3    3    0  502  0.18036929230E+03 -0.25775624810E+03 -0.33856891726E+04  0.34002738917E+04  0.25500000920E-02 0. -1.
</event>
<event>
 5   0  0.7843846E-05  0.2000328E+04  0.7818609E-02  0.8606467E-01
        2   -1    0    0  501    0  0.00000000000E+00  0.00000000000E+00  0.17077929898E+04  0.17077929898E+04  0.25500000920E-02 0.  1.
       -2   -1    0    0    0  501  0.00000000000E+00  0.00000000000E+00 -0.58574295832E+03  0.58574295833E+03  0.25500000920E-02 0. -1.
    10030    2    1    2    0    0  0.00000000000E+00  0.00000000000E+00  0.11220500315E+04  0.22935359482E+04  0.20003276912E+04 0.  0.
        2    1    3    3  502    0 -0.38091466118E+03  0.55364424630E+03  0.14103536339E+04  0.15622788814E+04  0.25500000920E-02 0.  1.
       -2    1    3    3    0  502  0.38091466118E+03 -0.55364424630E+03 -0.28830360238E+03  0.73125706678E+03  0.25500000920E-02 0. -1.
</event>
<event>
 5   0  0.3787698E-05  0.1994880E+04  0.7818609E-02  0.8609018E-01
        1   -1    0    0  501    0  0.00000000000E+00  0.00000000000E+00  0.81411927818E+03  0.81411927820E+03  0.50400001928E-02 0. -1.
       -1   -1    0    0    0  501  0.00000000000E+00  0.00000000000E+00 -0.12220404335E+04  0.12220404335E+04  0.50400001928E-02 0.  1.
    10030    2    1    2    0    0  0.00000000000E+00  0.00000000000E+00 -0.40792115530E+03  0.20361597117E+04  0.19948801224E+04 0.  0.
        4    1    3    3  502    0  0.77696350181E+02  0.22162730855E+03 -0.11934166270E+04  0.12163059834E+04  0.12699999809E+01 0.  1.
       -4    1    3    3    0  502 -0.77696350181E+02 -0.22162730855E+03  0.78549547174E+03  0.81985372826E+03  0.12699999809E+01 0. -1.
</event>
<event>
 5   0  0.3818907E-05  0.1993595E+04  0.7818609E-02  0.8609621E-01
       -1   -1    0    0    0  501  0.00000000000E+00  0.00000000000E+00  0.10224839206E+04  0.10224839206E+04  0.50400001928E-02 0.  1.
        1   -1    0    0  501    0  0.00000000000E+00  0.00000000000E+00 -0.97175654792E+03  0.97175654793E+03  0.50400001928E-02 0. -1.
    10030    2    1    2    0    0  0.00000000000E+00  0.00000000000E+00  0.50727372673E+02  0.19942404685E+04  0.19935951896E+04 0.  0.
        1    1    3    3  502    0 -0.33881031068E+03 -0.60445944609E+03  0.74214414627E+03  0.10153529349E+04  0.50400001928E-02 0.  1.
       -1    1    3    3    0  502  0.33881031068E+03  0.60445944609E+03 -0.69141677360E+03  0.97888753360E+03  0.50400001928E-02 0. -1.
</event>
<event>
 5   0  0.3818907E-05  0.1842312E+04  0.7818609E-02  0.8684116E-01
       -1   -1    0    0    0  501  0.00000000000E+00  0.00000000000E+00  0.12861797381E+04  0.12861797381E+04  0.50400001928E-02 0.  1.
        1   -1    0    0  501    0  0.00000000000E+00  0.00000000000E+00 -0.65972787314E+03  0.65972787315E+03  0.50400001928E-02 0. -1.
    10030    2    1    2    0    0  0.00000000000E+00  0.00000000000E+00  0.62645186497E+03  0.19459076113E+04  0.18423122679E+04 0.  0.
        1    1    3    3  502    0  0.56935755569E+03  0.12186749156E+03 -0.44071073368E+03  0.73023671678E+03  0.50400001928E-02 0. -1.
       -1    1    3    3    0  502 -0.56935755569E+03 -0.12186749156E+03  0.10671625987E+04  0.12156708945E+04  0.50400001928E-02 0.  1.
</event>
<event>
 5   0  0.2859625E-05  0.2024208E+04  0.7818609E-02  0.8595386E-01
        3   -1    0    0  501    0  0.00000000000E+00  0.00000000000E+00  0.61875573024E+03  0.61875573849E+03  0.10100000352E+00 0. -1.
       -3   -1    0    0    0  501  0.00000000000E+00  0.00000000000E+00 -0.16555065519E+04  0.16555065550E+04  0.10100000352E+00 0.  1.
    10030    2    1    2    0    0  0.00000000000E+00  0.00000000000E+00 -0.10367508216E+04  0.22742622934E+04  0.20242076754E+04 0.  0.
        5    1    3    3  502    0 -0.20167564215E+02  0.76637458633E+03  0.22400249320E+03  0.79870892332E+03  0.46999998093E+01 0. -1.
       -5    1    3    3    0  502  0.20167564215E+02 -0.76637458633E+03 -0.12607533148E+04  0.14755533701E+04  0.46999998093E+01 0.  1.
</event>
<event>
 5   0  0.3549426E-05  0.1999646E+04  0.7818609E-02  0.8606786E-01
       -1   -1    0    0    0  501  0.00000000000E+00  0.00000000000E+00  0.54603716864E+03  0.54603716866E+03  0.50400001928E-02 0.  1.
        1   -1    0    0  501    0  0.00000000000E+00  0.00000000000E+00 -0.18307296901E+04  0.18307296901E+04  0.50400001928E-02 0. -1.
    10030    2    1    2    0    0  0.00000000000E+00  0.00000000000E+00 -0.12846925215E+04  0.23767668588E+04  0.19996464253E+04 0.  0.
        5    1    3    3  502    0 -0.23000764652E+03 -0.46572801992E+03 -0.16577546209E+04  0.17372330238E+04  0.46999998093E+01 0. -1.
       -5    1    3    3    0  502  0.23000764652E+03  0.46572801992E+03  0.37306209943E+03  0.63953383494E+03  0.46999998093E+01 0.  1.
</event>
<event>
 5   0  0.7857136E-05  0.2005579E+04  0.7818609E-02  0.8604017E-01
       -2   -1    0    0    0  501  0.00000000000E+00  0.00000000000E+00  0.97348965059E+03  0.97348965060E+03  0.25500000920E-02 0.  1.
        2   -1    0    0  501    0  0.00000000000E+00  0.00000000000E+00 -0.10329714550E+04  0.10329714550E+04  0.25500000920E-02 0. -1.
    10030    2    1    2    0    0  0.00000000000E+00  0.00000000000E+00 -0.59481804381E+02  0.20064611056E+04  0.20055792388E+04 0.  0.
        4    1    3    3  502    0  0.91009403422E+03  0.19758666927E+03 -0.40175621295E+03  0.10142589958E+04  0.12699999809E+01 0. -1.
       -4    1    3    3    0  502 -0.91009403422E+03 -0.19758666927E+03  0.34227440857E+03  0.99220210978E+03  0.12699999809E+01 0.  1.
</event>
<event>
 5   0  0.7935008E-05  0.2008484E+04  0.7818609E-02  0.8602664E-01
        2   -1    0    0  501    0  0.00000000000E+00  0.00000000000E+00  0.12642811281E+04  0.12642811281E+04  0.25500000920E-02 0. -1.
       -2   -1    0    0    0  501  0.00000000000E+00  0.00000000000E+00 -0.79768786790E+03  0.79768786791E+03  0.25500000920E-02 0.  1.
    10030    2    1    2    0    0  0.00000000000E+00  0.00000000000E+00  0.46659326019E+03  0.20619689960E+04  0.20084837241E+04 0.  0.
        3    1    3    3  502    0 -0.35577623652E+03  0.74537998138E+03  0.81976521063E+03  0.11636937131E+04  0.10100000352E+00 0. -1.
       -3    1    3    3    0  502  0.35577623652E+03 -0.74537998138E+03 -0.35317195045E+03  0.89827528291E+03  0.10100000352E+00 0.  1.
</event>
<event>
 5   0  0.8022574E-05  0.2040420E+04  0.7818609E-02  0.8587953E-01
       -2   -1    0    0    0  501  0.00000000000E+00  0.00000000000E+00  0.11792105893E+04  0.11792105893E+04  0.25500000920E-02 0. -1.
        2   -1    0    0  501    0  0.00000000000E+00  0.00000000000E+00 -0.88264851711E+03  0.88264851712E+03  0.25500000920E-02 0.  1.
    10030    2    1    2    0    0  0.00000000000E+00  0.00000000000E+00  0.29656207221E+03  0.20618591064E+04  0.20404200333E+04 0.  0.
        1    1    3    3  502    0 -0.54145784761E+03  0.86241283317E+03  0.21135467707E+03  0.10400015842E+04  0.50400001928E-02 0.  1.
       -1    1    3    3    0  502  0.54145784761E+03 -0.86241283317E+03  0.85207395132E+02  0.10218575222E+04  0.50400001928E-02 0. -1.
</event>
<event>
 5   0  0.7935008E-05  0.1991580E+04  0.7818609E-02  0.8610567E-01
       -2   -1    0    0    0  501  0.00000000000E+00  0.00000000000E+00  0.44999554594E+03  0.44999554595E+03  0.25500000920E-02 0. -1.
        2   -1    0    0  501    0  0.00000000000E+00  0.00000000000E+00 -0.22035733322E+04  0.22035733322E+04  0.25500000920E-02 0.  1.
    10030    2    1    2    0    0  0.00000000000E+00  0.00000000000E+00 -0.17535777863E+04  0.26535688782E+04  0.19915804625E+04 0.  0.
        3    1    3    3  502    0  0.45742425585E+03 -0.80012105889E+03 -0.37440848419E+03  0.99479263264E+03  0.10100000352E+00 0. -1.
       -3    1    3    3    0  502 -0.45742425585E+03  0.80012105889E+03 -0.13791693021E+04  0.16587762455E+04  0.10100000352E+00 0.  1.
</event>
<event>
 5   0  0.8011197E-05  0.2014301E+04  0.7818609E-02  0.8599964E-01
       -2   -1    0    0    0  501  0.00000000000E+00  0.00000000000E+00  0.10891555722E+04  0.10891555722E+04  0.25500000920E-02 0. -1.
        2   -1    0    0  501    0  0.00000000000E+00  0.00000000000E+00 -0.93131960885E+03  0.93131960886E+03  0.25500000920E-02 0.  1.
    10030    2    1    2    0    0  0.00000000000E+00  0.00000000000E+00  0.15783596330E+03  0.20204751810E+04  0.20143008131E+04 0.  0.
        5    1    3    3  502    0 -0.11448149316E+03  0.41262041493E+03  0.99328678985E+03  0.10816664717E+04  0.46999998093E+01 0. -1.
       -5    1    3    3    0  502  0.11448149316E+03 -0.41262041493E+03 -0.83545082656E+03  0.93880870932E+03  0.46999998093E+01 0.  1.
</event>
<event>
 5   0  0.8011197E-05  0.2055236E+04  0.7818609E-02  0.8581223E-01
       -2   -1    0    0    0  501  0.00000000000E+00  0.00000000000E+00  0.12920098660E+04  0.12920098660E+04  0.25500000920E-02 0.  1.
        2   -1    0    0  501    0  0.00000000000E+00  0.00000000000E+00 -0.81733012838E+03  0.81733012838E+03  0.25500000920E-02 0. -1.
    10030    2    1    2    0    0  0.00000000000E+00  0.00000000000E+00  0.47467973765E+03  0.21093399944E+04  0.20552358402E+04 0.  0.
        5    1    3    3  502    0 -0.14480430725E+03 -0.49155101342E+03 -0.67683049465E+03  0.84894775734E+03  0.46999998093E+01 0. -1.
       -5    1    3    3    0  502  0.14480430725E+03  0.49155101342E+03  0.11515102323E+04  0.12603922371E+04  0.46999998093E+01 0.  1.
</event>
<event>
 5   0  0.3818907E-05  0.2113661E+04  0.7818609E-02  0.8555250E-01
        1   -1    0    0  501    0  0.00000000000E+00  0.00000000000E+00  0.13376482783E+04  0.13376482783E+04  0.50400001928E-02 0. -1.
       -1   -1    0    0    0  501  0.00000000000E+00  0.00000000000E+00 -0.83496554262E+03  0.83496554264E+03  0.50400001928E-02 0.  1.
    10030    2    1    2    0    0  0.00000000000E+00  0.00000000000E+00  0.50268273569E+03  0.21726138210E+04  0.21136605409E+04 0.  0.
        1    1    3    3  502    0 -0.17975535749E+03 -0.56389116248E+03  0.11513219075E+04  0.12945375106E+04  0.50400001928E-02 0. -1.
       -1    1    3    3    0  502  0.17975535749E+03  0.56389116248E+03 -0.64863917178E+03  0.87807631038E+03  0.50400001928E-02 0.  1.
</event>
<event>
 5   0  0.8022574E-05  0.2004583E+04  0.7818609E-02  0.8604481E-01
        2   -1    0    0  501    0  0.00000000000E+00  0.00000000000E+00  0.21691516062E+04  0.21691516062E+04  0.25500000920E-02 0.  1.
       -2   -1    0    0    0  501  0.00000000000E+00  0.00000000000E+00 -0.46312518454E+03  0.46312518455E+03  0.25500000920E-02 0. -1.
    10030    2    1    2    0    0  0.00000000000E+00  0.00000000000E+00  0.17060264217E+04  0.26322767908E+04  0.20045834859E+04 0.  0.
        1    1    3    3  502    0 -0.30235572848E+02 -0.37005662891E+02  0.21676548468E+04  0.21681815292E+04  0.50400001928E-02 0.  1.
       -1    1    3    3    0  502  0.30235572848E+02  0.37005662891E+02 -0.46162842506E+03  0.46409526156E+03  0.50400001928E-02 0. -1.
</event>
<event>
 5   0  0.3970042E-05  0.1991430E+04  0.7818609E-02  0.8610638E-01
       -1   -1    0    0    0  501  0.00000000000E+00  0.00000000000E+00  0.71943638642E+03  0.71943638644E+03  0.50400001928E-02 0.  1.
        1   -1    0    0  501    0  0.00000000000E+00  0.00000000000E+00 -0.13780897919E+04  0.13780897919E+04  0.50400001928E-02 0. -1.
    10030    2    1    2    0    0  0.00000000000E+00  0.00000000000E+00 -0.65865340551E+03  0.20975261784E+04  0.19914295771E+04 0.  0.
        3    1    3    3  502    0 -0.17182334627E+03 -0.18589615665E+03 -0.13436311336E+04  0.13672692773E+04  0.10100000352E+00 0. -1.
       -3    1    3    3    0  502  0.17182334627E+03  0.18589615665E+03  0.68497772807E+03  0.73025690105E+03  0.10100000352E+00 0.  1.
</event>
<event>
 5   0  0.3772949E-05  0.2005075E+04  0.7818609E-02  0.8604251E-01
        1   -1    0    0  501    0  0.00000000000E+00  0.00000000000E+00  0.17631678069E+04  0.17631678069E+04  0.50400001928E-02 0.  1.
       -1   -1    0    0    0  501  0.00000000000E+00  0.00000000000E+00 -0.57004316781E+03  0.57004316783E+03  0.50400001928E-02 0. -1.
    10030    2    1    2    0    0  0.00000000000E+00  0.00000000000E+00  0.11931246391E+04  0.23332109747E+04  0.20050753223E+04 0.  0.
        2    1    3    3  502    0 -0.17839369930E+03  0.37591333886E+03  0.16579426801E+04  0.17093592603E+04  0.25500000920E-02 0.  1.
       -2    1    3    3    0  502  0.17839369930E+03 -0.37591333886E+03 -0.46481804104E+03  0.62385171440E+03  0.25500000920E-02 0. -1.
</event>
<event>
 5   0  0.3787698E-05  0.1977169E+04  0.7818609E-02  0.8617370E-01
        1   -1    0    0  501    0  0.00000000000E+00  0.00000000000E+00  0.75044862791E+03  0.75044862793E+03  0.50400001928E-02 0. -1.
       -1   -1    0    0    0  501  0.00000000000E+00  0.00000000000E+00 -0.13022874121E+04  0.13022874121E+04  0.50400001928E-02 0.  1.
    10030    2    1    2    0    0  0.00000000000E+00  0.00000000000E+00 -0.55183878416E+03  0.20527360400E+04  0.19771694936E+04 0.  0.
        4    1    3    3  502    0 -0.19911655079E+02  0.48854403597E+03 -0.11679587246E+04  0.12661757162E+04  0.12699999809E+01 0.  1.
       -4    1    3    3    0  502  0.19911655079E+02 -0.48854403597E+03  0.61611994042E+03  0.78656032380E+03  0.12699999809E+01 0. -1.
</event>
<event>
 5   0  0.7857136E-05  0.2007940E+04  0.7818609E-02  0.8602917E-01
        2   -1    0    0  501    0  0.00000000000E+00  0.00000000000E+00  0.13994905419E+04  0.13994905419E+04  0.25500000920E-02 0. -1.
       -2   -1    0    0    0  501  0.00000000000E+00  0.00000000000E+00 -0.72023039813E+03  0.72023039813E+03  0.25500000920E-02 0.  1.
    10030    2    1    2    0    0  0.00000000000E+00  0.00000000000E+00  0.67926014382E+03  0.21197209401E+04  0.20079398698E+04 0.  0.
        4    1    3    3  502    0  0.36944037962E+03  0.39432298412E+03  0.12328894521E+04  0.13461035710E+04  0.12699999809E+01 0. -1.
       -4    1    3    3    0  502 -0.36944037962E+03 -0.39432298412E+03 -0.55362930826E+03  0.77361736909E+03  0.12699999809E+01 0.  1.
</event>
<event>
 5   0  0.3549426E-05  0.1996591E+04  0.7818609E-02  0.8608216E-01
        1   -1    0    0  501    0  0.00000000000E+00  0.00000000000E+00  0.10422923765E+04  0.10422923765E+04  0.50400001928E-02 0.  1.
       -1   -1    0    0    0  501  0.00000000000E+00  0.00000000000E+00 -0.95615548524E+03  0.95615548525E+03  0.50400001928E-02 0. -1.
    10030    2    1    2    0    0  0.00000000000E+00  0.00000000000E+00  0.86136891233E+02  0.19984478617E+04  0.19965906671E+04 0.  0.
        5    1    3    3  502    0  0.73150822549E+03  0.66382283776E+03  0.18744699220E+03  0.10054469199E+04  0.46999998093E+01 0. -1.
       -5    1    3    3    0  502 -0.73150822549E+03 -0.66382283776E+03 -0.10131010097E+03  0.99300094182E+03  0.46999998093E+01 0.  1.
</event>
<event>
 5   0  0.3549426E-05  0.1950894E+04  0.7818609E-02  0.8629930E-01
       -1   -1    0    0    0  501  0.00000000000E+00  0.00000000000E+00  0.12160784323E+04  0.12160784323E+04  0.50400001928E-02 0. -1.
        1   -1    0    0  501    0  0.00000000000E+00  0.00000000000E+00 -0.78243082784E+03  0.78243082785E+03  0.50400001928E-02 0.  1.
    10030    2    1    2    0    0  0.00000000000E+00  0.00000000000E+00  0.43364760447E+03  0.19985092602E+04  0.19508944149E+04 0.  0.
        5    1    3    3  502    0  0.31910190821E+03 -0.75799794363E+03 -0.32046578389E+03  0.88267056086E+03  0.46999998093E+01 0.  1.
       -5    1    3    3    0  502 -0.31910190821E+03  0.75799794363E+03  0.75411338836E+03  0.11158386993E+04  0.46999998093E+01 0. -1.
</event>
<event>
 5   0  0.3549426E-05  0.2001219E+04  0.7818609E-02  0.8606051E-01
       -1   -1    0    0    0  501  0.00000000000E+00  0.00000000000E+00  0.99379657394E+03  0.99379657395E+03  0.50400001928E-02 0.  1.
        1   -1    0    0  501    0  0.00000000000E+00  0.00000000000E+00 -0.10074688800E+04  0.10074688800E+04  0.50400001928E-02 0. -1.
    10030    2    1    2    0    0  0.00000000000E+00  0.00000000000E+00 -0.13672306055E+02  0.20012654540E+04  0.20012187500E+04 0.  0.
        5    1    3    3  502    0  0.68825822627E+03 -0.30198037656E+03 -0.66738581996E+03  0.10051454902E+04  0.46999998093E+01 0. -1.
       -5    1    3    3    0  502 -0.68825822627E+03  0.30198037656E+03  0.65371351390E+03  0.99611996372E+03  0.46999998093E+01 0.  1.
</event>
<event>
 5   0  0.8011197E-05  0.1993278E+04  0.7818609E-02  0.8609770E-01
        2   -1    0    0  501    0  0.00000000000E+00  0.00000000000E+00  0.21878453865E+04  0.21878453865E+04  0.25500000920E-02 0. -1.
       -2   -1    0    0    0  501  0.00000000000E+00  0.00000000000E+00 -0.45400323421E+03  0.45400323421E+03  0.25500000920E-02 0.  1.
    10030    2    1    2    0    0  0.00000000000E+00  0.00000000000E+00  0.17338421523E+04  0.26418486207E+04  0.19932775837E+04 0.  0.
        5    1    3    3  502    0  0.70415023466E+03  0.34383414447E+03  0.16830978430E+04  0.18565801655E+04  0.46999998093E+01 0.  1.
       -5    1    3    3    0  502 -0.70415023466E+03 -0.34383414447E+03  0.50744309341E+02  0.78526845524E+03  0.46999998093E+01 0. -1.
</event>
<event>
 5   0  0.8022574E-05  0.2017370E+04  0.7818609E-02  0.8598542E-01
        2   -1    0    0  501    0  0.00000000000E+00  0.00000000000E+00  0.17440104943E+04  0.17440104943E+04  0.25500000920E-02 0. -1.
       -2   -1    0    0    0  501  0.00000000000E+00  0.00000000000E+00 -0.58339417017E+03  0.58339417018E+03  0.25500000920E-02 0.  1.
    10030    2    1    2    0    0  0.00000000000E+00  0.00000000000E+00  0.11606163241E+04  0.23274046645E+04  0.20173701248E+04 0.  0.
        1    1    3    3  502    0  0.30899347852E+03 -0.27289057581E+03 -0.48176881406E+03  0.63407209871E+03  0.50400001928E-02 0.  1.
       -1    1    3    3    0  502 -0.30899347852E+03  0.27289057581E+03  0.16423851382E+04  0.16933325658E+04  0.50400001928E-02 0. -1.
</event>
<event>
 5   0  0.3772949E-05  0.1975664E+04  0.7818609E-02  0.8618084E-01
        1   -1    0    0  501    0  0.00000000000E+00  0.00000000000E+00  0.15854096333E+04  0.15854096333E+04  0.50400001928E-02 0.  1.
       -1   -1    0    0    0  501  0.00000000000E+00  0.00000000000E+00 -0.61549503316E+03  0.61549503318E+03  0.50400001928E-02 0. -1.
    10030    2    1    2    0    0  0.00000000000E+00  0.00000000000E+00  0.96991460014E+03  0.22009046665E+04  0.19756636909E+04 0.  0.
        2    1    3    3  502    0 -0.49433514659E+03 -0.33217267942E+03 -0.39299519075E+03  0.71354827872E+03  0.25500000920E-02 0. -1.
       -2    1    3    3    0  502  0.49433514659E+03  0.33217267942E+03  0.13629097909E+04  0.14873563878E+04  0.25500000920E-02 0.  1.
</event>
<event>
 5   0  0.8011197E-05  0.2001928E+04  0.7818609E-02  0.8605720E-01
        2   -1    0    0  501    0  0.00000000000E+00  0.00000000000E+00  0.31566649019E+04  0.31566649019E+04  0.25500000920E-02 0. -1.
       -2   -1    0    0    0  501  0.00000000000E+00  0.00000000000E+00 -0.31740098941E+03  0.31740098942E+03  0.25500000920E-02 0.  1.
    10030    2    1    2    0    0  0.00000000000E+00  0.00000000000E+00  0.28392639125E+04  0.34740658913E+04  0.20019276342E+04 0.  0.
        5    1    3    3  502    0 -0.84373484927E+03  0.37033702287E+03  0.74113386286E+03  0.11825140587E+04  0.46999998093E+01 0.  1.
       -5    1    3    3    0  502  0.84373484927E+03 -0.37033702287E+03  0.20981300496E+04  0.22915518326E+04  0.46999998093E+01 0. -1.
</event>
<event>
 5   0  0.8022574E-05  0.1991528E+04  0.7818609E-02  0.8610592E-01
       -2   -1    0    0    0  501  0.00000000000E+00  0.00000000000E+00  0.13118349920E+04  0.13118349921E+04  0.25500000920E-02 0.  1.
        2   -1    0    0  501    0  0.00000000000E+00  0.00000000000E+00 -0.75584659101E+03  0.75584659101E+03  0.25500000920E-02 0. -1.
    10030    2    1    2    0    0  0.00000000000E+00  0.00000000000E+00  0.55598840104E+03  0.20676815831E+04  0.19915280633E+04 0.  0.
        1    1    3    3  502    0 -0.43539567244E+03  0.15839409610E+02  0.12076242197E+04  0.12838132787E+04  0.50400001928E-02 0.  1.
       -1    1    3    3    0  502  0.43539567244E+03 -0.15839409610E+02 -0.65163581865E+03  0.78386830440E+03  0.50400001928E-02 0. -1.
</event>
<event>
 5   0  0.2859625E-05  0.1991704E+04  0.7818609E-02  0.8610509E-01
        3   -1    0    0  501    0  0.00000000000E+00  0.00000000000E+00  0.84817589420E+03  0.84817590021E+03  0.10100000352E+00 0.  1.
       -3   -1    0    0    0  501  0.00000000000E+00  0.00000000000E+00 -0.11692405331E+04  0.11692405375E+04  0.10100000352E+00 0. -1.
    10030    2    1    2    0    0  0.00000000000E+00  0.00000000000E+00 -0.32106463890E+03  0.20174164377E+04  0.19917044411E+04 0.  0.
        3    1    3    3  502    0  0.53379794352E+03 -0.37495826252E+03 -0.92270060841E+03  0.11300045868E+04  0.10100000352E+00 0. -1.
       -3    1    3    3    0  502 -0.53379794352E+03  0.37495826252E+03  0.60163596950E+03  0.88741185091E+03  0.10100000352E+00 0.  1.
</event>
<event>
 5   0  0.8022574E-05  0.2002261E+04  0.7818609E-02  0.8605564E-01
        2   -1    0    0  501    0  0.00000000000E+00  0.00000000000E+00  0.13056199339E+04  0.13056199339E+04  0.25500000920E-02 0. -1.
       -2   -1    0    0    0  501  0.00000000000E+00  0.00000000000E+00 -0.76765239630E+03  0.76765239630E+03  0.25500000920E-02 0.  1.
    10030    2    1    2    0    0  0.00000000000E+00  0.00000000000E+00  0.53796753758E+03  0.20732723302E+04  0.20022609929E+04 0.  0.
        1    1    3    3  502    0 -0.66949871756E+03  0.39661364373E+03  0.92118847469E+03  0.12058686169E+04  0.50400001928E-02 0. -1.
       -1    1    3    3    0  502  0.66949871756E+03 -0.39661364373E+03 -0.38322093711E+03  0.86740371332E+03  0.50400001928E-02 0.  1.
</event>
<event>
 5   0  0.7935008E-05  0.1983711E+04  0.7818609E-02  0.8614274E-01
       -2   -1    0    0    0  501  0.00000000000E+00  0.00000000000E+00  0.52420609217E+03  0.52420609218E+03  0.25500000920E-02 0.  1.
        2   -1    0    0  501    0  0.00000000000E+00  0.00000000000E+00 -0.18766995942E+04  0.18766995942E+04  0.25500000920E-02 0. -1.
    10030    2    1    2    0    0  0.00000000000E+00  0.00000000000E+00 -0.13524935020E+04  0.24009056864E+04  0.19837110278E+04 0.  0.
        3    1    3    3  502    0  0.79682785423E+03  0.63596875399E+02 -0.13869350438E+04  0.16008023044E+04  0.10100000352E+00 0. -1.
       -3    1    3    3    0  502 -0.79682785423E+03 -0.63596875399E+02  0.34441541789E+02  0.80010338197E+03  0.10100000352E+00 0.  1.
</event>
<event>
 5   0  0.3787698E-05  0.1943005E+04  0.7818609E-02  0.8633741E-01
       -1   -1    0    0    0  501  0.00000000000E+00  0.00000000000E+00  0.86594518288E+03  0.86594518289E+03  0.50400001928E-02 0.  1.
        1   -1    0    0  501    0  0.00000000000E+00  0.00000000000E+00 -0.10899267755E+04  0.10899267755E+04  0.50400001928E-02 0. -1.
    10030    2    1    2    0    0  0.00000000000E+00  0.00000000000E+00 -0.22398159262E+03  0.19558719584E+04  0.19430047256E+04 0.  0.
        4    1    3    3  502    0 -0.19571578673E+03 -0.14573699457E+03 -0.10585751575E+04  0.10863364662E+04  0.12699999809E+01 0. -1.
       -4    1    3    3    0  502  0.19571578673E+03  0.14573699457E+03  0.83459356489E+03  0.86953549222E+03  0.12699999809E+01 0.  1.
</event>
<event>
 5   0  0.3787698E-05  0.2022433E+04  0.7818609E-02  0.8596204E-01
        1   -1    0    0  501    0  0.00000000000E+00  0.00000000000E+00  0.13534128546E+04  0.13534128546E+04  0.50400001928E-02 0. -1.
       -1   -1    0    0    0  501  0.00000000000E+00  0.00000000000E+00 -0.75554106706E+03  0.75554106708E+03  0.50400001928E-02 0.  1.
    10030    2    1    2    0    0  0.00000000000E+00  0.00000000000E+00  0.59787178750E+03  0.21089539217E+04  0.20224331804E+04 0.  0.
        4    1    3    3  502    0 -0.17895400210E+03 -0.98115267909E+03  0.47302798394E+03  0.11038306940E+04  0.12699999809E+01 0. -1.
       -4    1    3    3    0  502  0.17895400210E+03  0.98115267909E+03  0.12484380356E+03  0.10051232276E+04  0.12699999809E+01 0.  1.
</event>
<event>
 5   0  0.3818907E-05  0.2015692E+04  0.7818609E-02  0.8599319E-01
        1   -1    0    0  501    0  0.00000000000E+00  0.00000000000E+00  0.17229008916E+04  0.17229008916E+04  0.50400001928E-02 0.  1.
       -1   -1    0    0    0  501  0.00000000000E+00  0.00000000000E+00 -0.58956020598E+03  0.58956020600E+03  0.50400001928E-02 0. -1.
    10030    2    1    2    0    0  0.00000000000E+00  0.00000000000E+00  0.11333406856E+04  0.23124610976E+04  0.20156922429E+04 0.  0.
        1    1    3    3  502    0  0.73900153965E+03  0.32620480733E+03  0.12580803442E+04  0.14950916375E+04  0.50400001928E-02 0.  1.
       -1    1    3    3    0  502 -0.73900153965E+03 -0.32620480733E+03 -0.12473965857E+03  0.81736946014E+03  0.50400001928E-02 0. -1.
</event>
<event>
 5   0  0.8011197E-05  0.2009222E+04  0.7818609E-02  0.8602321E-01
        2   -1    0    0  501    0  0.00000000000E+00  0.00000000000E+00  0.18092384142E+04  0.18092384142E+04  0.25500000920E-02 0. -1.
       -2   -1    0    0    0  501  0.00000000000E+00  0.00000000000E+00 -0.55782788814E+03  0.55782788814E+03  0.25500000920E-02 0.  1.
    10030    2    1    2    0    0  0.00000000000E+00  0.00000000000E+00  0.12514105260E+04  0.23670663023E+04  0.20092223807E+04 0.  0.
        5    1    3    3  502    0  0.70216853781E+03 -0.38001804374E+03 -0.92614709661E+02  0.80377480895E+03  0.46999998093E+01 0.  1.
       -5    1    3    3    0  502 -0.70216853781E+03  0.38001804374E+03  0.13440252357E+04  0.15632914934E+04  0.46999998093E+01 0. -1.
</event>
<event>
 5   0  0.3818907E-05  0.2020428E+04  0.7818609E-02  0.8597129E-01
        1   -1    0    0  501    0  0.00000000000E+00  0.00000000000E+00  0.11896133853E+04  0.11896133853E+04  0.50400001928E-02 0.  1.
       -1   -1    0    0    0  501  0.00000000000E+00  0.00000000000E+00 -0.85786903247E+03  0.85786903249E+03  0.50400001928E-02 0. -1.
    10030    2    1    2    0    0  0.00000000000E+00  0.00000000000E+00  0.33174435282E+03  0.20474824178E+04  0.20204281565E+04 0.  0.
        1    1    3    3  502    0 -0.72989136554E+03  0.44349328636E+03  0.71263809970E+03  0.11123312284E+04  0.50400001928E-02 0.  1.
       -1    1    3    3    0  502  0.72989136554E+03 -0.44349328636E+03 -0.38089374688E+03  0.93515118937E+03  0.50400001928E-02 0. -1.
</event>
<event>
 5   0  0.2859625E-05  0.1998905E+04  0.7818609E-02  0.8607133E-01
        3   -1    0    0  501    0  0.00000000000E+00  0.00000000000E+00  0.12112277930E+04  0.12112277972E+04  0.10100000352E+00 0.  1.
       -3   -1    0    0    0  501  0.00000000000E+00  0.00000000000E+00 -0.82470447125E+03  0.82470447743E+03  0.10100000352E+00 0. -1.
    10030    2    1    2    0    0  0.00000000000E+00  0.00000000000E+00  0.38652332178E+03  0.20359322747E+04  0.19989046873E+04 0.  0.
        5    1    3    3  502    0  0.64755668591E+03  0.69465500076E+03 -0.12396835118E+03  0.95773977345E+03  0.46999998093E+01 0. -1.
       -5    1    3    3    0  502 -0.64755668591E+03 -0.69465500076E+03  0.51049167296E+03  0.10781925012E+04  0.46999998093E+01 0.  1.
</event>
<event>
 5   0  0.8011197E-05  0.1993737E+04  0.7818609E-02  0.8609554E-01
       -2   -1    0    0    0  501  0.00000000000E+00  0.00000000000E+00  0.93913566340E+03  0.93913566340E+03  0.25500000920E-02 0. -1.
        2   -1    0    0  501    0  0.00000000000E+00  0.00000000000E+00 -0.10581506892E+04  0.10581506892E+04  0.25500000920E-02 0.  1.
    10030    2    1    2    0    0  0.00000000000E+00  0.00000000000E+00 -0.11901502581E+03  0.19972863526E+04  0.19937372440E+04 0.  0.
        5    1    3    3  502    0 -0.91717015167E+03  0.91929738906E+02 -0.43975241852E+03  0.10213013481E+04  0.46999998093E+01 0.  1.
       -5    1    3    3    0  502  0.91717015167E+03 -0.91929738906E+02  0.32073739271E+03  0.97598500454E+03  0.46999998093E+01 0. -1.
</event>
<event>
 5   0  0.8022574E-05  0.1998553E+04  0.7818609E-02  0.8607297E-01
        2   -1    0    0  501    0  0.00000000000E+00  0.00000000000E+00  0.13522621302E+04  0.13522621302E+04  0.25500000920E-02 0. -1.
       -2   -1    0    0    0  501  0.00000000000E+00  0.00000000000E+00 -0.73843211614E+03  0.73843211615E+03  0.25500000920E-02 0.  1.
    10030    2    1    2    0    0  0.00000000000E+00  0.00000000000E+00  0.61383001409E+03  0.20906942464E+04  0.19985532632E+04 0.  0.
        1    1    3    3  502    0 -0.52851805698E+03 -0.84771758177E+03  0.33248259381E+03  0.10528537934E+04  0.50400001928E-02 0.  1.
       -1    1    3    3    0  502  0.52851805698E+03  0.84771758177E+03  0.28134742029E+03  0.10378404530E+04  0.50400001928E-02 0. -1.
</event>
<event>
 5   0  0.7857136E-05  0.1996718E+04  0.7818609E-02  0.8608156E-01
       -2   -1    0    0    0  501  0.00000000000E+00  0.00000000000E+00  0.62615821929E+03  0.62615821929E+03  0.25500000920E-02 0.  1.
        2   -1    0    0  501    0  0.00000000000E+00  0.00000000000E+00 -0.15918039845E+04  0.15918039845E+04  0.25500000920E-02 0. -1.
    10030    2    1    2    0    0  0.00000000000E+00  0.00000000000E+00 -0.96564576521E+03  0.22179622038E+04  0.19967184563E+04 0.  0.
        4    1    3    3  502    0 -0.87179312576E+03  0.41304858631E+03 -0.19726391069E+03  0.98465580389E+03  0.12699999809E+01 0.  1.
       -4    1    3    3    0  502  0.87179312576E+03 -0.41304858631E+03 -0.76838185452E+03  0.12333063999E+04  0.12699999809E+01 0. -1.
</event>
<event>
 5   0  0.8011197E-05  0.2005083E+04  0.7818609E-02  0.8604248E-01
        2   -1    0    0  501    0  0.00000000000E+00  0.00000000000E+00  0.10512964358E+04  0.10512964358E+04  0.25500000920E-02 0.  1.
       -2   -1    0    0    0  501  0.00000000000E+00  0.00000000000E+00 -0.95604782488E+03  0.95604782488E+03  0.25500000920E-02 0. -1.
    10030    2    1    2    0    0  0.00000000000E+00  0.00000000000E+00  0.95248610919E+02  0.20073442607E+04  0.20050832110E+04 0.  0.
        5    1    3    3  502    0  0.13166200439E+03  0.41266412748E+03  0.95276829610E+03  0.10466212694E+04  0.46999998093E+01 0.  1.
       -5    1    3    3    0  502 -0.13166200439E+03 -0.41266412748E+03 -0.85751968518E+03  0.96072299128E+03  0.46999998093E+01 0. -1.
</event>
<event>
 5   0  0.3787698E-05  0.1982113E+04  0.7818609E-02  0.8615029E-01
        1   -1    0    0  501    0  0.00000000000E+00  0.00000000000E+00  0.56324025126E+03  0.56324025128E+03  0.50400001928E-02 0. -1.
       -1   -1    0    0    0  501  0.00000000000E+00  0.00000000000E+00 -0.17438258962E+04  0.17438258962E+04  0.50400001928E-02 0.  1.
    10030    2    1    2    0    0  0.00000000000E+00  0.00000000000E+00 -0.11805856449E+04  0.23070661474E+04  0.19821129493E+04 0.  0.
        4    1    3    3  502    0 -0.36756066395E+03 -0.68846704915E+03 -0.13012547910E+04  0.15173507714E+04  0.12699999809E+01 0.  1.
       -4    1    3    3    0  502  0.36756066395E+03  0.68846704915E+03  0.12066914610E+03  0.78971537605E+03  0.12699999809E+01 0. -1.
</event>
<event>
 5   0  0.8022574E-05  0.1998403E+04  0.7818609E-02  0.8607368E-01
        2   -1    0    0  501    0  0.00000000000E+00  0.00000000000E+00  0.16764926911E+04  0.16764926911E+04  0.25500000920E-02 0.  1.
       -2   -1    0    0    0  501  0.00000000000E+00  0.00000000000E+00 -0.59553135079E+03  0.59553135080E+03  0.25500000920E-02 0. -1.
    10030    2    1    2    0    0  0.00000000000E+00  0.00000000000E+00  0.10809613403E+04  0.22720240419E+04  0.19984033196E+04 0.  0.
        1    1    3    3  502    0  0.51124919122E+03 -0.77548654043E+03  0.12174704837E+03  0.93679104059E+03  0.50400001928E-02 0. -1.
       -1    1    3    3    0  502 -0.51124919122E+03  0.77548654043E+03  0.95921429192E+03  0.13352330013E+04  0.50400001928E-02 0.  1.
</event>
<event>
 5   0  0.3787698E-05  0.1999380E+04  0.7818609E-02  0.8606911E-01
        1   -1    0    0  501    0  0.00000000000E+00  0.00000000000E+00  0.75142445613E+03  0.75142445614E+03  0.50400001928E-02 0. -1.
       -1   -1    0    0    0  501  0.00000000000E+00  0.00000000000E+00 -0.13299806876E+04  0.13299806876E+04  0.50400001928E-02 0.  1.
    10030    2    1    2    0    0  0.00000000000E+00  0.00000000000E+00 -0.57855623144E+03  0.20814051437E+04  0.19993799187E+04 0.  0.
        4    1    3    3  502    0  0.39242516774E+03  0.65271065741E+03  0.38486089507E+03  0.85331602354E+03  0.12699999809E+01 0. -1.
       -4    1    3    3    0  502 -0.39242516774E+03 -0.65271065741E+03 -0.96341712651E+03  0.12280891202E+04  0.12699999809E+01 0.  1.
</event>
<event>
 5   0  0.3772949E-05  0.2025322E+04  0.7818609E-02  0.8594873E-01
        1   -1    0    0  501    0  0.00000000000E+00  0.00000000000E+00  0.38056652250E+03  0.38056652254E+03  0.50400001928E-02 0. -1.
       -1   -1    0    0    0  501  0.00000000000E+00  0.00000000000E+00 -0.26946197014E+04  0.26946197014E+04  0.50400001928E-02 0.  1.
    10030    2    1    2    0    0  0.00000000000E+00  0.00000000000E+00 -0.23140531789E+04  0.30751862240E+04  0.20253217515E+04 0.  0.
        2    1    3    3  502    0  0.80152604365E+02 -0.35407191690E+03 -0.25924202031E+04  0.26177153916E+04  0.25500000920E-02 0.  1.
       -2    1    3    3    0  502 -0.80152604365E+02  0.35407191690E+03  0.27836702413E+03  0.45747083235E+03  0.25500000920E-02 0. -1.
</event>
<event>
 5   0  0.2859625E-05  0.1998354E+04  0.7818609E-02  0.8607390E-01
       -4   -1    0    0    0  501  0.00000000000E+00  0.00000000000E+00  0.13785607825E+04  0.13785613675E+04  0.12699999809E+01 0.  1.
        4   -1    0    0  501    0  0.00000000000E+00  0.00000000000E+00 -0.72419959043E+03  0.72420070401E+03  0.12699999809E+01 0. -1.
    10030    2    1    2    0    0  0.00000000000E+00  0.00000000000E+00  0.65436119203E+03  0.21027620715E+04  0.19983542628E+04 0.  0.
        5    1    3    3  502    0  0.10869240282E+01 -0.97777711202E+03  0.11080734607E+03  0.98404757006E+03  0.46999998093E+01 0. -1.
       -5    1    3    3    0  502 -0.10869240282E+01  0.97777711202E+03  0.54355384596E+03  0.11187145014E+04  0.46999998093E+01 0.  1.
</event>
<event>
 5   0  0.3818907E-05  0.2024881E+04  0.7818609E-02  0.8595076E-01
       -1   -1    0    0    0  501  0.00000000000E+00  0.00000000000E+00  0.11130150057E+04  0.11130150057E+04  0.50400001928E-02 0.  1.
        1   -1    0    0  501    0  0.00000000000E+00  0.00000000000E+00 -0.92095411540E+03  0.92095411541E+03  0.50400001928E-02 0. -1.
    10030    2    1    2    0    0  0.00000000000E+00  0.00000000000E+00  0.19206089027E+03  0.20339691211E+04  0.20248809842E+04 0.  0.
        1    1    3    3  502    0 -0.61411793002E+03  0.17763909279E+03 -0.69256592467E+03  0.94252004716E+03  0.50400001928E-02 0. -1.
       -1    1    3    3    0  502  0.61411793002E+03 -0.17763909279E+03  0.88462681493E+03  0.10914490739E+04  0.50400001928E-02 0.  1.
</event>
<event>
 5   0  0.3787698E-05  0.1986121E+04  0.7818609E-02  0.8613137E-01
        1   -1    0    0  501    0  0.00000000000E+00  0.00000000000E+00  0.16022174974E+04  0.16022174974E+04  0.50400001928E-02 0.  1.
       -1   -1    0    0    0  501  0.00000000000E+00  0.00000000000E+00 -0.61550240291E+03  0.61550240293E+03  0.50400001928E-02 0. -1.
    10030    2    1    2    0    0  0.00000000000E+00  0.00000000000E+00  0.98671509452E+03  0.22177199004E+04  0.19861205600E+04 0.  0.
        4    1    3    3  502    0  0.46947491040E+03 -0.63647262244E+03  0.11639395469E+04  0.14072174574E+04  0.12699999809E+01 0.  1.
       -4    1    3    3    0  502 -0.46947491040E+03  0.63647262244E+03 -0.17722445242E+03  0.81050244297E+03  0.12699999809E+01 0. -1.
</event>
<event>
 5   0  0.7857136E-05  0.2009502E+04  0.7818609E-02  0.8602191E-01
       -2   -1    0    0    0  501  0.00000000000E+00  0.00000000000E+00  0.76363272518E+03  0.76363272519E+03  0.25500000920E-02 0. -1.
        2   -1    0    0  501    0  0.00000000000E+00  0.00000000000E+00 -0.13220031934E+04  0.13220031934E+04  0.25500000920E-02 0.  1.
    10030    2    1    2    0    0  0.00000000000E+00  0.00000000000E+00 -0.55837046826E+03  0.20856359186E+04  0.20095023278E+04 0.  0.
        4    1    3    3  502    0 -0.38169867628E+03  0.91974686028E+03 -0.14034436774E+03  0.10056472149E+04  0.12699999809E+01 0. -1.
       -4    1    3    3    0  502  0.38169867628E+03 -0.91974686028E+03 -0.41802610052E+03  0.10799887037E+04  0.12699999809E+01 0.  1.
</event>
<event>
 5   0  0.7843846E-05  0.2004924E+04  0.7818609E-02  0.8604322E-01
        2   -1    0    0  501    0  0.00000000000E+00  0.00000000000E+00  0.85420381575E+03  0.85420381575E+03  0.25500000920E-02 0. -1.
       -2   -1    0    0    0  501  0.00000000000E+00  0.00000000000E+00 -0.11764522611E+04  0.11764522611E+04  0.25500000920E-02 0.  1.
    10030    2    1    2    0    0  0.00000000000E+00  0.00000000000E+00 -0.32224844538E+03  0.20306560769E+04  0.20049239492E+04 0.  0.
        2    1    3    3  502    0  0.54770483519E+03  0.11967659348E+03 -0.10028298452E+04  0.11488998094E+04  0.25500000920E-02 0.  1.
       -2    1    3    3    0  502 -0.54770483519E+03 -0.11967659348E+03  0.68058139983E+03  0.88175626752E+03  0.25500000920E-02 0. -1.
</event>
<event>
 5   0  0.3549426E-05  0.2110738E+04  0.7818609E-02  0.8556528E-01
        1   -1    0    0  501    0  0.00000000000E+00  0.00000000000E+00  0.11743538489E+04  0.11743538489E+04  0.50400001928E-02 0. -1.
       -1   -1    0    0    0  501  0.00000000000E+00  0.00000000000E+00 -0.94843924085E+03  0.94843924087E+03  0.50400001928E-02 0.  1.
    10030    2    1    2    0    0  0.00000000000E+00  0.00000000000E+00  0.22591460807E+03  0.21227930898E+04  0.21107375706E+04 0.  0.
        5    1    3    3  502    0  0.20143275255E+03  0.17798339910E+03  0.11393389726E+04  0.11706274509E+04  0.46999998093E+01 0. -1.
       -5    1    3    3    0  502 -0.20143275255E+03 -0.17798339910E+03 -0.91342436458E+03  0.95216563893E+03  0.46999998093E+01 0.  1.
</event>
<event>
 5   0  0.7843846E-05  0.1866001E+04  0.7818609E-02  0.8671968E-01
       -2   -1    0    0    0  501  0.00000000000E+00  0.00000000000E+00  0.72410557944E+03  0.72410557945E+03  0.25500000920E-02 0.  1.
        2   -1    0    0  501    0  0.00000000000E+00  0.00000000000E+00 -0.12021582499E+04  0.12021582499E+04  0.25500000920E-02 0. -1.
    10030    2    1    2    0    0  0.00000000000E+00  0.00000000000E+00 -0.47805267044E+03  0.19262638293E+04  0.18660005317E+04 0.  0.
        2    1    3    3  502    0 -0.21651888020E+03 -0.23464235554E+03 -0.11440098020E+04  0.11877271941E+04  0.25500000920E-02 0. -1.
       -2    1    3    3    0  502  0.21651888020E+03  0.23464235554E+03  0.66595713157E+03  0.73853663524E+03  0.25500000920E-02 0.  1.
</event>
<event>
 5   0  0.3549426E-05  0.2022914E+04  0.7818609E-02  0.8595982E-01
       -1   -1    0    0    0  501  0.00000000000E+00  0.00000000000E+00  0.63621057082E+03  0.63621057084E+03  0.50400001928E-02 0.  1.
        1   -1    0    0  501    0  0.00000000000E+00  0.00000000000E+00 -0.16080295982E+04  0.16080295982E+04  0.50400001928E-02 0. -1.
    10030    2    1    2    0    0  0.00000000000E+00  0.00000000000E+00 -0.97181902743E+03  0.22442401691E+04  0.20229141639E+04 0.  0.
        5    1    3    3  502    0 -0.43748614990E+03 -0.91693598676E+02 -0.14924939847E+04  0.15579994325E+04  0.46999998093E+01 0. -1.
       -5    1    3    3    0  502  0.43748614990E+03  0.91693598676E+02  0.52067495727E+03  0.68624073656E+03  0.46999998093E+01 0.  1.
</event>
<event>
 5   0  0.8022574E-05  0.1997572E+04  0.7818609E-02  0.8607757E-01
       -2   -1    0    0    0  501  0.00000000000E+00  0.00000000000E+00  0.53715886268E+03  0.53715886268E+03  0.25500000920E-02 0. -1.
        2   -1    0    0  501    0  0.00000000000E+00  0.00000000000E+00 -0.18571287085E+04  0.18571287085E+04  0.25500000920E-02 0.  1.
    10030    2    1    2    0    0  0.00000000000E+00  0.00000000000E+00 -0.13199698458E+04  0.23942875712E+04  0.19975716707E+04 0.  0.
        1    1    3    3  502    0 -0.88892177586E+03  0.45109869644E+03 -0.58512104067E+03  0.11558713552E+04  0.50400001928E-02 0.  1.
       -1    1    3    3    0  502  0.88892177586E+03 -0.45109869644E+03 -0.73484880515E+03  0.12384162160E+04  0.50400001928E-02 0. -1.
</event>
<event>
 5   0  0.7857136E-05  0.1972968E+04  0.7818609E-02  0.8619364E-01
        2   -1    0    0  501    0  0.00000000000E+00  0.00000000000E+00  0.11806033171E+04  0.11806033171E+04  0.25500000920E-02 0. -1.
       -2   -1    0    0    0  501  0.00000000000E+00  0.00000000000E+00 -0.82428267773E+03  0.82428267774E+03  0.25500000920E-02 0.  1.
    10030    2    1    2    0    0  0.00000000000E+00  0.00000000000E+00  0.35632063933E+03  0.20048859948E+04  0.19729681838E+04 0.  0.
        4    1    3    3  502    0 -0.76444857448E+03 -0.13948697150E+03 -0.43938058434E+03  0.89268983922E+03  0.12699999809E+01 0.  1.
       -4    1    3    3    0  502  0.76444857448E+03  0.13948697150E+03  0.79570122367E+03  0.11121961556E+04  0.12699999809E+01 0. -1.
</event>
<event>
 5   0  0.3970042E-05  0.2027032E+04  0.7818609E-02  0.8594086E-01
       -1   -1    0    0    0  501  0.00000000000E+00  0.00000000000E+00  0.83249854673E+03  0.83249854674E+03  0.50400001928E-02 0.  1.
        1   -1    0    0  501    0  0.00000000000E+00  0.00000000000E+00 -0.12338939265E+04  0.12338939265E+04  0.50400001928E-02 0. -1.
    10030    2    1    2    0    0  0.00000000000E+00  0.00000000000E+00 -0.40139537981E+03  0.20663924733E+04  0.20270322155E+04 0.  0.
        3    1    3    3  502    0  0.91320986032E+02  0.64676974785E+03  0.58931106193E+03  0.87973755583E+03  0.10100000352E+00 0.  1.
       -3    1    3    3    0  502 -0.91320986032E+02 -0.64676974785E+03 -0.99070644174E+03  0.11866549175E+04  0.10100000352E+00 0. -1.
</event>
<event>
 5   0  0.7857136E-05  0.1999846E+04  0.7818609E-02  0.8606693E-01
       -2   -1    0    0    0  501  0.00000000000E+00  0.00000000000E+00  0.92449153605E+03  0.92449153606E+03  0.25500000920E-02 0.  1.
        2   -1    0    0  501    0  0.00000000000E+00  0.00000000000E+00 -0.10815088539E+04  0.10815088539E+04  0.25500000920E-02 0. -1.
    10030    2    1    2    0    0  0.00000000000E+00  0.00000000000E+00 -0.15701731786E+03  0.20060003900E+04  0.19998457757E+04 0.  0.
        4    1    3    3  502    0  0.97715978311E+03 -0.20776356323E+03 -0.12150347815E+03  0.10063655638E+04  0.12699999809E+01 0. -1.
       -4    1    3    3    0  502 -0.97715978311E+03  0.20776356323E+03 -0.35513839712E+02  0.99963482615E+03  0.12699999809E+01 0.  1.
</event>
<event>
 5   0  0.8011197E-05  0.1996794E+04  0.7818609E-02  0.8608121E-01
        2   -1    0    0  501    0  0.00000000000E+00  0.00000000000E+00  0.20040191457E+04  0.20040191457E+04  0.25500000920E-02 0.  1.
       -2   -1    0    0    0  501  0.00000000000E+00  0.00000000000E+00 -0.49739859591E+03  0.49739859592E+03  0.25500000920E-02 0. -1.
    10030    2    1    2    0    0  0.00000000000E+00  0.00000000000E+00  0.15066205498E+04  0.25014177416E+04  0.19967937392E+04 0.  0.
        5    1    3    3  502    0  0.20870617871E+02  0.88462500617E+01 -0.49706232809E+03  0.49760113227E+03  0.46999998093E+01 0. -1.
       -5    1    3    3    0  502 -0.20870617871E+02 -0.88462500617E+01  0.20036828779E+04  0.20038166093E+04  0.46999998093E+01 0.  1.
</event>
<event>
 5   0  0.8022574E-05  0.1993998E+04  0.7818609E-02  0.8609432E-01
       -2   -1    0    0    0  501  0.00000000000E+00  0.00000000000E+00  0.76238951329E+03  0.76238951329E+03  0.25500000920E-02 0.  1.
        2   -1    0    0  501    0  0.00000000000E+00  0.00000000000E+00 -0.13038050289E+04  0.13038050289E+04  0.25500000920E-02 0. -1.
    10030    2    1    2    0    0  0.00000000000E+00  0.00000000000E+00 -0.54141551565E+03  0.20661945422E+04  0.19939982763E+04 0.  0.
        1    1    3    3  502    0 -0.74024348474E+03  0.89579212103E+02  0.41508770310E+03  0.85339478158E+03  0.50400001928E-02 0.  1.
       -1    1    3    3    0  502  0.74024348474E+03 -0.89579212103E+02 -0.95650321874E+03  0.12127997606E+04  0.50400001928E-02 0. -1.
</event>
<event>
 5   0  0.3787698E-05  0.1998997E+04  0.7818609E-02  0.8607090E-01
       -1   -1    0    0    0  501  0.00000000000E+00  0.00000000000E+00  0.82994574246E+03  0.82994574247E+03  0.50400001928E-02 0. -1.
        1   -1    0    0  501    0  0.00000000000E+00  0.00000000000E+00 -0.12036901483E+04  0.12036901484E+04  0.50400001928E-02 0.  1.
    10030    2    1    2    0    0  0.00000000000E+00  0.00000000000E+00 -0.37374440589E+03  0.20336358908E+04  0.19989972625E+04 0.  0.
        4    1    3    3  502    0  0.61759209414E+03 -0.77822556336E+02  0.60867540383E+03  0.87061111016E+03  0.12699999809E+01 0. -1.
       -4    1    3    3    0  502 -0.61759209414E+03  0.77822556336E+02 -0.98241980972E+03  0.11630247807E+04  0.12699999809E+01 0.  1.
</event>
<event>
 5   0  0.8022574E-05  0.2002782E+04  0.7818609E-02  0.8605321E-01
       -2   -1    0    0    0  501  0.00000000000E+00  0.00000000000E+00  0.62636256728E+03  0.62636256728E+03  0.25500000920E-02 0.  1.
        2   -1    0    0  501    0  0.00000000000E+00  0.00000000000E+00 -0.16009647694E+04  0.16009647694E+04  0.25500000920E-02 0. -1.
    10030    2    1    2    0    0  0.00000000000E+00  0.00000000000E+00 -0.97460220214E+03  0.22273273367E+04  0.20027824676E+04 0.  0.
        1    1    3    3  502    0 -0.27991563131E+03 -0.68029259106E+03 -0.12429133468E+04  0.14442937228E+04  0.50400001928E-02 0. -1.
       -1    1    3    3    0  502  0.27991563131E+03  0.68029259106E+03  0.26831114466E+03  0.78303361389E+03  0.50400001928E-02 0.  1.
</event>
<event>
 5   0  0.3772949E-05  0.1884786E+04  0.7818609E-02  0.8662466E-01
       -1   -1    0    0    0  501  0.00000000000E+00  0.00000000000E+00  0.11718251689E+04  0.11718251689E+04  0.50400001928E-02 0. -1.
        1   -1    0    0  501    0  0.00000000000E+00  0.00000000000E+00 -0.75788183833E+03  0.75788183835E+03  0.50400001928E-02 0.  1.
    10030    2    1    2    0    0  0.00000000000E+00  0.00000000000E+00  0.41394333055E+03  0.19297070072E+04  0.18847864741E+04 0.  0.
        2    1    3    3  502    0  0.65375966786E+03 -0.17419574194E+03  0.87862432621E+03  0.11089303704E+04  0.25500000920E-02 0. -1.
       -2    1    3    3    0  502 -0.65375966786E+03  0.17419574194E+03 -0.46468099565E+03  0.82077663683E+03  0.25500000920E-02 0.  1.
</event>
<event>
 5   0  0.7935008E-05  0.1989802E+04  0.7818609E-02  0.8611404E-01
       -2   -1    0    0    0  501  0.00000000000E+00  0.00000000000E+00  0.49424473424E+03  0.49424473425E+03  0.25500000920E-02 0.  1.
        2   -1    0    0  501    0  0.00000000000E+00  0.00000000000E+00 -0.20027072675E+04  0.20027072675E+04  0.25500000920E-02 0. -1.
    10030    2    1    2    0    0  0.00000000000E+00  0.00000000000E+00 -0.15084625332E+04  0.24969520017E+04  0.19898015189E+04 0.  0.
        3    1    3    3  502    0 -0.42295716629E+03 -0.45565291784E+03 -0.17289348372E+04  0.18373154404E+04  0.10100000352E+00 0. -1.
       -3    1    3    3    0  502  0.42295716629E+03  0.45565291784E+03  0.22047230396E+03  0.65963656134E+03  0.10100000352E+00 0.  1.
</event>
<event>
 5   0  0.3787698E-05  0.1996756E+04  0.7818609E-02  0.8608139E-01
        1   -1    0    0  501    0  0.00000000000E+00  0.00000000000E+00  0.12826164579E+04  0.12826164579E+04  0.50400001928E-02 0. -1.
       -1   -1    0    0    0  501  0.00000000000E+00  0.00000000000E+00 -0.77712944237E+03  0.77712944239E+03  0.50400001928E-02 0.  1.
    10030    2    1    2    0    0  0.00000000000E+00  0.00000000000E+00  0.50548701555E+03  0.20597459003E+04  0.19967563825E+04 0.  0.
        4    1    3    3  502    0  0.34216428342E+03 -0.37907574214E+03 -0.63221383029E+03  0.81269351864E+03  0.12699999809E+01 0.  1.
       -4    1    3    3    0  502 -0.34216428342E+03  0.37907574214E+03  0.11377008458E+04  0.12470523817E+04  0.12699999809E+01 0. -1.
</event>
<event>
 5   0  0.3787698E-05  0.1966137E+04  0.7818609E-02  0.8622618E-01
        1   -1    0    0  501    0  0.00000000000E+00  0.00000000000E+00  0.13095714424E+04  0.13095714424E+04  0.50400001928E-02 0.  1.
       -1   -1    0    0    0  501  0.00000000000E+00  0.00000000000E+00 -0.73796971393E+03  0.73796971394E+03  0.50400001928E-02 0. -1.
    10030    2    1    2    0    0  0.00000000000E+00  0.00000000000E+00  0.57160172843E+03  0.20475411563E+04  0.19661373937E+04 0.  0.
        4    1    3    3  502    0 -0.16611555059E+02 -0.36602841910E+03  0.12358033178E+04  0.12889779674E+04  0.12699999809E+01 0.  1.
       -4    1    3    3    0  502  0.16611555059E+02  0.36602841910E+03 -0.66420158935E+03  0.75856318889E+03  0.12699999809E+01 0. -1.
</event>
<event>
 5   0  0.8022574E-05  0.2023648E+04  0.7818609E-02  0.8595644E-01
       -2   -1    0    0    0  501  0.00000000000E+00  0.00000000000E+00  0.75190185868E+03  0.75190185869E+03  0.25500000920E-02 0. -1.
        2   -1    0    0  501    0  0.00000000000E+00  0.00000000000E+00 -0.13615979073E+04  0.13615979073E+04  0.25500000920E-02 0.  1.
    10030    2    1    2    0    0  0.00000000000E+00  0.00000000000E+00 -0.60969604861E+03  0.21134997660E+04  0.20236481881E+04 0.  0.
        1    1    3    3  502    0  0.88769101813E+03 -0.10953298940E+03  0.18922660538E+03  0.91422072151E+03  0.50400001928E-02 0.  1.
       -1    1    3    3    0  502 -0.88769101813E+03  0.10953298940E+03 -0.79892265399E+03  0.11992790445E+04  0.50400001928E-02 0. -1.
</event>
<event>
 5   0  0.7857136E-05  0.2008778E+04  0.7818609E-02  0.8602528E-01
       -2   -1    0    0    0  501  0.00000000000E+00  0.00000000000E+00  0.52510261801E+03  0.52510261801E+03  0.25500000920E-02 0.  1.
        2   -1    0    0  501    0  0.00000000000E+00  0.00000000000E+00 -0.19211423494E+04  0.19211423494E+04  0.25500000920E-02 0. -1.
    10030    2    1    2    0    0  0.00000000000E+00  0.00000000000E+00 -0.13960397314E+04  0.24462449674E+04  0.20087776156E+04 0.  0.
        4    1    3    3  502    0  0.34025736571E+03  0.38419130779E+03 -0.17494194429E+04  0.18231423521E+04  0.12699999809E+01 0. -1.
       -4    1    3    3    0  502 -0.34025736571E+03 -0.38419130779E+03  0.35337971146E+03  0.62310261537E+03  0.12699999809E+01 0.  1.
</event>
<event>
 5   0  0.3549426E-05  0.2001011E+04  0.7818609E-02  0.8606148E-01
       -1   -1    0    0    0  501  0.00000000000E+00  0.00000000000E+00  0.11844205955E+04  0.11844205955E+04  0.50400001928E-02 0.  1.
        1   -1    0    0  501    0  0.00000000000E+00  0.00000000000E+00 -0.84514882961E+03  0.84514882963E+03  0.50400001928E-02 0. -1.
    10030    2    1    2    0    0  0.00000000000E+00  0.00000000000E+00  0.33927176585E+03  0.20295694251E+04  0.20010114243E+04 0.  0.
        5    1    3    3  502    0 -0.76806248849E+03 -0.34441869427E+03  0.71813598946E+03  0.11064744066E+04  0.46999998093E+01 0. -1.
       -5    1    3    3    0  502  0.76806248849E+03  0.34441869427E+03 -0.37886422361E+03  0.92309501847E+03  0.46999998093E+01 0.  1.
</event>
<event>
 5   0  0.8022574E-05  0.2001930E+04  0.7818609E-02  0.8605719E-01
        2   -1    0    0  501    0  0.00000000000E+00  0.00000000000E+00  0.13348326888E+04  0.13348326888E+04  0.25500000920E-02 0. -1.
       -2   -1    0    0    0  501  0.00000000000E+00  0.00000000000E+00 -0.75060425249E+03  0.75060425249E+03  0.25500000920E-02 0.  1.
    10030    2    1    2    0    0  0.00000000000E+00  0.00000000000E+00  0.58422843628E+03  0.20854369413E+04  0.20019301612E+04 0.  0.
        1    1    3    3  502    0 -0.12966421889E+03 -0.57774938861E+03  0.11328250750E+04  0.12782409070E+04  0.50400001928E-02 0. -1.
       -1    1    3    3    0  502  0.12966421889E+03  0.57774938861E+03 -0.54859663873E+03  0.80719603428E+03  0.50400001928E-02 0.  1.
</event>
<event>
 5   0  0.7935008E-05  0.2003575E+04  0.7818609E-02  0.8604951E-01
       -2   -1    0    0    0  501  0.00000000000E+00  0.00000000000E+00  0.62037735382E+03  0.62037735382E+03  0.25500000920E-02 0.  1.
        2   -1    0    0  501    0  0.00000000000E+00  0.00000000000E+00 -0.16176902290E+04  0.16176902290E+04  0.25500000920E-02 0. -1.
    10030    2    1    2    0    0  0.00000000000E+00  0.00000000000E+00 -0.99731287522E+03  0.22380675829E+04  0.20035751881E+04 0.  0.
        3    1    3    3  502    0 -0.96668800472E+03 -0.24743976899E+03 -0.59772845991E+03  0.11631816108E+04  0.10100000352E+00 0.  1.
       -3    1    3    3    0  502  0.96668800472E+03  0.24743976899E+03 -0.39958441531E+03  0.10748859721E+04  0.10100000352E+00 0. -1.
</event>
<event>
 5   0  0.3818907E-05  0.2014020E+04  0.7818609E-02  0.8600094E-01
       -1   -1    0    0    0  501  0.00000000000E+00  0.00000000000E+00  0.10086162425E+04  0.10086162425E+04  0.50400001928E-02 0.  1.
        1   -1    0    0  501    0  0.00000000000E+00  0.00000000000E+00 -0.10054066490E+04  0.10054066490E+04  0.50400001928E-02 0. -1.
    10030    2    1    2    0    0  0.00000000000E+00  0.00000000000E+00  0.32095934316E+01  0.20140228915E+04  0.20140203341E+04 0.  0.
        1    1    3    3  502    0  0.92334526635E+03 -0.38738603703E+03 -0.10533015054E+03  0.10068410317E+04  0.50400001928E-02 0. -1.
       -1    1    3    3    0  502 -0.92334526635E+03  0.38738603703E+03  0.10853974397E+03  0.10071818598E+04  0.50400001928E-02 0.  1.
</event>
<event>
 5   0  0.3787698E-05  0.1995648E+04  0.7818609E-02  0.8608658E-01
       -1   -1    0    0    0  501  0.00000000000E+00  0.00000000000E+00  0.51815257143E+03  0.51815257146E+03  0.50400001928E-02 0.  1.
        1   -1    0    0  501    0  0.00000000000E+00  0.00000000000E+00 -0.19215443232E+04  0.19215443232E+04  0.50400001928E-02 0. -1.
    10030    2    1    2    0    0  0.00000000000E+00  0.00000000000E+00 -0.14033917517E+04  0.24396968946E+04  0.19956483981E+04 0.  0.
        4    1    3    3  502    0  0.95481605488E+03 -0.27016599315E+03 -0.82984459504E+03  0.12935636928E+04  0.12699999809E+01 0.  1.
       -4    1    3    3    0  502 -0.95481605488E+03  0.27016599315E+03 -0.57354715671E+03  0.11461332018E+04  0.12699999809E+01 0. -1.
</event>
<event>
 5   0  0.3970042E-05  0.1993180E+04  0.7818609E-02  0.8609816E-01
        1   -1    0    0  501    0  0.00000000000E+00  0.00000000000E+00  0.67130694517E+03  0.67130694519E+03  0.50400001928E-02 0. -1.
       -1   -1    0    0    0  501  0.00000000000E+00  0.00000000000E+00 -0.14794902261E+04  0.14794902261E+04  0.50400001928E-02 0.  1.
    10030    2    1    2    0    0  0.00000000000E+00  0.00000000000E+00 -0.80818328090E+03  0.21507971713E+04  0.19931804375E+04 0.  0.
        3    1    3    3  502    0  0.53268705003E+03  0.59766986156E+03 -0.10445108433E+04  0.13160424266E+04  0.10100000352E+00 0.  1.
       -3    1    3    3    0  502 -0.53268705003E+03 -0.59766986156E+03  0.23632756244E+03  0.83475474462E+03  0.10100000352E+00 0. -1.
</event>
<event>
 5   0  0.3549426E-05  0.1996700E+04  0.7818609E-02  0.8608165E-01
        1   -1    0    0  501    0  0.00000000000E+00  0.00000000000E+00  0.69498341543E+03  0.69498341545E+03  0.50400001928E-02 0. -1.
       -1   -1    0    0    0  501  0.00000000000E+00  0.00000000000E+00 -0.14341382184E+04  0.14341382184E+04  0.50400001928E-02 0.  1.
    10030    2    1    2    0    0  0.00000000000E+00  0.00000000000E+00 -0.73915480293E+03  0.21291216338E+04  0.19966995540E+04 0.  0.
        5    1    3    3  502    0  0.79176409021E+03  0.60807900103E+03 -0.37539263240E+03  0.10665796569E+04  0.46999998093E+01 0. -1.
       -5    1    3    3    0  502 -0.79176409021E+03 -0.60807900103E+03 -0.36376217053E+03  0.10625419769E+04  0.46999998093E+01 0.  1.
</event>
<event>
 5   0  0.3970042E-05  0.2052361E+04  0.7818609E-02  0.8582524E-01
       -1   -1    0    0    0  501  0.00000000000E+00  0.00000000000E+00  0.12535337871E+04  0.12535337871E+04  0.50400001928E-02 0. -1.
        1   -1    0    0  501    0  0.00000000000E+00  0.00000000000E+00 -0.84006265560E+03  0.84006265562E+03  0.50400001928E-02 0.  1.
    10030    2    1    2    0    0  0.00000000000E+00  0.00000000000E+00  0.41347113148E+03  0.20935964427E+04  0.20523614907E+04 0.  0.
        3    1    3    3  502    0 -0.25649863578E+03  0.89398725846E+03 -0.23561512623E+03  0.95943695278E+03  0.10100000352E+00 0.  1.
       -3    1    3    3    0  502  0.25649863578E+03 -0.89398725846E+03  0.64908625771E+03  0.11341594899E+04  0.10100000352E+00 0. -1.
</event>
<event>
 5   0  0.7857136E-05  0.1857843E+04  0.7818609E-02  0.8676130E-01
        2   -1    0    0  501    0  0.00000000000E+00  0.00000000000E+00  0.18011289061E+04  0.18011289061E+04  0.25500000920E-02 0.  1.
       -2   -1    0    0    0  501  0.00000000000E+00  0.00000000000E+00 -0.47908589352E+03  0.47908589353E+03  0.25500000920E-02 0. -1.
    10030    2    1    2    0    0  0.00000000000E+00  0.00000000000E+00  0.13220430125E+04  0.22802147996E+04  0.18578433210E+04 0.  0.
        4    1    3    3  502    0 -0.93803901216E+02 -0.63444963754E+03 -0.16374005032E+03  0.66191988295E+03  0.12699999809E+01 0. -1.
       -4    1    3    3    0  502  0.93803901216E+02  0.63444963754E+03  0.14857830629E+04  0.16182949167E+04  0.12699999809E+01 0.  1.
</event>
<event>
 5   0  0.8022574E-05  0.1994515E+04  0.7818609E-02  0.8609189E-01
       -2   -1    0    0    0  501  0.00000000000E+00  0.00000000000E+00  0.66632225869E+03  0.66632225870E+03  0.25500000920E-02 0.  1.
        2   -1    0    0  501    0  0.00000000000E+00  0.00000000000E+00 -0.14925552794E+04  0.14925552794E+04  0.25500000920E-02 0. -1.
    10030    2    1    2    0    0  0.00000000000E+00  0.00000000000E+00 -0.82623302074E+03  0.21588775381E+04  0.19945152845E+04 0.  0.
        1    1    3    3  502    0  0.31311870932E+03  0.19382661344E+03  0.59003065732E+03  0.69552013544E+03  0.50400001928E-02 0.  1.
       -1    1    3    3    0  502 -0.31311870932E+03 -0.19382661344E+03 -0.14162636781E+04  0.14633574027E+04  0.50400001928E-02 0. -1.
</event>
<event>
 5   0  0.3772949E-05  0.2009902E+04  0.7818609E-02  0.8602005E-01
        1   -1    0    0  501    0  0.00000000000E+00  0.00000000000E+00  0.10341755275E+04  0.10341755275E+04  0.50400001928E-02 0. -1.
       -1   -1    0    0    0  501  0.00000000000E+00  0.00000000000E+00 -0.97655192893E+03  0.97655192894E+03  0.50400001928E-02 0.  1.
    10030    2    1    2    0    0  0.00000000000E+00  0.00000000000E+00  0.57623598610E+02  0.20107274565E+04  0.20099015959E+04 0.  0.
        2    1    3    3  502    0 -0.53131015310E+02  0.64817148095E+03  0.79527080335E+03  0.10273289756E+04  0.25500000920E-02 0. -1.
       -2    1    3    3    0  502  0.53131015310E+02 -0.64817148095E+03 -0.73764720474E+03  0.98339848086E+03  0.25500000920E-02 0.  1.
</event>
<event>
 5   0  0.8011197E-05  0.2004892E+04  0.7818609E-02  0.8604337E-01
       -2   -1    0    0    0  501  0.00000000000E+00  0.00000000000E+00  0.41832504138E+03  0.41832504139E+03  0.25500000920E-02 0. -1.
        2   -1    0    0  501    0  0.00000000000E+00  0.00000000000E+00 -0.24021933965E+04  0.24021933965E+04  0.25500000920E-02 0.  1.
    10030    2    1    2    0    0  0.00000000000E+00  0.00000000000E+00 -0.19838683551E+04  0.28205184379E+04  0.20048916699E+04 0.  0.
        5    1    3    3  502    0  0.39803543011E+03  0.89756852852E+03 -0.12761466398E+04  0.16101657689E+04  0.46999998093E+01 0.  1.
       -5    1    3    3    0  502 -0.39803543011E+03 -0.89756852852E+03 -0.70772171531E+03  0.12103526690E+04  0.46999998093E+01 0. -1.
</event>
<event>
 5   0  0.3772949E-05  0.2067457E+04  0.7818609E-02  0.8575716E-01
       -1   -1    0    0    0  501  0.00000000000E+00  0.00000000000E+00  0.16233579620E+04  0.16233579620E+04  0.50400001928E-02 0. -1.
        1   -1    0    0  501    0  0.00000000000E+00  0.00000000000E+00 -0.65826160310E+03  0.65826160312E+03  0.50400001928E-02 0.  1.
    10030    2    1    2    0    0  0.00000000000E+00  0.00000000000E+00  0.96509635891E+03  0.22816195651E+04  0.20674566158E+04 0.  0.
        2    1    3    3  502    0 -0.14645677852E+03 -0.16667834519E+03 -0.63167259333E+03  0.66950841959E+03  0.25500000920E-02 0.  1.
       -2    1    3    3    0  502  0.14645677852E+03  0.16667834519E+03  0.15967689522E+04  0.16121111455E+04  0.25500000920E-02 0. -1.
</event>
<event>
 5   0  0.7843846E-05  0.2009849E+04  0.7818609E-02  0.8602030E-01
       -2   -1    0    0    0  501  0.00000000000E+00  0.00000000000E+00  0.72086491709E+03  0.72086491709E+03  0.25500000920E-02 0. -1.
        2   -1    0    0  501    0  0.00000000000E+00  0.00000000000E+00 -0.14009190304E+04  0.14009190304E+04  0.25500000920E-02 0.  1.
    10030    2    1    2    0    0  0.00000000000E+00  0.00000000000E+00 -0.68005411336E+03  0.21217839475E+04  0.20098491294E+04 0.  0.
        2    1    3    3  502    0 -0.45280346276E+03  0.52907181625E+03 -0.11048950763E+04  0.13060402338E+04  0.25500000920E-02 0.  1.
       -2    1    3    3    0  502  0.45280346276E+03 -0.52907181625E+03  0.42484096298E+03  0.81574371372E+03  0.25500000920E-02 0. -1.
</event>
<event>
 5   0  0.7935008E-05  0.1982396E+04  0.7818609E-02  0.8614895E-01
        2   -1    0    0  501    0  0.00000000000E+00  0.00000000000E+00  0.23638971768E+04  0.23638971768E+04  0.25500000920E-02 0. -1.
       -2   -1    0    0    0  501  0.00000000000E+00  0.00000000000E+00 -0.41561610062E+03  0.41561610062E+03  0.25500000920E-02 0.  1.
    10030    2    1    2    0    0  0.00000000000E+00  0.00000000000E+00  0.19482810761E+04  0.27795132774E+04  0.19823962539E+04 0.  0.
        3    1    3    3  502    0  0.12014109936E+03 -0.19535471233E+03 -0.37790366427E+03  0.44205037841E+03  0.10100000352E+00 0.  1.
       -3    1    3    3    0  502 -0.12014109936E+03  0.19535471233E+03  0.23261847404E+04  0.23374628990E+04  0.10100000352E+00 0. -1.
</event>
<event>
 5   0  0.2859625E-05  0.2008512E+04  0.7818609E-02  0.8602651E-01
       -3   -1    0    0    0  501  0.00000000000E+00  0.00000000000E+00  0.82909111080E+03  0.82909111696E+03  0.10100000352E+00 0. -1.
        3   -1    0    0  501    0  0.00000000000E+00  0.00000000000E+00 -0.12164288833E+04  0.12164288875E+04  0.10100000352E+00 0.  1.
    10030    2    1    2    0    0  0.00000000000E+00  0.00000000000E+00 -0.38733777254E+03  0.20455200045E+04  0.20085122700E+04 0.  0.
        3    1    3    3  502    0 -0.64106922858E+03 -0.26990772455E+03  0.54404692914E+03  0.88306681905E+03  0.10100000352E+00 0. -1.
       -3    1    3    3    0  502  0.64106922858E+03  0.26990772455E+03 -0.93138470168E+03  0.11624531854E+04  0.10100000352E+00 0.  1.
</event>
<event>
 5   0  0.8022574E-05  0.1996286E+04  0.7818609E-02  0.8608359E-01
        2   -1    0    0  501    0  0.00000000000E+00  0.00000000000E+00  0.19309499809E+04  0.19309499809E+04  0.25500000920E-02 0. -1.
       -2   -1    0    0    0  501  0.00000000000E+00  0.00000000000E+00 -0.51595830473E+03  0.51595830473E+03  0.25500000920E-02 0.  1.
    10030    2    1    2    0    0  0.00000000000E+00  0.00000000000E+00  0.14149916762E+04  0.24469082856E+04  0.19962862306E+04 0.  0.
        1    1    3    3  502    0  0.15702326033E+02  0.21581992825E+03 -0.48686163573E+03  0.53278424981E+03  0.50400001928E-02 0.  1.
       -1    1    3    3    0  502 -0.15702326033E+02 -0.21581992825E+03  0.19018533119E+04  0.19141240358E+04  0.50400001928E-02 0. -1.
</event>
<event>
 5   0  0.7857136E-05  0.2006055E+04  0.7818609E-02  0.8603795E-01
        2   -1    0    0  501    0  0.00000000000E+00  0.00000000000E+00  0.10326190458E+04  0.10326190458E+04  0.25500000920E-02 0. -1.
       -2   -1    0    0    0  501  0.00000000000E+00  0.00000000000E+00 -0.97428347393E+03  0.97428347393E+03  0.25500000920E-02 0.  1.
    10030    2    1    2    0    0  0.00000000000E+00  0.00000000000E+00  0.58335571827E+02  0.20069025197E+04  0.20060545069E+04 0.  0.
        4    1    3    3  502    0 -0.43415067301E+03 -0.30871123438E+03  0.87939328663E+03  0.10281651611E+04  0.12699999809E+01 0. -1.
       -4    1    3    3    0  502  0.43415067301E+03  0.30871123438E+03 -0.82105771480E+03  0.97873735856E+03  0.12699999809E+01 0.  1.
</event>
<event>
 5   0  0.3549426E-05  0.2026548E+04  0.7818609E-02  0.8594308E-01
        1   -1    0    0  501    0  0.00000000000E+00  0.00000000000E+00  0.15957415141E+04  0.15957415141E+04  0.50400001928E-02 0. -1.
       -1   -1    0    0    0  501  0.00000000000E+00  0.00000000000E+00 -0.64341497021E+03  0.64341497022E+03  0.50400001928E-02 0.  1.
    10030    2    1    2    0    0  0.00000000000E+00  0.00000000000E+00  0.95232654387E+03  0.22391564843E+04  0.20265477826E+04 0.  0.
        5    1    3    3  502    0  0.97694588019E+03  0.22987377163E+03  0.32212143242E+03  0.10540633335E+04  0.46999998093E+01 0. -1.
       -5    1    3    3    0  502 -0.97694588019E+03 -0.22987377163E+03  0.63020511145E+03  0.11850931509E+04  0.46999998093E+01 0.  1.
</event>
<event>
 5   0  0.3787698E-05  0.2004966E+04  0.7818609E-02  0.8604303E-01
        1   -1    0    0  501    0  0.00000000000E+00  0.00000000000E+00  0.13871933555E+04  0.13871933555E+04  0.50400001928E-02 0.  1.
       -1   -1    0    0    0  501  0.00000000000E+00  0.00000000000E+00 -0.72446411650E+03  0.72446411652E+03  0.50400001928E-02 0. -1.
    10030    2    1    2    0    0  0.00000000000E+00  0.00000000000E+00  0.66272923904E+03  0.21116574721E+04  0.20049656444E+04 0.  0.
        4    1    3    3  502    0 -0.45290357467E+03 -0.13721865184E+03 -0.59941636387E+03  0.76370949748E+03  0.12699999809E+01 0. -1.
       -4    1    3    3    0  502  0.45290357467E+03  0.13721865184E+03  0.12621456029E+04  0.13479479746E+04  0.12699999809E+01 0.  1.
</event>
<event>
 5   0  0.3549426E-05  0.1997460E+04  0.7818609E-02  0.8607809E-01
       -1   -1    0    0    0  501  0.00000000000E+00  0.00000000000E+00  0.71429967847E+03  0.71429967849E+03  0.50400001928E-02 0. -1.
        1   -1    0    0  501    0  0.00000000000E+00  0.00000000000E+00 -0.13964186390E+04  0.13964186390E+04  0.50400001928E-02 0.  1.
    10030    2    1    2    0    0  0.00000000000E+00  0.00000000000E+00 -0.68211896056E+03  0.21107183175E+04  0.19974597717E+04 0.  0.
        5    1    3    3  502    0  0.83325704888E+03  0.41921940607E+03  0.36076418059E+02  0.93348048607E+03  0.46999998093E+01 0.  1.
       -5    1    3    3    0  502 -0.83325704888E+03 -0.41921940607E+03 -0.71819537862E+03  0.11772378315E+04  0.46999998093E+01 0. -1.
</event>
<event>
 5   0  0.7935008E-05  0.2001059E+04  0.7818609E-02  0.8606126E-01
       -2   -1    0    0    0  501  0.00000000000E+00  0.00000000000E+00  0.65831006746E+03  0.65831006746E+03  0.25500000920E-02 0. -1.
        2   -1    0    0  501    0  0.00000000000E+00  0.00000000000E+00 -0.15206494445E+04  0.15206494445E+04  0.25500000920E-02 0.  1.
    10030    2    1    2    0    0  0.00000000000E+00  0.00000000000E+00 -0.86233937699E+03  0.21789595119E+04  0.20010585582E+04 0.  0.
        3    1    3    3  502    0  0.21035278063E+03 -0.10225844140E+03 -0.14904627209E+04  0.15087028249E+04  0.10100000352E+00 0.  1.
       -3    1    3    3    0  502 -0.21035278063E+03  0.10225844140E+03  0.62812334392E+03  0.67025668705E+03  0.10100000352E+00 0. -1.
</event>
<event>
 5   0  0.7843846E-05  0.2066817E+04  0.7818609E-02  0.8576003E-01
       -2   -1    0    0    0  501  0.00000000000E+00  0.00000000000E+00  0.71146761735E+03  0.71146761735E+03  0.25500000920E-02 0. -1.
        2   -1    0    0  501    0  0.00000000000E+00  0.00000000000E+00 -0.15010291651E+04  0.15010291651E+04  0.25500000920E-02 0.  1.
    10030    2    1    2    0    0  0.00000000000E+00  0.00000000000E+00 -0.78956154778E+03  0.22124967825E+04  0.20668174991E+04 0.  0.
        2    1    3    3  502    0  0.47475650764E+02 -0.18455100345E+03  0.69249704383E+03  0.71823754149E+03  0.25500000920E-02 0. -1.
       -2    1    3    3    0  502 -0.47475650764E+02  0.18455100345E+03 -0.14820585916E+04  0.14942592410E+04  0.25500000920E-02 0.  1.
</event>
<event>
 5   0  0.8011197E-05  0.1970828E+04  0.7818609E-02  0.8620382E-01
        2   -1    0    0  501    0  0.00000000000E+00  0.00000000000E+00  0.14178741889E+04  0.14178741889E+04  0.25500000920E-02 0. -1.
       -2   -1    0    0    0  501  0.00000000000E+00  0.00000000000E+00 -0.68485656087E+03  0.68485656088E+03  0.25500000920E-02 0.  1.
    10030    2    1    2    0    0  0.00000000000E+00  0.00000000000E+00  0.73301762803E+03  0.21027307498E+04  0.19708276848E+04 0.  0.
        5    1    3    3  502    0  0.41051113372E+03 -0.52292860490E+03  0.11425435630E+04  0.13218931878E+04  0.46999998093E+01 0. -1.
       -5    1    3    3    0  502 -0.41051113372E+03  0.52292860490E+03 -0.40952593497E+03  0.78083756194E+03  0.46999998093E+01 0.  1.
</event>
<event>
 5   0  0.3787698E-05  0.1983714E+04  0.7818609E-02  0.8614273E-01
        1   -1    0    0  501    0  0.00000000000E+00  0.00000000000E+00  0.12252987104E+04  0.12252987105E+04  0.50400001928E-02 0. -1.
       -1   -1    0    0    0  501  0.00000000000E+00  0.00000000000E+00 -0.80289058747E+03  0.80289058749E+03  0.50400001928E-02 0.  1.
    10030    2    1    2    0    0  0.00000000000E+00  0.00000000000E+00  0.42240812298E+03  0.20281892979E+04  0.19837144971E+04 0.  0.
        4    1    3    3  502    0 -0.90386459799E+03  0.36931029909E+01  0.62876510253E+03  0.11010594977E+04  0.12699999809E+01 0. -1.
       -4    1    3    3    0  502  0.90386459799E+03 -0.36931029909E+01 -0.20635697956E+03  0.92712980020E+03  0.12699999809E+01 0.  1.
</event>
<event>
 5   0  0.3818907E-05  0.1998699E+04  0.7818609E-02  0.8607229E-01
       -1   -1    0    0    0  501  0.00000000000E+00  0.00000000000E+00  0.57432196420E+03  0.57432196423E+03  0.50400001928E-02 0.  1.
        1   -1    0    0  501    0  0.00000000000E+00  0.00000000000E+00 -0.17389184744E+04  0.17389184744E+04  0.50400001928E-02 0. -1.
    10030    2    1    2    0    0  0.00000000000E+00  0.00000000000E+00 -0.11645965102E+04  0.23132404387E+04  0.19986986505E+04 0.  0.
        1    1    3    3  502    0  0.70586442189E+03 -0.23413281824E+02 -0.14006080807E+04  0.15685967485E+04  0.50400001928E-02 0. -1.
       -1    1    3    3    0  502 -0.70586442189E+03  0.23413281824E+02  0.23601157043E+03  0.74464369014E+03  0.50400001928E-02 0.  1.
</event>
<event>
 5   0  0.7843846E-05  0.2016495E+04  0.7818609E-02  0.8598947E-01
        2   -1    0    0  501    0  0.00000000000E+00  0.00000000000E+00  0.84737083759E+03  0.84737083759E+03  0.25500000920E-02 0. -1.
       -2   -1    0    0    0  501  0.00000000000E+00  0.00000000000E+00 -0.11996668591E+04  0.11996668591E+04  0.25500000920E-02 0.  1.
    10030    2    1    2    0    0  0.00000000000E+00  0.00000000000E+00 -0.35229602153E+03  0.20470376967E+04  0.20164946925E+04 0.  0.
        2    1    3    3  502    0  0.33679431213E+02 -0.60618261719E+03  0.64101096576E+03  0.88288545560E+03  0.25500000920E-02 0. -1.
       -2    1    3    3    0  502 -0.33679431213E+02  0.60618261719E+03 -0.99330698729E+03  0.11641522411E+04  0.25500000920E-02 0.  1.
</event>
<event>
 5   0  0.2859625E-05  0.1981098E+04  0.7818609E-02  0.8615509E-01
       -3   -1    0    0    0  501  0.00000000000E+00  0.00000000000E+00  0.74875143157E+03  0.74875143838E+03  0.10100000352E+00 0.  1.
        3   -1    0    0  501    0  0.00000000000E+00  0.00000000000E+00 -0.13104312972E+04  0.13104313011E+04  0.10100000352E+00 0. -1.
    10030    2    1    2    0    0  0.00000000000E+00  0.00000000000E+00 -0.56167986562E+03  0.20591827395E+04  0.19810979994E+04 0.  0.
        4    1    3    3  502    0  0.15371450419E+03 -0.95460969929E+02  0.73142676894E+03  0.75347705791E+03  0.12699999809E+01 0.  1.
       -4    1    3    3    0  502 -0.15371450419E+03  0.95460969929E+02 -0.12931066346E+04  0.13057056815E+04  0.12699999809E+01 0. -1.
</event>
<event>
 5   0  0.3787698E-05  0.1997866E+04  0.7818609E-02  0.8607619E-01
       -1   -1    0    0    0  501  0.00000000000E+00  0.00000000000E+00  0.52372933540E+03  0.52372933543E+03  0.50400001928E-02 0. -1.
        1   -1    0    0  501    0  0.00000000000E+00  0.00000000000E+00 -0.19053106532E+04  0.19053106532E+04  0.50400001928E-02 0.  1.
    10030    2    1    2    0    0  0.00000000000E+00  0.00000000000E+00 -0.13815813178E+04  0.24290399887E+04  0.19978659436E+04 0.  0.
        4    1    3    3  502    0 -0.40299326088E+03  0.19943471300E+03 -0.17753158447E+04  0.18313726367E+04  0.12699999809E+01 0.  1.
       -4    1    3    3    0  502  0.40299326088E+03 -0.19943471300E+03  0.39373452687E+03  0.59766735197E+03  0.12699999809E+01 0. -1.
</event>
<event>
 5   0  0.7857136E-05  0.2000983E+04  0.7818609E-02  0.8606161E-01
        2   -1    0    0  501    0  0.00000000000E+00  0.00000000000E+00  0.16748114866E+04  0.16748114866E+04  0.25500000920E-02 0. -1.
       -2   -1    0    0    0  501  0.00000000000E+00  0.00000000000E+00 -0.59766915905E+03  0.59766915905E+03  0.25500000920E-02 0.  1.
    10030    2    1    2    0    0  0.00000000000E+00  0.00000000000E+00  0.10771423276E+04  0.22724806457E+04  0.20009829312E+04 0.  0.
        4    1    3    3  502    0 -0.25051989614E+03  0.75212559201E+03 -0.15459367259E+03  0.80768430777E+03  0.12699999809E+01 0.  1.
       -4    1    3    3    0  502  0.25051989614E+03 -0.75212559201E+03  0.12317360001E+04  0.14647963379E+04  0.12699999809E+01 0. -1.
</event>
<event>
 5   0  0.3549426E-05  0.1996190E+04  0.7818609E-02  0.8608404E-01
       -1   -1    0    0    0  501  0.00000000000E+00  0.00000000000E+00  0.11941333116E+04  0.11941333116E+04  0.50400001928E-02 0.  1.
        1   -1    0    0  501    0  0.00000000000E+00  0.00000000000E+00 -0.83423952500E+03  0.83423952501E+03  0.50400001928E-02 0. -1.
    10030    2    1    2    0    0  0.00000000000E+00  0.00000000000E+00  0.35989378657E+03  0.20283728366E+04  0.19961895768E+04 0.  0.
        5    1    3    3  502    0  0.15887010236E+03  0.48393526595E+03  0.10521197308E+04  0.11689358704E+04  0.46999998093E+01 0.  1.
       -5    1    3    3    0  502 -0.15887010236E+03 -0.48393526595E+03 -0.69222594424E+03  0.85943696623E+03  0.46999998093E+01 0. -1.
</event>
<event>
 5   0  0.7935008E-05  0.2018343E+04  0.7818609E-02  0.8598092E-01
       -2   -1    0    0    0  501  0.00000000000E+00  0.00000000000E+00  0.56086281256E+03  0.56086281257E+03  0.25500000920E-02 0. -1.
        2   -1    0    0  501    0  0.00000000000E+00  0.00000000000E+00 -0.18158222187E+04  0.18158222187E+04  0.25500000920E-02 0.  1.
    10030    2    1    2    0    0  0.00000000000E+00  0.00000000000E+00 -0.12549594062E+04  0.23766850313E+04  0.20183430399E+04 0.  0.
        3    1    3    3  502    0 -0.80042687756E+03  0.28353285006E+03 -0.12695947877E+04  0.15273981140E+04  0.10100000352E+00 0.  1.
       -3    1    3    3    0  502  0.80042687756E+03 -0.28353285006E+03  0.14635381524E+02  0.84928691735E+03  0.10100000352E+00 0. -1.
</event>
<event>
 5   0  0.8022574E-05  0.2002930E+04  0.7818609E-02  0.8605252E-01
        2   -1    0    0  501    0  0.00000000000E+00  0.00000000000E+00  0.15999689741E+04  0.15999689741E+04  0.25500000920E-02 0. -1.
       -2   -1    0    0    0  501  0.00000000000E+00  0.00000000000E+00 -0.62684453591E+03  0.62684453591E+03  0.25500000920E-02 0.  1.
    10030    2    1    2    0    0  0.00000000000E+00  0.00000000000E+00  0.97312443819E+03  0.22268135100E+04  0.20029296633E+04 0.  0.
        1    1    3    3  502    0  0.56479608974E+02  0.92506704365E+03  0.90844187095E+03  0.12977694766E+04  0.50400001928E-02 0. -1.
       -1    1    3    3    0  502 -0.56479608974E+02 -0.92506704365E+03  0.64682567235E+02  0.92904403341E+03  0.50400001928E-02 0.  1.
</event>
<event>
 5   0  0.3970042E-05  0.1992929E+04  0.7818609E-02  0.8609934E-01
        1   -1    0    0  501    0  0.00000000000E+00  0.00000000000E+00  0.13528764555E+04  0.13528764555E+04  0.50400001928E-02 0. -1.
       -1   -1    0    0    0  501  0.00000000000E+00  0.00000000000E+00 -0.73394857775E+03  0.73394857777E+03  0.50400001928E-02 0.  1.
    10030    2    1    2    0    0  0.00000000000E+00  0.00000000000E+00  0.61892787775E+03  0.20868250333E+04  0.19929292515E+04 0.  0.
        3    1    3    3  502    0  0.94390088127E+03  0.27282149091E+03  0.48330165612E+03  0.10949707487E+04  0.10100000352E+00 0. -1.
       -3    1    3    3    0  502 -0.94390088127E+03 -0.27282149091E+03  0.13562622163E+03  0.99185428454E+03  0.10100000352E+00 0.  1.
</event>
<event>
 5   0  0.3772949E-05  0.2013037E+04  0.7818609E-02  0.8600550E-01
       -1   -1    0    0    0  501  0.00000000000E+00  0.00000000000E+00  0.85703389222E+03  0.85703389224E+03  0.50400001928E-02 0.  1.
        1   -1    0    0  501    0  0.00000000000E+00  0.00000000000E+00 -0.11820763703E+04  0.11820763703E+04  0.50400001928E-02 0. -1.
    10030    2    1    2    0    0  0.00000000000E+00  0.00000000000E+00 -0.32504247803E+03  0.20391102625E+04  0.20130370215E+04 0.  0.
        2    1    3    3  502    0  0.19550225688E+03 -0.96656412968E+03  0.41613543387E+02  0.98701521580E+03  0.25500000920E-02 0. -1.
       -2    1    3    3    0  502 -0.19550225688E+03  0.96656412968E+03 -0.36665602142E+03  0.10520950467E+04  0.25500000920E-02 0.  1.
</event>
<event>
 5   0  0.3787698E-05  0.2026450E+04  0.7818609E-02  0.8594353E-01
        1   -1    0    0  501    0  0.00000000000E+00  0.00000000000E+00  0.13738549649E+04  0.13738549649E+04  0.50400001928E-02 0. -1.
       -1   -1    0    0    0  501  0.00000000000E+00  0.00000000000E+00 -0.74725863210E+03  0.74725863211E+03  0.50400001928E-02 0.  1.
    10030    2    1    2    0    0  0.00000000000E+00  0.00000000000E+00  0.62659633279E+03  0.21211135970E+04  0.20264500801E+04 0.  0.
        4    1    3    3  502    0 -0.15514605400E+03  0.89555250911E+03  0.78203296472E+03  0.11990253398E+04  0.12699999809E+01 0. -1.
       -4    1    3    3    0  502  0.15514605400E+03 -0.89555250911E+03 -0.15543663193E+03  0.92208825722E+03  0.12699999809E+01 0.  1.
</event>
<event>
 5   0  0.3787698E-05  0.1982062E+04  0.7818609E-02  0.8615054E-01
       -1   -1    0    0    0  501  0.00000000000E+00  0.00000000000E+00  0.50643648004E+03  0.50643648006E+03  0.50400001928E-02 0.  1.
        1   -1    0    0  501    0  0.00000000000E+00  0.00000000000E+00 -0.19393191292E+04  0.19393191292E+04  0.50400001928E-02 0. -1.
    10030    2    1    2    0    0  0.00000000000E+00  0.00000000000E+00 -0.14328826492E+04  0.24457556093E+04  0.19820615061E+04 0.  0.
        4    1    3    3  502    0 -0.36655798424E+03  0.87727758794E+03 -0.10614159459E+04  0.14249863667E+04  0.12699999809E+01 0.  1.
       -4    1    3    3    0  502  0.36655798424E+03 -0.87727758794E+03 -0.37146670330E+03  0.10207692426E+04  0.12699999809E+01 0. -1.
</event>
<event>
 5   0  0.3818907E-05  0.1998196E+04  0.7818609E-02  0.8607464E-01
       -1   -1    0    0    0  501  0.00000000000E+00  0.00000000000E+00  0.62199090143E+03  0.62199090146E+03  0.50400001928E-02 0. -1.
        1   -1    0    0  501    0  0.00000000000E+00  0.00000000000E+00 -0.16048417052E+04  0.16048417052E+04  0.50400001928E-02 0.  1.
    10030    2    1    2    0    0  0.00000000000E+00  0.00000000000E+00 -0.98285080377E+03  0.22268326067E+04  0.19981961254E+04 0.  0.
        1    1    3    3  502    0 -0.36022460608E+03  0.89423940458E+03 -0.78367391922E+03  0.12424052041E+04  0.50400001928E-02 0.  1.
       -1    1    3    3    0  502  0.36022460608E+03 -0.89423940458E+03 -0.19917688455E+03  0.98442740255E+03  0.50400001928E-02 0. -1.
</event>
<event>
 5   0  0.8011197E-05  0.1990207E+04  0.7818609E-02  0.8611213E-01
        2   -1    0    0  501    0  0.00000000000E+00  0.00000000000E+00  0.88394190810E+03  0.88394190811E+03  0.25500000920E-02 0.  1.
       -2   -1    0    0    0  501  0.00000000000E+00  0.00000000000E+00 -0.11202439802E+04  0.11202439802E+04  0.25500000920E-02 0. -1.
    10030    2    1    2    0    0  0.00000000000E+00  0.00000000000E+00 -0.23630207212E+03  0.20041858883E+04  0.19902066239E+04 0.  0.
        5    1    3    3  502    0 -0.92220163750E+03 -0.13622890766E+03  0.23242400556E+03  0.96075865015E+03  0.46999998093E+01 0. -1.
       -5    1    3    3    0  502  0.92220163750E+03  0.13622890766E+03 -0.46872607768E+03  0.10434272382E+04  0.46999998093E+01 0.  1.
</event>
<event>
 5   0  0.7843846E-05  0.1997959E+04  0.7818609E-02  0.8607576E-01
        2   -1    0    0  501    0  0.00000000000E+00  0.00000000000E+00  0.16125594092E+04  0.16125594092E+04  0.25500000920E-02 0. -1.
       -2   -1    0    0    0  501  0.00000000000E+00  0.00000000000E+00 -0.61886700849E+03  0.61886700850E+03  0.25500000920E-02 0.  1.
    10030    2    1    2    0    0  0.00000000000E+00  0.00000000000E+00  0.99369240070E+03  0.22314264177E+04  0.19979587759E+04 0.  0.
        2    1    3    3  502    0  0.53975394288E+03 -0.83841401085E+03  0.42902603691E+03  0.10855117285E+04  0.25500000920E-02 0.  1.
       -2    1    3    3    0  502 -0.53975394288E+03  0.83841401085E+03  0.56466636379E+03  0.11459146892E+04  0.25500000920E-02 0. -1.
</event>
<event>
 5   0  0.3772949E-05  0.1997378E+04  0.7818609E-02  0.8607848E-01
        1   -1    0    0  501    0  0.00000000000E+00  0.00000000000E+00  0.14155335304E+04  0.14155335304E+04  0.50400001928E-02 0. -1.
       -1   -1    0    0    0  501  0.00000000000E+00  0.00000000000E+00 -0.70459612599E+03  0.70459612600E+03  0.50400001928E-02 0.  1.
    10030    2    1    2    0    0  0.00000000000E+00  0.00000000000E+00  0.71093740443E+03  0.21201296564E+04  0.19973777227E+04 0.  0.
        2    1    3    3  502    0 -0.92822868830E+03  0.36421212198E+03  0.41476294337E+03  0.10799478074E+04  0.25500000920E-02 0.  1.
       -2    1    3    3    0  502  0.92822868830E+03 -0.36421212198E+03  0.29617446106E+03  0.10401818490E+04  0.25500000920E-02 0. -1.
</event>
<event>
 5   0  0.3818907E-05  0.2003583E+04  0.7818609E-02  0.8604947E-01
       -1   -1    0    0    0  501  0.00000000000E+00  0.00000000000E+00  0.10028134686E+04  0.10028134686E+04  0.50400001928E-02 0.  1.
        1   -1    0    0  501    0  0.00000000000E+00  0.00000000000E+00 -0.10007704503E+04  0.10007704504E+04  0.50400001928E-02 0. -1.
    10030    2    1    2    0    0  0.00000000000E+00  0.00000000000E+00  0.20430182302E+01  0.20035839189E+04  0.20035828773E+04 0.  0.
        1    1    3    3  502    0  0.85289759042E+03 -0.57078185094E+02  0.52341422666E+03  0.10023246339E+04  0.50400001928E-02 0.  1.
       -1    1    3    3    0  502 -0.85289759042E+03  0.57078185094E+02 -0.52137120843E+03  0.10012592851E+04  0.50400001928E-02 0. -1.
</event>
<event>
 5   0  0.3970042E-05  0.2007843E+04  0.7818609E-02  0.8602963E-01
        1   -1    0    0  501    0  0.00000000000E+00  0.00000000000E+00  0.11590434102E+04  0.11590434102E+04  0.50400001928E-02 0.  1.
       -1   -1    0    0    0  501  0.00000000000E+00  0.00000000000E+00 -0.86956032068E+03  0.86956032070E+03  0.50400001928E-02 0. -1.
    10030    2    1    2    0    0  0.00000000000E+00  0.00000000000E+00  0.28948308948E+03  0.20286037309E+04  0.20078427821E+04 0.  0.
        3    1    3    3  502    0  0.77033583194E+03  0.60164736928E+03 -0.86671072028E+02  0.98127913250E+03  0.10100000352E+00 0. -1.
       -3    1    3    3    0  502 -0.77033583194E+03 -0.60164736928E+03  0.37615416151E+03  0.10473245984E+04  0.10100000352E+00 0.  1.
</event>
<event>
 5   0  0.3818907E-05  0.2004979E+04  0.7818609E-02  0.8604296E-01
       -1   -1    0    0    0  501  0.00000000000E+00  0.00000000000E+00  0.57809569696E+03  0.57809569698E+03  0.50400001928E-02 0. -1.
        1   -1    0    0  501    0  0.00000000000E+00  0.00000000000E+00 -0.17384417029E+04  0.17384417029E+04  0.50400001928E-02 0.  1.
    10030    2    1    2    0    0  0.00000000000E+00  0.00000000000E+00 -0.11603460060E+04  0.23165373999E+04  0.20049794691E+04 0.  0.
        1    1    3    3  502    0 -0.79792796050E+03 -0.57935777733E+03 -0.37142973973E+03  0.10537098822E+04  0.50400001928E-02 0. -1.
       -1    1    3    3    0  502  0.79792796050E+03  0.57935777733E+03 -0.78891626623E+03  0.12628275177E+04  0.50400001928E-02 0.  1.
</event>
<event>
 5   0  0.3787698E-05  0.2000485E+04  0.7818609E-02  0.8606394E-01
        1   -1    0    0  501    0  0.00000000000E+00  0.00000000000E+00  0.16994057096E+04  0.16994057096E+04  0.50400001928E-02 0. -1.
       -1   -1    0    0    0  501  0.00000000000E+00  0.00000000000E+00 -0.58872623102E+03  0.58872623104E+03  0.50400001928E-02 0.  1.
    10030    2    1    2    0    0  0.00000000000E+00  0.00000000000E+00  0.11106794786E+04  0.22881319407E+04  0.20004846597E+04 0.  0.
        4    1    3    3  502    0  0.20202632541E+03  0.22359393242E+03 -0.53556990788E+03  0.61452878036E+03  0.12699999809E+01 0.  1.
       -4    1    3    3    0  502 -0.20202632541E+03 -0.22359393242E+03  0.16462493865E+04  0.16736031603E+04  0.12699999809E+01 0. -1.
</event>
<event>
 5   0  0.3787698E-05  0.1999119E+04  0.7818609E-02  0.8607033E-01
       -1   -1    0    0    0  501  0.00000000000E+00  0.00000000000E+00  0.72192140013E+03  0.72192140014E+03  0.50400001928E-02 0.  1.
        1   -1    0    0  501    0  0.00000000000E+00  0.00000000000E+00 -0.13839719403E+04  0.13839719403E+04  0.50400001928E-02 0. -1.
    10030    2    1    2    0    0  0.00000000000E+00  0.00000000000E+00 -0.66205054015E+03  0.21058933404E+04  0.19991187667E+04 0.  0.
        4    1    3    3  502    0  0.46952412846E+03  0.82656699099E+03 -0.55716995149E+01  0.95063060888E+03  0.12699999809E+01 0. -1.
       -4    1    3    3    0  502 -0.46952412846E+03 -0.82656699099E+03 -0.65647884064E+03  0.11552627316E+04  0.12699999809E+01 0.  1.
</event>
<event>
 5   0  0.3970042E-05  0.2002625E+04  0.7818609E-02  0.8605394E-01
        1   -1    0    0  501    0  0.00000000000E+00  0.00000000000E+00  0.10790923326E+04  0.10790923326E+04  0.50400001928E-02 0.  1.
       -1   -1    0    0    0  501  0.00000000000E+00  0.00000000000E+00 -0.92913909743E+03  0.92913909744E+03  0.50400001928E-02 0. -1.
    10030    2    1    2    0    0  0.00000000000E+00  0.00000000000E+00  0.14995323515E+03  0.20082314300E+04  0.20026251531E+04 0.  0.
        3    1    3    3  502    0  0.73255296434E+03 -0.52999060418E+03  0.50641700577E+03  0.10363310668E+04  0.10100000352E+00 0.  1.
       -3    1    3    3    0  502 -0.73255296434E+03  0.52999060418E+03 -0.35646377062E+03  0.97190036323E+03  0.10100000352E+00 0. -1.
</event>
<event>
 5   0  0.7843846E-05  0.1995587E+04  0.7818609E-02  0.8608687E-01
        2   -1    0    0  501    0  0.00000000000E+00  0.00000000000E+00  0.22687719125E+04  0.22687719125E+04  0.25500000920E-02 0. -1.
       -2   -1    0    0    0  501  0.00000000000E+00  0.00000000000E+00 -0.43882411423E+03  0.43882411424E+03  0.25500000920E-02 0.  1.
    10030    2    1    2    0    0  0.00000000000E+00  0.00000000000E+00  0.18299477982E+04  0.27075960267E+04  0.19955869562E+04 0.  0.
        2    1    3    3  502    0 -0.96383012253E+03  0.16454979299E+03  0.64515755335E+03  0.11714407403E+04  0.25500000920E-02 0.  1.
       -2    1    3    3    0  502  0.96383012253E+03 -0.16454979299E+03  0.11847902449E+04  0.15361552864E+04  0.25500000920E-02 0. -1.
</event>
<event>
 5   0  0.3549426E-05  0.1994301E+04  0.7818609E-02  0.8609290E-01
       -1   -1    0    0    0  501  0.00000000000E+00  0.00000000000E+00  0.68004389152E+03  0.68004389154E+03  0.50400001928E-02 0.  1.
        1   -1    0    0  501    0  0.00000000000E+00  0.00000000000E+00 -0.14621247999E+04  0.14621248000E+04  0.50400001928E-02 0. -1.
    10030    2    1    2    0    0  0.00000000000E+00  0.00000000000E+00 -0.78208090842E+03  0.21421686915E+04  0.19943009190E+04 0.  0.
        5    1    3    3  502    0 -0.55297649577E+03  0.54583207433E+03 -0.10623350280E+04  0.13161661977E+04  0.46999998093E+01 0. -1.
       -5    1    3    3    0  502  0.55297649577E+03 -0.54583207433E+03  0.28025411956E+03  0.82600249381E+03  0.46999998093E+01 0.  1.
</event>
<event>
 5   0  0.8022574E-05  0.2086140E+04  0.7818609E-02  0.8567373E-01
        2   -1    0    0  501    0  0.00000000000E+00  0.00000000000E+00  0.15869391978E+04  0.15869391978E+04  0.25500000920E-02 0. -1.
       -2   -1    0    0    0  501  0.00000000000E+00  0.00000000000E+00 -0.68559367084E+03  0.68559367085E+03  0.25500000920E-02 0.  1.
    10030    2    1    2    0    0  0.00000000000E+00  0.00000000000E+00  0.90134552696E+03  0.22725328686E+04  0.20861404268E+04 0.  0.
        1    1    3    3  502    0  0.70537228451E+03  0.27453833407E+02 -0.38585265259E+03  0.80447873947E+03  0.50400001928E-02 0.  1.
       -1    1    3    3    0  502 -0.70537228451E+03 -0.27453833407E+02  0.12871981796E+04  0.14680541292E+04  0.50400001928E-02 0. -1.
</event>
<event>
 5   0  0.3970042E-05  0.2009404E+04  0.7818609E-02  0.8602237E-01
       -1   -1    0    0    0  501  0.00000000000E+00  0.00000000000E+00  0.70896466652E+03  0.70896466654E+03  0.50400001928E-02 0. -1.
        1   -1    0    0  501    0  0.00000000000E+00  0.00000000000E+00 -0.14238029225E+04  0.14238029225E+04  0.50400001928E-02 0.  1.
    10030    2    1    2    0    0  0.00000000000E+00  0.00000000000E+00 -0.71483825595E+03  0.21327675890E+04  0.20094038560E+04 0.  0.
        3    1    3    3  502    0  0.39052433214E+03  0.22514952455E+03 -0.13104440714E+04  0.13858085138E+04  0.10100000352E+00 0.  1.
       -3    1    3    3    0  502 -0.39052433214E+03 -0.22514952455E+03  0.59560581548E+03  0.74695907521E+03  0.10100000352E+00 0. -1.
</event>
<event>
 5   0  0.8022574E-05  0.2013219E+04  0.7818609E-02  0.8600465E-01
       -2   -1    0    0    0  501  0.00000000000E+00  0.00000000000E+00  0.88185924491E+03  0.88185924492E+03  0.25500000920E-02 0. -1.
        2   -1    0    0  501    0  0.00000000000E+00  0.00000000000E+00 -0.11490068689E+04  0.11490068689E+04  0.25500000920E-02 0.  1.
    10030    2    1    2    0    0  0.00000000000E+00  0.00000000000E+00 -0.26714762396E+03  0.20308661138E+04  0.20132186466E+04 0.  0.
        1    1    3    3  502    0 -0.52604198635E+03 -0.30848544885E+03 -0.94145534058E+03  0.11217047748E+04  0.50400001928E-02 0.  1.
       -1    1    3    3    0  502  0.52604198635E+03  0.30848544885E+03  0.67430771661E+03  0.90916133896E+03  0.50400001928E-02 0. -1.
</event>
<event>
 5   0  0.3818907E-05  0.1989022E+04  0.7818609E-02  0.8611770E-01
        1   -1    0    0  501    0  0.00000000000E+00  0.00000000000E+00  0.20016130864E+04  0.20016130864E+04  0.50400001928E-02 0. -1.
       -1   -1    0    0    0  501  0.00000000000E+00  0.00000000000E+00 -0.49412760488E+03  0.49412760490E+03  0.50400001928E-02 0.  1.
    10030    2    1    2    0    0  0.00000000000E+00  0.00000000000E+00  0.15074854815E+04  0.24957406913E+04  0.19890221520E+04 0.  0.
        1    1    3    3  502    0  0.55591741754E+03  0.78435999834E+03  0.10731210701E+04  0.14407822921E+04  0.50400001928E-02 0. -1.
       -1    1    3    3    0  502 -0.55591741754E+03 -0.78435999834E+03  0.43436441142E+03  0.10549583992E+04  0.50400001928E-02 0.  1.
</event>
<event>
 5   0  0.8011197E-05  0.2009881E+04  0.7818609E-02  0.8602015E-01
        2   -1    0    0  501    0  0.00000000000E+00  0.00000000000E+00  0.12788634231E+04  0.12788634231E+04  0.25500000920E-02 0. -1.
       -2   -1    0    0    0  501  0.00000000000E+00  0.00000000000E+00 -0.78968963185E+03  0.78968963186E+03  0.25500000920E-02 0.  1.
    10030    2    1    2    0    0  0.00000000000E+00  0.00000000000E+00  0.48917379126E+03  0.20685530550E+04  0.20098807784E+04 0.  0.
        5    1    3    3  502    0 -0.34027490677E+02  0.22769100050E+03 -0.76217221346E+03  0.79619698242E+03  0.46999998093E+01 0.  1.
       -5    1    3    3    0  502  0.34027490677E+02 -0.22769100050E+03  0.12513460047E+04  0.12723560726E+04  0.46999998093E+01 0. -1.
</event>
<event>
 5   0  0.3772949E-05  0.2024190E+04  0.7818609E-02  0.8595394E-01
       -1   -1    0    0    0  501  0.00000000000E+00  0.00000000000E+00  0.72181233669E+03  0.72181233671E+03  0.50400001928E-02 0.  1.
        1   -1    0    0  501    0  0.00000000000E+00  0.00000000000E+00 -0.14191169566E+04  0.14191169566E+04  0.50400001928E-02 0. -1.
    10030    2    1    2    0    0  0.00000000000E+00  0.00000000000E+00 -0.69730461986E+03  0.21409292933E+04  0.20241898394E+04 0.  0.
        2    1    3    3  502    0 -0.51155997197E+02 -0.19317970649E+03  0.70073802751E+03  0.72867627809E+03  0.25500000920E-02 0.  1.
       -2    1    3    3    0  502  0.51155997197E+02  0.19317970649E+03 -0.13980426474E+04  0.14122530152E+04  0.25500000920E-02 0. -1.
</event>
<event>
 5   0  0.7935008E-05  0.1998991E+04  0.7818609E-02  0.8607093E-01
       -2   -1    0    0    0  501  0.00000000000E+00  0.00000000000E+00  0.12805725756E+04  0.12805725756E+04  0.25500000920E-02 0.  1.
        2   -1    0    0  501    0  0.00000000000E+00  0.00000000000E+00 -0.78011268349E+03  0.78011268349E+03  0.25500000920E-02 0. -1.
    10030    2    1    2    0    0  0.00000000000E+00  0.00000000000E+00  0.50045989210E+03  0.20606852591E+04  0.19989906537E+04 0.  0.
        3    1    3    3  502    0 -0.36709116469E+03 -0.11420065418E+03 -0.70084550063E+03  0.79936358346E+03  0.10100000352E+00 0. -1.
       -3    1    3    3    0  502  0.36709116469E+03  0.11420065418E+03  0.12013053927E+04  0.12613216756E+04  0.10100000352E+00 0.  1.
</event>
<event>
 5   0  0.7843846E-05  0.1997171E+04  0.7818609E-02  0.8607945E-01
        2   -1    0    0  501    0  0.00000000000E+00  0.00000000000E+00  0.89186695315E+03  0.89186695316E+03  0.25500000920E-02 0.  1.
       -2   -1    0    0    0  501  0.00000000000E+00  0.00000000000E+00 -0.11180734826E+04  0.11180734826E+04  0.25500000920E-02 0. -1.
    10030    2    1    2    0    0  0.00000000000E+00  0.00000000000E+00 -0.22620652948E+03  0.20099404358E+04  0.19971707893E+04 0.  0.
        2    1    3    3  502    0  0.12217601519E+03  0.42818528506E+03 -0.10126320284E+04  0.11062066905E+04  0.25500000920E-02 0. -1.
       -2    1    3    3    0  502 -0.12217601519E+03 -0.42818528506E+03  0.78642549895E+03  0.90373374532E+03  0.25500000920E-02 0.  1.
</event>
<event>
 5   0  0.3772949E-05  0.1998516E+04  0.7818609E-02  0.8607315E-01
        1   -1    0    0  501    0  0.00000000000E+00  0.00000000000E+00  0.82251347326E+03  0.82251347327E+03  0.50400001928E-02 0.  1.
       -1   -1    0    0    0  501  0.00000000000E+00  0.00000000000E+00 -0.12139818951E+04  0.12139818952E+04  0.50400001928E-02 0. -1.
    10030    2    1    2    0    0  0.00000000000E+00  0.00000000000E+00 -0.39146842189E+03  0.20364953684E+04  0.19985159144E+04 0.  0.
        2    1    3    3  502    0 -0.37626502650E+03  0.18087410059E+03  0.72938751415E+03  0.84041475251E+03  0.25500000920E-02 0.  1.
       -2    1    3    3    0  502  0.37626502650E+03 -0.18087410059E+03 -0.11208559360E+04  0.11960806159E+04  0.25500000920E-02 0. -1.
</event>
<event>
 5   0  0.8011197E-05  0.1921871E+04  0.7818609E-02  0.8644046E-01
       -2   -1    0    0    0  501  0.00000000000E+00  0.00000000000E+00  0.14912283132E+04  0.14912283132E+04  0.25500000920E-02 0. -1.
        2   -1    0    0  501    0  0.00000000000E+00  0.00000000000E+00 -0.61921884128E+03  0.61921884129E+03  0.25500000920E-02 0.  1.
    10030    2    1    2    0    0  0.00000000000E+00  0.00000000000E+00  0.87200947188E+03  0.21104471544E+04  0.19218706181E+04 0.  0.
        5    1    3    3  502    0 -0.32910033694E+03 -0.64915650283E+03  0.11249946173E+04  0.13399052862E+04  0.46999998093E+01 0. -1.
       -5    1    3    3    0  502  0.32910033694E+03  0.64915650283E+03 -0.25298514543E+03  0.77054186827E+03  0.46999998093E+01 0.  1.
</event>
<event>
 5   0  0.8011197E-05  0.1990961E+04  0.7818609E-02  0.8610858E-01
        2   -1    0    0  501    0  0.00000000000E+00  0.00000000000E+00  0.98308410884E+03  0.98308410885E+03  0.25500000920E-02 0. -1.
       -2   -1    0    0    0  501  0.00000000000E+00  0.00000000000E+00 -0.10080335442E+04  0.10080335442E+04  0.25500000920E-02 0.  1.
    10030    2    1    2    0    0  0.00000000000E+00  0.00000000000E+00 -0.24949435344E+02  0.19911176530E+04  0.19909613341E+04 0.  0.
        5    1    3    3  502    0  0.87718816716E+03 -0.19741654050E+03  0.41479096143E+03  0.99020503067E+03  0.46999998093E+01 0. -1.
       -5    1    3    3    0  502 -0.87718816716E+03  0.19741654050E+03 -0.43974039677E+03  0.10009126224E+04  0.46999998093E+01 0.  1.
</event>
<event>
 5   0  0.7935008E-05  0.2005068E+04  0.7818609E-02  0.8604255E-01
        2   -1    0    0  501    0  0.00000000000E+00  0.00000000000E+00  0.86988648735E+03  0.86988648735E+03  0.25500000920E-02 0.  1.
       -2   -1    0    0    0  501  0.00000000000E+00  0.00000000000E+00 -0.11554086556E+04  0.11554086556E+04  0.25500000920E-02 0. -1.
    10030    2    1    2    0    0  0.00000000000E+00  0.00000000000E+00 -0.28552216823E+03  0.20252951429E+04  0.20050679558E+04 0.  0.
        3    1    3    3  502    0 -0.76094606186E+03 -0.41008076215E+03  0.37016995841E+03  0.94033555120E+03  0.10100000352E+00 0.  1.
       -3    1    3    3    0  502  0.76094606186E+03  0.41008076215E+03 -0.65569212664E+03  0.10849595917E+04  0.10100000352E+00 0. -1.
</event>
<event>
 5   0  0.8022574E-05  0.1996589E+04  0.7818609E-02  0.8608217E-01
       -2   -1    0    0    0  501  0.00000000000E+00  0.00000000000E+00  0.99373266443E+03  0.99373266443E+03  0.25500000920E-02 0.  1.
        2   -1    0    0  501    0  0.00000000000E+00  0.00000000000E+00 -0.10028774218E+04  0.10028774218E+04  0.25500000920E-02 0. -1.
    10030    2    1    2    0    0  0.00000000000E+00  0.00000000000E+00 -0.91447573560E+01  0.19966100862E+04  0.19965891440E+04 0.  0.
        1    1    3    3  502    0  0.71427429756E+03  0.22589621275E+03  0.65526420314E+03  0.99528289799E+03  0.50400001928E-02 0.  1.
       -1    1    3    3    0  502 -0.71427429756E+03 -0.22589621275E+03 -0.66440896049E+03  0.10013271882E+04  0.50400001928E-02 0. -1.
</event>
<event>
 5   0  0.3549426E-05  0.1998235E+04  0.7818609E-02  0.8607446E-01
        1   -1    0    0  501    0  0.00000000000E+00  0.00000000000E+00  0.14035163660E+04  0.14035163660E+04  0.50400001928E-02 0.  1.
       -1   -1    0    0    0  501  0.00000000000E+00  0.00000000000E+00 -0.71123925907E+03  0.71123925908E+03  0.50400001928E-02 0. -1.
    10030    2    1    2    0    0  0.00000000000E+00  0.00000000000E+00  0.69227710690E+03  0.21147556251E+04  0.19982351616E+04 0.  0.
        5    1    3    3  502    0  0.73602029812E+02  0.33204260795E+03  0.13403570735E+04  0.13828408176E+04  0.46999998093E+01 0.  1.
       -5    1    3    3    0  502 -0.73602029812E+02 -0.33204260795E+03 -0.64807996660E+03  0.73191480747E+03  0.46999998093E+01 0. -1.
</event>
<event>
 5   0  0.3818907E-05  0.1992635E+04  0.7818609E-02  0.8610072E-01
       -1   -1    0    0    0  501  0.00000000000E+00  0.00000000000E+00  0.16798856486E+04  0.16798856486E+04  0.50400001928E-02 0.  1.
        1   -1    0    0  501    0  0.00000000000E+00  0.00000000000E+00 -0.59090235860E+03  0.59090235862E+03  0.50400001928E-02 0. -1.
    10030    2    1    2    0    0  0.00000000000E+00  0.00000000000E+00  0.10889832900E+04  0.22707880072E+04  0.19926348305E+04 0.  0.
        1    1    3    3  502    0 -0.33897627558E+03 -0.61414320436E+03  0.13507643878E+04  0.15220516490E+04  0.50400001928E-02 0.  1.
       -1    1    3    3    0  502  0.33897627558E+03  0.61414320436E+03 -0.26178109784E+03  0.74873635819E+03  0.50400001928E-02 0. -1.
</event>
<event>
 5   0  0.7843846E-05  0.1995942E+04  0.7818609E-02  0.8608520E-01
       -2   -1    0    0    0  501  0.00000000000E+00  0.00000000000E+00  0.74323414298E+03  0.74323414298E+03  0.25500000920E-02 0. -1.
        2   -1    0    0  501    0  0.00000000000E+00  0.00000000000E+00 -0.13400162667E+04  0.13400162667E+04  0.25500000920E-02 0.  1.
    10030    2    1    2    0    0  0.00000000000E+00  0.00000000000E+00 -0.59678212375E+03  0.20832504097E+04  0.19959417242E+04 0.  0.
        2    1    3    3  502    0 -0.47208657313E+03 -0.22677539203E+03  0.58827041280E+03  0.78762611025E+03  0.25500000920E-02 0. -1.
       -2    1    3    3    0  502  0.47208657313E+03  0.22677539203E+03 -0.11850525366E+04  0.12956242995E+04  0.25500000920E-02 0.  1.
</event>
<event>
 5   0  0.3772949E-05  0.1988626E+04  0.7818609E-02  0.8611957E-01
       -1   -1    0    0    0  501  0.00000000000E+00  0.00000000000E+00  0.23230246613E+04  0.23230246613E+04  0.50400001928E-02 0.  1.
        1   -1    0    0  501    0  0.00000000000E+00  0.00000000000E+00 -0.42559107661E+03  0.42559107664E+03  0.50400001928E-02 0. -1.
    10030    2    1    2    0    0  0.00000000000E+00  0.00000000000E+00  0.18974335847E+04  0.27486157380E+04  0.19886262260E+04 0.  0.
        2    1    3    3  502    0  0.29756875698E+03  0.22487081121E+03 -0.32523776749E+03  0.49486730775E+03  0.25500000920E-02 0. -1.
       -2    1    3    3    0  502 -0.29756875698E+03 -0.22487081121E+03  0.22226713522E+04  0.22537484302E+04  0.25500000920E-02 0.  1.
</event>
<event>
 5   0  0.8022574E-05  0.1994062E+04  0.7818609E-02  0.8609402E-01
       -2   -1    0    0    0  501  0.00000000000E+00  0.00000000000E+00  0.88137364597E+03  0.88137364598E+03  0.25500000920E-02 0. -1.
        2   -1    0    0  501    0  0.00000000000E+00  0.00000000000E+00 -0.11278654615E+04  0.11278654615E+04  0.25500000920E-02 0.  1.
    10030    2    1    2    0    0  0.00000000000E+00  0.00000000000E+00 -0.24649181555E+03  0.20092391075E+04  0.19940620793E+04 0.  0.
        1    1    3    3  502    0 -0.75832371110E+03  0.46103418798E+03 -0.58108683486E+03  0.10607871054E+04  0.50400001928E-02 0.  1.
       -1    1    3    3    0  502  0.75832371110E+03 -0.46103418798E+03  0.33459501932E+03  0.94845200210E+03  0.50400001928E-02 0. -1.
</event>
<event>
 5   0  0.8011197E-05  0.2001894E+04  0.7818609E-02  0.8605736E-01
        2   -1    0    0  501    0  0.00000000000E+00  0.00000000000E+00  0.15994303749E+04  0.15994303749E+04  0.25500000920E-02 0. -1.
       -2   -1    0    0    0  501  0.00000000000E+00  0.00000000000E+00 -0.62640700961E+03  0.62640700961E+03  0.25500000920E-02 0.  1.
    10030    2    1    2    0    0  0.00000000000E+00  0.00000000000E+00  0.97302336530E+03  0.22258373845E+04  0.20018935019E+04 0.  0.
        5    1    3    3  502    0  0.95706971658E+02  0.22250925748E+03  0.15663403310E+04  0.15849650837E+04  0.46999998093E+01 0. -1.
       -5    1    3    3    0  502 -0.95706971658E+02 -0.22250925748E+03 -0.59331696573E+03  0.64087230078E+03  0.46999998093E+01 0.  1.
</event>
<event>
 5   0  0.3970042E-05  0.2001703E+04  0.7818609E-02  0.8605825E-01
        1   -1    0    0  501    0  0.00000000000E+00  0.00000000000E+00  0.16289088586E+04  0.16289088586E+04  0.50400001928E-02 0.  1.
       -1   -1    0    0    0  501  0.00000000000E+00  0.00000000000E+00 -0.61495377771E+03  0.61495377773E+03  0.50400001928E-02 0. -1.
    10030    2    1    2    0    0  0.00000000000E+00  0.00000000000E+00  0.10139550809E+04  0.22438626363E+04  0.20017029312E+04 0.  0.
        3    1    3    3  502    0 -0.30776205261E+03 -0.40530258292E+03  0.14730462734E+04  0.15584777824E+04  0.10100000352E+00 0.  1.
       -3    1    3    3    0  502  0.30776205261E+03  0.40530258292E+03 -0.45909119246E+03  0.68538485389E+03  0.10100000352E+00 0. -1.
</event>
<event>
 5   0  0.3549426E-05  0.2003234E+04  0.7818609E-02  0.8605110E-01
        1   -1    0    0  501    0  0.00000000000E+00  0.00000000000E+00  0.26332904529E+04  0.26332904529E+04  0.50400001928E-02 0. -1.
       -1   -1    0    0    0  501  0.00000000000E+00  0.00000000000E+00 -0.38098198086E+03  0.38098198089E+03  0.50400001928E-02 0.  1.
    10030    2    1    2    0    0  0.00000000000E+00  0.00000000000E+00  0.22523084720E+04  0.30142724338E+04  0.20032335989E+04 0.  0.
        5    1    3    3  502    0  0.36458880849E+03  0.77571225933E+03  0.19059327392E+04  0.20897981254E+04  0.46999998093E+01 0. -1.
       -5    1    3    3    0  502 -0.36458880849E+03 -0.77571225933E+03  0.34637573280E+03  0.92447430837E+03  0.46999998093E+01 0.  1.
</event>
<event>
 5   0  0.8022574E-05  0.2021857E+04  0.7818609E-02  0.8596469E-01
       -2   -1    0    0    0  501  0.00000000000E+00  0.00000000000E+00  0.37715017614E+03  0.37715017615E+03  0.25500000920E-02 0.  1.
        2   -1    0    0  501    0  0.00000000000E+00  0.00000000000E+00 -0.27097340482E+04  0.27097340482E+04  0.25500000920E-02 0. -1.
    10030    2    1    2    0    0  0.00000000000E+00  0.00000000000E+00 -0.23325838721E+04  0.30868842244E+04  0.20218572389E+04 0.  0.
        1    1    3    3  502    0  0.55285786342E+03 -0.31756784515E+03 -0.23640669410E+04  0.24485329597E+04  0.50400001928E-02 0. -1.
       -1    1    3    3    0  502 -0.55285786342E+03  0.31756784515E+03  0.31483068908E+02  0.63835126464E+03  0.50400001928E-02 0.  1.
</event>
<event>
 5   0  0.7857136E-05  0.2051854E+04  0.7818609E-02  0.8582754E-01
       -2   -1    0    0    0  501  0.00000000000E+00  0.00000000000E+00  0.71868330857E+03  0.71868330858E+03  0.25500000920E-02 0. -1.
        2   -1    0    0  501    0  0.00000000000E+00  0.00000000000E+00 -0.14645201132E+04  0.14645201132E+04  0.25500000920E-02 0.  1.
    10030    2    1    2    0    0  0.00000000000E+00  0.00000000000E+00 -0.74583680459E+03  0.21832034217E+04  0.20518539523E+04 0.  0.
        4    1    3    3  502    0 -0.18245512188E+03 -0.87030344958E+03  0.17150657077E+03  0.90561254550E+03  0.12699999809E+01 0. -1.
       -4    1    3    3    0  502  0.18245512188E+03  0.87030344958E+03 -0.91734337536E+03  0.12775908762E+04  0.12699999809E+01 0.  1.
</event>
<event>
 5   0  0.2859625E-05  0.2014937E+04  0.7818609E-02  0.8599669E-01
       -4   -1    0    0    0  501  0.00000000000E+00  0.00000000000E+00  0.12590855924E+04  0.12590862329E+04  0.12699999809E+01 0.  1.
        4   -1    0    0  501    0  0.00000000000E+00  0.00000000000E+00 -0.80613385629E+03  0.80613485668E+03  0.12699999809E+01 0. -1.
    10030    2    1    2    0    0  0.00000000000E+00  0.00000000000E+00  0.45295173612E+03  0.20652210896E+04  0.20149374367E+04 0.  0.
        3    1    3    3  502    0  0.17577411508E+03 -0.64923395768E+03 -0.54230353116E+03  0.86399907491E+03  0.10100000352E+00 0. -1.
       -3    1    3    3    0  502 -0.17577411508E+03  0.64923395768E+03  0.99525526729E+03  0.12012220147E+04  0.10100000352E+00 0.  1.
</event>
<event>
 5   0  0.3787698E-05  0.2002100E+04  0.7818609E-02  0.8605639E-01
       -1   -1    0    0    0  501  0.00000000000E+00  0.00000000000E+00  0.50911779353E+03  0.50911779356E+03  0.50400001928E-02 0.  1.
        1   -1    0    0  501    0  0.00000000000E+00  0.00000000000E+00 -0.19683092586E+04  0.19683092586E+04  0.50400001928E-02 0. -1.
    10030    2    1    2    0    0  0.00000000000E+00  0.00000000000E+00 -0.14591914650E+04  0.24774270521E+04  0.20021001641E+04 0.  0.
        4    1    3    3  502    0  0.53034013482E+03  0.70496873945E+03 -0.13150614283E+04  0.15835497325E+04  0.12699999809E+01 0. -1.
       -4    1    3    3    0  502 -0.53034013482E+03 -0.70496873945E+03 -0.14413003676E+03  0.89387731966E+03  0.12699999809E+01 0.  1.
</event>
<event>
 5   0  0.7935008E-05  0.1991996E+04  0.7818609E-02  0.8610372E-01
        2   -1    0    0  501    0  0.00000000000E+00  0.00000000000E+00  0.13055338744E+04  0.13055338744E+04  0.25500000920E-02 0.  1.
       -2   -1    0    0    0  501  0.00000000000E+00  0.00000000000E+00 -0.75985194619E+03  0.75985194619E+03  0.25500000920E-02 0. -1.
    10030    2    1    2    0    0  0.00000000000E+00  0.00000000000E+00  0.54568192816E+03  0.20653858205E+04  0.19919964410E+04 0.  0.
        3    1    3    3  502    0 -0.76111235477E+02 -0.90313642591E+03 -0.15536870871E+03  0.91955846460E+03  0.10100000352E+00 0. -1.
       -3    1    3    3    0  502  0.76111235477E+02  0.90313642591E+03  0.70105063687E+03  0.11458273559E+04  0.10100000352E+00 0.  1.
</event>
<event>
 5   0  0.3818907E-05  0.1988462E+04  0.7818609E-02  0.8612034E-01
       -1   -1    0    0    0  501  0.00000000000E+00  0.00000000000E+00  0.13075988761E+04  0.13075988761E+04  0.50400001928E-02 0.  1.
        1   -1    0    0  501    0  0.00000000000E+00  0.00000000000E+00 -0.75596242547E+03  0.75596242549E+03  0.50400001928E-02 0. -1.
    10030    2    1    2    0    0  0.00000000000E+00  0.00000000000E+00  0.55163645065E+03  0.20635613016E+04  0.19884623386E+04 0.  0.
        1    1    3    3  502    0  0.20478554459E+03 -0.75176503472E+02 -0.73081984927E+03  0.76268360285E+03  0.50400001928E-02 0. -1.
       -1    1    3    3    0  502 -0.20478554459E+03  0.75176503472E+02  0.12824562999E+04  0.13008776988E+04  0.50400001928E-02 0.  1.
</event>
<event>
 5   0  0.7935008E-05  0.2004930E+04  0.7818609E-02  0.8604319E-01
       -2   -1    0    0    0  501  0.00000000000E+00  0.00000000000E+00  0.59856690754E+03  0.59856690755E+03  0.25500000920E-02 0.  1.
        2   -1    0    0  501    0  0.00000000000E+00  0.00000000000E+00 -0.16789041033E+04  0.16789041033E+04  0.25500000920E-02 0. -1.
    10030    2    1    2    0    0  0.00000000000E+00  0.00000000000E+00 -0.10803371958E+04  0.22774710109E+04  0.20049303601E+04 0.  0.
        3    1    3    3  502    0  0.18399444351E+03  0.58133045346E+03  0.36369426171E+03  0.70998068816E+03  0.10100000352E+00 0.  1.
       -3    1    3    3    0  502 -0.18399444351E+03 -0.58133045346E+03 -0.14440314575E+04  0.15674903227E+04  0.10100000352E+00 0. -1.
</event>
<event>
 5   0  0.3772949E-05  0.2024495E+04  0.7818609E-02  0.8595253E-01
       -1   -1    0    0    0  501  0.00000000000E+00  0.00000000000E+00  0.83623429439E+03  0.83623429440E+03  0.50400001928E-02 0. -1.
        1   -1    0    0  501    0  0.00000000000E+00  0.00000000000E+00 -0.12253086688E+04  0.12253086688E+04  0.50400001928E-02 0.  1.
    10030    2    1    2    0    0  0.00000000000E+00  0.00000000000E+00 -0.38907437438E+03  0.20615429632E+04  0.20244951272E+04 0.  0.
        2    1    3    3  502    0  0.81634900843E+03 -0.48059120785E+03  0.16871408098E+03  0.96221518059E+03  0.25500000920E-02 0. -1.
       -2    1    3    3    0  502 -0.81634900843E+03  0.48059120785E+03 -0.55778845536E+03  0.10993277826E+04  0.25500000920E-02 0.  1.
</event>
<event>
 5   0  0.8022574E-05  0.1992438E+04  0.7818609E-02  0.8610164E-01
       -2   -1    0    0    0  501  0.00000000000E+00  0.00000000000E+00  0.69861217166E+03  0.69861217166E+03  0.25500000920E-02 0.  1.
        2   -1    0    0  501    0  0.00000000000E+00  0.00000000000E+00 -0.14206053954E+04  0.14206053954E+04  0.25500000920E-02 0. -1.
    10030    2    1    2    0    0  0.00000000000E+00  0.00000000000E+00 -0.72199322373E+03  0.21192175671E+04  0.19924379241E+04 0.  0.
        1    1    3    3  502    0  0.13248402036E+02 -0.56818237566E+03 -0.12312552751E+04  0.13560959718E+04  0.50400001928E-02 0. -1.
       -1    1    3    3    0  502 -0.13248402036E+02  0.56818237566E+03  0.50926205138E+03  0.76312159527E+03  0.50400001928E-02 0.  1.
</event>
<event>
 5   0  0.7843846E-05  0.1991146E+04  0.7818609E-02  0.8610772E-01
        2   -1    0    0  501    0  0.00000000000E+00  0.00000000000E+00  0.17240943794E+04  0.17240943795E+04  0.25500000920E-02 0.  1.
       -2   -1    0    0    0  501  0.00000000000E+00  0.00000000000E+00 -0.57489031779E+03  0.57489031780E+03  0.25500000920E-02 0. -1.
    10030    2    1    2    0    0  0.00000000000E+00  0.00000000000E+00  0.11492040617E+04  0.22989846973E+04  0.19911455655E+04 0.  0.
        2    1    3    3  502    0  0.64282925060E+03 -0.34429688473E+03  0.13571777682E+04  0.15406820843E+04  0.25500000920E-02 0.  1.
       -2    1    3    3    0  502 -0.64282925060E+03  0.34429688473E+03 -0.20797370654E+03  0.75830261299E+03  0.25500000920E-02 0. -1.
</event>
<event>
 5   0  0.2859625E-05  0.1959353E+04  0.7818609E-02  0.8625864E-01
       -3   -1    0    0    0  501  0.00000000000E+00  0.00000000000E+00  0.11469376479E+04  0.11469376523E+04  0.10100000352E+00 0.  1.
        3   -1    0    0  501    0  0.00000000000E+00  0.00000000000E+00 -0.83680749472E+03  0.83680750082E+03  0.10100000352E+00 0. -1.
    10030    2    1    2    0    0  0.00000000000E+00  0.00000000000E+00  0.31013015313E+03  0.19837451531E+04  0.19593529852E+04 0.  0.
        2    1    3    3  502    0  0.61885049029E+03  0.42432830395E+03  0.79277588409E+03  0.10915695311E+04  0.25500000920E-02 0.  1.
       -2    1    3    3    0  502 -0.61885049029E+03 -0.42432830395E+03 -0.48264573096E+03  0.89217562200E+03  0.25500000920E-02 0. -1.
</event>
<event>
 5   0  0.3787698E-05  0.1996806E+04  0.7818609E-02  0.8608116E-01
        1   -1    0    0  501    0  0.00000000000E+00  0.00000000000E+00  0.12035046355E+04  0.12035046355E+04  0.50400001928E-02 0.  1.
       -1   -1    0    0    0  501  0.00000000000E+00  0.00000000000E+00 -0.82825445775E+03  0.82825445776E+03  0.50400001928E-02 0. -1.
    10030    2    1    2    0    0  0.00000000000E+00  0.00000000000E+00  0.37525017771E+03  0.20317590932E+04  0.19968055281E+04 0.  0.
        4    1    3    3  502    0  0.57680949047E+03 -0.18696172586E+03  0.99469468167E+03  0.11649390533E+04  0.12699999809E+01 0.  1.
       -4    1    3    3    0  502 -0.57680949047E+03  0.18696172586E+03 -0.61944450397E+03  0.86682003994E+03  0.12699999809E+01 0. -1.
</event>
<event>
 5   0  0.2859625E-05  0.2000204E+04  0.7818609E-02  0.8606525E-01
        3   -1    0    0  501    0  0.00000000000E+00  0.00000000000E+00  0.15420561130E+04  0.15420561163E+04  0.10100000352E+00 0. -1.
       -3   -1    0    0    0  501  0.00000000000E+00  0.00000000000E+00 -0.64861713891E+03  0.64861714678E+03  0.10100000352E+00 0.  1.
    10030    2    1    2    0    0  0.00000000000E+00  0.00000000000E+00  0.89343897412E+03  0.21906732631E+04  0.20002040259E+04 0.  0.
        3    1    3    3  502    0  0.28271617874E+02 -0.33948715470E+03 -0.58311415631E+03  0.67533172743E+03  0.10100000352E+00 0.  1.
       -3    1    3    3    0  502 -0.28271617874E+02  0.33948715470E+03  0.14765531304E+04  0.15153415357E+04  0.10100000352E+00 0. -1.
</event>
<event>
 5   0  0.7857136E-05  0.2017146E+04  0.7818609E-02  0.8598646E-01
        2   -1    0    0  501    0  0.00000000000E+00  0.00000000000E+00  0.15702259934E+04  0.15702259934E+04  0.25500000920E-02 0. -1.
       -2   -1    0    0    0  501  0.00000000000E+00  0.00000000000E+00 -0.64781700181E+03  0.64781700182E+03  0.25500000920E-02 0.  1.
    10030    2    1    2    0    0  0.00000000000E+00  0.00000000000E+00  0.92240899160E+03  0.22180429952E+04  0.20171456023E+04 0.  0.
        4    1    3    3  502    0  0.31654153554E+03 -0.92854508686E+03  0.71866697911E+03  0.12160914282E+04  0.12699999809E+01 0. -1.
       -4    1    3    3    0  502 -0.31654153554E+03  0.92854508686E+03  0.20374201249E+03  0.10019515670E+04  0.12699999809E+01 0.  1.
</event>
<event>
 5   0  0.8011197E-05  0.1935902E+04  0.7818609E-02  0.8637189E-01
        2   -1    0    0  501    0  0.00000000000E+00  0.00000000000E+00  0.81822285066E+03  0.81822285066E+03  0.25500000920E-02 0.  1.
       -2   -1    0    0    0  501  0.00000000000E+00  0.00000000000E+00 -0.11450784321E+04  0.11450784321E+04  0.25500000920E-02 0. -1.
    10030    2    1    2    0    0  0.00000000000E+00  0.00000000000E+00 -0.32685558148E+03  0.19633012828E+04  0.19359022072E+04 0.  0.
        5    1    3    3  502    0 -0.51660984045E+03  0.28791487353E+03  0.61365876298E+03  0.85227922011E+03  0.46999998093E+01 0.  1.
       -5    1    3    3    0  502  0.51660984045E+03 -0.28791487353E+03 -0.94051434446E+03  0.11110220627E+04  0.46999998093E+01 0. -1.
</event>
<event>
 5   0  0.3818907E-05  0.2009729E+04  0.7818609E-02  0.8602085E-01
       -1   -1    0    0    0  501  0.00000000000E+00  0.00000000000E+00  0.10808330021E+04  0.10808330022E+04  0.50400001928E-02 0.  1.
        1   -1    0    0  501    0  0.00000000000E+00  0.00000000000E+00 -0.93423573352E+03  0.93423573353E+03  0.50400001928E-02 0. -1.
    10030    2    1    2    0    0  0.00000000000E+00  0.00000000000E+00  0.14659726863E+03  0.20150687357E+04  0.20097291485E+04 0.  0.
        1    1    3    3  502    0  0.77529304039E+03  0.50111660498E+03 -0.32468878259E+03  0.97858058218E+03  0.50400001928E-02 0. -1.
       -1    1    3    3    0  502 -0.77529304039E+03 -0.50111660498E+03  0.47128605122E+03  0.10364881535E+04  0.50400001928E-02 0.  1.
</event>
<event>
 5   0  0.7857136E-05  0.1998683E+04  0.7818609E-02  0.8607237E-01
       -2   -1    0    0    0  501  0.00000000000E+00  0.00000000000E+00  0.60630007988E+03  0.60630007988E+03  0.25500000920E-02 0.  1.
        2   -1    0    0  501    0  0.00000000000E+00  0.00000000000E+00 -0.16471773107E+04  0.16471773107E+04  0.25500000920E-02 0. -1.
    10030    2    1    2    0    0  0.00000000000E+00  0.00000000000E+00 -0.10408772308E+04  0.22534773906E+04  0.19986833016E+04 0.  0.
        4    1    3    3  502    0 -0.46142349229E+03  0.85806723981E+03 -0.26961250019E+03  0.10108825552E+04  0.12699999809E+01 0.  1.
       -4    1    3    3    0  502  0.46142349229E+03 -0.85806723981E+03 -0.77126473062E+03  0.12425948354E+04  0.12699999809E+01 0. -1.
</event>
<event>
 5   0  0.2859625E-05  0.2002050E+04  0.7818609E-02  0.8605663E-01
       -3   -1    0    0    0  501  0.00000000000E+00  0.00000000000E+00  0.86770613056E+03  0.86770613644E+03  0.10100000352E+00 0.  1.
        3   -1    0    0  501    0  0.00000000000E+00  0.00000000000E+00 -0.11548270913E+04  0.11548270958E+04  0.10100000352E+00 0. -1.
    10030    2    1    2    0    0  0.00000000000E+00  0.00000000000E+00 -0.28712096077E+03  0.20225332322E+04  0.20020495072E+04 0.  0.
        3    1    3    3  502    0  0.73148762343E+03 -0.67877715534E+03 -0.22334942984E+03  0.10225935399E+04  0.10100000352E+00 0. -1.
       -3    1    3    3    0  502 -0.73148762343E+03  0.67877715534E+03 -0.63771530935E+02  0.99993969228E+03  0.10100000352E+00 0.  1.
</event>
<event>
 5   0  0.3970042E-05  0.1998270E+04  0.7818609E-02  0.8607430E-01
       -1   -1    0    0    0  501  0.00000000000E+00  0.00000000000E+00  0.54492393070E+03  0.54492393073E+03  0.50400001928E-02 0. -1.
        1   -1    0    0  501    0  0.00000000000E+00  0.00000000000E+00 -0.18319453435E+04  0.18319453435E+04  0.50400001928E-02 0.  1.
    10030    2    1    2    0    0  0.00000000000E+00  0.00000000000E+00 -0.12870214128E+04  0.23768692742E+04  0.19982701093E+04 0.  0.
        3    1    3    3  502    0 -0.18981667706E+03 -0.49822517308E+02  0.52177392457E+03  0.55745913993E+03  0.10100000352E+00 0. -1.
       -3    1    3    3    0  502  0.18981667706E+03  0.49822517308E+02 -0.18087953374E+04  0.18194101343E+04  0.10100000352E+00 0.  1.
</event>
<event>
 5   0  0.3772949E-05  0.1986675E+04  0.7818609E-02  0.8612876E-01
       -1   -1    0    0    0  501  0.00000000000E+00  0.00000000000E+00  0.62352852566E+03  0.62352852569E+03  0.50400001928E-02 0. -1.
        1   -1    0    0  501    0  0.00000000000E+00  0.00000000000E+00 -0.15824770366E+04  0.15824770366E+04  0.50400001928E-02 0.  1.
    10030    2    1    2    0    0  0.00000000000E+00  0.00000000000E+00 -0.95894851089E+03  0.22060055622E+04  0.19866751859E+04 0.  0.
        2    1    3    3  502    0 -0.29832193725E+03  0.67826882862E+03  0.25513365687E+03  0.78366942329E+03  0.25500000920E-02 0. -1.
       -2    1    3    3    0  502  0.29832193725E+03 -0.67826882862E+03 -0.12140821678E+04  0.14223361390E+04  0.25500000920E-02 0.  1.
</event>
<event>
 5   0  0.3772949E-05  0.2002170E+04  0.7818609E-02  0.8605607E-01
        1   -1    0    0  501    0  0.00000000000E+00  0.00000000000E+00  0.27044095648E+04  0.27044095648E+04  0.50400001928E-02 0.  1.
       -1   -1    0    0    0  501  0.00000000000E+00  0.00000000000E+00 -0.37056939609E+03  0.37056939612E+03  0.50400001928E-02 0. -1.
    10030    2    1    2    0    0  0.00000000000E+00  0.00000000000E+00  0.23338401687E+04  0.30749789609E+04  0.20021702418E+04 0.  0.
        2    1    3    3  502    0  0.69074922441E+03  0.53480073272E+03  0.41605327969E+03  0.96759839102E+03  0.25500000920E-02 0. -1.
       -2    1    3    3    0  502 -0.69074922441E+03 -0.53480073272E+03  0.19177868890E+04  0.21073805699E+04  0.25500000920E-02 0.  1.
</event>
<event>
 5   0  0.3818907E-05  0.1996019E+04  0.7818609E-02  0.8608484E-01
       -1   -1    0    0    0  501  0.00000000000E+00  0.00000000000E+00  0.11735820267E+04  0.11735820267E+04  0.50400001928E-02 0.  1.
        1   -1    0    0  501    0  0.00000000000E+00  0.00000000000E+00 -0.84870339483E+03  0.84870339485E+03  0.50400001928E-02 0. -1.
    10030    2    1    2    0    0  0.00000000000E+00  0.00000000000E+00  0.32487863183E+03  0.20222854215E+04  0.19960190883E+04 0.  0.
        1    1    3    3  502    0 -0.42584771103E+02  0.38442516870E+03  0.10945607261E+04  0.11608873142E+04  0.50400001928E-02 0.  1.
       -1    1    3    3    0  502  0.42584771103E+02 -0.38442516870E+03 -0.76968209428E+03  0.86139810735E+03  0.50400001928E-02 0. -1.
</event>
<event>
 5   0  0.3549426E-05  0.1991025E+04  0.7818609E-02  0.8610828E-01
       -1   -1    0    0    0  501  0.00000000000E+00  0.00000000000E+00  0.88378940599E+03  0.88378940600E+03  0.50400001928E-02 0. -1.
        1   -1    0    0  501    0  0.00000000000E+00  0.00000000000E+00 -0.11213593547E+04  0.11213593547E+04  0.50400001928E-02 0.  1.
    10030    2    1    2    0    0  0.00000000000E+00  0.00000000000E+00 -0.23756994871E+03  0.20051487607E+04  0.19910253821E+04 0.  0.
        5    1    3    3  502    0  0.99443614361E+03 -0.44111377268E+02 -0.10548635544E+03  0.10009987605E+04  0.46999998093E+01 0. -1.
       -5    1    3    3    0  502 -0.99443614361E+03  0.44111377268E+02 -0.13208359327E+03  0.10041500002E+04  0.46999998093E+01 0.  1.
</event>
<event>
 5   0  0.3772949E-05  0.1979380E+04  0.7818609E-02  0.8616322E-01
       -1   -1    0    0    0  501  0.00000000000E+00  0.00000000000E+00  0.38258241002E+03  0.38258241006E+03  0.50400001928E-02 0. -1.
        1   -1    0    0  501    0  0.00000000000E+00  0.00000000000E+00 -0.25601978813E+04  0.25601978813E+04  0.50400001928E-02 0.  1.
    10030    2    1    2    0    0  0.00000000000E+00  0.00000000000E+00 -0.21776154713E+04  0.29427802914E+04  0.19793803835E+04 0.  0.
        2    1    3    3  502    0 -0.78609559908E+03 -0.22072607571E+03 -0.19203342454E+04  0.20867079109E+04  0.25500000920E-02 0.  1.
       -2    1    3    3    0  502  0.78609559908E+03  0.22072607571E+03 -0.25728122589E+03  0.85607238046E+03  0.25500000920E-02 0. -1.
</event>
<event>
 5   0  0.7857136E-05  0.2000756E+04  0.7818609E-02  0.8606267E-01
       -2   -1    0    0    0  501  0.00000000000E+00  0.00000000000E+00  0.39975905110E+03  0.39975905111E+03  0.25500000920E-02 0. -1.
        2   -1    0    0  501    0  0.00000000000E+00  0.00000000000E+00 -0.25033980025E+04  0.25033980025E+04  0.25500000920E-02 0.  1.
    10030    2    1    2    0    0  0.00000000000E+00  0.00000000000E+00 -0.21036389514E+04  0.29031570536E+04  0.20007558672E+04 0.  0.
        4    1    3    3  502    0 -0.99099061461E+03  0.12612603579E+03 -0.11283841360E+04  0.15070575790E+04  0.12699999809E+01 0. -1.
       -4    1    3    3    0  502  0.99099061461E+03 -0.12612603579E+03 -0.97525481535E+03  0.13960994746E+04  0.12699999809E+01 0.  1.
</event>
<event>
 5   0  0.7857136E-05  0.2002642E+04  0.7818609E-02  0.8605386E-01
        2   -1    0    0  501    0  0.00000000000E+00  0.00000000000E+00  0.91421349363E+03  0.91421349363E+03  0.25500000920E-02 0.  1.
       -2   -1    0    0    0  501  0.00000000000E+00  0.00000000000E+00 -0.10967284948E+04  0.10967284948E+04  0.25500000920E-02 0. -1.
    10030    2    1    2    0    0  0.00000000000E+00  0.00000000000E+00 -0.18251500116E+03  0.20109419884E+04  0.20026422434E+04 0.  0.
        4    1    3    3  502    0  0.87628174055E+03 -0.42746795849E+03 -0.32033413854E+03  0.10262622070E+04  0.12699999809E+01 0. -1.
       -4    1    3    3    0  502 -0.87628174055E+03  0.42746795849E+03  0.13781913739E+03  0.98467978140E+03  0.12699999809E+01 0.  1.
</event>
<event>
 5   0  0.8022574E-05  0.1996935E+04  0.7818609E-02  0.8608055E-01
        2   -1    0    0  501    0  0.00000000000E+00  0.00000000000E+00  0.24306672436E+04  0.24306672436E+04  0.25500000920E-02 0.  1.
       -2   -1    0    0    0  501  0.00000000000E+00  0.00000000000E+00 -0.41014980631E+03  0.41014980632E+03  0.25500000920E-02 0. -1.
    10030    2    1    2    0    0  0.00000000000E+00  0.00000000000E+00  0.20205174373E+04  0.28408170499E+04  0.19969353512E+04 0.  0.
        1    1    3    3  502    0 -0.11111574335E+03 -0.26975579522E+03 -0.34816258780E+03  0.45423791678E+03  0.50400001928E-02 0. -1.
       -1    1    3    3    0  502  0.11111574335E+03  0.26975579522E+03  0.23686800251E+04  0.23865791331E+04  0.50400001928E-02 0.  1.
</event>
<event>
 5   0  0.3787698E-05  0.1996509E+04  0.7818609E-02  0.8608254E-01
        1   -1    0    0  501    0  0.00000000000E+00  0.00000000000E+00  0.73702552176E+03  0.73702552178E+03  0.50400001928E-02 0. -1.
       -1   -1    0    0    0  501  0.00000000000E+00  0.00000000000E+00 -0.13520728074E+04  0.13520728074E+04  0.50400001928E-02 0.  1.
    10030    2    1    2    0    0  0.00000000000E+00  0.00000000000E+00 -0.61504728564E+03  0.20890983292E+04  0.19965091198E+04 0.  0.
        4    1    3    3  502    0  0.37640651049E+03 -0.87525983325E+03  0.41995483029E+01  0.95277535965E+03  0.12699999809E+01 0. -1.
       -4    1    3    3    0  502 -0.37640651049E+03  0.87525983325E+03 -0.61924683394E+03  0.11363229695E+04  0.12699999809E+01 0.  1.
</event>
<event>
 5   0  0.3787698E-05  0.1992177E+04  0.7818609E-02  0.8610287E-01
        1   -1    0    0  501    0  0.00000000000E+00  0.00000000000E+00  0.12961770496E+04  0.12961770496E+04  0.50400001928E-02 0.  1.
       -1   -1    0    0    0  501  0.00000000000E+00  0.00000000000E+00 -0.76547591220E+03  0.76547591222E+03  0.50400001928E-02 0. -1.
    10030    2    1    2    0    0  0.00000000000E+00  0.00000000000E+00  0.53070113738E+03  0.20616529618E+04  0.19921770096E+04 0.  0.
        4    1    3    3  502    0  0.88712436688E+03 -0.41047473319E+03  0.46363516844E+03  0.10818679823E+04  0.12699999809E+01 0.  1.
       -4    1    3    3    0  502 -0.88712436688E+03  0.41047473319E+03  0.67065968941E+02  0.97978497947E+03  0.12699999809E+01 0. -1.
</event>
<event>
 5   0  0.8011197E-05  0.1995713E+04  0.7818609E-02  0.8608627E-01
       -2   -1    0    0    0  501  0.00000000000E+00  0.00000000000E+00  0.54553007569E+03  0.54553007570E+03  0.25500000920E-02 0.  1.
        2   -1    0    0  501    0  0.00000000000E+00  0.00000000000E+00 -0.18252301895E+04  0.18252301895E+04  0.25500000920E-02 0. -1.
    10030    2    1    2    0    0  0.00000000000E+00  0.00000000000E+00 -0.12797001138E+04  0.23707602652E+04  0.19957133696E+04 0.  0.
        5    1    3    3  502    0 -0.93408944374E+03 -0.13793978812E+03 -0.25648765463E+03  0.97844697405E+03  0.46999998093E+01 0.  1.
       -5    1    3    3    0  502  0.93408944374E+03  0.13793978812E+03 -0.10232124591E+04  0.13923132911E+04  0.46999998093E+01 0. -1.
</event>
<event>
 5   0  0.3549426E-05  0.1996908E+04  0.7818609E-02  0.8608068E-01
        1   -1    0    0  501    0  0.00000000000E+00  0.00000000000E+00  0.23927951366E+04  0.23927951366E+04  0.50400001928E-02 0. -1.
       -1   -1    0    0    0  501  0.00000000000E+00  0.00000000000E+00 -0.41663003770E+03  0.41663003773E+03  0.50400001928E-02 0.  1.
    10030    2    1    2    0    0  0.00000000000E+00  0.00000000000E+00  0.19761650989E+04  0.28094251743E+04  0.19969079378E+04 0.  0.
        5    1    3    3  502    0  0.83096368824E+03 -0.15391275785E+03  0.24004889083E+03  0.87854160299E+03  0.46999998093E+01 0.  1.
       -5    1    3    3    0  502 -0.83096368824E+03  0.15391275785E+03  0.17361162081E+04  0.19308835714E+04  0.46999998093E+01 0. -1.
</event>
<event>
 5   0  0.3549426E-05  0.1994456E+04  0.7818609E-02  0.8609217E-01
        1   -1    0    0  501    0  0.00000000000E+00  0.00000000000E+00  0.72880432039E+03  0.72880432041E+03  0.50400001928E-02 0.  1.
       -1   -1    0    0    0  501  0.00000000000E+00  0.00000000000E+00 -0.13645138513E+04  0.13645138513E+04  0.50400001928E-02 0. -1.
    10030    2    1    2    0    0  0.00000000000E+00  0.00000000000E+00 -0.63570953086E+03  0.20933181717E+04  0.19944559058E+04 0.  0.
        5    1    3    3  502    0  0.29040636452E+03  0.69693618930E+03  0.36588544229E+03  0.83901737490E+03  0.46999998093E+01 0.  1.
       -5    1    3    3    0  502 -0.29040636452E+03 -0.69693618930E+03 -0.10015949732E+04  0.12543007968E+04  0.46999998093E+01 0. -1.
</event>
<event>
 5   0  0.7843846E-05  0.1986314E+04  0.7818609E-02  0.8613046E-01
        2   -1    0    0  501    0  0.00000000000E+00  0.00000000000E+00  0.11308543278E+04  0.11308543278E+04  0.25500000920E-02 0. -1.
       -2   -1    0    0    0  501  0.00000000000E+00  0.00000000000E+00 -0.87222665812E+03  0.87222665813E+03  0.25500000920E-02 0.  1.
    10030    2    1    2    0    0  0.00000000000E+00  0.00000000000E+00  0.25862766965E+03  0.20030809859E+04  0.19863144677E+04 0.  0.
        2    1    3    3  502    0  0.41616792697E+03 -0.69320473728E+03 -0.45229768400E+03  0.92644575998E+03  0.25500000920E-02 0. -1.
       -2    1    3    3    0  502 -0.41616792697E+03  0.69320473728E+03  0.71092535365E+03  0.10766352259E+04  0.25500000920E-02 0.  1.
</event>
<event>
 5   0  0.3970042E-05  0.2013492E+04  0.7818609E-02  0.8600338E-01
        1   -1    0    0  501    0  0.00000000000E+00  0.00000000000E+00  0.11468920861E+04  0.11468920861E+04  0.50400001928E-02 0.  1.
       -1   -1    0    0    0  501  0.00000000000E+00  0.00000000000E+00 -0.88372566385E+03  0.88372566387E+03  0.50400001928E-02 0. -1.
    10030    2    1    2    0    0  0.00000000000E+00  0.00000000000E+00  0.26316642223E+03  0.20306177500E+04  0.20134924586E+04 0.  0.
        3    1    3    3  502    0  0.76335110068E+03 -0.11332820254E+03  0.78360333523E+03  0.10998101571E+04  0.10100000352E+00 0.  1.
       -3    1    3    3    0  502 -0.76335110068E+03  0.11332820254E+03 -0.52043691299E+03  0.93080759290E+03  0.10100000352E+00 0. -1.
</event>
<event>
 5   0  0.7935008E-05  0.1991546E+04  0.7818609E-02  0.8610584E-01
       -2   -1    0    0    0  501  0.00000000000E+00  0.00000000000E+00  0.81792091642E+03  0.81792091642E+03  0.25500000920E-02 0. -1.
        2   -1    0    0  501    0  0.00000000000E+00  0.00000000000E+00 -0.12122977123E+04  0.12122977123E+04  0.25500000920E-02 0.  1.
    10030    2    1    2    0    0  0.00000000000E+00  0.00000000000E+00 -0.39437679591E+03  0.20302186288E+04  0.19915457874E+04 0.  0.
        3    1    3    3  502    0  0.55208018318E+03 -0.82871582506E+03 -0.19830431090E+03  0.10153260842E+04  0.10100000352E+00 0. -1.
       -3    1    3    3    0  502 -0.55208018318E+03  0.82871582506E+03 -0.19607248501E+03  0.10148925445E+04  0.10100000352E+00 0.  1.
</event>
<event>
 5   0  0.2859625E-05  0.1995285E+04  0.7818609E-02  0.8608828E-01
       -3   -1    0    0    0  501  0.00000000000E+00  0.00000000000E+00  0.15717120317E+04  0.15717120349E+04  0.10100000352E+00 0. -1.
        3   -1    0    0  501    0  0.00000000000E+00  0.00000000000E+00 -0.63325237916E+03  0.63325238721E+03  0.10100000352E+00 0.  1.
    10030    2    1    2    0    0  0.00000000000E+00  0.00000000000E+00  0.93845965251E+03  0.22049644221E+04  0.19952848377E+04 0.  0.
        3    1    3    3  502    0 -0.21699833857E+02 -0.99118256656E+03  0.34628853835E+03  0.10501569050E+04  0.10100000352E+00 0. -1.
       -3    1    3    3    0  502  0.21699833857E+02  0.99118256656E+03  0.59217111416E+03  0.11548075172E+04  0.10100000352E+00 0.  1.
</event>
<event>
 5   0  0.7857136E-05  0.1912978E+04  0.7818609E-02  0.8648423E-01
       -2   -1    0    0    0  501  0.00000000000E+00  0.00000000000E+00  0.41400304361E+03  0.41400304362E+03  0.25500000920E-02 0.  1.
        2   -1    0    0  501    0  0.00000000000E+00  0.00000000000E+00 -0.22098181200E+04  0.22098181200E+04  0.25500000920E-02 0. -1.
    10030    2    1    2    0    0  0.00000000000E+00  0.00000000000E+00 -0.17958150764E+04  0.26238211636E+04  0.19129782304E+04 0.  0.
        4    1    3    3  502    0 -0.52467668113E+03  0.79668334147E+03 -0.80209389273E+03  0.12463330983E+04  0.12699999809E+01 0.  1.
       -4    1    3    3    0  502  0.52467668113E+03 -0.79668334147E+03 -0.99372118367E+03  0.13774880653E+04  0.12699999809E+01 0. -1.
</event>
<event>
 5   0  0.7857136E-05  0.1992974E+04  0.7818609E-02  0.8609913E-01
       -2   -1    0    0    0  501  0.00000000000E+00  0.00000000000E+00  0.10244165420E+04  0.10244165420E+04  0.25500000920E-02 0. -1.
        2   -1    0    0  501    0  0.00000000000E+00  0.00000000000E+00 -0.96931847378E+03  0.96931847378E+03  0.25500000920E-02 0.  1.
    10030    2    1    2    0    0  0.00000000000E+00  0.00000000000E+00  0.55098068178E+02  0.19937350157E+04  0.19929735362E+04 0.  0.
        4    1    3    3  502    0 -0.29472091918E+03  0.38576161900E+02 -0.92393777504E+03  0.97057259673E+03  0.12699999809E+01 0.  1.
       -4    1    3    3    0  502  0.29472091918E+03 -0.38576161900E+02  0.97903584322E+03  0.10231624190E+04  0.12699999809E+01 0. -1.
</event>
<event>
 5   0  0.3772949E-05  0.2029505E+04  0.7818609E-02  0.8592949E-01
       -1   -1    0    0    0  501  0.00000000000E+00  0.00000000000E+00  0.63112028225E+03  0.63112028227E+03  0.50400001928E-02 0. -1.
        1   -1    0    0  501    0  0.00000000000E+00  0.00000000000E+00 -0.16315787664E+04  0.16315787664E+04  0.50400001928E-02 0.  1.
    10030    2    1    2    0    0  0.00000000000E+00  0.00000000000E+00 -0.10004584842E+04  0.22626990487E+04  0.20295048180E+04 0.  0.
        2    1    3    3  502    0 -0.28423901764E+03 -0.96618298450E+03 -0.36177890961E+03  0.10701333366E+04  0.25500000920E-02 0. -1.
       -2    1    3    3    0  502  0.28423901764E+03  0.96618298450E+03 -0.63867957456E+03  0.11925657121E+04  0.25500000920E-02 0.  1.
</event>
<event>
 5   0  0.8022574E-05  0.2007083E+04  0.7818609E-02  0.8603316E-01
        2   -1    0    0  501    0  0.00000000000E+00  0.00000000000E+00  0.17767510084E+04  0.17767510084E+04  0.25500000920E-02 0. -1.
       -2   -1    0    0    0  501  0.00000000000E+00  0.00000000000E+00 -0.56681863971E+03  0.56681863972E+03  0.25500000920E-02 0.  1.
    10030    2    1    2    0    0  0.00000000000E+00  0.00000000000E+00  0.12099323687E+04  0.23435696481E+04  0.20070830473E+04 0.  0.
        1    1    3    3  502    0 -0.41067390152E+03  0.64113135998E+03 -0.15838833861E+03  0.77768203012E+03  0.50400001928E-02 0.  1.
       -1    1    3    3    0  502  0.41067390152E+03 -0.64113135998E+03  0.13683207073E+04  0.15658876180E+04  0.50400001928E-02 0. -1.
</event>
<event>
 5   0  0.3818907E-05  0.2017972E+04  0.7818609E-02  0.8598264E-01
       -1   -1    0    0    0  501  0.00000000000E+00  0.00000000000E+00  0.94123781230E+03  0.94123781232E+03  0.50400001928E-02 0.  1.
        1   -1    0    0  501    0  0.00000000000E+00  0.00000000000E+00 -0.10816100533E+04  0.10816100533E+04  0.50400001928E-02 0. -1.
    10030    2    1    2    0    0  0.00000000000E+00  0.00000000000E+00 -0.14037224103E+03  0.20228478657E+04  0.20179715364E+04 0.  0.
        1    1    3    3  502    0 -0.35201881082E+03  0.11488094627E+03 -0.10110368172E+04  0.10767127383E+04  0.50400001928E-02 0. -1.
       -1    1    3    3    0  502  0.35201881082E+03 -0.11488094627E+03  0.87066457619E+03  0.94613512737E+03  0.50400001928E-02 0.  1.
</event>
<event>
 5   0  0.3549426E-05  0.1993757E+04  0.7818609E-02  0.8609545E-01
       -1   -1    0    0    0  501  0.00000000000E+00  0.00000000000E+00  0.48442081362E+03  0.48442081365E+03  0.50400001928E-02 0.  1.
        1   -1    0    0  501    0  0.00000000000E+00  0.00000000000E+00 -0.20514531390E+04  0.20514531390E+04  0.50400001928E-02 0. -1.
    10030    2    1    2    0    0  0.00000000000E+00  0.00000000000E+00 -0.15670323254E+04  0.25358739527E+04  0.19937568545E+04 0.  0.
        5    1    3    3  502    0  0.67213824982E+03  0.24938294568E+03 -0.16645200394E+04  0.18123495061E+04  0.46999998093E+01 0. -1.
       -5    1    3    3    0  502 -0.67213824982E+03 -0.24938294568E+03  0.97487714024E+02  0.72352444661E+03  0.46999998093E+01 0.  1.
</event>
<event>
 5   0  0.8022574E-05  0.2029235E+04  0.7818609E-02  0.8593073E-01
       -2   -1    0    0    0  501  0.00000000000E+00  0.00000000000E+00  0.64522982542E+03  0.64522982542E+03  0.25500000920E-02 0.  1.
        2   -1    0    0  501    0  0.00000000000E+00  0.00000000000E+00 -0.15954766440E+04  0.15954766440E+04  0.25500000920E-02 0. -1.
    10030    2    1    2    0    0  0.00000000000E+00  0.00000000000E+00 -0.95024681859E+03  0.22407064694E+04  0.20292354388E+04 0.  0.
        1    1    3    3  502    0  0.74424054736E+03 -0.20075022913E+03  0.25336752169E+03  0.81141219358E+03  0.50400001928E-02 0.  1.
       -1    1    3    3    0  502 -0.74424054736E+03  0.20075022913E+03 -0.12036143403E+04  0.14292942759E+04  0.50400001928E-02 0. -1.
</event>
<event>
 5   0  0.3549426E-05  0.2017699E+04  0.7818609E-02  0.8598390E-01
        1   -1    0    0  501    0  0.00000000000E+00  0.00000000000E+00  0.14396460428E+04  0.14396460428E+04  0.50400001928E-02 0. -1.
       -1   -1    0    0    0  501  0.00000000000E+00  0.00000000000E+00 -0.70696388840E+03  0.70696388841E+03  0.50400001928E-02 0.  1.
    10030    2    1    2    0    0  0.00000000000E+00  0.00000000000E+00  0.73268215439E+03  0.21466099312E+04  0.20176994467E+04 0.  0.
        5    1    3    3  502    0 -0.36151980654E+03 -0.81598364146E+02 -0.63190330841E+03  0.73258360938E+03  0.46999998093E+01 0.  1.
       -5    1    3    3    0  502  0.36151980654E+03  0.81598364146E+02  0.13645854628E+04  0.14140263218E+04  0.46999998093E+01 0. -1.
</event>
<event>
 5   0  0.3970042E-05  0.1976801E+04  0.7818609E-02  0.8617545E-01
       -1   -1    0    0    0  501  0.00000000000E+00  0.00000000000E+00  0.63091308046E+03  0.63091308048E+03  0.50400001928E-02 0. -1.
        1   -1    0    0  501    0  0.00000000000E+00  0.00000000000E+00 -0.15484465151E+04  0.15484465151E+04  0.50400001928E-02 0.  1.
    10030    2    1    2    0    0  0.00000000000E+00  0.00000000000E+00 -0.91753343461E+03  0.21793595956E+04  0.19768006078E+04 0.  0.
        3    1    3    3  502    0 -0.18520499567E+03  0.96662056421E+03 -0.35845456990E+03  0.10474473230E+04  0.10100000352E+00 0.  1.
       -3    1    3    3    0  502  0.18520499567E+03 -0.96662056421E+03 -0.55907886471E+03  0.11319122725E+04  0.10100000352E+00 0. -1.
</event>
<event>
 5   0  0.3787698E-05  0.1988759E+04  0.7818609E-02  0.8611894E-01
       -1   -1    0    0    0  501  0.00000000000E+00  0.00000000000E+00  0.97505780518E+03  0.97505780520E+03  0.50400001928E-02 0.  1.
        1   -1    0    0  501    0  0.00000000000E+00  0.00000000000E+00 -0.10140845407E+04  0.10140845407E+04  0.50400001928E-02 0. -1.
    10030    2    1    2    0    0  0.00000000000E+00  0.00000000000E+00 -0.39026735476E+02  0.19891423459E+04  0.19887594591E+04 0.  0.
        4    1    3    3  502    0 -0.53052259623E+03  0.70164291901E+03  0.44429179513E+03  0.98547137098E+03  0.12699999809E+01 0.  1.
       -4    1    3    3    0  502  0.53052259623E+03 -0.70164291901E+03 -0.48331853060E+03  0.10036709749E+04  0.12699999809E+01 0. -1.
</event>
<event>
 5   0  0.8011197E-05  0.2045637E+04  0.7818609E-02  0.8585576E-01
        2   -1    0    0  501    0  0.00000000000E+00  0.00000000000E+00  0.16236114852E+04  0.16236114852E+04  0.25500000920E-02 0. -1.
       -2   -1    0    0    0  501  0.00000000000E+00  0.00000000000E+00 -0.64434015144E+03  0.64434015145E+03  0.25500000920E-02 0.  1.
    10030    2    1    2    0    0  0.00000000000E+00  0.00000000000E+00  0.97927133377E+03  0.22679516367E+04  0.20456373777E+04 0.  0.
        5    1    3    3  502    0 -0.74825299031E+03  0.22962934587E+03  0.12196167640E+04  0.14491719411E+04  0.46999998093E+01 0. -1.
       -5    1    3    3    0  502  0.74825299031E+03 -0.22962934587E+03 -0.24034543021E+03  0.81877969553E+03  0.46999998093E+01 0.  1.
</event>
<event>
 5   0  0.8022574E-05  0.2009032E+04  0.7818609E-02  0.8602409E-01
        2   -1    0    0  501    0  0.00000000000E+00  0.00000000000E+00  0.16148274952E+04  0.16148274952E+04  0.25500000920E-02 0. -1.
       -2   -1    0    0    0  501  0.00000000000E+00  0.00000000000E+00 -0.62486727127E+03  0.62486727128E+03  0.25500000920E-02 0.  1.
    10030    2    1    2    0    0  0.00000000000E+00  0.00000000000E+00  0.98996022396E+03  0.22396947665E+04  0.20090324542E+04 0.  0.
        1    1    3    3  502    0  0.21344070265E+03  0.49255154557E+03 -0.45155351935E+03  0.70147312098E+03  0.50400001928E-02 0.  1.
       -1    1    3    3    0  502 -0.21344070265E+03 -0.49255154557E+03  0.14415137433E+04  0.15382216455E+04  0.50400001928E-02 0. -1.
</event>
<event>
 5   0  0.3772949E-05  0.2002764E+04  0.7818609E-02  0.8605329E-01
       -1   -1    0    0    0  501  0.00000000000E+00  0.00000000000E+00  0.75844723341E+03  0.75844723343E+03  0.50400001928E-02 0. -1.
        1   -1    0    0  501    0  0.00000000000E+00  0.00000000000E+00 -0.13221305260E+04  0.13221305260E+04  0.50400001928E-02 0.  1.
    10030    2    1    2    0    0  0.00000000000E+00  0.00000000000E+00 -0.56368329263E+03  0.20805777595E+04  0.20027643293E+04 0.  0.
        2    1    3    3  502    0  0.71551669096E+02  0.28576683857E+03  0.71241391095E+03  0.77091887245E+03  0.25500000920E-02 0. -1.
       -2    1    3    3    0  502 -0.71551669096E+02 -0.28576683857E+03 -0.12760972036E+04  0.13096588870E+04  0.25500000920E-02 0.  1.
</event>
<event>
 5   0  0.3549426E-05  0.2006663E+04  0.7818609E-02  0.8603512E-01
       -1   -1    0    0    0  501  0.00000000000E+00  0.00000000000E+00  0.73454417511E+03  0.73454417513E+03  0.50400001928E-02 0. -1.
        1   -1    0    0  501    0  0.00000000000E+00  0.00000000000E+00 -0.13704744177E+04  0.13704744177E+04  0.50400001928E-02 0.  1.
    10030    2    1    2    0    0  0.00000000000E+00  0.00000000000E+00 -0.63593024257E+03  0.21050185928E+04  0.20066629021E+04 0.  0.
        5    1    3    3  502    0 -0.68091508138E+03 -0.65354123992E+03  0.39147553528E+02  0.94462485743E+03  0.46999998093E+01 0. -1.
       -5    1    3    3    0  502  0.68091508138E+03  0.65354123992E+03 -0.67507779610E+03  0.11603937354E+04  0.46999998093E+01 0.  1.
</event>
<event>
 5   0  0.7935008E-05  0.1990038E+04  0.7818609E-02  0.8611292E-01
       -2   -1    0    0    0  501  0.00000000000E+00  0.00000000000E+00  0.72982656696E+03  0.72982656696E+03  0.25500000920E-02 0. -1.
        2   -1    0    0  501    0  0.00000000000E+00  0.00000000000E+00 -0.13565730757E+04  0.13565730757E+04  0.25500000920E-02 0.  1.
    10030    2    1    2    0    0  0.00000000000E+00  0.00000000000E+00 -0.62674650869E+03  0.20863996426E+04  0.19900382616E+04 0.  0.
        3    1    3    3  502    0 -0.32174530825E+03  0.93368504933E+03 -0.18593393914E+03  0.10049175362E+04  0.10100000352E+00 0. -1.
       -3    1    3    3    0  502  0.32174530825E+03 -0.93368504933E+03 -0.44081256955E+03  0.10814821064E+04  0.10100000352E+00 0.  1.
</event>
<event>
 5   0  0.8022574E-05  0.2012136E+04  0.7818609E-02  0.8600968E-01
       -2   -1    0    0    0  501  0.00000000000E+00  0.00000000000E+00  0.70460969907E+03  0.70460969908E+03  0.25500000920E-02 0. -1.
        2   -1    0    0  501    0  0.00000000000E+00  0.00000000000E+00 -0.14365009735E+04  0.14365009735E+04  0.25500000920E-02 0.  1.
    10030    2    1    2    0    0  0.00000000000E+00  0.00000000000E+00 -0.73189127446E+03  0.21411106726E+04  0.20121356999E+04 0.  0.
        1    1    3    3  502    0  0.30398961181E+03 -0.73823639936E+02 -0.13834335870E+04  0.14183610625E+04  0.50400001928E-02 0.  1.
       -1    1    3    3    0  502 -0.30398961181E+03  0.73823639936E+02  0.65154231253E+03  0.72274961013E+03  0.50400001928E-02 0. -1.
</event>
<event>
 5   0  0.3549426E-05  0.1998600E+04  0.7818609E-02  0.8607275E-01
       -1   -1    0    0    0  501  0.00000000000E+00  0.00000000000E+00  0.99705384225E+03  0.99705384226E+03  0.50400001928E-02 0.  1.
        1   -1    0    0  501    0  0.00000000000E+00  0.00000000000E+00 -0.10015512867E+04  0.10015512867E+04  0.50400001928E-02 0. -1.
    10030    2    1    2    0    0  0.00000000000E+00  0.00000000000E+00 -0.44974444633E+01  0.19986051290E+04  0.19986000687E+04 0.  0.
        5    1    3    3  502    0  0.71390757697E+03  0.40278172174E+03 -0.57381059909E+03  0.10005887454E+04  0.46999998093E+01 0. -1.
       -5    1    3    3    0  502 -0.71390757697E+03 -0.40278172174E+03  0.56931315463E+03  0.99801638356E+03  0.46999998093E+01 0.  1.
</event>
<event>
 5   0  0.3772949E-05  0.1990731E+04  0.7818609E-02  0.8610967E-01
       -1   -1    0    0    0  501  0.00000000000E+00  0.00000000000E+00  0.11509178521E+04  0.11509178521E+04  0.50400001928E-02 0. -1.
        1   -1    0    0  501    0  0.00000000000E+00  0.00000000000E+00 -0.86083668619E+03  0.86083668620E+03  0.50400001928E-02 0.  1.
    10030    2    1    2    0    0  0.00000000000E+00  0.00000000000E+00  0.29008116588E+03  0.20117545383E+04  0.19907308305E+04 0.  0.
        2    1    3    3  502    0  0.73864206968E+03  0.15581109970E+03 -0.51056583011E+03  0.91134333419E+03  0.25500000920E-02 0.  1.
       -2    1    3    3    0  502 -0.73864206968E+03 -0.15581109970E+03  0.80064699599E+03  0.11004112041E+04  0.25500000920E-02 0. -1.
</event>
<event>
 5   0  0.3549426E-05  0.1991619E+04  0.7818609E-02  0.8610549E-01
        1   -1    0    0  501    0  0.00000000000E+00  0.00000000000E+00  0.84385141508E+03  0.84385141510E+03  0.50400001928E-02 0. -1.
       -1   -1    0    0    0  501  0.00000000000E+00  0.00000000000E+00 -0.11751319682E+04  0.11751319682E+04  0.50400001928E-02 0.  1.
    10030    2    1    2    0    0  0.00000000000E+00  0.00000000000E+00 -0.33128055312E+03  0.20189833833E+04  0.19916192149E+04 0.  0.
        5    1    3    3  502    0 -0.19087585034E+03 -0.89379467181E+03  0.23515523119E+03  0.94372802139E+03  0.46999998093E+01 0.  1.
       -5    1    3    3    0  502  0.19087585034E+03  0.89379467181E+03 -0.56643578432E+03  0.10752553619E+04  0.46999998093E+01 0. -1.
</event>
<event>
 5   0  0.3772949E-05  0.1991502E+04  0.7818609E-02  0.8610604E-01
        1   -1    0    0  501    0  0.00000000000E+00  0.00000000000E+00  0.15805665200E+04  0.15805665200E+04  0.50400001928E-02 0. -1.
       -1   -1    0    0    0  501  0.00000000000E+00  0.00000000000E+00 -0.62731922891E+03  0.62731922893E+03  0.50400001928E-02 0.  1.
    10030    2    1    2    0    0  0.00000000000E+00  0.00000000000E+00  0.95324729108E+03  0.22078857489E+04  0.19915017154E+04 0.  0.
        2    1    3    3  502    0  0.89327934472E+03  0.19794166895E+03  0.91224256232E+03  0.12920198855E+04  0.25500000920E-02 0. -1.
       -2    1    3    3    0  502 -0.89327934472E+03 -0.19794166895E+03  0.41004728754E+02  0.91586586343E+03  0.25500000920E-02 0.  1.
</event>
<event>
 5   0  0.3549426E-05  0.2003191E+04  0.7818609E-02  0.8605130E-01
       -1   -1    0    0    0  501  0.00000000000E+00  0.00000000000E+00  0.75182377776E+03  0.75182377778E+03  0.50400001928E-02 0. -1.
        1   -1    0    0  501    0  0.00000000000E+00  0.00000000000E+00 -0.13343460322E+04  0.13343460322E+04  0.50400001928E-02 0.  1.
    10030    2    1    2    0    0  0.00000000000E+00  0.00000000000E+00 -0.58252225444E+03  0.20861698100E+04  0.20031905299E+04 0.  0.
        5    1    3    3  502    0 -0.68011086286E+03  0.48553718790E+03  0.28376486624E+03  0.88252010511E+03  0.46999998093E+01 0. -1.
       -5    1    3    3    0  502  0.68011086286E+03 -0.48553718790E+03 -0.86628712068E+03  0.12036497049E+04  0.46999998093E+01 0.  1.
</event>
<event>
 5   0  0.3772949E-05  0.2005774E+04  0.7818609E-02  0.8603926E-01
       -1   -1    0    0    0  501  0.00000000000E+00  0.00000000000E+00  0.51361156048E+03  0.51361156050E+03  0.50400001928E-02 0.  1.
        1   -1    0    0  501    0  0.00000000000E+00  0.00000000000E+00 -0.19582556733E+04  0.19582556733E+04  0.50400001928E-02 0. -1.
    10030    2    1    2    0    0  0.00000000000E+00  0.00000000000E+00 -0.14446441129E+04  0.24718672339E+04  0.20057744163E+04 0.  0.
        2    1    3    3  502    0  0.22986590505E+03  0.48399934658E+03  0.32243080010E+03  0.62534416337E+03  0.25500000920E-02 0.  1.
       -2    1    3    3    0  502 -0.22986590505E+03 -0.48399934658E+03 -0.17670749130E+04  0.18465230705E+04  0.25500000920E-02 0. -1.
</event>
<event>
 5   0  0.7935008E-05  0.1986045E+04  0.7818609E-02  0.8613173E-01
        2   -1    0    0  501    0  0.00000000000E+00  0.00000000000E+00  0.10278493155E+04  0.10278493155E+04  0.25500000920E-02 0.  1.
       -2   -1    0    0    0  501  0.00000000000E+00  0.00000000000E+00 -0.95937569691E+03  0.95937569691E+03  0.25500000920E-02 0. -1.
    10030    2    1    2    0    0  0.00000000000E+00  0.00000000000E+00  0.68473618565E+02  0.19872250124E+04  0.19860449676E+04 0.  0.
        3    1    3    3  502    0  0.76527369397E+03  0.33568071494E+03 -0.50252229982E+03  0.97511744989E+03  0.10100000352E+00 0. -1.
       -3    1    3    3    0  502 -0.76527369397E+03 -0.33568071494E+03  0.57099591838E+03  0.10121075625E+04  0.10100000352E+00 0.  1.
</event>
<event>
 5   0  0.7843846E-05  0.1985150E+04  0.7818609E-02  0.8613595E-01
        2   -1    0    0  501    0  0.00000000000E+00  0.00000000000E+00  0.10680333833E+04  0.10680333833E+04  0.25500000920E-02 0. -1.
       -2   -1    0    0    0  501  0.00000000000E+00  0.00000000000E+00 -0.92244761179E+03  0.92244761179E+03  0.25500000920E-02 0.  1.
    10030    2    1    2    0    0  0.00000000000E+00  0.00000000000E+00  0.14558577147E+03  0.19904809951E+04  0.19851497109E+04 0.  0.
        2    1    3    3  502    0 -0.12101015219E+03 -0.98511893573E+03  0.82922949347E+02  0.99598142051E+03  0.25500000920E-02 0.  1.
       -2    1    3    3    0  502  0.12101015219E+03  0.98511893573E+03  0.62662822119E+02  0.99449957454E+03  0.25500000920E-02 0. -1.
</event>
<event>
 5   0  0.8022574E-05  0.2004946E+04  0.7818609E-02  0.8604312E-01
        2   -1    0    0  501    0  0.00000000000E+00  0.00000000000E+00  0.14162823449E+04  0.14162823449E+04  0.25500000920E-02 0. -1.
       -2   -1    0    0    0  501  0.00000000000E+00  0.00000000000E+00 -0.70957075514E+03  0.70957075514E+03  0.25500000920E-02 0.  1.
    10030    2    1    2    0    0  0.00000000000E+00  0.00000000000E+00  0.70671158976E+03  0.21258531000E+04  0.20049464162E+04 0.  0.
        1    1    3    3  502    0 -0.44364981225E+03  0.74940603297E+02  0.13032080411E+04  0.13786922965E+04  0.50400001928E-02 0. -1.
       -1    1    3    3    0  502  0.44364981225E+03 -0.74940603297E+02 -0.59649645133E+03  0.74716080358E+03  0.50400001928E-02 0.  1.
</event>
<event>
 5   0  0.3772949E-05  0.1994330E+04  0.7818609E-02  0.8609276E-01
        1   -1    0    0  501    0  0.00000000000E+00  0.00000000000E+00  0.66513139014E+03  0.66513139016E+03  0.50400001928E-02 0. -1.
       -1   -1    0    0    0  501  0.00000000000E+00  0.00000000000E+00 -0.14949498362E+04  0.14949498362E+04  0.50400001928E-02 0.  1.
    10030    2    1    2    0    0  0.00000000000E+00  0.00000000000E+00 -0.82981844609E+03  0.21600812264E+04  0.19943300256E+04 0.  0.
        2    1    3    3  502    0  0.89350800161E+03  0.35104171966E+03 -0.70705069260E+03  0.11922699022E+04  0.25500000920E-02 0. -1.
       -2    1    3    3    0  502 -0.89350800161E+03 -0.35104171966E+03 -0.12276775349E+03  0.96781132417E+03  0.25500000920E-02 0.  1.
</event>
<event>
 5   0  0.7857136E-05  0.1995201E+04  0.7818609E-02  0.8608868E-01
        2   -1    0    0  501    0  0.00000000000E+00  0.00000000000E+00  0.70745483318E+03  0.70745483318E+03  0.25500000920E-02 0. -1.
       -2   -1    0    0    0  501  0.00000000000E+00  0.00000000000E+00 -0.14067427457E+04  0.14067427457E+04  0.25500000920E-02 0.  1.
    10030    2    1    2    0    0  0.00000000000E+00  0.00000000000E+00 -0.69928791256E+03  0.21141975789E+04  0.19952011974E+04 0.  0.
        4    1    3    3  502    0 -0.19076258528E+03 -0.89317056083E+03  0.75616020161E+02  0.91644062005E+03  0.12699999809E+01 0. -1.
       -4    1    3    3    0  502  0.19076258528E+03  0.89317056083E+03 -0.77490393272E+03  0.11977569589E+04  0.12699999809E+01 0.  1.
</event>
<event>
 5   0  0.3818907E-05  0.2012838E+04  0.7818609E-02  0.8600642E-01
       -1   -1    0    0    0  501  0.00000000000E+00  0.00000000000E+00  0.63432884711E+03  0.63432884713E+03  0.50400001928E-02 0. -1.
        1   -1    0    0  501    0  0.00000000000E+00  0.00000000000E+00 -0.15967728956E+04  0.15967728956E+04  0.50400001928E-02 0.  1.
    10030    2    1    2    0    0  0.00000000000E+00  0.00000000000E+00 -0.96244404853E+03  0.22311017428E+04  0.20128379071E+04 0.  0.
        1    1    3    3  502    0  0.95988050444E+03 -0.82598562259E+02 -0.80378639476E+03  0.12546974431E+04  0.50400001928E-02 0.  1.
       -1    1    3    3    0  502 -0.95988050444E+03  0.82598562259E+02 -0.15865765376E+03  0.97640429967E+03  0.50400001928E-02 0. -1.
</event>
<event>
 5   0  0.3787698E-05  0.2018521E+04  0.7818609E-02  0.8598010E-01
       -1   -1    0    0    0  501  0.00000000000E+00  0.00000000000E+00  0.65724898395E+03  0.65724898397E+03  0.50400001928E-02 0.  1.
        1   -1    0    0  501    0  0.00000000000E+00  0.00000000000E+00 -0.15498040358E+04  0.15498040359E+04  0.50400001928E-02 0. -1.
    10030    2    1    2    0    0  0.00000000000E+00  0.00000000000E+00 -0.89255505189E+03  0.22070530198E+04  0.20185213677E+04 0.  0.
        4    1    3    3  502    0  0.25659634102E+03  0.38516319685E+03  0.53438367804E+03  0.70693698354E+03  0.12699999809E+01 0.  1.
       -4    1    3    3    0  502 -0.25659634102E+03 -0.38516319685E+03 -0.14269387299E+04  0.15001160363E+04  0.12699999809E+01 0. -1.
</event>
<event>
 5   0  0.7935008E-05  0.1997603E+04  0.7818609E-02  0.8607742E-01
       -2   -1    0    0    0  501  0.00000000000E+00  0.00000000000E+00  0.46494535789E+03  0.46494535789E+03  0.25500000920E-02 0.  1.
        2   -1    0    0  501    0  0.00000000000E+00  0.00000000000E+00 -0.21456386830E+04  0.21456386830E+04  0.25500000920E-02 0. -1.
    10030    2    1    2    0    0  0.00000000000E+00  0.00000000000E+00 -0.16806933251E+04  0.26105840409E+04  0.19976033093E+04 0.  0.
        3    1    3    3  502    0 -0.33998696101E+03  0.89377833808E+03 -0.12172430032E+04  0.15479377863E+04  0.10100000352E+00 0. -1.
       -3    1    3    3    0  502  0.33998696101E+03 -0.89377833808E+03 -0.46345032191E+03  0.10626462546E+04  0.10100000352E+00 0.  1.
</event>
<event>
 5   0  0.3549426E-05  0.1998329E+04  0.7818609E-02  0.8607402E-01
        1   -1    0    0  501    0  0.00000000000E+00  0.00000000000E+00  0.94313458737E+03  0.94313458738E+03  0.50400001928E-02 0.  1.
       -1   -1    0    0    0  501  0.00000000000E+00  0.00000000000E+00 -0.10585230243E+04  0.10585230244E+04  0.50400001928E-02 0. -1.
    10030    2    1    2    0    0  0.00000000000E+00  0.00000000000E+00 -0.11538843697E+03  0.20016576117E+04  0.19983289777E+04 0.  0.
        5    1    3    3  502    0 -0.12949394566E+03 -0.33890626903E+03 -0.99020219541E+03  0.10545845717E+04  0.46999998093E+01 0. -1.
       -5    1    3    3    0  502  0.12949394566E+03  0.33890626903E+03  0.87481375843E+03  0.94707304000E+03  0.46999998093E+01 0.  1.
</event>
<event>
 5   0  0.7935008E-05  0.2022805E+04  0.7818609E-02  0.8596032E-01
        2   -1    0    0  501    0  0.00000000000E+00  0.00000000000E+00  0.15513357496E+04  0.15513357496E+04  0.25500000920E-02 0.  1.
       -2   -1    0    0    0  501  0.00000000000E+00  0.00000000000E+00 -0.65938978961E+03  0.65938978962E+03  0.25500000920E-02 0. -1.
    10030    2    1    2    0    0  0.00000000000E+00  0.00000000000E+00  0.89194596000E+03  0.22107255392E+04  0.20228049373E+04 0.  0.
        3    1    3    3  502    0 -0.30256120801E+03  0.41428620250E+03  0.13985906570E+04  0.14897087562E+04  0.10100000352E+00 0.  1.
       -3    1    3    3    0  502  0.30256120801E+03 -0.41428620250E+03 -0.50664469703E+03  0.72101678303E+03  0.10100000352E+00 0. -1.
</event>
<event>
 5   0  0.3787698E-05  0.2001654E+04  0.7818609E-02  0.8605848E-01
        1   -1    0    0  501    0  0.00000000000E+00  0.00000000000E+00  0.95059761824E+03  0.95059761825E+03  0.50400001928E-02 0.  1.
       -1   -1    0    0    0  501  0.00000000000E+00  0.00000000000E+00 -0.10537105481E+04  0.10537105481E+04  0.50400001928E-02 0. -1.
    10030    2    1    2    0    0  0.00000000000E+00  0.00000000000E+00 -0.10311292983E+03  0.20043081663E+04  0.20016540534E+04 0.  0.
        4    1    3    3  502    0  0.21860505169E+03  0.25267608006E+03 -0.99621596979E+03  0.10507527023E+04  0.12699999809E+01 0. -1.
       -4    1    3    3    0  502 -0.21860505169E+03 -0.25267608006E+03  0.89310303996E+03  0.95355546401E+03  0.12699999809E+01 0.  1.
</event>
<event>
 5   0  0.3549426E-05  0.1970613E+04  0.7818609E-02  0.8620484E-01
        1   -1    0    0  501    0  0.00000000000E+00  0.00000000000E+00  0.25029313452E+04  0.25029313452E+04  0.50400001928E-02 0.  1.
       -1   -1    0    0    0  501  0.00000000000E+00  0.00000000000E+00 -0.38787691860E+03  0.38787691864E+03  0.50400001928E-02 0. -1.
    10030    2    1    2    0    0  0.00000000000E+00  0.00000000000E+00  0.21150544266E+04  0.28908082638E+04  0.19706134047E+04 0.  0.
        5    1    3    3  502    0 -0.26712000954E+03 -0.87468446513E+03  0.51976893618E+03  0.10519543004E+04  0.46999998093E+01 0. -1.
       -5    1    3    3    0  502  0.26712000954E+03  0.87468446513E+03  0.15952854904E+04  0.18388539635E+04  0.46999998093E+01 0.  1.
</event>
<event>
 5   0  0.8011197E-05  0.1982260E+04  0.7818609E-02  0.8614960E-01
        2   -1    0    0  501    0  0.00000000000E+00  0.00000000000E+00  0.11322724432E+04  0.11322724432E+04  0.25500000920E-02 0. -1.
       -2   -1    0    0    0  501  0.00000000000E+00  0.00000000000E+00 -0.86758116285E+03  0.86758116286E+03  0.25500000920E-02 0.  1.
    10030    2    1    2    0    0  0.00000000000E+00  0.00000000000E+00  0.26469128032E+03  0.19998536060E+04  0.19822595621E+04 0.  0.
        5    1    3    3  502    0  0.93455653952E+03 -0.20075888617E+03  0.39661735903E+03  0.10349045731E+04  0.46999998093E+01 0. -1.
       -5    1    3    3    0  502 -0.93455653952E+03  0.20075888617E+03 -0.13192607871E+03  0.96494903294E+03  0.46999998093E+01 0.  1.
</event>
<event>
 5   0  0.3818907E-05  0.1977558E+04  0.7818609E-02  0.8617185E-01
        1   -1    0    0  501    0  0.00000000000E+00  0.00000000000E+00  0.15052542970E+04  0.15052542970E+04  0.50400001928E-02 0. -1.
       -1   -1    0    0    0  501  0.00000000000E+00  0.00000000000E+00 -0.64951418476E+03  0.64951418478E+03  0.50400001928E-02 0.  1.
    10030    2    1    2    0    0  0.00000000000E+00  0.00000000000E+00  0.85574011221E+03  0.21547684818E+04  0.19775581080E+04 0.  0.
        1    1    3    3  502    0  0.98741230149E+03 -0.38622869221E+02  0.38997981847E+03  0.10623365935E+04  0.50400001928E-02 0.  1.
       -1    1    3    3    0  502 -0.98741230149E+03  0.38622869221E+02  0.46576029374E+03  0.10924318882E+04  0.50400001928E-02 0. -1.
</event>
<event>
 5   0  0.8011197E-05  0.1992353E+04  0.7818609E-02  0.8610204E-01
        2   -1    0    0  501    0  0.00000000000E+00  0.00000000000E+00  0.19048870026E+04  0.19048870026E+04  0.25500000920E-02 0.  1.
       -2   -1    0    0    0  501  0.00000000000E+00  0.00000000000E+00 -0.52095886692E+03  0.52095886693E+03  0.25500000920E-02 0. -1.
    10030    2    1    2    0    0  0.00000000000E+00  0.00000000000E+00  0.13839281357E+04  0.24258458695E+04  0.19923531559E+04 0.  0.
        5    1    3    3  502    0 -0.40452689349E+03 -0.21799723887E+03 -0.38418562087E+03  0.59898704910E+03  0.46999998093E+01 0. -1.
       -5    1    3    3    0  502  0.40452689349E+03  0.21799723887E+03  0.17681137565E+04  0.18268588204E+04  0.46999998093E+01 0.  1.
</event>
<event>
 5   0  0.3772949E-05  0.2048986E+04  0.7818609E-02  0.8584054E-01
       -1   -1    0    0    0  501  0.00000000000E+00  0.00000000000E+00  0.58163211834E+03  0.58163211836E+03  0.50400001928E-02 0.  1.
        1   -1    0    0  501    0  0.00000000000E+00  0.00000000000E+00 -0.18045529379E+04  0.18045529379E+04  0.50400001928E-02 0. -1.
    10030    2    1    2    0    0  0.00000000000E+00  0.00000000000E+00 -0.12229208196E+04  0.23861850563E+04  0.20489860400E+04 0.  0.
        2    1    3    3  502    0  0.35428496483E+02  0.89229411721E+03 -0.26686887985E+02  0.89339585849E+03  0.25500000920E-02 0.  1.
       -2    1    3    3    0  502 -0.35428496483E+02 -0.89229411721E+03 -0.11962339316E+04  0.14927891978E+04  0.25500000920E-02 0. -1.
</event>
<event>
 5   0  0.3970042E-05  0.2012358E+04  0.7818609E-02  0.8600864E-01
        1   -1    0    0  501    0  0.00000000000E+00  0.00000000000E+00  0.24686904053E+04  0.24686904053E+04  0.50400001928E-02 0.  1.
       -1   -1    0    0    0  501  0.00000000000E+00  0.00000000000E+00 -0.41009457481E+03  0.41009457484E+03  0.50400001928E-02 0. -1.
    10030    2    1    2    0    0  0.00000000000E+00  0.00000000000E+00  0.20585958305E+04  0.28787849802E+04  0.20123583599E+04 0.  0.
        3    1    3    3  502    0 -0.89760973238E+03 -0.39142680272E+03  0.69847701461E+03  0.12028251426E+04  0.10100000352E+00 0. -1.
       -3    1    3    3    0  502  0.89760973238E+03  0.39142680272E+03  0.13601188159E+04  0.16759598376E+04  0.10100000352E+00 0.  1.
</event>
<event>
 5   0  0.3549426E-05  0.1993094E+04  0.7818609E-02  0.8609856E-01
       -1   -1    0    0    0  501  0.00000000000E+00  0.00000000000E+00  0.55315124526E+03  0.55315124528E+03  0.50400001928E-02 0.  1.
        1   -1    0    0  501    0  0.00000000000E+00  0.00000000000E+00 -0.17953607049E+04  0.17953607049E+04  0.50400001928E-02 0. -1.
    10030    2    1    2    0    0  0.00000000000E+00  0.00000000000E+00 -0.12422094596E+04  0.23485119501E+04  0.19930940867E+04 0.  0.
        5    1    3    3  502    0  0.53575008467E+03  0.75757729277E+03 -0.10494260130E+04  0.14008099637E+04  0.46999998093E+01 0. -1.
       -5    1    3    3    0  502 -0.53575008467E+03 -0.75757729277E+03 -0.19278344659E+03  0.94770198640E+03  0.46999998093E+01 0.  1.
</event>
<event>
 5   0  0.7843846E-05  0.1998667E+04  0.7818609E-02  0.8607244E-01
        2   -1    0    0  501    0  0.00000000000E+00  0.00000000000E+00  0.24607522124E+04  0.24607522124E+04  0.25500000920E-02 0. -1.
       -2   -1    0    0    0  501  0.00000000000E+00  0.00000000000E+00 -0.40583844453E+03  0.40583844454E+03  0.25500000920E-02 0.  1.
    10030    2    1    2    0    0  0.00000000000E+00  0.00000000000E+00  0.20549137679E+04  0.28665906570E+04  0.19986674063E+04 0.  0.
        2    1    3    3  502    0 -0.66993449943E+03  0.64575929578E+03  0.50469149404E+03  0.10585512769E+04  0.25500000920E-02 0.  1.
       -2    1    3    3    0  502  0.66993449943E+03 -0.64575929578E+03  0.15502222739E+04  0.18080393801E+04  0.25500000920E-02 0. -1.
</event>
<event>
 5   0  0.8022574E-05  0.1939835E+04  0.7818609E-02  0.8635278E-01
        2   -1    0    0  501    0  0.00000000000E+00  0.00000000000E+00  0.12937490448E+04  0.12937490448E+04  0.25500000920E-02 0.  1.
       -2   -1    0    0    0  501  0.00000000000E+00  0.00000000000E+00 -0.72714227101E+03  0.72714227101E+03  0.25500000920E-02 0. -1.
    10030    2    1    2    0    0  0.00000000000E+00  0.00000000000E+00  0.56660677375E+03  0.20208913158E+04  0.19398346512E+04 0.  0.
        1    1    3    3  502    0 -0.86500202153E+03 -0.37481621368E+03  0.45685126802E+02  0.94382351217E+03  0.50400001928E-02 0. -1.
       -1    1    3    3    0  502  0.86500202153E+03  0.37481621368E+03  0.52092164695E+03  0.10770678036E+04  0.50400001928E-02 0.  1.
</event>
<event>
 5   0  0.3818907E-05  0.2003350E+04  0.7818609E-02  0.8605056E-01
        1   -1    0    0  501    0  0.00000000000E+00  0.00000000000E+00  0.18906143667E+04  0.18906143668E+04  0.50400001928E-02 0.  1.
       -1   -1    0    0    0  501  0.00000000000E+00  0.00000000000E+00 -0.53070195118E+03  0.53070195120E+03  0.50400001928E-02 0. -1.
    10030    2    1    2    0    0  0.00000000000E+00  0.00000000000E+00  0.13599124156E+04  0.24213163180E+04  0.20033499279E+04 0.  0.
        1    1    3    3  502    0  0.62718490821E+03  0.46673154373E+03 -0.76916345486E+02  0.78556690817E+03  0.50400001928E-02 0. -1.
       -1    1    3    3    0  502 -0.62718490821E+03 -0.46673154373E+03  0.14368287610E+04  0.16357494098E+04  0.50400001928E-02 0.  1.
</event>
<event>
 5   0  0.3970042E-05  0.1996461E+04  0.7818609E-02  0.8608277E-01
        1   -1    0    0  501    0  0.00000000000E+00  0.00000000000E+00  0.28033966720E+04  0.28033966720E+04  0.50400001928E-02 0.  1.
       -1   -1    0    0    0  501  0.00000000000E+00  0.00000000000E+00 -0.35544882887E+03  0.35544882890E+03  0.50400001928E-02 0. -1.
    10030    2    1    2    0    0  0.00000000000E+00  0.00000000000E+00  0.24479478431E+04  0.31588455009E+04  0.19964609327E+04 0.  0.
        3    1    3    3  502    0  0.13343868934E+03 -0.19276681596E+03  0.27592183471E+04  0.27691606718E+04  0.10100000352E+00 0.  1.
       -3    1    3    3    0  502 -0.13343868934E+03  0.19276681596E+03 -0.31127050399E+03  0.38968482907E+03  0.10100000352E+00 0. -1.
</event>
<event>
 5   0  0.3970042E-05  0.2024195E+04  0.7818609E-02  0.8595392E-01
       -1   -1    0    0    0  501  0.00000000000E+00  0.00000000000E+00  0.14283141695E+04  0.14283141695E+04  0.50400001928E-02 0. -1.
        1   -1    0    0  501    0  0.00000000000E+00  0.00000000000E+00 -0.71716795351E+03  0.71716795353E+03  0.50400001928E-02 0.  1.
    10030    2    1    2    0    0  0.00000000000E+00  0.00000000000E+00  0.71114621599E+03  0.21454821230E+04  0.20241948028E+04 0.  0.
        3    1    3    3  502    0  0.53952333795E+03  0.85284687538E+03  0.43704160480E+03  0.10997447884E+04  0.10100000352E+00 0. -1.
       -3    1    3    3    0  502 -0.53952333795E+03 -0.85284687538E+03  0.27410461119E+03  0.10457373347E+04  0.10100000352E+00 0.  1.
</event>
<event>
 5   0  0.3772949E-05  0.2020606E+04  0.7818609E-02  0.8597047E-01
        1   -1    0    0  501    0  0.00000000000E+00  0.00000000000E+00  0.22101110450E+04  0.22101110450E+04  0.50400001928E-02 0. -1.
       -1   -1    0    0    0  501  0.00000000000E+00  0.00000000000E+00 -0.46183728276E+03  0.46183728279E+03  0.50400001928E-02 0.  1.
    10030    2    1    2    0    0  0.00000000000E+00  0.00000000000E+00  0.17482737622E+04  0.26719483278E+04  0.20206055327E+04 0.  0.
        2    1    3    3  502    0  0.10097586322E+04 -0.33123436630E+02  0.87225635951E+03  0.13347437260E+04  0.25500000920E-02 0.  1.
       -2    1    3    3    0  502 -0.10097586322E+04  0.33123436630E+02  0.87601740270E+03  0.13372046018E+04  0.25500000920E-02 0. -1.
</event>
<event>
 5   0  0.8022574E-05  0.2009880E+04  0.7818609E-02  0.8602015E-01
        2   -1    0    0  501    0  0.00000000000E+00  0.00000000000E+00  0.14325646272E+04  0.14325646272E+04  0.25500000920E-02 0. -1.
       -2   -1    0    0    0  501  0.00000000000E+00  0.00000000000E+00 -0.70496241620E+03  0.70496241621E+03  0.25500000920E-02 0.  1.
    10030    2    1    2    0    0  0.00000000000E+00  0.00000000000E+00  0.72760221101E+03  0.21375270434E+04  0.20098798183E+04 0.  0.
        1    1    3    3  502    0 -0.42884477767E+03 -0.89446352036E+03  0.19254170743E+03  0.10104677836E+04  0.50400001928E-02 0. -1.
       -1    1    3    3    0  502  0.42884477767E+03  0.89446352036E+03  0.53506050358E+03  0.11270592598E+04  0.50400001928E-02 0.  1.
</event>
<event>
 5   0  0.7935008E-05  0.1990460E+04  0.7818609E-02  0.8611094E-01
       -2   -1    0    0    0  501  0.00000000000E+00  0.00000000000E+00  0.89539652954E+03  0.89539652955E+03  0.25500000920E-02 0. -1.
        2   -1    0    0  501    0  0.00000000000E+00  0.00000000000E+00 -0.11061949766E+04  0.11061949766E+04  0.25500000920E-02 0.  1.
    10030    2    1    2    0    0  0.00000000000E+00  0.00000000000E+00 -0.21079844703E+03  0.20015915061E+04  0.19904603920E+04 0.  0.
        3    1    3    3  502    0 -0.95049423795E+03 -0.29311629358E+03 -0.71645536661E+02  0.99724096941E+03  0.10100000352E+00 0.  1.
       -3    1    3    3    0  502  0.95049423795E+03  0.29311629358E+03 -0.13915291037E+03  0.10043505367E+04  0.10100000352E+00 0. -1.
</event>
<event>
 5   0  0.3970042E-05  0.2073088E+04  0.7818609E-02  0.8573192E-01
        1   -1    0    0  501    0  0.00000000000E+00  0.00000000000E+00  0.11999987761E+04  0.11999987761E+04  0.50400001928E-02 0. -1.
       -1   -1    0    0    0  501  0.00000000000E+00  0.00000000000E+00 -0.89535399517E+03  0.89535399519E+03  0.50400001928E-02 0.  1.
    10030    2    1    2    0    0  0.00000000000E+00  0.00000000000E+00  0.30464478091E+03  0.20953527713E+04  0.20730882262E+04 0.  0.
        3    1    3    3  502    0 -0.92357456182E+03 -0.47032679282E+03  0.16753141866E+03  0.10498876367E+04  0.10100000352E+00 0.  1.
       -3    1    3    3    0  502  0.92357456182E+03  0.47032679282E+03  0.13711336225E+03  0.10454651346E+04  0.10100000352E+00 0. -1.
</event>
<event>
 5   0  0.7857136E-05  0.1999069E+04  0.7818609E-02  0.8607056E-01
       -2   -1    0    0    0  501  0.00000000000E+00  0.00000000000E+00  0.83950570500E+03  0.83950570501E+03  0.25500000920E-02 0.  1.
        2   -1    0    0  501    0  0.00000000000E+00  0.00000000000E+00 -0.11900688590E+04  0.11900688590E+04  0.25500000920E-02 0. -1.
    10030    2    1    2    0    0  0.00000000000E+00  0.00000000000E+00 -0.35056315399E+03  0.20295745640E+04  0.19990693800E+04 0.  0.
        4    1    3    3  502    0 -0.46273544134E+03 -0.84620460322E+03 -0.44173969772E+03  0.10608119026E+04  0.12699999809E+01 0. -1.
       -4    1    3    3    0  502  0.46273544134E+03  0.84620460322E+03  0.91176543726E+02  0.96876266144E+03  0.12699999809E+01 0.  1.
</event>
<event>
 5   0  0.3970042E-05  0.2005023E+04  0.7818609E-02  0.8604276E-01
        1   -1    0    0  501    0  0.00000000000E+00  0.00000000000E+00  0.10907583450E+04  0.10907583450E+04  0.50400001928E-02 0.  1.
       -1   -1    0    0    0  501  0.00000000000E+00  0.00000000000E+00 -0.92140386929E+03  0.92140386930E+03  0.50400001928E-02 0. -1.
    10030    2    1    2    0    0  0.00000000000E+00  0.00000000000E+00  0.16935447571E+03  0.20121622143E+04  0.20050226528E+04 0.  0.
        3    1    3    3  502    0  0.84917806813E+03  0.42288438462E+03 -0.24065971945E+03  0.97869898585E+03  0.10100000352E+00 0.  1.
       -3    1    3    3    0  502 -0.84917806813E+03 -0.42288438462E+03  0.41001419516E+03  0.10334632285E+04  0.10100000352E+00 0. -1.
</event>
<event>
 5   0  0.3970042E-05  0.1958493E+04  0.7818609E-02  0.8626276E-01
        1   -1    0    0  501    0  0.00000000000E+00  0.00000000000E+00  0.17342764446E+04  0.17342764446E+04  0.50400001928E-02 0. -1.
       -1   -1    0    0    0  501  0.00000000000E+00  0.00000000000E+00 -0.55292452573E+03  0.55292452575E+03  0.50400001928E-02 0.  1.
    10030    2    1    2    0    0  0.00000000000E+00  0.00000000000E+00  0.11813519189E+04  0.22872009704E+04  0.19584932787E+04 0.  0.
        3    1    3    3  502    0 -0.37764973878E+03 -0.41902829190E+02  0.16446764058E+04  0.16879975303E+04  0.10100000352E+00 0. -1.
       -3    1    3    3    0  502  0.37764973878E+03  0.41902829190E+02 -0.46332448688E+03  0.59920344011E+03  0.10100000352E+00 0.  1.
</event>
<event>
 5   0  0.7935008E-05  0.2002084E+04  0.7818609E-02  0.8605647E-01
        2   -1    0    0  501    0  0.00000000000E+00  0.00000000000E+00  0.24383831641E+04  0.24383831641E+04  0.25500000920E-02 0. -1.
       -2   -1    0    0    0  501  0.00000000000E+00  0.00000000000E+00 -0.41096283585E+03  0.41096283586E+03  0.25500000920E-02 0.  1.
    10030    2    1    2    0    0  0.00000000000E+00  0.00000000000E+00  0.20274203283E+04  0.28493460000E+04  0.20020837745E+04 0.  0.
        3    1    3    3  502    0 -0.28945447817E+03 -0.51218644431E+02  0.23755757323E+04  0.23936932374E+04  0.10100000352E+00 0. -1.
       -3    1    3    3    0  502  0.28945447817E+03  0.51218644431E+02 -0.34815540407E+03  0.45565276259E+03  0.10100000352E+00 0.  1.
</event>
<event>
 5   0  0.3787698E-05  0.1992222E+04  0.7818609E-02  0.8610266E-01
        1   -1    0    0  501    0  0.00000000000E+00  0.00000000000E+00  0.11935472342E+04  0.11935472342E+04  0.50400001928E-02 0. -1.
       -1   -1    0    0    0  501  0.00000000000E+00  0.00000000000E+00 -0.83133449510E+03  0.83133449511E+03  0.50400001928E-02 0.  1.
    10030    2    1    2    0    0  0.00000000000E+00  0.00000000000E+00  0.36221273912E+03  0.20248817293E+04  0.19922218625E+04 0.  0.
        4    1    3    3  502    0 -0.36948529717E+03  0.21958879217E+03 -0.73223336538E+03  0.84906179796E+03  0.12699999809E+01 0.  1.
       -4    1    3    3    0  502  0.36948529717E+03 -0.21958879217E+03  0.10944461045E+04  0.11758199314E+04  0.12699999809E+01 0. -1.
</event>
<event>
 5   0  0.3970042E-05  0.1989454E+04  0.7818609E-02  0.8611567E-01
       -1   -1    0    0    0  501  0.00000000000E+00  0.00000000000E+00  0.40435787190E+03  0.40435787193E+03  0.50400001928E-02 0. -1.
        1   -1    0    0  501    0  0.00000000000E+00  0.00000000000E+00 -0.24470444111E+04  0.24470444111E+04  0.50400001928E-02 0.  1.
    10030    2    1    2    0    0  0.00000000000E+00  0.00000000000E+00 -0.20426865392E+04  0.28514022830E+04  0.19894538653E+04 0.  0.
        3    1    3    3  502    0  0.84714553178E+03 -0.44313024001E+03 -0.62762287717E+03  0.11436478688E+04  0.10100000352E+00 0. -1.
       -3    1    3    3    0  502 -0.84714553178E+03  0.44313024001E+03 -0.14150636620E+04  0.17077544143E+04  0.10100000352E+00 0.  1.
</event>
<event>
 5   0  0.7843846E-05  0.2012731E+04  0.7818609E-02  0.8600691E-01
        2   -1    0    0  501    0  0.00000000000E+00  0.00000000000E+00  0.11488821287E+04  0.11488821287E+04  0.25500000920E-02 0.  1.
       -2   -1    0    0    0  501  0.00000000000E+00  0.00000000000E+00 -0.88152792657E+03  0.88152792657E+03  0.25500000920E-02 0. -1.
    10030    2    1    2    0    0  0.00000000000E+00  0.00000000000E+00  0.26735420213E+03  0.20304100553E+04  0.20127311602E+04 0.  0.
        2    1    3    3  502    0  0.66838876588E+02  0.74588353977E+03 -0.54450908848E+03  0.92590487512E+03  0.25500000920E-02 0. -1.
       -2    1    3    3    0  502 -0.66838876588E+02 -0.74588353977E+03  0.81186329061E+03  0.11045051801E+04  0.25500000920E-02 0.  1.
</event>
<event>
 5   0  0.3787698E-05  0.2006254E+04  0.7818609E-02  0.8603702E-01
       -1   -1    0    0    0  501  0.00000000000E+00  0.00000000000E+00  0.71633271165E+03  0.71633271166E+03  0.50400001928E-02 0.  1.
        1   -1    0    0  501    0  0.00000000000E+00  0.00000000000E+00 -0.14047435954E+04  0.14047435954E+04  0.50400001928E-02 0. -1.
    10030    2    1    2    0    0  0.00000000000E+00  0.00000000000E+00 -0.68841088379E+03  0.21210763071E+04  0.20062540108E+04 0.  0.
        4    1    3    3  502    0 -0.52672407168E+02  0.14881730635E+03  0.70311695670E+03  0.72062198193E+03  0.12699999809E+01 0.  1.
       -4    1    3    3    0  502  0.52672407168E+02 -0.14881730635E+03 -0.13915278405E+04  0.14004543252E+04  0.12699999809E+01 0. -1.
</event>
<event>
 5   0  0.8022574E-05  0.1999409E+04  0.7818609E-02  0.8606897E-01
       -2   -1    0    0    0  501  0.00000000000E+00  0.00000000000E+00  0.83751863039E+03  0.83751863039E+03  0.25500000920E-02 0.  1.
        2   -1    0    0  501    0  0.00000000000E+00  0.00000000000E+00 -0.11932978418E+04  0.11932978418E+04  0.25500000920E-02 0. -1.
    10030    2    1    2    0    0  0.00000000000E+00  0.00000000000E+00 -0.35577921143E+03  0.20308164722E+04  0.19994090868E+04 0.  0.
        1    1    3    3  502    0  0.80414361168E+03 -0.48673573898E+03  0.16782526343E+03  0.95484236755E+03  0.50400001928E-02 0.  1.
       -1    1    3    3    0  502 -0.80414361168E+03  0.48673573898E+03 -0.52360447485E+03  0.10759741047E+04  0.50400001928E-02 0. -1.
</event>
<event>
 5   0  0.3772949E-05  0.1998276E+04  0.7818609E-02  0.8607427E-01
        1   -1    0    0  501    0  0.00000000000E+00  0.00000000000E+00  0.15564108701E+04  0.15564108701E+04  0.50400001928E-02 0.  1.
       -1   -1    0    0    0  501  0.00000000000E+00  0.00000000000E+00 -0.64139644548E+03  0.64139644550E+03  0.50400001928E-02 0. -1.
    10030    2    1    2    0    0  0.00000000000E+00  0.00000000000E+00  0.91501442458E+03  0.21978073156E+04  0.19982756565E+04 0.  0.
        2    1    3    3  502    0  0.80192648650E+03 -0.54165402389E+03  0.73092878109E+03  0.12127374219E+04  0.25500000920E-02 0.  1.
       -2    1    3    3    0  502 -0.80192648650E+03  0.54165402389E+03  0.18408564349E+03  0.98506989371E+03  0.25500000920E-02 0. -1.
</event>
<event>
 5   0  0.3787698E-05  0.2002552E+04  0.7818609E-02  0.8605429E-01
       -1   -1    0    0    0  501  0.00000000000E+00  0.00000000000E+00  0.20605106712E+04  0.20605106712E+04  0.50400001928E-02 0. -1.
        1   -1    0    0  501    0  0.00000000000E+00  0.00000000000E+00 -0.48655571599E+03  0.48655571602E+03  0.50400001928E-02 0.  1.
    10030    2    1    2    0    0  0.00000000000E+00  0.00000000000E+00  0.15739549552E+04  0.25470663872E+04  0.20025516173E+04 0.  0.
        4    1    3    3  502    0 -0.28971201419E+03 -0.95077980299E+03  0.63310076617E+03  0.11784453649E+04  0.12699999809E+01 0.  1.
       -4    1    3    3    0  502  0.28971201419E+03  0.95077980299E+03  0.94085418905E+03  0.13686210224E+04  0.12699999809E+01 0. -1.
</event>
<event>
 5   0  0.7935008E-05  0.1992102E+04  0.7818609E-02  0.8610322E-01
        2   -1    0    0  501    0  0.00000000000E+00  0.00000000000E+00  0.91903104059E+03  0.91903104060E+03  0.25500000920E-02 0.  1.
       -2   -1    0    0    0  501  0.00000000000E+00  0.00000000000E+00 -0.10795261056E+04  0.10795261056E+04  0.25500000920E-02 0. -1.
    10030    2    1    2    0    0  0.00000000000E+00  0.00000000000E+00 -0.16049506505E+03  0.19985571462E+04  0.19921024072E+04 0.  0.
        3    1    3    3  502    0  0.72519917874E+03  0.46211331453E+03  0.42402954252E+03  0.95878236709E+03  0.10100000352E+00 0.  1.
       -3    1    3    3    0  502 -0.72519917874E+03 -0.46211331453E+03 -0.58452460756E+03  0.10397747792E+04  0.10100000352E+00 0. -1.
</event>
<event>
 5   0  0.3970042E-05  0.1818535E+04  0.7818609E-02  0.8696504E-01
       -1   -1    0    0    0  501  0.00000000000E+00  0.00000000000E+00  0.80719388421E+03  0.80719388422E+03  0.50400001928E-02 0.  1.
        1   -1    0    0  501    0  0.00000000000E+00  0.00000000000E+00 -0.10242488066E+04  0.10242488066E+04  0.50400001928E-02 0. -1.
    10030    2    1    2    0    0  0.00000000000E+00  0.00000000000E+00 -0.21705492240E+03  0.18314426908E+04  0.18185349847E+04 0.  0.
        3    1    3    3  502    0 -0.11910688051E+03 -0.89057648287E+03  0.31941722293E+02  0.89907352572E+03  0.10100000352E+00 0. -1.
       -3    1    3    3    0  502  0.11910688051E+03  0.89057648287E+03 -0.24899664470E+03  0.93236916513E+03  0.10100000352E+00 0.  1.
</event>
<event>
 5   0  0.7843846E-05  0.1979816E+04  0.7818609E-02  0.8616116E-01
        2   -1    0    0  501    0  0.00000000000E+00  0.00000000000E+00  0.13761214362E+04  0.13761214362E+04  0.25500000920E-02 0.  1.
       -2   -1    0    0    0  501  0.00000000000E+00  0.00000000000E+00 -0.71208690464E+03  0.71208690464E+03  0.25500000920E-02 0. -1.
    10030    2    1    2    0    0  0.00000000000E+00  0.00000000000E+00  0.66403453156E+03  0.20882083408E+04  0.19798162075E+04 0.  0.
        2    1    3    3  502    0 -0.23159452749E+03  0.95461589948E+03  0.46115620108E+03  0.10851693796E+04  0.25500000920E-02 0.  1.
       -2    1    3    3    0  502  0.23159452749E+03 -0.95461589948E+03  0.20287833048E+03  0.10030389612E+04  0.25500000920E-02 0. -1.
</event>
<event>
 5   0  0.7935008E-05  0.1999295E+04  0.7818609E-02  0.8606950E-01
       -2   -1    0    0    0  501  0.00000000000E+00  0.00000000000E+00  0.46856788688E+03  0.46856788689E+03  0.25500000920E-02 0.  1.
        2   -1    0    0  501    0  0.00000000000E+00  0.00000000000E+00 -0.21326589295E+04  0.21326589295E+04  0.25500000920E-02 0. -1.
    10030    2    1    2    0    0  0.00000000000E+00  0.00000000000E+00 -0.16640910426E+04  0.26012268164E+04  0.19992953639E+04 0.  0.
        3    1    3    3  502    0 -0.52471394858E+03 -0.67286146723E+03 -0.15096381632E+04  0.17340918880E+04  0.10100000352E+00 0. -1.
       -3    1    3    3    0  502  0.52471394858E+03  0.67286146723E+03 -0.15445287941E+03  0.86713492842E+03  0.10100000352E+00 0.  1.
</event>
<event>
 5   0  0.7843846E-05  0.1984777E+04  0.7818609E-02  0.8613771E-01
        2   -1    0    0  501    0  0.00000000000E+00  0.00000000000E+00  0.62131730863E+03  0.62131730864E+03  0.25500000920E-02 0.  1.
       -2   -1    0    0    0  501  0.00000000000E+00  0.00000000000E+00 -0.15850756233E+04  0.15850756233E+04  0.25500000920E-02 0. -1.
    10030    2    1    2    0    0  0.00000000000E+00  0.00000000000E+00 -0.96375831465E+03  0.22063929319E+04  0.19847769852E+04 0.  0.
        2    1    3    3  502    0  0.93189710135E+03  0.10878307748E+03 -0.12240098436E+03  0.94617544168E+03  0.25500000920E-02 0.  1.
       -2    1    3    3    0  502 -0.93189710135E+03 -0.10878307748E+03 -0.84135733030E+03  0.12602174902E+04  0.25500000920E-02 0. -1.
</event>
<event>
 5   0  0.7843846E-05  0.2015949E+04  0.7818609E-02  0.8599200E-01
        2   -1    0    0  501    0  0.00000000000E+00  0.00000000000E+00  0.14880087381E+04  0.14880087381E+04  0.25500000920E-02 0. -1.
       -2   -1    0    0    0  501  0.00000000000E+00  0.00000000000E+00 -0.68280009099E+03  0.68280009100E+03  0.25500000920E-02 0.  1.
    10030    2    1    2    0    0  0.00000000000E+00  0.00000000000E+00  0.80520864709E+03  0.21708088291E+04  0.20159489098E+04 0.  0.
        2    1    3    3  502    0 -0.52343676808E+03  0.42434064834E+03  0.12098306661E+04  0.13848253596E+04  0.25500000920E-02 0. -1.
       -2    1    3    3    0  502  0.52343676808E+03 -0.42434064834E+03 -0.40462201900E+03  0.78598346947E+03  0.25500000920E-02 0.  1.
</event>
<event>
 5   0  0.3549426E-05  0.2005895E+04  0.7818609E-02  0.8603870E-01
       -1   -1    0    0    0  501  0.00000000000E+00  0.00000000000E+00  0.54597179741E+03  0.54597179744E+03  0.50400001928E-02 0. -1.
        1   -1    0    0  501    0  0.00000000000E+00  0.00000000000E+00 -0.18424090699E+04  0.18424090699E+04  0.50400001928E-02 0.  1.
    10030    2    1    2    0    0  0.00000000000E+00  0.00000000000E+00 -0.12964372725E+04  0.23883808674E+04  0.20058947046E+04 0.  0.
        5    1    3    3  502    0  0.69262963865E+03 -0.38799032754E+03 -0.13779507204E+04  0.15902963839E+04  0.46999998093E+01 0.  1.
       -5    1    3    3    0  502 -0.69262963865E+03  0.38799032754E+03  0.81513447925E+02  0.79808448350E+03  0.46999998093E+01 0. -1.
</event>
<event>
 5   0  0.3787698E-05  0.1985446E+04  0.7818609E-02  0.8613455E-01
       -1   -1    0    0    0  501  0.00000000000E+00  0.00000000000E+00  0.35338208477E+03  0.35338208481E+03  0.50400001928E-02 0. -1.
        1   -1    0    0  501    0  0.00000000000E+00  0.00000000000E+00 -0.27887640147E+04  0.27887640147E+04  0.50400001928E-02 0.  1.
    10030    2    1    2    0    0  0.00000000000E+00  0.00000000000E+00 -0.24353819299E+04  0.31421460995E+04  0.19854462889E+04 0.  0.
        4    1    3    3  502    0  0.27953891234E+03 -0.89269009643E+03 -0.17436728463E+04  0.19787456177E+04  0.12699999809E+01 0.  1.
       -4    1    3    3    0  502 -0.27953891234E+03  0.89269009643E+03 -0.69170908361E+03  0.11634004818E+04  0.12699999809E+01 0. -1.
</event>
<event>
 5   0  0.7843846E-05  0.2013671E+04  0.7818609E-02  0.8600256E-01
       -2   -1    0    0    0  501  0.00000000000E+00  0.00000000000E+00  0.37244338825E+03  0.37244338826E+03  0.25500000920E-02 0.  1.
        2   -1    0    0  501    0  0.00000000000E+00  0.00000000000E+00 -0.27218024506E+04  0.27218024506E+04  0.25500000920E-02 0. -1.
    10030    2    1    2    0    0  0.00000000000E+00  0.00000000000E+00 -0.23493590623E+04  0.30942458388E+04  0.20136706055E+04 0.  0.
        2    1    3    3  502    0  0.85061606724E+02  0.56742092012E+03  0.96649547538E+02  0.58184457768E+03  0.25500000920E-02 0.  1.
       -2    1    3    3    0  502 -0.85061606724E+02 -0.56742092012E+03 -0.24460086099E+04  0.25124012611E+04  0.25500000920E-02 0. -1.
</event>
<event>
 5   0  0.7843846E-05  0.1995420E+04  0.7818609E-02  0.8608765E-01
        2   -1    0    0  501    0  0.00000000000E+00  0.00000000000E+00  0.13793337712E+04  0.13793337712E+04  0.25500000920E-02 0.  1.
       -2   -1    0    0    0  501  0.00000000000E+00  0.00000000000E+00 -0.72167094709E+03  0.72167094709E+03  0.25500000920E-02 0. -1.
    10030    2    1    2    0    0  0.00000000000E+00  0.00000000000E+00  0.65766282413E+03  0.21010047183E+04  0.19954198646E+04 0.  0.
        2    1    3    3  502    0 -0.42537177151E+03 -0.57278140106E+03 -0.40549972643E+03  0.82063981474E+03  0.25500000920E-02 0. -1.
       -2    1    3    3    0  502  0.42537177151E+03  0.57278140106E+03  0.10631625506E+04  0.12803649036E+04  0.25500000920E-02 0.  1.
</event>
<event>
 5   0  0.2859625E-05  0.2001247E+04  0.7818609E-02  0.8606038E-01
        3   -1    0    0  501    0  0.00000000000E+00  0.00000000000E+00  0.24776435851E+04  0.24776435872E+04  0.10100000352E+00 0. -1.
       -3   -1    0    0    0  501  0.00000000000E+00  0.00000000000E+00 -0.40411270481E+03  0.40411271743E+03  0.10100000352E+00 0.  1.
    10030    2    1    2    0    0  0.00000000000E+00  0.00000000000E+00  0.20735308803E+04  0.28817563046E+04  0.20012468832E+04 0.  0.
        4    1    3    3  502    0  0.13978470090E+03  0.32604843884E+03  0.23840503199E+04  0.24102997506E+04  0.12699999809E+01 0. -1.
       -4    1    3    3    0  502 -0.13978470090E+03 -0.32604843884E+03 -0.31051943957E+03  0.47145655402E+03  0.12699999809E+01 0.  1.
</event>
<event>
 5   0  0.7935008E-05  0.2002611E+04  0.7818609E-02  0.8605401E-01
        2   -1    0    0  501    0  0.00000000000E+00  0.00000000000E+00  0.13732552923E+04  0.13732552923E+04  0.25500000920E-02 0.  1.
       -2   -1    0    0    0  501  0.00000000000E+00  0.00000000000E+00 -0.73009957186E+03  0.73009957187E+03  0.25500000920E-02 0. -1.
    10030    2    1    2    0    0  0.00000000000E+00  0.00000000000E+00  0.64315572039E+03  0.21033548641E+04  0.20026113961E+04 0.  0.
        3    1    3    3  502    0  0.28010481593E+03 -0.93955692364E+03  0.53525041009E+03  0.11170133985E+04  0.10100000352E+00 0.  1.
       -3    1    3    3    0  502 -0.28010481593E+03  0.93955692364E+03  0.10790531030E+03  0.98634146565E+03  0.10100000352E+00 0. -1.
</event>
<event>
 5   0  0.2859625E-05  0.1994560E+04  0.7818609E-02  0.8609168E-01
        4   -1    0    0  501    0  0.00000000000E+00  0.00000000000E+00  0.10408072215E+04  0.10408079963E+04  0.12699999809E+01 0.  1.
       -4   -1    0    0    0  501  0.00000000000E+00  0.00000000000E+00 -0.95557130303E+03  0.95557214698E+03  0.12699999809E+01 0. -1.
    10030    2    1    2    0    0  0.00000000000E+00  0.00000000000E+00  0.85235918445E+02  0.19963801433E+04  0.19945597295E+04 0.  0.
        5    1    3    3  502    0 -0.33897755086E+03  0.47163977248E+03  0.85403361193E+03  0.10328336532E+04  0.46999998093E+01 0.  1.
       -5    1    3    3    0  502  0.33897755086E+03 -0.47163977248E+03 -0.76879769348E+03  0.96354649004E+03  0.46999998093E+01 0. -1.
</event>
<event>
 5   0  0.3818907E-05  0.1994076E+04  0.7818609E-02  0.8609395E-01
       -1   -1    0    0    0  501  0.00000000000E+00  0.00000000000E+00  0.97527935270E+03  0.97527935271E+03  0.50400001928E-02 0. -1.
        1   -1    0    0  501    0  0.00000000000E+00  0.00000000000E+00 -0.10192825891E+04  0.10192825891E+04  0.50400001928E-02 0.  1.
    10030    2    1    2    0    0  0.00000000000E+00  0.00000000000E+00 -0.44003236360E+02  0.19945619418E+04  0.19940764917E+04 0.  0.
        1    1    3    3  502    0 -0.64741924651E+03 -0.45589790154E+03 -0.62802920964E+03  0.10106509118E+04  0.50400001928E-02 0.  1.
       -1    1    3    3    0  502  0.64741924651E+03  0.45589790154E+03  0.58402597328E+03  0.98391102996E+03  0.50400001928E-02 0. -1.
</event>
<event>
 5   0  0.7843846E-05  0.2012314E+04  0.7818609E-02  0.8600885E-01
       -2   -1    0    0    0  501  0.00000000000E+00  0.00000000000E+00  0.12921181096E+04  0.12921181096E+04  0.25500000920E-02 0.  1.
        2   -1    0    0  501    0  0.00000000000E+00  0.00000000000E+00 -0.78348210857E+03  0.78348210858E+03  0.25500000920E-02 0. -1.
    10030    2    1    2    0    0  0.00000000000E+00  0.00000000000E+00  0.50863600101E+03  0.20756002182E+04  0.20123135154E+04 0.  0.
        2    1    3    3  502    0  0.96834258134E+03  0.50384744039E+02  0.53132600113E+03  0.11056822766E+04  0.25500000920E-02 0.  1.
       -2    1    3    3    0  502 -0.96834258134E+03 -0.50384744039E+02 -0.22690000122E+02  0.96991794157E+03  0.25500000920E-02 0. -1.
</event>
<event>
 5   0  0.8011197E-05  0.2123734E+04  0.7818609E-02  0.8550860E-01
       -2   -1    0    0    0  501  0.00000000000E+00  0.00000000000E+00  0.11060710863E+04  0.11060710863E+04  0.25500000920E-02 0. -1.
        2   -1    0    0  501    0  0.00000000000E+00  0.00000000000E+00 -0.10194297321E+04  0.10194297321E+04  0.25500000920E-02 0.  1.
    10030    2    1    2    0    0  0.00000000000E+00  0.00000000000E+00  0.86641354139E+02  0.21255008184E+04  0.21237342124E+04 0.  0.
        5    1    3    3  502    0 -0.56413690281E+03 -0.86579055013E+03  0.28785144324E+03  0.10727181667E+04  0.46999998093E+01 0. -1.
       -5    1    3    3    0  502  0.56413690281E+03  0.86579055013E+03 -0.20121008910E+03  0.10527826517E+04  0.46999998093E+01 0.  1.
</event>
<event>
 5   0  0.2859625E-05  0.2008262E+04  0.7818609E-02  0.8602768E-01
        4   -1    0    0  501    0  0.00000000000E+00  0.00000000000E+00  0.54361383590E+03  0.54361531940E+03  0.12699999809E+01 0.  1.
       -4   -1    0    0    0  501  0.00000000000E+00  0.00000000000E+00 -0.18547668118E+04  0.18547672466E+04  0.12699999809E+01 0. -1.
    10030    2    1    2    0    0  0.00000000000E+00  0.00000000000E+00 -0.13111529759E+04  0.23983825660E+04  0.20082621360E+04 0.  0.
        1    1    3    3  502    0  0.93684791838E+02 -0.20005491438E+03  0.51423561585E+03  0.55967586836E+03  0.50400001928E-02 0.  1.
       -1    1    3    3    0  502 -0.93684791838E+02  0.20005491438E+03 -0.18253885918E+04  0.18387066977E+04  0.50400001928E-02 0. -1.
</event>
<event>
 5   0  0.3549426E-05  0.2053429E+04  0.7818609E-02  0.8582040E-01
       -1   -1    0    0    0  501  0.00000000000E+00  0.00000000000E+00  0.68897589352E+03  0.68897589354E+03  0.50400001928E-02 0. -1.
        1   -1    0    0  501    0  0.00000000000E+00  0.00000000000E+00 -0.15300138356E+04  0.15300138357E+04  0.50400001928E-02 0.  1.
    10030    2    1    2    0    0  0.00000000000E+00  0.00000000000E+00 -0.84103794213E+03  0.22189897292E+04  0.20534289854E+04 0.  0.
        5    1    3    3  502    0  0.16078211168E+03  0.84401633580E+02 -0.15125111603E+04  0.15233799996E+04  0.46999998093E+01 0.  1.
       -5    1    3    3    0  502 -0.16078211168E+03 -0.84401633580E+02  0.67147321816E+03  0.69560972959E+03  0.46999998093E+01 0. -1.
</event>
<event>
 5   0  0.7857136E-05  0.1986796E+04  0.7818609E-02  0.8612819E-01
       -2   -1    0    0    0  501  0.00000000000E+00  0.00000000000E+00  0.84681396572E+03  0.84681396572E+03  0.25500000920E-02 0. -1.
        2   -1    0    0  501    0  0.00000000000E+00  0.00000000000E+00 -0.11653557456E+04  0.11653557456E+04  0.25500000920E-02 0.  1.
    10030    2    1    2    0    0  0.00000000000E+00  0.00000000000E+00 -0.31854177986E+03  0.20121697113E+04  0.19867959336E+04 0.  0.
        4    1    3    3  502    0  0.76393742360E+03 -0.62733333062E+03 -0.59573800471E+02  0.99030204760E+03  0.12699999809E+01 0.  1.
       -4    1    3    3    0  502 -0.76393742360E+03  0.62733333062E+03 -0.25896797939E+03  0.10218676637E+04  0.12699999809E+01 0. -1.
</event>
<event>
 5   0  0.3970042E-05  0.1996140E+04  0.7818609E-02  0.8608427E-01
        1   -1    0    0  501    0  0.00000000000E+00  0.00000000000E+00  0.12391146025E+04  0.12391146025E+04  0.50400001928E-02 0. -1.
       -1   -1    0    0    0  501  0.00000000000E+00  0.00000000000E+00 -0.80391575886E+03  0.80391575888E+03  0.50400001928E-02 0.  1.
    10030    2    1    2    0    0  0.00000000000E+00  0.00000000000E+00  0.43519884366E+03  0.20430303614E+04  0.19961400312E+04 0.  0.
        3    1    3    3  502    0 -0.20509073602E+03  0.93916910390E+03 -0.57113760874E+02  0.96299678484E+03  0.10100000352E+00 0.  1.
       -3    1    3    3    0  502  0.20509073602E+03 -0.93916910390E+03  0.49231260454E+03  0.10800335766E+04  0.10100000352E+00 0. -1.
</event>
<event>
 5   0  0.3772949E-05  0.2044006E+04  0.7818609E-02  0.8586318E-01
       -1   -1    0    0    0  501  0.00000000000E+00  0.00000000000E+00  0.79640269187E+03  0.79640269188E+03  0.50400001928E-02 0.  1.
        1   -1    0    0  501    0  0.00000000000E+00  0.00000000000E+00 -0.13115103779E+04  0.13115103779E+04  0.50400001928E-02 0. -1.
    10030    2    1    2    0    0  0.00000000000E+00  0.00000000000E+00 -0.51510768604E+03  0.21079130698E+04  0.20440062577E+04 0.  0.
        2    1    3    3  502    0  0.53532412426E+03  0.42471484023E+03  0.52616434169E+03  0.86244044896E+03  0.25500000920E-02 0.  1.
       -2    1    3    3    0  502 -0.53532412426E+03 -0.42471484023E+03 -0.10412720277E+04  0.12454726208E+04  0.25500000920E-02 0. -1.
</event>
<event>
 5   0  0.7843846E-05  0.2126775E+04  0.7818609E-02  0.8549540E-01
        2   -1    0    0  501    0  0.00000000000E+00  0.00000000000E+00  0.45812894401E+03  0.45812894402E+03  0.25500000920E-02 0. -1.
       -2   -1    0    0    0  501  0.00000000000E+00  0.00000000000E+00 -0.24682854092E+04  0.24682854092E+04  0.25500000920E-02 0.  1.
    10030    2    1    2    0    0  0.00000000000E+00  0.00000000000E+00 -0.20101564652E+04  0.29264143532E+04  0.21267750121E+04 0.  0.
        2    1    3    3  502    0  0.10837151175E+03 -0.56635094163E+03 -0.22344862247E+04  0.23076885540E+04  0.25500000920E-02 0.  1.
       -2    1    3    3    0  502 -0.10837151175E+03  0.56635094163E+03  0.22432975953E+03  0.61872579925E+03  0.25500000920E-02 0. -1.
</event>
<event>
 5   0  0.7935008E-05  0.2003548E+04  0.7818609E-02  0.8604964E-01
       -2   -1    0    0    0  501  0.00000000000E+00  0.00000000000E+00  0.84407360900E+03  0.84407360901E+03  0.25500000920E-02 0.  1.
        2   -1    0    0  501    0  0.00000000000E+00  0.00000000000E+00 -0.11889382165E+04  0.11889382166E+04  0.25500000920E-02 0. -1.
    10030    2    1    2    0    0  0.00000000000E+00  0.00000000000E+00 -0.34486460755E+03  0.20330118256E+04  0.20035482239E+04 0.  0.
        3    1    3    3  502    0  0.47681476808E+03  0.84839288781E+03  0.68607927142E+02  0.97561768793E+03  0.10100000352E+00 0. -1.
       -3    1    3    3    0  502 -0.47681476808E+03 -0.84839288781E+03 -0.41347253469E+03  0.10573941376E+04  0.10100000352E+00 0.  1.
</event>
<event>
 5   0  0.3787698E-05  0.2001857E+04  0.7818609E-02  0.8605753E-01
       -1   -1    0    0    0  501  0.00000000000E+00  0.00000000000E+00  0.48907102755E+03  0.48907102757E+03  0.50400001928E-02 0. -1.
        1   -1    0    0  501    0  0.00000000000E+00  0.00000000000E+00 -0.20484909573E+04  0.20484909573E+04  0.50400001928E-02 0.  1.
    10030    2    1    2    0    0  0.00000000000E+00  0.00000000000E+00 -0.15594199298E+04  0.25375619849E+04  0.20018567156E+04 0.  0.
        4    1    3    3  502    0  0.18825114196E+03 -0.43137434664E+03  0.34004716518E+03  0.58065136428E+03  0.12699999809E+01 0. -1.
       -4    1    3    3    0  502 -0.18825114196E+03  0.43137434664E+03 -0.18994670949E+04  0.19569106206E+04  0.12699999809E+01 0.  1.
</event>
<event>
 5   0  0.7935008E-05  0.1996428E+04  0.7818609E-02  0.8608293E-01
        2   -1    0    0  501    0  0.00000000000E+00  0.00000000000E+00  0.96636025268E+03  0.96636025268E+03  0.25500000920E-02 0.  1.
       -2   -1    0    0    0  501  0.00000000000E+00  0.00000000000E+00 -0.10311175505E+04  0.10311175505E+04  0.25500000920E-02 0. -1.
    10030    2    1    2    0    0  0.00000000000E+00  0.00000000000E+00 -0.64757297814E+02  0.19974778032E+04  0.19964278265E+04 0.  0.
        3    1    3    3  502    0 -0.90426554168E+03 -0.24624174655E+03  0.31145866064E+03  0.98759185654E+03  0.10100000352E+00 0.  1.
       -3    1    3    3    0  502  0.90426554168E+03  0.24624174655E+03 -0.37621595846E+03  0.10098859466E+04  0.10100000352E+00 0. -1.
</event>
<event>
 5   0  0.3970042E-05  0.2004815E+04  0.7818609E-02  0.8604373E-01
        1   -1    0    0  501    0  0.00000000000E+00  0.00000000000E+00  0.15316951838E+04  0.15316951838E+04  0.50400001928E-02 0.  1.
       -1   -1    0    0    0  501  0.00000000000E+00  0.00000000000E+00 -0.65601907965E+03  0.65601907967E+03  0.50400001928E-02 0. -1.
    10030    2    1    2    0    0  0.00000000000E+00  0.00000000000E+00  0.87567610415E+03  0.21877142635E+04  0.20048154676E+04 0.  0.
        3    1    3    3  502    0  0.56707108363E+03  0.72474501499E+03  0.87158822181E+03  0.12674742559E+04  0.10100000352E+00 0.  1.
       -3    1    3    3    0  502 -0.56707108363E+03 -0.72474501499E+03  0.40878823400E+01  0.92024000762E+03  0.10100000352E+00 0. -1.
</event>
<event>
 5   0  0.7843846E-05  0.2058288E+04  0.7818609E-02  0.8579844E-01
        2   -1    0    0  501    0  0.00000000000E+00  0.00000000000E+00  0.11878994433E+04  0.11878994433E+04  0.25500000920E-02 0.  1.
       -2   -1    0    0    0  501  0.00000000000E+00  0.00000000000E+00 -0.89160567054E+03  0.89160567054E+03  0.25500000920E-02 0. -1.
    10030    2    1    2    0    0  0.00000000000E+00  0.00000000000E+00  0.29629377275E+03  0.20795051138E+04  0.20582884926E+04 0.  0.
        2    1    3    3  502    0 -0.71949078170E+03  0.76971189323E+02  0.88750062069E+03  0.11450977690E+04  0.25500000920E-02 0.  1.
       -2    1    3    3    0  502  0.71949078170E+03 -0.76971189323E+02 -0.59120684794E+03  0.93440734479E+03  0.25500000920E-02 0. -1.
</event>
<event>
 5   0  0.7935008E-05  0.2035265E+04  0.7818609E-02  0.8590308E-01
       -2   -1    0    0    0  501  0.00000000000E+00  0.00000000000E+00  0.58599990181E+03  0.58599990181E+03  0.25500000920E-02 0.  1.
        2   -1    0    0  501    0  0.00000000000E+00  0.00000000000E+00 -0.17671945174E+04  0.17671945174E+04  0.25500000920E-02 0. -1.
    10030    2    1    2    0    0  0.00000000000E+00  0.00000000000E+00 -0.11811946156E+04  0.23531944192E+04  0.20352649102E+04 0.  0.
        3    1    3    3  502    0 -0.47974277858E+03  0.88461220060E+03 -0.41569235107E+03  0.10888030217E+04  0.10100000352E+00 0. -1.
       -3    1    3    3    0  502  0.47974277858E+03 -0.88461220060E+03 -0.76550226455E+03  0.12643913976E+04  0.10100000352E+00 0.  1.
</event>
<event>
 5   0  0.8022574E-05  0.1985844E+04  0.7818609E-02  0.8613268E-01
        2   -1    0    0  501    0  0.00000000000E+00  0.00000000000E+00  0.15936108243E+04  0.15936108243E+04  0.25500000920E-02 0.  1.
       -2   -1    0    0    0  501  0.00000000000E+00  0.00000000000E+00 -0.61865447125E+03  0.61865447126E+03  0.25500000920E-02 0. -1.
    10030    2    1    2    0    0  0.00000000000E+00  0.00000000000E+00  0.97495635306E+03  0.22122652956E+04  0.19858443664E+04 0.  0.
        1    1    3    3  502    0  0.13698023941E+03 -0.40680654091E+03  0.14849060515E+04  0.15457040886E+04  0.50400001928E-02 0.  1.
       -1    1    3    3    0  502 -0.13698023941E+03  0.40680654091E+03 -0.50994969842E+03  0.66656120699E+03  0.50400001928E-02 0. -1.
</event>
<event>
 5   0  0.3818907E-05  0.1994422E+04  0.7818609E-02  0.8609233E-01
        1   -1    0    0  501    0  0.00000000000E+00  0.00000000000E+00  0.93933968609E+03  0.93933968610E+03  0.50400001928E-02 0. -1.
       -1   -1    0    0    0  501  0.00000000000E+00  0.00000000000E+00 -0.10586475642E+04  0.10586475642E+04  0.50400001928E-02 0.  1.
    10030    2    1    2    0    0  0.00000000000E+00  0.00000000000E+00 -0.11930787811E+03  0.19979872503E+04  0.19944218918E+04 0.  0.
        1    1    3    3  502    0 -0.48014112240E+03  0.69580133348E+03  0.47020999341E+03  0.96735331240E+03  0.50400001928E-02 0. -1.
       -1    1    3    3    0  502  0.48014112240E+03 -0.69580133348E+03 -0.58951787153E+03  0.10306339379E+04  0.50400001928E-02 0.  1.
</event>
<event>
 5   0  0.7935008E-05  0.1841918E+04  0.7818609E-02  0.8684320E-01
        2   -1    0    0  501    0  0.00000000000E+00  0.00000000000E+00  0.79351102681E+03  0.79351102681E+03  0.25500000920E-02 0.  1.
       -2   -1    0    0    0  501  0.00000000000E+00  0.00000000000E+00 -0.10688767295E+04  0.10688767295E+04  0.25500000920E-02 0. -1.
    10030    2    1    2    0    0  0.00000000000E+00  0.00000000000E+00 -0.27536570269E+03  0.18623877563E+04  0.18419179908E+04 0.  0.
        3    1    3    3  502    0  0.15621575670E+03 -0.32124987458E+03 -0.99597487918E+03  0.10580977340E+04  0.10100000352E+00 0. -1.
       -3    1    3    3    0  502 -0.15621575670E+03  0.32124987458E+03  0.72060917648E+03  0.80429002231E+03  0.10100000352E+00 0.  1.
</event>
<event>
 5   0  0.3787698E-05  0.2011394E+04  0.7818609E-02  0.8601312E-01
       -1   -1    0    0    0  501  0.00000000000E+00  0.00000000000E+00  0.10604856356E+04  0.10604856356E+04  0.50400001928E-02 0. -1.
        1   -1    0    0  501    0  0.00000000000E+00  0.00000000000E+00 -0.95373860176E+03  0.95373860178E+03  0.50400001928E-02 0.  1.
    10030    2    1    2    0    0  0.00000000000E+00  0.00000000000E+00  0.10674703386E+03  0.20142242374E+04  0.20113936336E+04 0.  0.
        4    1    3    3  502    0 -0.99344725882E+02 -0.98023714314E+03  0.25537561889E+03  0.10178175431E+04  0.12699999809E+01 0.  1.
       -4    1    3    3    0  502  0.99344725882E+02  0.98023714314E+03 -0.14862858503E+03  0.99640669435E+03  0.12699999809E+01 0. -1.
</event>
<event>
 5   0  0.8011197E-05  0.2004889E+04  0.7818609E-02  0.8604339E-01
        2   -1    0    0  501    0  0.00000000000E+00  0.00000000000E+00  0.13079638327E+04  0.13079638327E+04  0.25500000920E-02 0. -1.
       -2   -1    0    0    0  501  0.00000000000E+00  0.00000000000E+00 -0.76828923770E+03  0.76828923770E+03  0.25500000920E-02 0.  1.
    10030    2    1    2    0    0  0.00000000000E+00  0.00000000000E+00  0.53967459498E+03  0.20762530704E+04  0.20048885614E+04 0.  0.
        5    1    3    3  502    0 -0.34146657741E+03  0.76997834876E+03 -0.29302216796E+03  0.89182406447E+03  0.46999998093E+01 0.  1.
       -5    1    3    3    0  502  0.34146657741E+03 -0.76997834876E+03  0.83269676294E+03  0.11844290059E+04  0.46999998093E+01 0. -1.
</event>
<event>
 5   0  0.3787698E-05  0.1986631E+04  0.7818609E-02  0.8612897E-01
        1   -1    0    0  501    0  0.00000000000E+00  0.00000000000E+00  0.12381577326E+04  0.12381577326E+04  0.50400001928E-02 0.  1.
       -1   -1    0    0    0  501  0.00000000000E+00  0.00000000000E+00 -0.79689030631E+03  0.79689030633E+03  0.50400001928E-02 0. -1.
    10030    2    1    2    0    0  0.00000000000E+00  0.00000000000E+00  0.44126742629E+03  0.20350480389E+04  0.19866312137E+04 0.  0.
        4    1    3    3  502    0 -0.18218838464E+03  0.89513580966E+03 -0.17902020749E+03  0.93086549663E+03  0.12699999809E+01 0. -1.
       -4    1    3    3    0  502  0.18218838464E+03 -0.89513580966E+03  0.62028763378E+03  0.11041825423E+04  0.12699999809E+01 0.  1.
</event>
<event>
 5   0  0.3970042E-05  0.1993263E+04  0.7818609E-02  0.8609777E-01
       -1   -1    0    0    0  501  0.00000000000E+00  0.00000000000E+00  0.51841519961E+03  0.51841519964E+03  0.50400001928E-02 0.  1.
        1   -1    0    0  501    0  0.00000000000E+00  0.00000000000E+00 -0.19159819439E+04  0.19159819439E+04  0.50400001928E-02 0. -1.
    10030    2    1    2    0    0  0.00000000000E+00  0.00000000000E+00 -0.13975667443E+04  0.24343971435E+04  0.19932628145E+04 0.  0.
        3    1    3    3  502    0 -0.71634616083E+02 -0.13569213438E+02 -0.19127205665E+04  0.19141096148E+04  0.10100000352E+00 0. -1.
       -3    1    3    3    0  502  0.71634616083E+02  0.13569213438E+02  0.51515382223E+03  0.52028752872E+03  0.10100000352E+00 0.  1.
</event>
<event>
 5   0  0.8022574E-05  0.2009866E+04  0.7818609E-02  0.8602022E-01
       -2   -1    0    0    0  501  0.00000000000E+00  0.00000000000E+00  0.67292821684E+03  0.67292821685E+03  0.25500000920E-02 0.  1.
        2   -1    0    0  501    0  0.00000000000E+00  0.00000000000E+00 -0.15007407705E+04  0.15007407705E+04  0.25500000920E-02 0. -1.
    10030    2    1    2    0    0  0.00000000000E+00  0.00000000000E+00 -0.82781255368E+03  0.21736689874E+04  0.20098664738E+04 0.  0.
        1    1    3    3  502    0 -0.50515730348E+03  0.84199781663E+03 -0.18259034353E+03  0.99874093640E+03  0.50400001928E-02 0.  1.
       -1    1    3    3    0  502  0.50515730348E+03 -0.84199781663E+03 -0.64522221015E+03  0.11749280510E+04  0.50400001928E-02 0. -1.
</event>
<event>
 5   0  0.7857136E-05  0.2012310E+04  0.7818609E-02  0.8600887E-01
        2   -1    0    0  501    0  0.00000000000E+00  0.00000000000E+00  0.13421265584E+04  0.13421265585E+04  0.25500000920E-02 0. -1.
       -2   -1    0    0    0  501  0.00000000000E+00  0.00000000000E+00 -0.75428667236E+03  0.75428667236E+03  0.25500000920E-02 0.  1.
    10030    2    1    2    0    0  0.00000000000E+00  0.00000000000E+00  0.58783988609E+03  0.20964132308E+04  0.20123102899E+04 0.  0.
        4    1    3    3  502    0  0.17316840353E+03  0.43390034237E+03 -0.63444074508E+03  0.78789179143E+03  0.12699999809E+01 0.  1.
       -4    1    3    3    0  502 -0.17316840353E+03 -0.43390034237E+03  0.12222806312E+04  0.13085214394E+04  0.12699999809E+01 0. -1.
</event>
<event>
 5   0  0.7935008E-05  0.1998195E+04  0.7818609E-02  0.8607465E-01
        2   -1    0    0  501    0  0.00000000000E+00  0.00000000000E+00  0.14485073741E+04  0.14485073741E+04  0.25500000920E-02 0.  1.
       -2   -1    0    0    0  501  0.00000000000E+00  0.00000000000E+00 -0.68912033354E+03  0.68912033355E+03  0.25500000920E-02 0. -1.
    10030    2    1    2    0    0  0.00000000000E+00  0.00000000000E+00  0.75938704053E+03  0.21376277076E+04  0.19981950703E+04 0.  0.
        3    1    3    3  502    0 -0.72575269715E+03  0.35648350515E+03  0.10074984973E+04  0.12918400439E+04  0.10100000352E+00 0.  1.
       -3    1    3    3    0  502  0.72575269715E+03 -0.35648350515E+03 -0.24811145677E+03  0.84578766369E+03  0.10100000352E+00 0. -1.
</event>
<event>
 5   0  0.3772949E-05  0.2025423E+04  0.7818609E-02  0.8594826E-01
       -1   -1    0    0    0  501  0.00000000000E+00  0.00000000000E+00  0.52802337367E+03  0.52802337369E+03  0.50400001928E-02 0.  1.
        1   -1    0    0  501    0  0.00000000000E+00  0.00000000000E+00 -0.19423092601E+04  0.19423092601E+04  0.50400001928E-02 0. -1.
    10030    2    1    2    0    0  0.00000000000E+00  0.00000000000E+00 -0.14142858864E+04  0.24703326338E+04  0.20254231047E+04 0.  0.
        2    1    3    3  502    0  0.29717495937E+03 -0.74322248634E+03 -0.14638175436E+04  0.16683687906E+04  0.25500000920E-02 0. -1.
       -2    1    3    3    0  502 -0.29717495937E+03  0.74322248634E+03  0.49531657141E+02  0.80196384316E+03  0.25500000920E-02 0.  1.
</event>
<event>
 5   0  0.3772949E-05  0.1999039E+04  0.7818609E-02  0.8607070E-01
        1   -1    0    0  501    0  0.00000000000E+00  0.00000000000E+00  0.17322195248E+04  0.17322195248E+04  0.50400001928E-02 0.  1.
       -1   -1    0    0    0  501  0.00000000000E+00  0.00000000000E+00 -0.57673956713E+03  0.57673956715E+03  0.50400001928E-02 0. -1.
    10030    2    1    2    0    0  0.00000000000E+00  0.00000000000E+00  0.11554799577E+04  0.23089590920E+04  0.19990393082E+04 0.  0.
        2    1    3    3  502    0 -0.94777890409E+03  0.31188696846E+03  0.50959092713E+03  0.11203754929E+04  0.25500000920E-02 0. -1.
       -2    1    3    3    0  502  0.94777890409E+03 -0.31188696846E+03  0.64588903056E+03  0.11885835991E+04  0.25500000920E-02 0.  1.
</event>
<event>
 5   0  0.8011197E-05  0.1990994E+04  0.7818609E-02  0.8610843E-01
       -2   -1    0    0    0  501  0.00000000000E+00  0.00000000000E+00  0.52296762691E+03  0.52296762692E+03  0.25500000920E-02 0. -1.
        2   -1    0    0  501    0  0.00000000000E+00  0.00000000000E+00 -0.18949818932E+04  0.18949818932E+04  0.25500000920E-02 0.  1.
    10030    2    1    2    0    0  0.00000000000E+00  0.00000000000E+00 -0.13720142663E+04  0.24179495201E+04  0.19909939063E+04 0.  0.
        5    1    3    3  502    0 -0.97827043188E+03 -0.15096531642E+03 -0.81446591429E+03  0.12818659759E+04  0.46999998093E+01 0.  1.
       -5    1    3    3    0  502  0.97827043188E+03  0.15096531642E+03 -0.55754835203E+03  0.11360835442E+04  0.46999998093E+01 0. -1.
</event>
<event>
 5   0  0.3818907E-05  0.2005849E+04  0.7818609E-02  0.8603891E-01
        1   -1    0    0  501    0  0.00000000000E+00  0.00000000000E+00  0.10329196749E+04  0.10329196749E+04  0.50400001928E-02 0. -1.
       -1   -1    0    0    0  501  0.00000000000E+00  0.00000000000E+00 -0.97380068406E+03  0.97380068407E+03  0.50400001928E-02 0.  1.
    10030    2    1    2    0    0  0.00000000000E+00  0.00000000000E+00  0.59118990857E+02  0.20067203590E+04  0.20058493324E+04 0.  0.
        1    1    3    3  502    0  0.55879805516E+03 -0.12616499332E+03  0.85313323358E+03  0.10276230760E+04  0.50400001928E-02 0. -1.
       -1    1    3    3    0  502 -0.55879805516E+03  0.12616499332E+03 -0.79401424272E+03  0.97909728304E+03  0.50400001928E-02 0.  1.
</event>
<event>
 5   0  0.7935008E-05  0.2009076E+04  0.7818609E-02  0.8602389E-01
        2   -1    0    0  501    0  0.00000000000E+00  0.00000000000E+00  0.17973208689E+04  0.17973208689E+04  0.25500000920E-02 0.  1.
       -2   -1    0    0    0  501  0.00000000000E+00  0.00000000000E+00 -0.56144472782E+03  0.56144472783E+03  0.25500000920E-02 0. -1.
    10030    2    1    2    0    0  0.00000000000E+00  0.00000000000E+00  0.12358761411E+04  0.23587655967E+04  0.20090757338E+04 0.  0.
        3    1    3    3  502    0 -0.96358597647E+03  0.28281087967E+03  0.64708653093E+03  0.11946551454E+04  0.10100000352E+00 0. -1.
       -3    1    3    3    0  502  0.96358597647E+03 -0.28281087967E+03  0.58878961016E+03  0.11641104513E+04  0.10100000352E+00 0.  1.
</event>
<event>
 5   0  0.3772949E-05  0.1940717E+04  0.7818609E-02  0.8634850E-01
       -1   -1    0    0    0  501  0.00000000000E+00  0.00000000000E+00  0.75687384792E+03  0.75687384794E+03  0.50400001928E-02 0. -1.
        1   -1    0    0  501    0  0.00000000000E+00  0.00000000000E+00 -0.12440588244E+04  0.12440588244E+04  0.50400001928E-02 0.  1.
    10030    2    1    2    0    0  0.00000000000E+00  0.00000000000E+00 -0.48718497643E+03  0.20009326723E+04  0.19407169700E+04 0.  0.
        2    1    3    3  502    0 -0.90731107220E+03  0.30689817560E+03 -0.40396854274E+03  0.10395145287E+04  0.25500000920E-02 0. -1.
       -2    1    3    3    0  502  0.90731107220E+03 -0.30689817560E+03 -0.83216433694E+02  0.96141814356E+03  0.25500000920E-02 0.  1.
</event>
<event>
 5   0  0.3787698E-05  0.1992541E+04  0.7818609E-02  0.8610116E-01
       -1   -1    0    0    0  501  0.00000000000E+00  0.00000000000E+00  0.68675643168E+03  0.68675643170E+03  0.50400001928E-02 0. -1.
        1   -1    0    0  501    0  0.00000000000E+00  0.00000000000E+00 -0.14452787169E+04  0.14452787169E+04  0.50400001928E-02 0.  1.
    10030    2    1    2    0    0  0.00000000000E+00  0.00000000000E+00 -0.75852228526E+03  0.21320351487E+04  0.19925405436E+04 0.  0.
        4    1    3    3  502    0 -0.52164147328E+03 -0.72441360197E+03 -0.85257262302E+03  0.12344094069E+04  0.12699999809E+01 0.  1.
       -4    1    3    3    0  502  0.52164147328E+03  0.72441360197E+03  0.94050337764E+02  0.89762574177E+03  0.12699999809E+01 0. -1.
</event>
<event>
 5   0  0.3549426E-05  0.1972241E+04  0.7818609E-02  0.8619710E-01
        1   -1    0    0  501    0  0.00000000000E+00  0.00000000000E+00  0.65497323208E+03  0.65497323210E+03  0.50400001928E-02 0.  1.
       -1   -1    0    0    0  501  0.00000000000E+00  0.00000000000E+00 -0.14846917601E+04  0.14846917601E+04  0.50400001928E-02 0. -1.
    10030    2    1    2    0    0  0.00000000000E+00  0.00000000000E+00 -0.82971852803E+03  0.21396649922E+04  0.19722407163E+04 0.  0.
        5    1    3    3  502    0  0.42013633558E+03 -0.74779948491E+03 -0.94267004459E+03  0.12745067725E+04  0.46999998093E+01 0. -1.
       -5    1    3    3    0  502 -0.42013633558E+03  0.74779948491E+03  0.11295151656E+03  0.86515821974E+03  0.46999998093E+01 0.  1.
</event>
<event>
 5   0  0.7857136E-05  0.2011467E+04  0.7818609E-02  0.8601278E-01
        2   -1    0    0  501    0  0.00000000000E+00  0.00000000000E+00  0.14084565071E+04  0.14084565071E+04  0.25500000920E-02 0. -1.
       -2   -1    0    0    0  501  0.00000000000E+00  0.00000000000E+00 -0.71816199527E+03  0.71816199527E+03  0.25500000920E-02 0.  1.
    10030    2    1    2    0    0  0.00000000000E+00  0.00000000000E+00  0.69029451188E+03  0.21266185024E+04  0.20114670620E+04 0.  0.
        4    1    3    3  502    0  0.76392718085E+03  0.23939303560E+03 -0.29847646491E+03  0.85439076314E+03  0.12699999809E+01 0.  1.
       -4    1    3    3    0  502 -0.76392718085E+03 -0.23939303560E+03  0.98877097679E+03  0.12722277393E+04  0.12699999809E+01 0. -1.
</event>
<event>
 5   0  0.3549426E-05  0.1990834E+04  0.7818609E-02  0.8610918E-01
        1   -1    0    0  501    0  0.00000000000E+00  0.00000000000E+00  0.19205490129E+04  0.19205490129E+04  0.50400001928E-02 0. -1.
       -1   -1    0    0    0  501  0.00000000000E+00  0.00000000000E+00 -0.51592295976E+03  0.51592295978E+03  0.50400001928E-02 0.  1.
    10030    2    1    2    0    0  0.00000000000E+00  0.00000000000E+00  0.14046260531E+04  0.24364719726E+04  0.19908343287E+04 0.  0.
        5    1    3    3  502    0  0.44455358808E+03  0.29862530290E+03  0.17291969398E+04  0.18102345458E+04  0.46999998093E+01 0. -1.
       -5    1    3    3    0  502 -0.44455358808E+03 -0.29862530290E+03 -0.32457088674E+03  0.62623742680E+03  0.46999998093E+01 0.  1.
</event>
<event>
 5   0  0.7843846E-05  0.1980887E+04  0.7818609E-02  0.8615609E-01
        2   -1    0    0  501    0  0.00000000000E+00  0.00000000000E+00  0.10877318588E+04  0.10877318588E+04  0.25500000920E-02 0.  1.
       -2   -1    0    0    0  501  0.00000000000E+00  0.00000000000E+00 -0.90185675649E+03  0.90185675649E+03  0.25500000920E-02 0. -1.
    10030    2    1    2    0    0  0.00000000000E+00  0.00000000000E+00  0.18587510235E+03  0.19895886153E+04  0.19808869995E+04 0.  0.
        2    1    3    3  502    0 -0.43536214170E+03  0.68652211576E+03  0.66121933026E+03  0.10478854005E+04  0.25500000920E-02 0.  1.
       -2    1    3    3    0  502  0.43536214170E+03 -0.68652211576E+03 -0.47534422790E+03  0.94170321485E+03  0.25500000920E-02 0. -1.
</event>
<event>
 5   0  0.3772949E-05  0.2004688E+04  0.7818609E-02  0.8604432E-01
        1   -1    0    0  501    0  0.00000000000E+00  0.00000000000E+00  0.20080975067E+04  0.20080975067E+04  0.50400001928E-02 0. -1.
       -1   -1    0    0    0  501  0.00000000000E+00  0.00000000000E+00 -0.50032098154E+03  0.50032098157E+03  0.50400001928E-02 0.  1.
    10030    2    1    2    0    0  0.00000000000E+00  0.00000000000E+00  0.15077765252E+04  0.25084184883E+04  0.20046878217E+04 0.  0.
        2    1    3    3  502    0  0.85076763682E+03  0.12533001478E+03  0.13982410796E+04  0.16415210328E+04  0.25500000920E-02 0. -1.
       -2    1    3    3    0  502 -0.85076763682E+03 -0.12533001478E+03  0.10953544558E+03  0.86689745548E+03  0.25500000920E-02 0.  1.
</event>
<event>
 5   0  0.3818907E-05  0.1993876E+04  0.7818609E-02  0.8609489E-01
       -1   -1    0    0    0  501  0.00000000000E+00  0.00000000000E+00  0.14407039866E+04  0.14407039866E+04  0.50400001928E-02 0. -1.
        1   -1    0    0  501    0  0.00000000000E+00  0.00000000000E+00 -0.68986076019E+03  0.68986076020E+03  0.50400001928E-02 0.  1.
    10030    2    1    2    0    0  0.00000000000E+00  0.00000000000E+00  0.75084322645E+03  0.21305647468E+04  0.19938757709E+04 0.  0.
        1    1    3    3  502    0 -0.20703179492E+03  0.42900299976E+03 -0.56039013546E+03  0.73548816568E+03  0.50400001928E-02 0.  1.
       -1    1    3    3    0  502  0.20703179492E+03 -0.42900299976E+03  0.13112333619E+04  0.13950765812E+04  0.50400001928E-02 0. -1.
</event>
<event>
 5   0  0.7843846E-05  0.1998511E+04  0.7818609E-02  0.8607317E-01
       -2   -1    0    0    0  501  0.00000000000E+00  0.00000000000E+00  0.97141448839E+03  0.97141448839E+03  0.25500000920E-02 0.  1.
        2   -1    0    0  501    0  0.00000000000E+00  0.00000000000E+00 -0.10278940957E+04  0.10278940957E+04  0.25500000920E-02 0. -1.
    10030    2    1    2    0    0  0.00000000000E+00  0.00000000000E+00 -0.56479607266E+02  0.19993085840E+04  0.19985106625E+04 0.  0.
        2    1    3    3  502    0 -0.59905104880E+03  0.72734342234E+03  0.30448974708E+03  0.99025482538E+03  0.25500000920E-02 0.  1.
       -2    1    3    3    0  502  0.59905104880E+03 -0.72734342234E+03 -0.36096935435E+03  0.10090537587E+04  0.25500000920E-02 0. -1.
</event>
<event>
 5   0  0.7857136E-05  0.1993546E+04  0.7818609E-02  0.8609644E-01
        2   -1    0    0  501    0  0.00000000000E+00  0.00000000000E+00  0.24439658101E+04  0.24439658101E+04  0.25500000920E-02 0.  1.
       -2   -1    0    0    0  501  0.00000000000E+00  0.00000000000E+00 -0.40653442130E+03  0.40653442131E+03  0.25500000920E-02 0. -1.
    10030    2    1    2    0    0  0.00000000000E+00  0.00000000000E+00  0.20374313888E+04  0.28505002314E+04  0.19935458122E+04 0.  0.
        4    1    3    3  502    0 -0.61507415915E+03  0.76756449789E+03  0.78778867806E+03  0.12601920861E+04  0.12699999809E+01 0.  1.
       -4    1    3    3    0  502  0.61507415915E+03 -0.76756449789E+03  0.12496427107E+04  0.15903081453E+04  0.12699999809E+01 0. -1.
</event>
<event>
 5   0  0.3772949E-05  0.1896099E+04  0.7818609E-02  0.8656801E-01
       -1   -1    0    0    0  501  0.00000000000E+00  0.00000000000E+00  0.46801863271E+03  0.46801863274E+03  0.50400001928E-02 0. -1.
        1   -1    0    0  501    0  0.00000000000E+00  0.00000000000E+00 -0.19204318515E+04  0.19204318515E+04  0.50400001928E-02 0.  1.
    10030    2    1    2    0    0  0.00000000000E+00  0.00000000000E+00 -0.14524132188E+04  0.23884504843E+04  0.18960990369E+04 0.  0.
        2    1    3    3  502    0 -0.67013324587E+03  0.65528699221E+03 -0.54665111663E+03  0.10850378116E+04  0.25500000920E-02 0. -1.
       -2    1    3    3    0  502  0.67013324587E+03 -0.65528699221E+03 -0.90576210217E+03  0.13034126726E+04  0.25500000920E-02 0.  1.
</event>
<event>
 5   0  0.3818907E-05  0.2001515E+04  0.7818609E-02  0.8605913E-01
       -1   -1    0    0    0  501  0.00000000000E+00  0.00000000000E+00  0.57440786549E+03  0.57440786552E+03  0.50400001928E-02 0. -1.
        1   -1    0    0  501    0  0.00000000000E+00  0.00000000000E+00 -0.17435616307E+04  0.17435616308E+04  0.50400001928E-02 0.  1.
    10030    2    1    2    0    0  0.00000000000E+00  0.00000000000E+00 -0.11691537653E+04  0.23179694963E+04  0.20015149409E+04 0.  0.
        1    1    3    3  502    0 -0.20941937441E+03  0.20440773495E+03  0.52374866044E+03  0.59995971183E+03  0.50400001928E-02 0. -1.
       -1    1    3    3    0  502  0.20941937441E+03 -0.20440773495E+03 -0.16929024257E+04  0.17180097844E+04  0.50400001928E-02 0.  1.
</event>
<event>
 5   0  0.3787698E-05  0.1999919E+04  0.7818609E-02  0.8606659E-01
       -1   -1    0    0    0  501  0.00000000000E+00  0.00000000000E+00  0.77467895855E+03  0.77467895857E+03  0.50400001928E-02 0. -1.
        1   -1    0    0  501    0  0.00000000000E+00  0.00000000000E+00 -0.12907523218E+04  0.12907523218E+04  0.50400001928E-02 0.  1.
    10030    2    1    2    0    0  0.00000000000E+00  0.00000000000E+00 -0.51607336324E+03  0.20654312804E+04  0.19999186628E+04 0.  0.
        4    1    3    3  502    0 -0.44120282945E+03 -0.43507299127E+03  0.55250939186E+03  0.83019075244E+03  0.12699999809E+01 0. -1.
       -4    1    3    3    0  502  0.44120282945E+03  0.43507299127E+03 -0.10685827551E+04  0.12352405279E+04  0.12699999809E+01 0.  1.
</event>
<event>
 5   0  0.7857136E-05  0.1998059E+04  0.7818609E-02  0.8607529E-01
        2   -1    0    0  501    0  0.00000000000E+00  0.00000000000E+00  0.10295634811E+04  0.10295634811E+04  0.25500000920E-02 0. -1.
       -2   -1    0    0    0  501  0.00000000000E+00  0.00000000000E+00 -0.96940127986E+03  0.96940127987E+03  0.25500000920E-02 0.  1.
    10030    2    1    2    0    0  0.00000000000E+00  0.00000000000E+00  0.60162201262E+02  0.19989647610E+04  0.19980592147E+04 0.  0.
        4    1    3    3  502    0 -0.92516619061E+02  0.84728875796E+03  0.55147080249E+03  0.10151744791E+04  0.12699999809E+01 0. -1.
       -4    1    3    3    0  502  0.92516619061E+02 -0.84728875796E+03 -0.49130860122E+03  0.98379028187E+03  0.12699999809E+01 0.  1.
</event>
<event>
 5   0  0.3970042E-05  0.1988177E+04  0.7818609E-02  0.8612168E-01
        1   -1    0    0  501    0  0.00000000000E+00  0.00000000000E+00  0.13552884908E+04  0.13552884908E+04  0.50400001928E-02 0.  1.
       -1   -1    0    0    0  501  0.00000000000E+00  0.00000000000E+00 -0.72915218138E+03  0.72915218140E+03  0.50400001928E-02 0. -1.
    10030    2    1    2    0    0  0.00000000000E+00  0.00000000000E+00  0.62613630941E+03  0.20844406722E+04  0.19881766114E+04 0.  0.
        3    1    3    3  502    0  0.35458165093E+02  0.81562078769E+03  0.90773206496E+03  0.12208489107E+04  0.10100000352E+00 0.  1.
       -3    1    3    3    0  502 -0.35458165093E+02 -0.81562078769E+03 -0.28159575556E+03  0.86359176150E+03  0.10100000352E+00 0. -1.
</event>
<event>
 5   0  0.3818907E-05  0.1995840E+04  0.7818609E-02  0.8608568E-01
        1   -1    0    0  501    0  0.00000000000E+00  0.00000000000E+00  0.10433715401E+04  0.10433715401E+04  0.50400001928E-02 0. -1.
       -1   -1    0    0    0  501  0.00000000000E+00  0.00000000000E+00 -0.95444816854E+03  0.95444816855E+03  0.50400001928E-02 0.  1.
    10030    2    1    2    0    0  0.00000000000E+00  0.00000000000E+00  0.88923371526E+02  0.19978197086E+04  0.19958397286E+04 0.  0.
        1    1    3    3  502    0 -0.42561455227E+03 -0.55065270313E+03 -0.67142464555E+03  0.96704560454E+03  0.50400001928E-02 0.  1.
       -1    1    3    3    0  502  0.42561455227E+03  0.55065270313E+03  0.76034801708E+03  0.10307741041E+04  0.50400001928E-02 0. -1.
</event>
<event>
 5   0  0.3818907E-05  0.1975982E+04  0.7818609E-02  0.8617933E-01
        1   -1    0    0  501    0  0.00000000000E+00  0.00000000000E+00  0.78817796591E+03  0.78817796592E+03  0.50400001928E-02 0. -1.
       -1   -1    0    0    0  501  0.00000000000E+00  0.00000000000E+00 -0.12384586257E+04  0.12384586257E+04  0.50400001928E-02 0.  1.
    10030    2    1    2    0    0  0.00000000000E+00  0.00000000000E+00 -0.45028065976E+03  0.20266365916E+04  0.19759815793E+04 0.  0.
        1    1    3    3  502    0  0.38625383838E+03 -0.71584665923E+02  0.70463612149E+03  0.80673939769E+03  0.50400001928E-02 0. -1.
       -1    1    3    3    0  502 -0.38625383838E+03  0.71584665923E+02 -0.11549167813E+04  0.12198971939E+04  0.50400001928E-02 0.  1.
</event>
<event>
 5   0  0.7857136E-05  0.2002634E+04  0.7818609E-02  0.8605390E-01
        2   -1    0    0  501    0  0.00000000000E+00  0.00000000000E+00  0.14222969603E+04  0.14222969603E+04  0.25500000920E-02 0. -1.
       -2   -1    0    0    0  501  0.00000000000E+00  0.00000000000E+00 -0.70494128204E+03  0.70494128204E+03  0.25500000920E-02 0.  1.
    10030    2    1    2    0    0  0.00000000000E+00  0.00000000000E+00  0.71735567826E+03  0.21272382423E+04  0.20026341080E+04 0.  0.
        4    1    3    3  502    0  0.15768837740E+03 -0.23114214729E+03  0.13799249627E+04  0.14080081080E+04  0.12699999809E+01 0. -1.
       -4    1    3    3    0  502 -0.15768837740E+03  0.23114214729E+03 -0.66256928442E+03  0.71923013436E+03  0.12699999809E+01 0.  1.
</event>
<event>
 5   0  0.7935008E-05  0.2017304E+04  0.7818609E-02  0.8598573E-01
        2   -1    0    0  501    0  0.00000000000E+00  0.00000000000E+00  0.14143919178E+04  0.14143919178E+04  0.25500000920E-02 0. -1.
       -2   -1    0    0    0  501  0.00000000000E+00  0.00000000000E+00 -0.71930459967E+03  0.71930459967E+03  0.25500000920E-02 0.  1.
    10030    2    1    2    0    0  0.00000000000E+00  0.00000000000E+00  0.69508731817E+03  0.21336965175E+04  0.20173037572E+04 0.  0.
        3    1    3    3  502    0 -0.34088757220E+03  0.69111843758E+02  0.13489532498E+04  0.13930741775E+04  0.10100000352E+00 0. -1.
       -3    1    3    3    0  502  0.34088757220E+03 -0.69111843758E+02 -0.65386593158E+03  0.74062234000E+03  0.10100000352E+00 0.  1.
</event>
<event>
 5   0  0.8011197E-05  0.2003774E+04  0.7818609E-02  0.8604858E-01
       -2   -1    0    0    0  501  0.00000000000E+00  0.00000000000E+00  0.83041842871E+03  0.83041842872E+03  0.25500000920E-02 0.  1.
        2   -1    0    0  501    0  0.00000000000E+00  0.00000000000E+00 -0.12087610771E+04  0.12087610771E+04  0.25500000920E-02 0. -1.
    10030    2    1    2    0    0  0.00000000000E+00  0.00000000000E+00 -0.37834264838E+03  0.20391795058E+04  0.20037739137E+04 0.  0.
        5    1    3    3  502    0  0.58162633613E+03 -0.66640817285E+03  0.28963792190E+03  0.93075306260E+03  0.46999998093E+01 0.  1.
       -5    1    3    3    0  502 -0.58162633613E+03  0.66640817285E+03 -0.66798057028E+03  0.11084264432E+04  0.46999998093E+01 0. -1.
</event>
<event>
 5   0  0.7935008E-05  0.2005149E+04  0.7818609E-02  0.8604217E-01
       -2   -1    0    0    0  501  0.00000000000E+00  0.00000000000E+00  0.86434098524E+03  0.86434098525E+03  0.25500000920E-02 0.  1.
        2   -1    0    0  501    0  0.00000000000E+00  0.00000000000E+00 -0.11629161350E+04  0.11629161350E+04  0.25500000920E-02 0. -1.
    10030    2    1    2    0    0  0.00000000000E+00  0.00000000000E+00 -0.29857514975E+03  0.20272571202E+04  0.20051494487E+04 0.  0.
        3    1    3    3  502    0  0.86992989275E+03 -0.56568987803E+02 -0.64990139576E+03  0.10873591417E+04  0.10100000352E+00 0. -1.
       -3    1    3    3    0  502 -0.86992989275E+03  0.56568987803E+02  0.35132624601E+03  0.93989797852E+03  0.10100000352E+00 0.  1.
</event>
<event>
 5   0  0.3549426E-05  0.2035462E+04  0.7818609E-02  0.8590218E-01
        1   -1    0    0  501    0  0.00000000000E+00  0.00000000000E+00  0.80184453920E+03  0.80184453922E+03  0.50400001928E-02 0. -1.
       -1   -1    0    0    0  501  0.00000000000E+00  0.00000000000E+00 -0.12917420680E+04  0.12917420680E+04  0.50400001928E-02 0.  1.
    10030    2    1    2    0    0  0.00000000000E+00  0.00000000000E+00 -0.48989752881E+03  0.20935866072E+04  0.20354619361E+04 0.  0.
        5    1    3    3  502    0  0.25338897748E+02 -0.94638739447E+03  0.13916295831E+03  0.95691147925E+03  0.46999998093E+01 0. -1.
       -5    1    3    3    0  502 -0.25338897748E+02  0.94638739447E+03 -0.62906048712E+03  0.11366751280E+04  0.46999998093E+01 0.  1.
</event>
<event>
 5   0  0.8011197E-05  0.1937438E+04  0.7818609E-02  0.8636442E-01
       -2   -1    0    0    0  501  0.00000000000E+00  0.00000000000E+00  0.13638045686E+04  0.13638045686E+04  0.25500000920E-02 0. -1.
        2   -1    0    0  501    0  0.00000000000E+00  0.00000000000E+00 -0.68808694076E+03  0.68808694077E+03  0.25500000920E-02 0.  1.
    10030    2    1    2    0    0  0.00000000000E+00  0.00000000000E+00  0.67571762784E+03  0.20518915094E+04  0.19374375999E+04 0.  0.
        5    1    3    3  502    0 -0.71314849602E+03  0.63920819091E+03  0.18356016307E+03  0.97513297153E+03  0.46999998093E+01 0.  1.
       -5    1    3    3    0  502  0.71314849602E+03 -0.63920819091E+03  0.49215746477E+03  0.10767585378E+04  0.46999998093E+01 0. -1.
</event>
<event>
 5   0  0.7843846E-05  0.2004415E+04  0.7818609E-02  0.8604559E-01
        2   -1    0    0  501    0  0.00000000000E+00  0.00000000000E+00  0.11015851409E+04  0.11015851409E+04  0.25500000920E-02 0.  1.
       -2   -1    0    0    0  501  0.00000000000E+00  0.00000000000E+00 -0.91179542443E+03  0.91179542443E+03  0.25500000920E-02 0. -1.
    10030    2    1    2    0    0  0.00000000000E+00  0.00000000000E+00  0.18978971649E+03  0.20133805654E+04  0.20044154171E+04 0.  0.
        2    1    3    3  502    0 -0.94054057940E+03 -0.30345130054E+03 -0.72346129409E+02  0.99092544409E+03  0.25500000920E-02 0. -1.
       -2    1    3    3    0  502  0.94054057940E+03  0.30345130054E+03  0.26213584589E+03  0.10224551213E+04  0.25500000920E-02 0.  1.
</event>
<event>
 5   0  0.8011197E-05  0.2000182E+04  0.7818609E-02  0.8606536E-01
        2   -1    0    0  501    0  0.00000000000E+00  0.00000000000E+00  0.91374674560E+03  0.91374674561E+03  0.25500000920E-02 0.  1.
       -2   -1    0    0    0  501  0.00000000000E+00  0.00000000000E+00 -0.10945939800E+04  0.10945939800E+04  0.25500000920E-02 0. -1.
    10030    2    1    2    0    0  0.00000000000E+00  0.00000000000E+00 -0.18084723435E+03  0.20083407256E+04  0.20001816787E+04 0.  0.
        5    1    3    3  502    0 -0.59716017425E+03 -0.15016417439E+03 -0.88168006554E+03  0.10754214899E+04  0.46999998093E+01 0. -1.
       -5    1    3    3    0  502  0.59716017425E+03  0.15016417439E+03  0.70083283119E+03  0.93291923565E+03  0.46999998093E+01 0.  1.
</event>
<event>
 5   0  0.3818907E-05  0.1996891E+04  0.7818609E-02  0.8608076E-01
        1   -1    0    0  501    0  0.00000000000E+00  0.00000000000E+00  0.10784741215E+04  0.10784741215E+04  0.50400001928E-02 0.  1.
       -1   -1    0    0    0  501  0.00000000000E+00  0.00000000000E+00 -0.92435556482E+03  0.92435556483E+03  0.50400001928E-02 0. -1.
    10030    2    1    2    0    0  0.00000000000E+00  0.00000000000E+00  0.15411855666E+03  0.20028296863E+04  0.19968911395E+04 0.  0.
        1    1    3    3  502    0  0.67238125949E+03  0.31331974524E+03 -0.59323031119E+03  0.94983578739E+03  0.50400001928E-02 0. -1.
       -1    1    3    3    0  502 -0.67238125949E+03 -0.31331974524E+03  0.74734886785E+03  0.10529938989E+04  0.50400001928E-02 0.  1.
</event>
<event>
 5   0  0.7843846E-05  0.2015990E+04  0.7818609E-02  0.8599181E-01
       -2   -1    0    0    0  501  0.00000000000E+00  0.00000000000E+00  0.56907019447E+03  0.56907019447E+03  0.25500000920E-02 0.  1.
        2   -1    0    0  501    0  0.00000000000E+00  0.00000000000E+00 -0.17854630040E+04  0.17854630040E+04  0.25500000920E-02 0. -1.
    10030    2    1    2    0    0  0.00000000000E+00  0.00000000000E+00 -0.12163928095E+04  0.23545331984E+04  0.20159898600E+04 0.  0.
        2    1    3    3  502    0  0.36570728678E+02 -0.99990214964E+03 -0.46557484651E+03  0.11035858212E+04  0.25500000920E-02 0.  1.
       -2    1    3    3    0  502 -0.36570728678E+02  0.99990214964E+03 -0.75081796298E+03  0.12509473772E+04  0.25500000920E-02 0. -1.
</event>
<event>
 5   0  0.3549426E-05  0.2024853E+04  0.7818609E-02  0.8595088E-01
       -1   -1    0    0    0  501  0.00000000000E+00  0.00000000000E+00  0.10376551965E+04  0.10376551965E+04  0.50400001928E-02 0.  1.
        1   -1    0    0  501    0  0.00000000000E+00  0.00000000000E+00 -0.98781157538E+03  0.98781157540E+03  0.50400001928E-02 0. -1.
    10030    2    1    2    0    0  0.00000000000E+00  0.00000000000E+00  0.49843621106E+02  0.20254667719E+04  0.20248533916E+04 0.  0.
        5    1    3    3  502    0 -0.77344583344E+03 -0.17152188490E+02  0.67816869195E+03  0.10288087867E+04  0.46999998093E+01 0.  1.
       -5    1    3    3    0  502  0.77344583344E+03  0.17152188490E+02 -0.62832507084E+03  0.99665798521E+03  0.46999998093E+01 0. -1.
</event>
<event>
 5   0  0.3970042E-05  0.1999632E+04  0.7818609E-02  0.8606793E-01
       -1   -1    0    0    0  501  0.00000000000E+00  0.00000000000E+00  0.70395948589E+03  0.70395948591E+03  0.50400001928E-02 0. -1.
        1   -1    0    0  501    0  0.00000000000E+00  0.00000000000E+00 -0.14200142393E+04  0.14200142393E+04  0.50400001928E-02 0.  1.
    10030    2    1    2    0    0  0.00000000000E+00  0.00000000000E+00 -0.71605475341E+03  0.21239737252E+04  0.19996324601E+04 0.  0.
        3    1    3    3  502    0  0.66028496260E+03  0.45629290684E+03 -0.99129906918E+03  0.12754815967E+04  0.10100000352E+00 0.  1.
       -3    1    3    3    0  502 -0.66028496260E+03 -0.45629290684E+03  0.27524431576E+03  0.84849212856E+03  0.10100000352E+00 0. -1.
</event>
<event>
 5   0  0.7857136E-05  0.2014070E+04  0.7818609E-02  0.8600071E-01
        2   -1    0    0  501    0  0.00000000000E+00  0.00000000000E+00  0.23448881043E+04  0.23448881043E+04  0.25500000920E-02 0.  1.
       -2   -1    0    0    0  501  0.00000000000E+00  0.00000000000E+00 -0.43248076052E+03  0.43248076053E+03  0.25500000920E-02 0. -1.
    10030    2    1    2    0    0  0.00000000000E+00  0.00000000000E+00  0.19124073438E+04  0.27773688648E+04  0.20140695030E+04 0.  0.
        4    1    3    3  502    0 -0.17057953219E+03  0.72561122309E+03  0.22449112108E+02  0.74573091622E+03  0.12699999809E+01 0. -1.
       -4    1    3    3    0  502  0.17057953219E+03 -0.72561122309E+03  0.18899582316E+04  0.20316379486E+04  0.12699999809E+01 0.  1.
</event>
<event>
 5   0  0.3970042E-05  0.1816627E+04  0.7818609E-02  0.8697507E-01
       -1   -1    0    0    0  501  0.00000000000E+00  0.00000000000E+00  0.45412612544E+03  0.45412612547E+03  0.50400001928E-02 0.  1.
        1   -1    0    0  501    0  0.00000000000E+00  0.00000000000E+00 -0.18167504845E+04  0.18167504845E+04  0.50400001928E-02 0. -1.
    10030    2    1    2    0    0  0.00000000000E+00  0.00000000000E+00 -0.13626243590E+04  0.22708766099E+04  0.18166274890E+04 0.  0.
        3    1    3    3  502    0 -0.60152821212E+03  0.60776879171E+03 -0.29843169774E+03  0.90569342637E+03  0.10100000352E+00 0.  1.
       -3    1    3    3    0  502  0.60152821212E+03 -0.60776879171E+03 -0.10641926613E+04  0.13651831836E+04  0.10100000352E+00 0. -1.
</event>
<event>
 5   0  0.3787698E-05  0.2072518E+04  0.7818609E-02  0.8573447E-01
        1   -1    0    0  501    0  0.00000000000E+00  0.00000000000E+00  0.65501645961E+03  0.65501645963E+03  0.50400001928E-02 0. -1.
       -1   -1    0    0    0  501  0.00000000000E+00  0.00000000000E+00 -0.16393976113E+04  0.16393976113E+04  0.50400001928E-02 0.  1.
    10030    2    1    2    0    0  0.00000000000E+00  0.00000000000E+00 -0.98438115169E+03  0.22944140709E+04  0.20725177146E+04 0.  0.
        4    1    3    3  502    0  0.45397729410E+03 -0.80992936936E+03  0.17240097781E+02  0.92864406571E+03  0.12699999809E+01 0.  1.
       -4    1    3    3    0  502 -0.45397729410E+03  0.80992936936E+03 -0.10016212495E+04  0.13657700052E+04  0.12699999809E+01 0. -1.
</event>
<event>
 5   0  0.3970042E-05  0.2023602E+04  0.7818609E-02  0.8595665E-01
       -1   -1    0    0    0  501  0.00000000000E+00  0.00000000000E+00  0.85707649299E+03  0.85707649301E+03  0.50400001928E-02 0.  1.
        1   -1    0    0  501    0  0.00000000000E+00  0.00000000000E+00 -0.11944577077E+04  0.11944577077E+04  0.50400001928E-02 0. -1.
    10030    2    1    2    0    0  0.00000000000E+00  0.00000000000E+00 -0.33738121473E+03  0.20515342007E+04  0.20236023554E+04 0.  0.
        3    1    3    3  502    0  0.29083759720E+03 -0.39320054579E+03 -0.10666639940E+04  0.11734416319E+04  0.10100000352E+00 0. -1.
       -3    1    3    3    0  502 -0.29083759720E+03  0.39320054579E+03  0.72928277926E+03  0.87809256886E+03  0.10100000352E+00 0.  1.
</event>
<event>
 5   0  0.8011197E-05  0.2009777E+04  0.7818609E-02  0.8602063E-01
        2   -1    0    0  501    0  0.00000000000E+00  0.00000000000E+00  0.14999175759E+04  0.14999175759E+04  0.25500000920E-02 0. -1.
       -2   -1    0    0    0  501  0.00000000000E+00  0.00000000000E+00 -0.67323772876E+03  0.67323772877E+03  0.25500000920E-02 0.  1.
    10030    2    1    2    0    0  0.00000000000E+00  0.00000000000E+00  0.82667984713E+03  0.21731553047E+04  0.20097772037E+04 0.  0.
        5    1    3    3  502    0  0.43889056807E+03  0.12862871955E+03  0.13808444605E+04  0.14546215289E+04  0.46999998093E+01 0. -1.
       -5    1    3    3    0  502 -0.43889056807E+03 -0.12862871955E+03 -0.55416461336E+03  0.71853377578E+03  0.46999998093E+01 0.  1.
</event>
<event>
 5   0  0.3787698E-05  0.1986305E+04  0.7818609E-02  0.8613050E-01
        1   -1    0    0  501    0  0.00000000000E+00  0.00000000000E+00  0.11759164073E+04  0.11759164073E+04  0.50400001928E-02 0.  1.
       -1   -1    0    0    0  501  0.00000000000E+00  0.00000000000E+00 -0.83879448844E+03  0.83879448846E+03  0.50400001928E-02 0. -1.
    10030    2    1    2    0    0  0.00000000000E+00  0.00000000000E+00  0.33712191882E+03  0.20147108957E+04  0.19863053152E+04 0.  0.
        4    1    3    3  502    0  0.36908986363E+03  0.57247698624E+03 -0.56454298289E+03  0.88468503980E+03  0.12699999809E+01 0. -1.
       -4    1    3    3    0  502 -0.36908986363E+03 -0.57247698624E+03  0.90166490171E+03  0.11300258559E+04  0.12699999809E+01 0.  1.
</event>
<event>
 5   0  0.3549426E-05  0.1963519E+04  0.7818609E-02  0.8623869E-01
        1   -1    0    0  501    0  0.00000000000E+00  0.00000000000E+00  0.11463845228E+04  0.11463845228E+04  0.50400001928E-02 0.  1.
       -1   -1    0    0    0  501  0.00000000000E+00  0.00000000000E+00 -0.84077565986E+03  0.84077565987E+03  0.50400001928E-02 0. -1.
    10030    2    1    2    0    0  0.00000000000E+00  0.00000000000E+00  0.30560886294E+03  0.19871601827E+04  0.19635194969E+04 0.  0.
        5    1    3    3  502    0  0.23390946446E+02  0.30134674727E+03 -0.79250433444E+03  0.84819939199E+03  0.46999998093E+01 0. -1.
       -5    1    3    3    0  502 -0.23390946446E+02 -0.30134674727E+03  0.10981131974E+04  0.11389607907E+04  0.46999998093E+01 0.  1.
</event>
<event>
 5   0  0.8011197E-05  0.2024465E+04  0.7818609E-02  0.8595267E-01
       -2   -1    0    0    0  501  0.00000000000E+00  0.00000000000E+00  0.10968184344E+04  0.10968184344E+04  0.25500000920E-02 0.  1.
        2   -1    0    0  501    0  0.00000000000E+00  0.00000000000E+00 -0.93416997447E+03  0.93416997447E+03  0.25500000920E-02 0. -1.
    10030    2    1    2    0    0  0.00000000000E+00  0.00000000000E+00  0.16264845997E+03  0.20309884089E+04  0.20244652122E+04 0.  0.
        5    1    3    3  502    0  0.43226112470E+02  0.66312940489E+03  0.84731813786E+03  0.10768376020E+04  0.46999998093E+01 0.  1.
       -5    1    3    3    0  502 -0.43226112470E+02 -0.66312940489E+03 -0.68466967789E+03  0.95415080687E+03  0.46999998093E+01 0. -1.
</event>
<event>
 5   0  0.3549426E-05  0.1999496E+04  0.7818609E-02  0.8606856E-01
        1   -1    0    0  501    0  0.00000000000E+00  0.00000000000E+00  0.15762640228E+04  0.15762640228E+04  0.50400001928E-02 0. -1.
       -1   -1    0    0    0  501  0.00000000000E+00  0.00000000000E+00 -0.63409182907E+03  0.63409182909E+03  0.50400001928E-02 0.  1.
    10030    2    1    2    0    0  0.00000000000E+00  0.00000000000E+00  0.94217219370E+03  0.22103558519E+04  0.19994960738E+04 0.  0.
        5    1    3    3  502    0  0.70818922599E+03  0.21889662354E+03 -0.27049833970E+03  0.78907487185E+03  0.46999998093E+01 0.  1.
       -5    1    3    3    0  502 -0.70818922599E+03 -0.21889662354E+03  0.12126705334E+04  0.14212809800E+04  0.46999998093E+01 0. -1.
</event>
<event>
 5   0  0.7857136E-05  0.2011472E+04  0.7818609E-02  0.8601276E-01
        2   -1    0    0  501    0  0.00000000000E+00  0.00000000000E+00  0.13433111717E+04  0.13433111717E+04  0.25500000920E-02 0. -1.
       -2   -1    0    0    0  501  0.00000000000E+00  0.00000000000E+00 -0.75299403460E+03  0.75299403461E+03  0.25500000920E-02 0.  1.
    10030    2    1    2    0    0  0.00000000000E+00  0.00000000000E+00  0.59031713714E+03  0.20963052064E+04  0.20114723950E+04 0.  0.
        4    1    3    3  502    0  0.20707428982E+02  0.30673639813E+03  0.12931393646E+04  0.13291828485E+04  0.12699999809E+01 0. -1.
       -4    1    3    3    0  502 -0.20707428982E+02 -0.30673639813E+03 -0.70282222748E+03  0.76712235784E+03  0.12699999809E+01 0.  1.
</event>
<event>
 5   0  0.3787698E-05  0.2015333E+04  0.7818609E-02  0.8599485E-01
       -1   -1    0    0    0  501  0.00000000000E+00  0.00000000000E+00  0.15501374279E+04  0.15501374279E+04  0.50400001928E-02 0. -1.
        1   -1    0    0  501    0  0.00000000000E+00  0.00000000000E+00 -0.65503335210E+03  0.65503335212E+03  0.50400001928E-02 0.  1.
    10030    2    1    2    0    0  0.00000000000E+00  0.00000000000E+00  0.89510407578E+03  0.22051707800E+04  0.20153329409E+04 0.  0.
        4    1    3    3  502    0  0.36283975322E+03  0.22271734165E+03  0.14468924316E+04  0.15082291014E+04  0.12699999809E+01 0. -1.
       -4    1    3    3    0  502 -0.36283975322E+03 -0.22271734165E+03 -0.55178835585E+03  0.69694167858E+03  0.12699999809E+01 0.  1.
</event>
<event>
 5   0  0.3772949E-05  0.1990485E+04  0.7818609E-02  0.8611082E-01
       -1   -1    0    0    0  501  0.00000000000E+00  0.00000000000E+00  0.92737823622E+03  0.92737823623E+03  0.50400001928E-02 0.  1.
        1   -1    0    0  501    0  0.00000000000E+00  0.00000000000E+00 -0.10680725015E+04  0.10680725016E+04  0.50400001928E-02 0. -1.
    10030    2    1    2    0    0  0.00000000000E+00  0.00000000000E+00 -0.14069426532E+03  0.19954507378E+04  0.19904845567E+04 0.  0.
        2    1    3    3  502    0  0.50685601396E+03 -0.51399728842E+03  0.61649797886E+03  0.94929762948E+03  0.25500000920E-02 0.  1.
       -2    1    3    3    0  502 -0.50685601396E+03  0.51399728842E+03 -0.75719224418E+03  0.10461531083E+04  0.25500000920E-02 0. -1.
</event>
<event>
 5   0  0.3970042E-05  0.1996675E+04  0.7818609E-02  0.8608177E-01
       -1   -1    0    0    0  501  0.00000000000E+00  0.00000000000E+00  0.95010146503E+03  0.95010146505E+03  0.50400001928E-02 0.  1.
        1   -1    0    0  501    0  0.00000000000E+00  0.00000000000E+00 -0.10490225262E+04  0.10490225262E+04  0.50400001928E-02 0. -1.
    10030    2    1    2    0    0  0.00000000000E+00  0.00000000000E+00 -0.98921061181E+02  0.19991239913E+04  0.19966750753E+04 0.  0.
        3    1    3    3  502    0 -0.94319077633E+03 -0.39313759132E+02 -0.37470263067E+03  0.10156556916E+04  0.10100000352E+00 0.  1.
       -3    1    3    3    0  502  0.94319077633E+03  0.39313759132E+02  0.27578156949E+03  0.98346829969E+03  0.10100000352E+00 0. -1.
</event>
<event>
 5   0  0.7935008E-05  0.2001407E+04  0.7818609E-02  0.8605963E-01
       -2   -1    0    0    0  501  0.00000000000E+00  0.00000000000E+00  0.98448245100E+03  0.98448245100E+03  0.25500000920E-02 0. -1.
        2   -1    0    0  501    0  0.00000000000E+00  0.00000000000E+00 -0.10171918925E+04  0.10171918925E+04  0.25500000920E-02 0.  1.
    10030    2    1    2    0    0  0.00000000000E+00  0.00000000000E+00 -0.32709441493E+02  0.20016743435E+04  0.20014070725E+04 0.  0.
        3    1    3    3  502    0 -0.64553188649E+03  0.51773886477E+03  0.54643048181E+03  0.99164067596E+03  0.10100000352E+00 0. -1.
       -3    1    3    3    0  502  0.64553188649E+03 -0.51773886477E+03 -0.57913992330E+03  0.10100336675E+04  0.10100000352E+00 0.  1.
</event>
<event>
 5   0  0.3772949E-05  0.2006974E+04  0.7818609E-02  0.8603367E-01
       -1   -1    0    0    0  501  0.00000000000E+00  0.00000000000E+00  0.59401947013E+03  0.59401947015E+03  0.50400001928E-02 0.  1.
        1   -1    0    0  501    0  0.00000000000E+00  0.00000000000E+00 -0.16952075609E+04  0.16952075609E+04  0.50400001928E-02 0. -1.
    10030    2    1    2    0    0  0.00000000000E+00  0.00000000000E+00 -0.11011880908E+04  0.22892270311E+04  0.20069741375E+04 0.  0.
        2    1    3    3  502    0 -0.30739376890E+03  0.94740747361E+03 -0.41129418996E+03  0.10776060323E+04  0.25500000920E-02 0.  1.
       -2    1    3    3    0  502  0.30739376890E+03 -0.94740747361E+03 -0.68989390083E+03  0.12116209988E+04  0.25500000920E-02 0. -1.
</event>
<event>
 5   0  0.3772949E-05  0.2005635E+04  0.7818609E-02  0.8603991E-01
        1   -1    0    0  501    0  0.00000000000E+00  0.00000000000E+00  0.21219709417E+04  0.21219709417E+04  0.50400001928E-02 0. -1.
       -1   -1    0    0    0  501  0.00000000000E+00  0.00000000000E+00 -0.47391909417E+03  0.47391909419E+03  0.50400001928E-02 0.  1.
    10030    2    1    2    0    0  0.00000000000E+00  0.00000000000E+00  0.16480518476E+04  0.25958900359E+04  0.20056346094E+04 0.  0.
        2    1    3    3  502    0 -0.84320216757E+03  0.45058117836E+03  0.43223754574E+03  0.10492104601E+04  0.25500000920E-02 0.  1.
       -2    1    3    3    0  502  0.84320216757E+03 -0.45058117836E+03  0.12158143018E+04  0.15466795758E+04  0.25500000920E-02 0. -1.
</event>
<event>
 5   0  0.8011197E-05  0.2020213E+04  0.7818609E-02  0.8597228E-01
       -2   -1    0    0    0  501  0.00000000000E+00  0.00000000000E+00  0.15328229675E+04  0.15328229675E+04  0.25500000920E-02 0.  1.
        2   -1    0    0  501    0  0.00000000000E+00  0.00000000000E+00 -0.66564471097E+03  0.66564471098E+03  0.25500000920E-02 0. -1.
    10030    2    1    2    0    0  0.00000000000E+00  0.00000000000E+00  0.86717825653E+03  0.21984676785E+04  0.20202133562E+04 0.  0.
        5    1    3    3  502    0 -0.14521475714E+03 -0.76734559313E+03 -0.26355015016E+03  0.82424957181E+03  0.46999998093E+01 0. -1.
       -5    1    3    3    0  502  0.14521475714E+03  0.76734559313E+03  0.11307284067E+04  0.13742181067E+04  0.46999998093E+01 0.  1.
</event>
<event>
 5   0  0.7857136E-05  0.2003066E+04  0.7818609E-02  0.8605188E-01
        2   -1    0    0  501    0  0.00000000000E+00  0.00000000000E+00  0.15660862382E+04  0.15660862382E+04  0.25500000920E-02 0. -1.
       -2   -1    0    0    0  501  0.00000000000E+00  0.00000000000E+00 -0.64049399768E+03  0.64049399768E+03  0.25500000920E-02 0.  1.
    10030    2    1    2    0    0  0.00000000000E+00  0.00000000000E+00  0.92559224048E+03  0.22065802359E+04  0.20030664846E+04 0.  0.
        4    1    3    3  502    0 -0.57299379568E+03  0.45143722077E+03  0.12187784654E+04  0.14204013570E+04  0.12699999809E+01 0. -1.
       -4    1    3    3    0  502  0.57299379568E+03 -0.45143722077E+03 -0.29318622495E+03  0.78617887887E+03  0.12699999809E+01 0.  1.
</event>
<event>
 5   0  0.3772949E-05  0.2016201E+04  0.7818609E-02  0.8599083E-01
        1   -1    0    0  501    0  0.00000000000E+00  0.00000000000E+00  0.65791331796E+03  0.65791331798E+03  0.50400001928E-02 0.  1.
       -1   -1    0    0    0  501  0.00000000000E+00  0.00000000000E+00 -0.15446822525E+04  0.15446822525E+04  0.50400001928E-02 0. -1.
    10030    2    1    2    0    0  0.00000000000E+00  0.00000000000E+00 -0.88676893457E+03  0.22025955705E+04  0.20162014046E+04 0.  0.
        2    1    3    3  502    0  0.32731721189E+03  0.61904674098E+03  0.34885636837E+03  0.78234020123E+03  0.25500000920E-02 0.  1.
       -2    1    3    3    0  502 -0.32731721189E+03 -0.61904674098E+03 -0.12356253029E+04  0.14202553693E+04  0.25500000920E-02 0. -1.
</event>
<event>
 5   0  0.3818907E-05  0.2021843E+04  0.7818609E-02  0.8596476E-01
        1   -1    0    0  501    0  0.00000000000E+00  0.00000000000E+00  0.22162513997E+04  0.22162513997E+04  0.50400001928E-02 0. -1.
       -1   -1    0    0    0  501  0.00000000000E+00  0.00000000000E+00 -0.46112218861E+03  0.46112218863E+03  0.50400001928E-02 0.  1.
    10030    2    1    2    0    0  0.00000000000E+00  0.00000000000E+00  0.17551292111E+04  0.26773735884E+04  0.20218434123E+04 0.  0.
        1    1    3    3  502    0  0.46147763649E+03 -0.51289960411E+03 -0.10087034916E+03  0.69728218122E+03  0.50400001928E-02 0.  1.
       -1    1    3    3    0  502 -0.46147763649E+03  0.51289960411E+03  0.18559995603E+04  0.19800914071E+04  0.50400001928E-02 0. -1.
</event>
<event>
 5   0  0.3970042E-05  0.1991403E+04  0.7818609E-02  0.8610651E-01
       -1   -1    0    0    0  501  0.00000000000E+00  0.00000000000E+00  0.47971437655E+03  0.47971437658E+03  0.50400001928E-02 0.  1.
        1   -1    0    0  501    0  0.00000000000E+00  0.00000000000E+00 -0.20666905090E+04  0.20666905091E+04  0.50400001928E-02 0. -1.
    10030    2    1    2    0    0  0.00000000000E+00  0.00000000000E+00 -0.15869761325E+04  0.25464048856E+04  0.19914026706E+04 0.  0.
        3    1    3    3  502    0 -0.59909153809E+03 -0.56257518883E+03 -0.15123167526E+04  0.17211924601E+04  0.10100000352E+00 0. -1.
       -3    1    3    3    0  502  0.59909153809E+03  0.56257518883E+03 -0.74659379859E+02  0.82521242556E+03  0.10100000352E+00 0.  1.
</event>
<event>
 5   0  0.7843846E-05  0.1994587E+04  0.7818609E-02  0.8609156E-01
       -2   -1    0    0    0  501  0.00000000000E+00  0.00000000000E+00  0.76656106255E+03  0.76656106256E+03  0.25500000920E-02 0.  1.
        2   -1    0    0  501    0  0.00000000000E+00  0.00000000000E+00 -0.12974758689E+04  0.12974758689E+04  0.25500000920E-02 0. -1.
    10030    2    1    2    0    0  0.00000000000E+00  0.00000000000E+00 -0.53091480637E+03  0.20640369315E+04  0.19945871560E+04 0.  0.
        2    1    3    3  502    0  0.37555125217E+03  0.44042651045E+03  0.57496623570E+03  0.81584338345E+03  0.25500000920E-02 0.  1.
       -2    1    3    3    0  502 -0.37555125217E+03 -0.44042651045E+03 -0.11058810421E+04  0.12481935480E+04  0.25500000920E-02 0. -1.
</event>
<event>
 5   0  0.3818907E-05  0.2007054E+04  0.7818609E-02  0.8603330E-01
        1   -1    0    0  501    0  0.00000000000E+00  0.00000000000E+00  0.11729988601E+04  0.11729988601E+04  0.50400001928E-02 0.  1.
       -1   -1    0    0    0  501  0.00000000000E+00  0.00000000000E+00 -0.85854002097E+03  0.85854002099E+03  0.50400001928E-02 0. -1.
    10030    2    1    2    0    0  0.00000000000E+00  0.00000000000E+00  0.31445883916E+03  0.20315388811E+04  0.20070540262E+04 0.  0.
        1    1    3    3  502    0  0.33538489588E+03 -0.33593674980E+03  0.10521705078E+04  0.11542960217E+04  0.50400001928E-02 0.  1.
       -1    1    3    3    0  502 -0.33538489588E+03  0.33593674980E+03 -0.73771166866E+03  0.87724285939E+03  0.50400001928E-02 0. -1.
</event>
<event>
 5   0  0.8011197E-05  0.1957173E+04  0.7818609E-02  0.8626910E-01
       -2   -1    0    0    0  501  0.00000000000E+00  0.00000000000E+00  0.44492342956E+03  0.44492342957E+03  0.25500000920E-02 0. -1.
        2   -1    0    0  501    0  0.00000000000E+00  0.00000000000E+00 -0.21523511790E+04  0.21523511790E+04  0.25500000920E-02 0.  1.
    10030    2    1    2    0    0  0.00000000000E+00  0.00000000000E+00 -0.17074277495E+04  0.25972746086E+04  0.19571729287E+04 0.  0.
        5    1    3    3  502    0 -0.65125101090E+03 -0.71626190118E+03 -0.10434890692E+04  0.14233940135E+04  0.46999998093E+01 0. -1.
       -5    1    3    3    0  502  0.65125101090E+03  0.71626190118E+03 -0.66393868032E+03  0.11738805951E+04  0.46999998093E+01 0.  1.
</event>
<event>
 5   0  0.3970042E-05  0.1986331E+04  0.7818609E-02  0.8613038E-01
       -1   -1    0    0    0  501  0.00000000000E+00  0.00000000000E+00  0.68184651296E+03  0.68184651298E+03  0.50400001928E-02 0. -1.
        1   -1    0    0  501    0  0.00000000000E+00  0.00000000000E+00 -0.14466272801E+04  0.14466272801E+04  0.50400001928E-02 0.  1.
    10030    2    1    2    0    0  0.00000000000E+00  0.00000000000E+00 -0.76478076713E+03  0.21284737931E+04  0.19863310565E+04 0.  0.
        3    1    3    3  502    0 -0.23440686266E+03  0.91501618766E+03 -0.53547782177E+02  0.94608063933E+03  0.10100000352E+00 0. -1.
       -3    1    3    3    0  502  0.23440686266E+03 -0.91501618766E+03 -0.71123298495E+03  0.11823931537E+04  0.10100000352E+00 0.  1.
</event>
<event>
 5   0  0.7843846E-05  0.1993694E+04  0.7818609E-02  0.8609574E-01
        2   -1    0    0  501    0  0.00000000000E+00  0.00000000000E+00  0.16278461376E+04  0.16278461376E+04  0.25500000920E-02 0.  1.
       -2   -1    0    0    0  501  0.00000000000E+00  0.00000000000E+00 -0.61044121075E+03  0.61044121076E+03  0.25500000920E-02 0. -1.
    10030    2    1    2    0    0  0.00000000000E+00  0.00000000000E+00  0.10174049269E+04  0.22382873484E+04  0.19936944271E+04 0.  0.
        2    1    3    3  502    0 -0.56425406030E+03 -0.95691777757E+02  0.14250244083E+04  0.15356542987E+04  0.25500000920E-02 0.  1.
       -2    1    3    3    0  502  0.56425406030E+03  0.95691777757E+02 -0.40761948141E+03  0.70263304970E+03  0.25500000920E-02 0. -1.
</event>
<event>
 5   0  0.2859625E-05  0.2008566E+04  0.7818609E-02  0.8602626E-01
       -3   -1    0    0    0  501  0.00000000000E+00  0.00000000000E+00  0.89351576299E+03  0.89351576870E+03  0.10100000352E+00 0. -1.
        3   -1    0    0  501    0  0.00000000000E+00  0.00000000000E+00 -0.11287817891E+04  0.11287817937E+04  0.10100000352E+00 0.  1.
    10030    2    1    2    0    0  0.00000000000E+00  0.00000000000E+00 -0.23526602614E+03  0.20222975624E+04  0.20085659879E+04 0.  0.
        4    1    3    3  502    0  0.95033754426E+03  0.27464822301E+03 -0.29205018294E+03  0.10314397785E+04  0.12699999809E+01 0. -1.
       -4    1    3    3    0  502 -0.95033754426E+03 -0.27464822301E+03  0.56784156802E+02  0.99085778384E+03  0.12699999809E+01 0.  1.
</event>
<event>
 5   0  0.8011197E-05  0.2004305E+04  0.7818609E-02  0.8604611E-01
       -2   -1    0    0    0  501  0.00000000000E+00  0.00000000000E+00  0.70104568492E+03  0.70104568493E+03  0.25500000920E-02 0. -1.
        2   -1    0    0  501    0  0.00000000000E+00  0.00000000000E+00 -0.14325875553E+04  0.14325875553E+04  0.25500000920E-02 0.  1.
    10030    2    1    2    0    0  0.00000000000E+00  0.00000000000E+00 -0.73154187038E+03  0.21336332402E+04  0.20043046913E+04 0.  0.
        5    1    3    3  502    0  0.19792677967E+03  0.16659462401E+03  0.66487353216E+03  0.71344774344E+03  0.46999998093E+01 0. -1.
       -5    1    3    3    0  502 -0.19792677967E+03 -0.16659462401E+03 -0.13964154025E+04  0.14201854968E+04  0.46999998093E+01 0.  1.
</event>
<event>
 5   0  0.3818907E-05  0.2002852E+04  0.7818609E-02  0.8605289E-01
        1   -1    0    0  501    0  0.00000000000E+00  0.00000000000E+00  0.69092854352E+03  0.69092854354E+03  0.50400001928E-02 0. -1.
       -1   -1    0    0    0  501  0.00000000000E+00  0.00000000000E+00 -0.14514577247E+04  0.14514577247E+04  0.50400001928E-02 0.  1.
    10030    2    1    2    0    0  0.00000000000E+00  0.00000000000E+00 -0.76052918117E+03  0.21423862682E+04  0.20028515389E+04 0.  0.
        1    1    3    3  502    0 -0.50775017939E+02 -0.25524600152E+02  0.68920230779E+03  0.69154134276E+03  0.50400001928E-02 0. -1.
       -1    1    3    3    0  502  0.50775017939E+02  0.25524600152E+02 -0.14497314890E+04  0.14508449255E+04  0.50400001928E-02 0.  1.
</event>
<event>
 5   0  0.3772949E-05  0.1989424E+04  0.7818609E-02  0.8611581E-01
        1   -1    0    0  501    0  0.00000000000E+00  0.00000000000E+00  0.11021479158E+04  0.11021479158E+04  0.50400001928E-02 0. -1.
       -1   -1    0    0    0  501  0.00000000000E+00  0.00000000000E+00 -0.89774845141E+03  0.89774845142E+03  0.50400001928E-02 0.  1.
    10030    2    1    2    0    0  0.00000000000E+00  0.00000000000E+00  0.20439946435E+03  0.19998963672E+04  0.19894236197E+04 0.  0.
        2    1    3    3  502    0 -0.49410929364E+03  0.81352928855E+02  0.96619452149E+03  0.10882527953E+04  0.25500000920E-02 0. -1.
       -2    1    3    3    0  502  0.49410929364E+03 -0.81352928855E+02 -0.76179505714E+03  0.91164357190E+03  0.25500000920E-02 0.  1.
</event>
<event>
 5   0  0.7935008E-05  0.2000021E+04  0.7818609E-02  0.8606611E-01
       -2   -1    0    0    0  501  0.00000000000E+00  0.00000000000E+00  0.88880958633E+03  0.88880958633E+03  0.25500000920E-02 0. -1.
        2   -1    0    0  501    0  0.00000000000E+00  0.00000000000E+00 -0.11251234521E+04  0.11251234521E+04  0.25500000920E-02 0.  1.
    10030    2    1    2    0    0  0.00000000000E+00  0.00000000000E+00 -0.23631386580E+03  0.20139330385E+04  0.20000205100E+04 0.  0.
        3    1    3    3  502    0 -0.40062457394E+03 -0.23688226054E+03  0.77310297146E+03  0.90238654095E+03  0.10100000352E+00 0. -1.
       -3    1    3    3    0  502  0.40062457394E+03  0.23688226054E+03 -0.10094168373E+04  0.11115464975E+04  0.10100000352E+00 0.  1.
</event>
<event>
 5   0  0.3549426E-05  0.1989174E+04  0.7818609E-02  0.8611699E-01
       -1   -1    0    0    0  501  0.00000000000E+00  0.00000000000E+00  0.84900927433E+03  0.84900927434E+03  0.50400001928E-02 0.  1.
        1   -1    0    0  501    0  0.00000000000E+00  0.00000000000E+00 -0.11651270047E+04  0.11651270047E+04  0.50400001928E-02 0. -1.
    10030    2    1    2    0    0  0.00000000000E+00  0.00000000000E+00 -0.31611773036E+03  0.20141362790E+04  0.19891743340E+04 0.  0.
        5    1    3    3  502    0 -0.84870172170E+03 -0.13017569109E+03  0.35017736272E+03  0.92730070544E+03  0.46999998093E+01 0.  1.
       -5    1    3    3    0  502  0.84870172170E+03  0.13017569109E+03 -0.66629509307E+03  0.10868355736E+04  0.46999998093E+01 0. -1.
</event>
<event>
 5   0  0.8022574E-05  0.2007377E+04  0.7818609E-02  0.8603179E-01
        2   -1    0    0  501    0  0.00000000000E+00  0.00000000000E+00  0.94397731110E+03  0.94397731110E+03  0.25500000920E-02 0.  1.
       -2   -1    0    0    0  501  0.00000000000E+00  0.00000000000E+00 -0.10671765781E+04  0.10671765781E+04  0.25500000920E-02 0. -1.
    10030    2    1    2    0    0  0.00000000000E+00  0.00000000000E+00 -0.12319926703E+03  0.20111538892E+04  0.20073768721E+04 0.  0.
        1    1    3    3  502    0  0.15790065202E+03  0.41152805448E+02  0.93059920242E+03  0.94479682730E+03  0.50400001928E-02 0.  1.
       -1    1    3    3    0  502 -0.15790065202E+03 -0.41152805448E+02 -0.10537984694E+04  0.10663570619E+04  0.50400001928E-02 0. -1.
</event>
<event>
 5   0  0.3818907E-05  0.2010382E+04  0.7818609E-02  0.8601782E-01
        1   -1    0    0  501    0  0.00000000000E+00  0.00000000000E+00  0.11570743178E+04  0.11570743178E+04  0.50400001928E-02 0.  1.
       -1   -1    0    0    0  501  0.00000000000E+00  0.00000000000E+00 -0.87324454693E+03  0.87324454695E+03  0.50400001928E-02 0. -1.
    10030    2    1    2    0    0  0.00000000000E+00  0.00000000000E+00  0.28382977082E+03  0.20303188647E+04  0.20103818925E+04 0.  0.
        1    1    3    3  502    0  0.42902107585E+03  0.78316292045E+03  0.60801712688E+03  0.10803185040E+04  0.50400001928E-02 0.  1.
       -1    1    3    3    0  502 -0.42902107585E+03 -0.78316292045E+03 -0.32418735606E+03  0.95000036071E+03  0.50400001928E-02 0. -1.
</event>
<event>
 5   0  0.7843846E-05  0.2016469E+04  0.7818609E-02  0.8598960E-01
        2   -1    0    0  501    0  0.00000000000E+00  0.00000000000E+00  0.11139154080E+04  0.11139154080E+04  0.25500000920E-02 0.  1.
       -2   -1    0    0    0  501  0.00000000000E+00  0.00000000000E+00 -0.91257961706E+03  0.91257961706E+03  0.25500000920E-02 0. -1.
    10030    2    1    2    0    0  0.00000000000E+00  0.00000000000E+00  0.20133579093E+03  0.20264950251E+04  0.20164686920E+04 0.  0.
        2    1    3    3  502    0  0.82625702922E+03  0.15161882540E+03  0.66097713328E+03  0.10689152058E+04  0.25500000920E-02 0.  1.
       -2    1    3    3    0  502 -0.82625702922E+03 -0.15161882540E+03 -0.45964134235E+03  0.95757981921E+03  0.25500000920E-02 0. -1.
</event>
<event>
 5   0  0.3970042E-05  0.1977869E+04  0.7818609E-02  0.8617038E-01
        1   -1    0    0  501    0  0.00000000000E+00  0.00000000000E+00  0.92735472315E+03  0.92735472317E+03  0.50400001928E-02 0. -1.
       -1   -1    0    0    0  501  0.00000000000E+00  0.00000000000E+00 -0.10546032616E+04  0.10546032617E+04  0.50400001928E-02 0.  1.
    10030    2    1    2    0    0  0.00000000000E+00  0.00000000000E+00 -0.12724853849E+03  0.19819579848E+04  0.19778688690E+04 0.  0.
        3    1    3    3  502    0 -0.80204833518E+02  0.57595898378E+03  0.73792303888E+03  0.93951689066E+03  0.10100000352E+00 0. -1.
       -3    1    3    3    0  502  0.80204833518E+02 -0.57595898378E+03 -0.86517157737E+03  0.10424410942E+04  0.10100000352E+00 0.  1.
</event>
<event>
 5   0  0.7857136E-05  0.1975139E+04  0.7818609E-02  0.8618333E-01
        2   -1    0    0  501    0  0.00000000000E+00  0.00000000000E+00  0.14411110926E+04  0.14411110926E+04  0.25500000920E-02 0.  1.
       -2   -1    0    0    0  501  0.00000000000E+00  0.00000000000E+00 -0.67676488661E+03  0.67676488661E+03  0.25500000920E-02 0. -1.
    10030    2    1    2    0    0  0.00000000000E+00  0.00000000000E+00  0.76434620597E+03  0.21178759792E+04  0.19751388662E+04 0.  0.
        4    1    3    3  502    0 -0.80685523913E+03  0.38841925573E+03  0.82868809812E+03  0.12200862560E+04  0.12699999809E+01 0.  1.
       -4    1    3    3    0  502  0.80685523913E+03 -0.38841925573E+03 -0.64341892157E+02  0.89778972322E+03  0.12699999809E+01 0. -1.
</event>
<event>
 5   0  0.8022574E-05  0.1982777E+04  0.7818609E-02  0.8614716E-01
        2   -1    0    0  501    0  0.00000000000E+00  0.00000000000E+00  0.14704716055E+04  0.14704716055E+04  0.25500000920E-02 0. -1.
       -2   -1    0    0    0  501  0.00000000000E+00  0.00000000000E+00 -0.66839148888E+03  0.66839148889E+03  0.25500000920E-02 0.  1.
    10030    2    1    2    0    0  0.00000000000E+00  0.00000000000E+00  0.80208011662E+03  0.21388630944E+04  0.19827765439E+04 0.  0.
        1    1    3    3  502    0  0.79049241206E+03  0.81663811774E+02 -0.23832726490E+03  0.82966687104E+03  0.50400001928E-02 0.  1.
       -1    1    3    3    0  502 -0.79049241206E+03 -0.81663811774E+02  0.10404073815E+04  0.13091962233E+04  0.50400001928E-02 0. -1.
</event>
<event>
 5   0  0.3970042E-05  0.1978640E+04  0.7818609E-02  0.8616673E-01
       -1   -1    0    0    0  501  0.00000000000E+00  0.00000000000E+00  0.62545997868E+03  0.62545997870E+03  0.50400001928E-02 0.  1.
        1   -1    0    0  501    0  0.00000000000E+00  0.00000000000E+00 -0.15648555849E+04  0.15648555849E+04  0.50400001928E-02 0. -1.
    10030    2    1    2    0    0  0.00000000000E+00  0.00000000000E+00 -0.93939560626E+03  0.21903155636E+04  0.19786404836E+04 0.  0.
        3    1    3    3  502    0  0.21262457001E+03 -0.68906227935E+03  0.28006241393E+03  0.77359614690E+03  0.10100000352E+00 0. -1.
       -3    1    3    3    0  502 -0.21262457001E+03  0.68906227935E+03 -0.12194580202E+04  0.14167194167E+04  0.10100000352E+00 0.  1.
</event>
<event>
 5   0  0.3549426E-05  0.2018166E+04  0.7818609E-02  0.8598174E-01
        1   -1    0    0  501    0  0.00000000000E+00  0.00000000000E+00  0.99555639505E+03  0.99555639506E+03  0.50400001928E-02 0. -1.
       -1   -1    0    0    0  501  0.00000000000E+00  0.00000000000E+00 -0.10227929636E+04  0.10227929636E+04  0.50400001928E-02 0.  1.
    10030    2    1    2    0    0  0.00000000000E+00  0.00000000000E+00 -0.27236568537E+02  0.20183493587E+04  0.20181655787E+04 0.  0.
        5    1    3    3  502    0  0.53678219496E+03  0.83083315862E+03  0.18591711031E+03  0.10064820536E+04  0.46999998093E+01 0.  1.
       -5    1    3    3    0  502 -0.53678219496E+03 -0.83083315862E+03 -0.21315367884E+03  0.10118673051E+04  0.46999998093E+01 0. -1.
</event>
<event>
 5   0  0.3970042E-05  0.2003844E+04  0.7818609E-02  0.8604826E-01
       -1   -1    0    0    0  501  0.00000000000E+00  0.00000000000E+00  0.10121070759E+04  0.10121070759E+04  0.50400001928E-02 0.  1.
        1   -1    0    0  501    0  0.00000000000E+00  0.00000000000E+00 -0.99183916200E+03  0.99183916201E+03  0.50400001928E-02 0. -1.
    10030    2    1    2    0    0  0.00000000000E+00  0.00000000000E+00  0.20267913858E+02  0.20039462379E+04  0.20038437404E+04 0.  0.
        3    1    3    3  502    0  0.69267110431E+02 -0.99770704847E+03 -0.50119740270E+02  0.10013637130E+04  0.10100000352E+00 0.  1.
       -3    1    3    3    0  502 -0.69267110431E+02  0.99770704847E+03  0.70387654127E+02  0.10025825249E+04  0.10100000352E+00 0. -1.
</event>
<event>
 5   0  0.3549426E-05  0.1974629E+04  0.7818609E-02  0.8618575E-01
       -1   -1    0    0    0  501  0.00000000000E+00  0.00000000000E+00  0.75710774853E+03  0.75710774854E+03  0.50400001928E-02 0. -1.
        1   -1    0    0  501    0  0.00000000000E+00  0.00000000000E+00 -0.12875180789E+04  0.12875180789E+04  0.50400001928E-02 0.  1.
    10030    2    1    2    0    0  0.00000000000E+00  0.00000000000E+00 -0.53041033037E+03  0.20446258274E+04  0.19746289919E+04 0.  0.
        5    1    3    3  502    0  0.53055364538E+02 -0.62859707368E+03  0.52120295311E+03  0.81830542041E+03  0.46999998093E+01 0. -1.
       -5    1    3    3    0  502 -0.53055364538E+02  0.62859707368E+03 -0.10516132835E+04  0.12263204070E+04  0.46999998093E+01 0.  1.
</event>
<event>
 5   0  0.7843846E-05  0.1989527E+04  0.7818609E-02  0.8611533E-01
        2   -1    0    0  501    0  0.00000000000E+00  0.00000000000E+00  0.89081888050E+03  0.89081888050E+03  0.25500000920E-02 0. -1.
       -2   -1    0    0    0  501  0.00000000000E+00  0.00000000000E+00 -0.11108370022E+04  0.11108370022E+04  0.25500000920E-02 0.  1.
    10030    2    1    2    0    0  0.00000000000E+00  0.00000000000E+00 -0.22001812169E+03  0.20016558827E+04  0.19895271546E+04 0.  0.
        2    1    3    3  502    0 -0.38804272825E+01  0.62232661108E+03 -0.89078716958E+03  0.10866495526E+04  0.25500000920E-02 0.  1.
       -2    1    3    3    0  502  0.38804272825E+01 -0.62232661108E+03  0.67076904789E+03  0.91500633013E+03  0.25500000920E-02 0. -1.
</event>
<event>
 5   0  0.3970042E-05  0.2061549E+04  0.7818609E-02  0.8578373E-01
        1   -1    0    0  501    0  0.00000000000E+00  0.00000000000E+00  0.11853645508E+04  0.11853645508E+04  0.50400001928E-02 0. -1.
       -1   -1    0    0    0  501  0.00000000000E+00  0.00000000000E+00 -0.89634559737E+03  0.89634559738E+03  0.50400001928E-02 0.  1.
    10030    2    1    2    0    0  0.00000000000E+00  0.00000000000E+00  0.28901895344E+03  0.20817101482E+04  0.20615492198E+04 0.  0.
        3    1    3    3  502    0 -0.22998149047E+03 -0.59169889414E+02  0.11573660002E+04  0.11814773085E+04  0.10100000352E+00 0. -1.
       -3    1    3    3    0  502  0.22998149047E+03  0.59169889414E+02 -0.86834704681E+03  0.90023283970E+03  0.10100000352E+00 0.  1.
</event>
<event>
 5   0  0.8022574E-05  0.1995215E+04  0.7818609E-02  0.8608861E-01
       -2   -1    0    0    0  501  0.00000000000E+00  0.00000000000E+00  0.49396121387E+03  0.49396121387E+03  0.25500000920E-02 0.  1.
        2   -1    0    0  501    0  0.00000000000E+00  0.00000000000E+00 -0.20147758449E+04  0.20147758449E+04  0.25500000920E-02 0. -1.
    10030    2    1    2    0    0  0.00000000000E+00  0.00000000000E+00 -0.15208146310E+04  0.25087370588E+04  0.19952153989E+04 0.  0.
        1    1    3    3  502    0  0.30103936278E+03 -0.86058744811E+03 -0.25123087101E+03  0.94570206955E+03  0.50400001928E-02 0.  1.
       -1    1    3    3    0  502 -0.30103936278E+03  0.86058744811E+03 -0.12695837600E+04  0.15630349892E+04  0.50400001928E-02 0. -1.
</event>
<event>
 5   0  0.7857136E-05  0.1998227E+04  0.7818609E-02  0.8607450E-01
       -2   -1    0    0    0  501  0.00000000000E+00  0.00000000000E+00  0.75340972290E+03  0.75340972290E+03  0.25500000920E-02 0.  1.
        2   -1    0    0  501    0  0.00000000000E+00  0.00000000000E+00 -0.13249472699E+04  0.13249472699E+04  0.25500000920E-02 0. -1.
    10030    2    1    2    0    0  0.00000000000E+00  0.00000000000E+00 -0.57153754702E+03  0.20783569928E+04  0.19982273699E+04 0.  0.
        4    1    3    3  502    0  0.46977994940E+03 -0.75355709161E+03  0.19050753513E+03  0.90820494659E+03  0.12699999809E+01 0.  1.
       -4    1    3    3    0  502 -0.46977994940E+03  0.75355709161E+03 -0.76204508215E+03  0.11701520462E+04  0.12699999809E+01 0. -1.
</event>
<event>
 5   0  0.3970042E-05  0.1999054E+04  0.7818609E-02  0.8607063E-01
       -1   -1    0    0    0  501  0.00000000000E+00  0.00000000000E+00  0.59559382913E+03  0.59559382915E+03  0.50400001928E-02 0.  1.
        1   -1    0    0  501    0  0.00000000000E+00  0.00000000000E+00 -0.16774081272E+04  0.16774081272E+04  0.50400001928E-02 0. -1.
    10030    2    1    2    0    0  0.00000000000E+00  0.00000000000E+00 -0.10818142981E+04  0.22730019564E+04  0.19990537057E+04 0.  0.
        3    1    3    3  502    0 -0.48930286458E+03  0.25989068981E+02 -0.15314770629E+04  0.16079535843E+04  0.10100000352E+00 0. -1.
       -3    1    3    3    0  502  0.48930286458E+03 -0.25989068981E+02  0.44966276476E+03  0.66504837208E+03  0.10100000352E+00 0.  1.
</event>
<event>
 5   0  0.7935008E-05  0.1988184E+04  0.7818609E-02  0.8612165E-01
       -2   -1    0    0    0  501  0.00000000000E+00  0.00000000000E+00  0.16714543200E+04  0.16714543200E+04  0.25500000920E-02 0.  1.
        2   -1    0    0  501    0  0.00000000000E+00  0.00000000000E+00 -0.59123273269E+03  0.59123273269E+03  0.25500000920E-02 0. -1.
    10030    2    1    2    0    0  0.00000000000E+00  0.00000000000E+00  0.10802215873E+04  0.22626870527E+04  0.19881835983E+04 0.  0.
        3    1    3    3  502    0 -0.95364611338E+03  0.26942199786E+03  0.45057610767E+03  0.10885990821E+04  0.10100000352E+00 0.  1.
       -3    1    3    3    0  502  0.95364611338E+03 -0.26942199786E+03  0.62964547961E+03  0.11740879706E+04  0.10100000352E+00 0. -1.
</event>
<event>
 5   0  0.8022574E-05  0.2010963E+04  0.7818609E-02  0.8601512E-01
        2   -1    0    0  501    0  0.00000000000E+00  0.00000000000E+00  0.82375915164E+03  0.82375915164E+03  0.25500000920E-02 0.  1.
       -2   -1    0    0    0  501  0.00000000000E+00  0.00000000000E+00 -0.12272925230E+04  0.12272925230E+04  0.25500000920E-02 0. -1.
    10030    2    1    2    0    0  0.00000000000E+00  0.00000000000E+00 -0.40353337137E+03  0.20510516747E+04  0.20109633985E+04 0.  0.
        1    1    3    3  502    0 -0.13606041046E+03  0.69001262440E+03 -0.93467600175E+03  0.11697217983E+04  0.50400001928E-02 0. -1.
       -1    1    3    3    0  502  0.13606041046E+03 -0.69001262440E+03  0.53114263038E+03  0.88132987636E+03  0.50400001928E-02 0.  1.
</event>
<event>
 5   0  0.3772949E-05  0.2002126E+04  0.7818609E-02  0.8605628E-01
       -1   -1    0    0    0  501  0.00000000000E+00  0.00000000000E+00  0.54571043601E+03  0.54571043604E+03  0.50400001928E-02 0.  1.
        1   -1    0    0  501    0  0.00000000000E+00  0.00000000000E+00 -0.18363707981E+04  0.18363707981E+04  0.50400001928E-02 0. -1.
    10030    2    1    2    0    0  0.00000000000E+00  0.00000000000E+00 -0.12906603621E+04  0.23820812341E+04  0.20021255794E+04 0.  0.
        2    1    3    3  502    0  0.48036826097E+02  0.17351160124E+03 -0.18169503499E+04  0.18258484018E+04  0.25500000920E-02 0. -1.
       -2    1    3    3    0  502 -0.48036826097E+02 -0.17351160124E+03  0.52628998784E+03  0.55623283230E+03  0.25500000920E-02 0.  1.
</event>
<event>
 5   0  0.3549426E-05  0.2024707E+04  0.7818609E-02  0.8595156E-01
        1   -1    0    0  501    0  0.00000000000E+00  0.00000000000E+00  0.96989968007E+03  0.96989968009E+03  0.50400001928E-02 0.  1.
       -1   -1    0    0    0  501  0.00000000000E+00  0.00000000000E+00 -0.10566657233E+04  0.10566657233E+04  0.50400001928E-02 0. -1.
    10030    2    1    2    0    0  0.00000000000E+00  0.00000000000E+00 -0.86766043196E+02  0.20265654034E+04  0.20247071363E+04 0.  0.
        5    1    3    3  502    0 -0.80283482832E+03  0.28491816069E+03 -0.59079953839E+03  0.10367199740E+04  0.46999998093E+01 0. -1.
       -5    1    3    3    0  502  0.80283482832E+03 -0.28491816069E+03  0.50403349519E+03  0.98984542941E+03  0.46999998093E+01 0.  1.
</event>
<event>
 5   0  0.3818907E-05  0.1997738E+04  0.7818609E-02  0.8607679E-01
        1   -1    0    0  501    0  0.00000000000E+00  0.00000000000E+00  0.20510725435E+04  0.20510725435E+04  0.50400001928E-02 0. -1.
       -1   -1    0    0    0  501  0.00000000000E+00  0.00000000000E+00 -0.48644745857E+03  0.48644745860E+03  0.50400001928E-02 0.  1.
    10030    2    1    2    0    0  0.00000000000E+00  0.00000000000E+00  0.15646250849E+04  0.25375200021E+04  0.19977377467E+04 0.  0.
        1    1    3    3  502    0  0.68062094236E+03  0.27928999976E+02 -0.14563910920E+03  0.69658857755E+03  0.50400001928E-02 0.  1.
       -1    1    3    3    0  502 -0.68062094236E+03 -0.27928999976E+02  0.17102641941E+04  0.18409314246E+04  0.50400001928E-02 0. -1.
</event>
<event>
 5   0  0.8011197E-05  0.1955204E+04  0.7818609E-02  0.8627855E-01
       -2   -1    0    0    0  501  0.00000000000E+00  0.00000000000E+00  0.73802238721E+03  0.73802238722E+03  0.25500000920E-02 0. -1.
        2   -1    0    0  501    0  0.00000000000E+00  0.00000000000E+00 -0.12949547778E+04  0.12949547778E+04  0.25500000920E-02 0.  1.
    10030    2    1    2    0    0  0.00000000000E+00  0.00000000000E+00 -0.55693239056E+03  0.20329771650E+04  0.19552039448E+04 0.  0.
        5    1    3    3  502    0 -0.14698817106E+03  0.12142815268E+03 -0.12754243031E+04  0.12896044206E+04  0.46999998093E+01 0.  1.
       -5    1    3    3    0  502  0.14698817106E+03 -0.12142815268E+03  0.71849191255E+03  0.74337274438E+03  0.46999998093E+01 0. -1.
</event>
<event>
 5   0  0.7935008E-05  0.1994774E+04  0.7818609E-02  0.8609068E-01
       -2   -1    0    0    0  501  0.00000000000E+00  0.00000000000E+00  0.40119863844E+03  0.40119863845E+03  0.25500000920E-02 0.  1.
        2   -1    0    0  501    0  0.00000000000E+00  0.00000000000E+00 -0.24795210745E+04  0.24795210745E+04  0.25500000920E-02 0. -1.
    10030    2    1    2    0    0  0.00000000000E+00  0.00000000000E+00 -0.20783224361E+04  0.28807197130E+04  0.19947736504E+04 0.  0.
        3    1    3    3  502    0 -0.19512632746E+03  0.63721347361E+03 -0.21108068234E+04  0.22135086967E+04  0.10100000352E+00 0. -1.
       -3    1    3    3    0  502  0.19512632746E+03 -0.63721347361E+03  0.32484387286E+02  0.66721101627E+03  0.10100000352E+00 0.  1.
</event>
<event>
 5   0  0.7857136E-05  0.1997076E+04  0.7818609E-02  0.8607989E-01
        2   -1    0    0  501    0  0.00000000000E+00  0.00000000000E+00  0.17330650380E+04  0.17330650380E+04  0.25500000920E-02 0. -1.
       -2   -1    0    0    0  501  0.00000000000E+00  0.00000000000E+00 -0.57532640720E+03  0.57532640720E+03  0.25500000920E-02 0.  1.
    10030    2    1    2    0    0  0.00000000000E+00  0.00000000000E+00  0.11577386308E+04  0.23083914452E+04  0.19970759442E+04 0.  0.
        4    1    3    3  502    0  0.26999868775E+03 -0.90846152882E+03  0.94233025628E+03  0.13364840312E+04  0.12699999809E+01 0. -1.
       -4    1    3    3    0  502 -0.26999868775E+03  0.90846152882E+03  0.21540837449E+03  0.97190741402E+03  0.12699999809E+01 0.  1.
</event>
<event>
 5   0  0.7935008E-05  0.1993980E+04  0.7818609E-02  0.8609441E-01
       -2   -1    0    0    0  501  0.00000000000E+00  0.00000000000E+00  0.93614042321E+03  0.93614042321E+03  0.25500000920E-02 0. -1.
        2   -1    0    0  501    0  0.00000000000E+00  0.00000000000E+00 -0.10617945468E+04  0.10617945468E+04  0.25500000920E-02 0.  1.
    10030    2    1    2    0    0  0.00000000000E+00  0.00000000000E+00 -0.12565412358E+03  0.19979349700E+04  0.19939797355E+04 0.  0.
        3    1    3    3  502    0 -0.54279860373E+03  0.36620501799E+00  0.77510823245E+03  0.94626805955E+03  0.10100000352E+00 0. -1.
       -3    1    3    3    0  502  0.54279860373E+03 -0.36620501799E+00 -0.90076235603E+03  0.10516669105E+04  0.10100000352E+00 0.  1.
</event>
<event>
 5   0  0.3549426E-05  0.1999915E+04  0.7818609E-02  0.8606660E-01
        1   -1    0    0  501    0  0.00000000000E+00  0.00000000000E+00  0.18614635940E+04  0.18614635941E+04  0.50400001928E-02 0. -1.
       -1   -1    0    0    0  501  0.00000000000E+00  0.00000000000E+00 -0.53716609207E+03  0.53716609210E+03  0.50400001928E-02 0.  1.
    10030    2    1    2    0    0  0.00000000000E+00  0.00000000000E+00  0.13242975020E+04  0.23986296861E+04  0.19999151226E+04 0.  0.
        5    1    3    3  502    0 -0.28286597098E+03  0.30168787087E+03  0.17540751319E+04  0.18021737950E+04  0.46999998093E+01 0. -1.
       -5    1    3    3    0  502  0.28286597098E+03 -0.30168787087E+03 -0.42977762991E+03  0.59645589119E+03  0.46999998093E+01 0.  1.
</event>
<event>
 5   0  0.3787698E-05  0.2008841E+04  0.7818609E-02  0.8602498E-01
        1   -1    0    0  501    0  0.00000000000E+00  0.00000000000E+00  0.14769300944E+04  0.14769300944E+04  0.50400001928E-02 0.  1.
       -1   -1    0    0    0  501  0.00000000000E+00  0.00000000000E+00 -0.68307965250E+03  0.68307965252E+03  0.50400001928E-02 0. -1.
    10030    2    1    2    0    0  0.00000000000E+00  0.00000000000E+00  0.79385044194E+03  0.21600097470E+04  0.20088413533E+04 0.  0.
        4    1    3    3  502    0 -0.75456481868E+03  0.64058795061E+03  0.58047004292E+03  0.11474615774E+04  0.12699999809E+01 0. -1.
       -4    1    3    3    0  502  0.75456481868E+03 -0.64058795061E+03  0.21338039902E+03  0.10125481695E+04  0.12699999809E+01 0.  1.
</event>
<event>
 5   0  0.3549426E-05  0.2008957E+04  0.7818609E-02  0.8602445E-01
        1   -1    0    0  501    0  0.00000000000E+00  0.00000000000E+00  0.88878529380E+03  0.88878529382E+03  0.50400001928E-02 0. -1.
       -1   -1    0    0    0  501  0.00000000000E+00  0.00000000000E+00 -0.11352311409E+04  0.11352311409E+04  0.50400001928E-02 0.  1.
    10030    2    1    2    0    0  0.00000000000E+00  0.00000000000E+00 -0.24644584710E+03  0.20240164347E+04  0.20089566876E+04 0.  0.
        5    1    3    3  502    0  0.57290530332E+03 -0.57969687954E+03  0.46827754170E+03  0.93998665138E+03  0.46999998093E+01 0. -1.
       -5    1    3    3    0  502 -0.57290530332E+03  0.57969687954E+03 -0.71472338880E+03  0.10840297834E+04  0.46999998093E+01 0.  1.
</event>
<event>
 5   0  0.3787698E-05  0.1984728E+04  0.7818609E-02  0.8613794E-01
       -1   -1    0    0    0  501  0.00000000000E+00  0.00000000000E+00  0.86704397679E+03  0.86704397680E+03  0.50400001928E-02 0.  1.
        1   -1    0    0  501    0  0.00000000000E+00  0.00000000000E+00 -0.11357974463E+04  0.11357974463E+04  0.50400001928E-02 0. -1.
    10030    2    1    2    0    0  0.00000000000E+00  0.00000000000E+00 -0.26875346953E+03  0.20028414231E+04  0.19847280264E+04 0.  0.
        4    1    3    3  502    0 -0.65681201350E+02 -0.31295237940E+03  0.81362836305E+03  0.87421160942E+03  0.12699999809E+01 0.  1.
       -4    1    3    3    0  502  0.65681201350E+02  0.31295237940E+03 -0.10823818326E+04  0.11286298137E+04  0.12699999809E+01 0. -1.
</event>
<event>
 5   0  0.7935008E-05  0.1994645E+04  0.7818609E-02  0.8609128E-01
        2   -1    0    0  501    0  0.00000000000E+00  0.00000000000E+00  0.72037079196E+03  0.72037079196E+03  0.25500000920E-02 0. -1.
       -2   -1    0    0    0  501  0.00000000000E+00  0.00000000000E+00 -0.13807508467E+04  0.13807508467E+04  0.25500000920E-02 0.  1.
    10030    2    1    2    0    0  0.00000000000E+00  0.00000000000E+00 -0.66038005471E+03  0.21011216386E+04  0.19946454130E+04 0.  0.
        3    1    3    3  502    0 -0.71791081911E+03 -0.13587985092E+03  0.38486352282E+03  0.82582033123E+03  0.10100000352E+00 0. -1.
       -3    1    3    3    0  502  0.71791081911E+03  0.13587985092E+03 -0.10452435775E+04  0.12753013074E+04  0.10100000352E+00 0.  1.
</event>
<event>
 5   0  0.3970042E-05  0.2001323E+04  0.7818609E-02  0.8606002E-01
       -1   -1    0    0    0  501  0.00000000000E+00  0.00000000000E+00  0.39831985984E+03  0.39831985987E+03  0.50400001928E-02 0.  1.
        1   -1    0    0  501    0  0.00000000000E+00  0.00000000000E+00 -0.25138672915E+04  0.25138672915E+04  0.50400001928E-02 0. -1.
    10030    2    1    2    0    0  0.00000000000E+00  0.00000000000E+00 -0.21155474317E+04  0.29121871514E+04  0.20013228298E+04 0.  0.
        3    1    3    3  502    0  0.26797640855E+03  0.65501893088E+03 -0.28365264148E+02  0.70828366758E+03  0.10100000352E+00 0.  1.
       -3    1    3    3    0  502 -0.26797640855E+03 -0.65501893088E+03 -0.20871821675E+04  0.22039034838E+04  0.10100000352E+00 0. -1.
</event>
<event>
 5   0  0.8011197E-05  0.2001499E+04  0.7818609E-02  0.8605920E-01
       -2   -1    0    0    0  501  0.00000000000E+00  0.00000000000E+00  0.14348053935E+04  0.14348053935E+04  0.25500000920E-02 0. -1.
        2   -1    0    0  501    0  0.00000000000E+00  0.00000000000E+00 -0.69800345073E+03  0.69800345073E+03  0.25500000920E-02 0.  1.
    10030    2    1    2    0    0  0.00000000000E+00  0.00000000000E+00  0.73680194281E+03  0.21328088443E+04  0.20014985544E+04 0.  0.
        5    1    3    3  502    0 -0.49545259037E+03  0.31387204691E+03  0.12324544021E+04  0.13649010493E+04  0.46999998093E+01 0. -1.
       -5    1    3    3    0  502  0.49545259037E+03 -0.31387204691E+03 -0.49565245931E+03  0.76790779495E+03  0.46999998093E+01 0.  1.
</event>
<event>
 5   0  0.7935008E-05  0.2037373E+04  0.7818609E-02  0.8589344E-01
       -2   -1    0    0    0  501  0.00000000000E+00  0.00000000000E+00  0.84971845664E+03  0.84971845664E+03  0.25500000920E-02 0.  1.
        2   -1    0    0  501    0  0.00000000000E+00  0.00000000000E+00 -0.12212537005E+04  0.12212537005E+04  0.25500000920E-02 0. -1.
    10030    2    1    2    0    0  0.00000000000E+00  0.00000000000E+00 -0.37153524384E+03  0.20709721571E+04  0.20373726311E+04 0.  0.
        3    1    3    3  502    0 -0.25055198326E+02 -0.16575064162E+03 -0.12071372247E+04  0.12187211854E+04  0.10100000352E+00 0. -1.
       -3    1    3    3    0  502  0.25055198326E+02  0.16575064162E+03  0.83560198089E+03  0.85225097174E+03  0.10100000352E+00 0.  1.
</event>
<event>
 5   0  0.3970042E-05  0.2027511E+04  0.7818609E-02  0.8593865E-01
        1   -1    0    0  501    0  0.00000000000E+00  0.00000000000E+00  0.22279699081E+04  0.22279699081E+04  0.50400001928E-02 0.  1.
       -1   -1    0    0    0  501  0.00000000000E+00  0.00000000000E+00 -0.46127195276E+03  0.46127195279E+03  0.50400001928E-02 0. -1.
    10030    2    1    2    0    0  0.00000000000E+00  0.00000000000E+00  0.17666979553E+04  0.26892418609E+04  0.20275108190E+04 0.  0.
        3    1    3    3  502    0 -0.86082806863E+03 -0.22414923695E+03  0.15282899560E+04  0.17683150297E+04  0.10100000352E+00 0.  1.
       -3    1    3    3    0  502  0.86082806863E+03  0.22414923695E+03  0.23840799929E+03  0.92092683124E+03  0.10100000352E+00 0. -1.
</event>
<event>
 5   0  0.7857136E-05  0.1993718E+04  0.7818609E-02  0.8609563E-01
        2   -1    0    0  501    0  0.00000000000E+00  0.00000000000E+00  0.80331976365E+03  0.80331976365E+03  0.25500000920E-02 0. -1.
       -2   -1    0    0    0  501  0.00000000000E+00  0.00000000000E+00 -0.12370263428E+04  0.12370263428E+04  0.25500000920E-02 0.  1.
    10030    2    1    2    0    0  0.00000000000E+00  0.00000000000E+00 -0.43370657915E+03  0.20403461064E+04  0.19937178429E+04 0.  0.
        4    1    3    3  502    0  0.11704610160E+03  0.98882249051E+03 -0.16824088389E+03  0.10098397475E+04  0.12699999809E+01 0. -1.
       -4    1    3    3    0  502 -0.11704610160E+03 -0.98882249051E+03 -0.26546569526E+03  0.10305063590E+04  0.12699999809E+01 0.  1.
</event>
<event>
 5   0  0.8011197E-05  0.1986894E+04  0.7818609E-02  0.8612773E-01
       -2   -1    0    0    0  501  0.00000000000E+00  0.00000000000E+00  0.45637505221E+03  0.45637505222E+03  0.25500000920E-02 0. -1.
        2   -1    0    0  501    0  0.00000000000E+00  0.00000000000E+00 -0.21625575097E+04  0.21625575098E+04  0.25500000920E-02 0.  1.
    10030    2    1    2    0    0  0.00000000000E+00  0.00000000000E+00 -0.17061824575E+04  0.26189325620E+04  0.19868943570E+04 0.  0.
        5    1    3    3  502    0  0.50900520991E+03  0.62051376925E+03 -0.81362616218E+02  0.80670044431E+03  0.46999998093E+01 0. -1.
       -5    1    3    3    0  502 -0.50900520991E+03 -0.62051376925E+03 -0.16248198413E+04  0.18122321177E+04  0.46999998093E+01 0.  1.
</event>
<event>
 5   0  0.3772949E-05  0.1973828E+04  0.7818609E-02  0.8618956E-01
       -1   -1    0    0    0  501  0.00000000000E+00  0.00000000000E+00  0.93673624172E+03  0.93673624173E+03  0.50400001928E-02 0. -1.
        1   -1    0    0  501    0  0.00000000000E+00  0.00000000000E+00 -0.10397797020E+04  0.10397797020E+04  0.50400001928E-02 0.  1.
    10030    2    1    2    0    0  0.00000000000E+00  0.00000000000E+00 -0.10304346027E+03  0.19765159437E+04  0.19738280880E+04 0.  0.
        2    1    3    3  502    0 -0.41232706967E+03  0.16074694143E+03  0.83180542272E+03  0.94220669327E+03  0.25500000920E-02 0. -1.
       -2    1    3    3    0  502  0.41232706967E+03 -0.16074694143E+03 -0.93484888299E+03  0.10343092505E+04  0.25500000920E-02 0.  1.
</event>
<event>
 5   0  0.3787698E-05  0.1994954E+04  0.7818609E-02  0.8608983E-01
       -1   -1    0    0    0  501  0.00000000000E+00  0.00000000000E+00  0.75546690007E+03  0.75546690008E+03  0.50400001928E-02 0.  1.
        1   -1    0    0  501    0  0.00000000000E+00  0.00000000000E+00 -0.13170143822E+04  0.13170143822E+04  0.50400001928E-02 0. -1.
    10030    2    1    2    0    0  0.00000000000E+00  0.00000000000E+00 -0.56154748215E+03  0.20724812823E+04  0.19949544082E+04 0.  0.
        4    1    3    3  502    0  0.91147551204E+03  0.13984316263E+03 -0.67583548316E+03  0.11432842745E+04  0.12699999809E+01 0.  1.
       -4    1    3    3    0  502 -0.91147551204E+03 -0.13984316263E+03  0.11428800102E+03  0.92919700778E+03  0.12699999809E+01 0. -1.
</event>
<event>
 5   0  0.3970042E-05  0.1976773E+04  0.7818609E-02  0.8617558E-01
        1   -1    0    0  501    0  0.00000000000E+00  0.00000000000E+00  0.76901265434E+03  0.76901265435E+03  0.50400001928E-02 0.  1.
       -1   -1    0    0    0  501  0.00000000000E+00  0.00000000000E+00 -0.12703400163E+04  0.12703400163E+04  0.50400001928E-02 0. -1.
    10030    2    1    2    0    0  0.00000000000E+00  0.00000000000E+00 -0.50132736200E+03  0.20393526707E+04  0.19767726707E+04 0.  0.
        3    1    3    3  502    0  0.40323833601E+03  0.75262175874E+03 -0.76428713775E+03  0.11459387010E+04  0.10100000352E+00 0. -1.
       -3    1    3    3    0  502 -0.40323833601E+03 -0.75262175874E+03  0.26295977575E+03  0.89341396968E+03  0.10100000352E+00 0.  1.
</event>
<event>
 5   0  0.3549426E-05  0.1967233E+04  0.7818609E-02  0.8622095E-01
        1   -1    0    0  501    0  0.00000000000E+00  0.00000000000E+00  0.12913692187E+04  0.12913692188E+04  0.50400001928E-02 0.  1.
       -1   -1    0    0    0  501  0.00000000000E+00  0.00000000000E+00 -0.74920567872E+03  0.74920567874E+03  0.50400001928E-02 0. -1.
    10030    2    1    2    0    0  0.00000000000E+00  0.00000000000E+00  0.54216354002E+03  0.20405748975E+04  0.19672327285E+04 0.  0.
        5    1    3    3  502    0 -0.54376647889E+03  0.41828012008E+03 -0.46006498928E+03  0.82602792131E+03  0.46999998093E+01 0. -1.
       -5    1    3    3    0  502  0.54376647889E+03 -0.41828012008E+03  0.10022285293E+04  0.12145469762E+04  0.46999998093E+01 0.  1.
</event>
<event>
 5   0  0.8022574E-05  0.1996544E+04  0.7818609E-02  0.8608238E-01
       -2   -1    0    0    0  501  0.00000000000E+00  0.00000000000E+00  0.40359771739E+03  0.40359771740E+03  0.25500000920E-02 0. -1.
        2   -1    0    0  501    0  0.00000000000E+00  0.00000000000E+00 -0.24691585687E+04  0.24691585687E+04  0.25500000920E-02 0.  1.
    10030    2    1    2    0    0  0.00000000000E+00  0.00000000000E+00 -0.20655608513E+04  0.28727562861E+04  0.19965437758E+04 0.  0.
        1    1    3    3  502    0 -0.41089653104E+03  0.89246833422E+03 -0.77858114750E+03  0.12536045190E+04  0.50400001928E-02 0. -1.
       -1    1    3    3    0  502  0.41089653104E+03 -0.89246833422E+03 -0.12869797038E+04  0.16191517671E+04  0.50400001928E-02 0.  1.
</event>
<event>
 5   0  0.3818907E-05  0.1999697E+04  0.7818609E-02  0.8606762E-01
       -1   -1    0    0    0  501  0.00000000000E+00  0.00000000000E+00  0.85129884746E+03  0.85129884747E+03  0.50400001928E-02 0.  1.
        1   -1    0    0  501    0  0.00000000000E+00  0.00000000000E+00 -0.11743197364E+04  0.11743197365E+04  0.50400001928E-02 0. -1.
    10030    2    1    2    0    0  0.00000000000E+00  0.00000000000E+00 -0.32302088899E+03  0.20256185839E+04  0.19996970153E+04 0.  0.
        1    1    3    3  502    0  0.94230786960E+03 -0.28662373376E+03  0.12765527252E+02  0.98501789048E+03  0.50400001928E-02 0.  1.
       -1    1    3    3    0  502 -0.94230786960E+03  0.28662373376E+03 -0.33578641624E+03  0.10406006935E+04  0.50400001928E-02 0. -1.
</event>
<event>
 5   0  0.8022574E-05  0.2004796E+04  0.7818609E-02  0.8604382E-01
       -2   -1    0    0    0  501  0.00000000000E+00  0.00000000000E+00  0.89315279517E+03  0.89315279517E+03  0.25500000920E-02 0. -1.
        2   -1    0    0  501    0  0.00000000000E+00  0.00000000000E+00 -0.11250054709E+04  0.11250054709E+04  0.25500000920E-02 0.  1.
    10030    2    1    2    0    0  0.00000000000E+00  0.00000000000E+00 -0.23185267571E+03  0.20181582661E+04  0.20047960304E+04 0.  0.
        1    1    3    3  502    0  0.83784485721E+03 -0.11269876605E+03  0.42628855225E+03  0.94678769871E+03  0.50400001928E-02 0. -1.
       -1    1    3    3    0  502 -0.83784485721E+03  0.11269876605E+03 -0.65814122796E+03  0.10713705673E+04  0.50400001928E-02 0.  1.
</event>
<event>
 5   0  0.3970042E-05  0.1994670E+04  0.7818609E-02  0.8609117E-01
       -1   -1    0    0    0  501  0.00000000000E+00  0.00000000000E+00  0.14465609383E+04  0.14465609383E+04  0.50400001928E-02 0. -1.
        1   -1    0    0  501    0  0.00000000000E+00  0.00000000000E+00 -0.68761503966E+03  0.68761503968E+03  0.50400001928E-02 0.  1.
    10030    2    1    2    0    0  0.00000000000E+00  0.00000000000E+00  0.75894589864E+03  0.21341759780E+04  0.19946699546E+04 0.  0.
        3    1    3    3  502    0 -0.93842359350E+03 -0.23600269336E+03  0.63790470175E+03  0.11589903066E+04  0.10100000352E+00 0. -1.
       -3    1    3    3    0  502  0.93842359350E+03  0.23600269336E+03  0.12104119688E+03  0.97518567137E+03  0.10100000352E+00 0.  1.
</event>
<event>
 5   0  0.3772949E-05  0.1998670E+04  0.7818609E-02  0.8607243E-01
        1   -1    0    0  501    0  0.00000000000E+00  0.00000000000E+00  0.11593065595E+04  0.11593065595E+04  0.50400001928E-02 0. -1.
       -1   -1    0    0    0  501  0.00000000000E+00  0.00000000000E+00 -0.86143782980E+03  0.86143782981E+03  0.50400001928E-02 0.  1.
    10030    2    1    2    0    0  0.00000000000E+00  0.00000000000E+00  0.29786872965E+03  0.20207443893E+04  0.19986700845E+04 0.  0.
        2    1    3    3  502    0 -0.22810191737E+03  0.10407928099E+03 -0.82912122777E+03  0.86620147297E+03  0.25500000920E-02 0.  1.
       -2    1    3    3    0  502  0.22810191737E+03 -0.10407928099E+03  0.11269899574E+04  0.11545429163E+04  0.25500000920E-02 0. -1.
</event>
<event>
 5   0  0.3549426E-05  0.1983893E+04  0.7818609E-02  0.8614188E-01
       -1   -1    0    0    0  501  0.00000000000E+00  0.00000000000E+00  0.59548660024E+03  0.59548660026E+03  0.50400001928E-02 0.  1.
        1   -1    0    0  501    0  0.00000000000E+00  0.00000000000E+00 -0.16523597137E+04  0.16523597137E+04  0.50400001928E-02 0. -1.
    10030    2    1    2    0    0  0.00000000000E+00  0.00000000000E+00 -0.10568731134E+04  0.22478463139E+04  0.19838932111E+04 0.  0.
        5    1    3    3  502    0  0.42273661156E+03  0.31211016151E+03  0.42481783108E+03  0.67573017934E+03  0.46999998093E+01 0.  1.
       -5    1    3    3    0  502 -0.42273661156E+03 -0.31211016151E+03 -0.14816909445E+04  0.15721161346E+04  0.46999998093E+01 0. -1.
</event>
<event>
 5   0  0.8011197E-05  0.1992016E+04  0.7818609E-02  0.8610362E-01
        2   -1    0    0  501    0  0.00000000000E+00  0.00000000000E+00  0.11103000167E+04  0.11103000167E+04  0.25500000920E-02 0. -1.
       -2   -1    0    0    0  501  0.00000000000E+00  0.00000000000E+00 -0.89348110505E+03  0.89348110505E+03  0.25500000920E-02 0.  1.
    10030    2    1    2    0    0  0.00000000000E+00  0.00000000000E+00  0.21681891164E+03  0.20037811217E+04  0.19920161504E+04 0.  0.
        5    1    3    3  502    0 -0.12185038251E+03  0.92861125158E+02 -0.88154689797E+03  0.89477244459E+03  0.46999998093E+01 0.  1.
       -5    1    3    3    0  502  0.12185038251E+03 -0.92861125158E+02  0.10983658096E+04  0.11090086772E+04  0.46999998093E+01 0. -1.
</event>
<event>
 5   0  0.8011197E-05  0.1995614E+04  0.7818609E-02  0.8608674E-01
        2   -1    0    0  501    0  0.00000000000E+00  0.00000000000E+00  0.12031422129E+04  0.12031422129E+04  0.25500000920E-02 0. -1.
       -2   -1    0    0    0  501  0.00000000000E+00  0.00000000000E+00 -0.82751549208E+03  0.82751549208E+03  0.25500000920E-02 0.  1.
    10030    2    1    2    0    0  0.00000000000E+00  0.00000000000E+00  0.37562672083E+03  0.20306577050E+04  0.19956140111E+04 0.  0.
        5    1    3    3  502    0  0.95712423651E+03  0.97116108513E+02 -0.81558502432E+02  0.96550102121E+03  0.46999998093E+01 0. -1.
       -5    1    3    3    0  502 -0.95712423651E+03 -0.97116108513E+02  0.45718522326E+03  0.10651566838E+04  0.46999998093E+01 0.  1.
</event>
<event>
 5   0  0.8011197E-05  0.2005869E+04  0.7818609E-02  0.8603882E-01
       -2   -1    0    0    0  501  0.00000000000E+00  0.00000000000E+00  0.94893426244E+03  0.94893426245E+03  0.25500000920E-02 0.  1.
        2   -1    0    0  501    0  0.00000000000E+00  0.00000000000E+00 -0.10600073203E+04  0.10600073203E+04  0.25500000920E-02 0. -1.
    10030    2    1    2    0    0  0.00000000000E+00  0.00000000000E+00 -0.11107305782E+03  0.20089415827E+04  0.20058686544E+04 0.  0.
        5    1    3    3  502    0  0.72823445893E+03 -0.68811343092E+03 -0.10065722423E+03  0.10069654849E+04  0.46999998093E+01 0.  1.
       -5    1    3    3    0  502 -0.72823445893E+03  0.68811343092E+03 -0.10415833583E+02  0.10019760978E+04  0.46999998093E+01 0. -1.
</event>
<event>
 5   0  0.3787698E-05  0.1992421E+04  0.7818609E-02  0.8610173E-01
       -1   -1    0    0    0  501  0.00000000000E+00  0.00000000000E+00  0.10243198941E+04  0.10243198941E+04  0.50400001928E-02 0.  1.
        1   -1    0    0  501    0  0.00000000000E+00  0.00000000000E+00 -0.96887201016E+03  0.96887201017E+03  0.50400001928E-02 0. -1.
    10030    2    1    2    0    0  0.00000000000E+00  0.00000000000E+00  0.55447883967E+02  0.19931919043E+04  0.19924205127E+04 0.  0.
        4    1    3    3  502    0  0.78288443635E+03  0.61183556989E+03 -0.44293211667E+02  0.99459253303E+03  0.12699999809E+01 0.  1.
       -4    1    3    3    0  502 -0.78288443635E+03 -0.61183556989E+03  0.99741095634E+02  0.99859937128E+03  0.12699999809E+01 0. -1.
</event>
<event>
 5   0  0.7843846E-05  0.2002208E+04  0.7818609E-02  0.8605589E-01
       -2   -1    0    0    0  501  0.00000000000E+00  0.00000000000E+00  0.70495792200E+03  0.70495792201E+03  0.25500000920E-02 0.  1.
        2   -1    0    0  501    0  0.00000000000E+00  0.00000000000E+00 -0.14216584907E+04  0.14216584907E+04  0.25500000920E-02 0. -1.
    10030    2    1    2    0    0  0.00000000000E+00  0.00000000000E+00 -0.71670056874E+03  0.21266164128E+04  0.20022081964E+04 0.  0.
        2    1    3    3  502    0 -0.22049866677E+03 -0.97599387996E+03 -0.32433375258E+03  0.10518441419E+04  0.25500000920E-02 0.  1.
       -2    1    3    3    0  502  0.22049866677E+03  0.97599387996E+03 -0.39236681616E+03  0.10747722709E+04  0.25500000920E-02 0. -1.
</event>
<event>
 5   0  0.7935008E-05  0.1934183E+04  0.7818609E-02  0.8638026E-01
       -2   -1    0    0    0  501  0.00000000000E+00  0.00000000000E+00  0.65376146006E+03  0.65376146007E+03  0.25500000920E-02 0. -1.
        2   -1    0    0  501    0  0.00000000000E+00  0.00000000000E+00 -0.14305927664E+04  0.14305927664E+04  0.25500000920E-02 0.  1.
    10030    2    1    2    0    0  0.00000000000E+00  0.00000000000E+00 -0.77683130638E+03  0.20843542265E+04  0.19341834616E+04 0.  0.
        3    1    3    3  502    0  0.54039148843E+03  0.91179011769E+02  0.47027498559E+03  0.72214620766E+03  0.10100000352E+00 0. -1.
       -3    1    3    3    0  502 -0.54039148843E+03 -0.91179011769E+02 -0.12471062920E+04  0.13622080189E+04  0.10100000352E+00 0.  1.
</event>
<event>
 5   0  0.3818907E-05  0.2034666E+04  0.7818609E-02  0.8590582E-01
        1   -1    0    0  501    0  0.00000000000E+00  0.00000000000E+00  0.74622744682E+03  0.74622744684E+03  0.50400001928E-02 0. -1.
       -1   -1    0    0    0  501  0.00000000000E+00  0.00000000000E+00 -0.13869322736E+04  0.13869322736E+04  0.50400001928E-02 0.  1.
    10030    2    1    2    0    0  0.00000000000E+00  0.00000000000E+00 -0.64070482673E+03  0.21331597204E+04  0.20346664881E+04 0.  0.
        1    1    3    3  502    0  0.78669374824E+03  0.47271917810E+03  0.13977365059E+03  0.92837877415E+03  0.50400001928E-02 0. -1.
       -1    1    3    3    0  502 -0.78669374824E+03 -0.47271917810E+03 -0.78047847732E+03  0.12047809463E+04  0.50400001928E-02 0.  1.
</event>
<event>
 5   0  0.7935008E-05  0.2012615E+04  0.7818609E-02  0.8600745E-01
       -2   -1    0    0    0  501  0.00000000000E+00  0.00000000000E+00  0.61489650096E+03  0.61489650097E+03  0.25500000920E-02 0. -1.
        2   -1    0    0  501    0  0.00000000000E+00  0.00000000000E+00 -0.16468701722E+04  0.16468701722E+04  0.25500000920E-02 0.  1.
    10030    2    1    2    0    0  0.00000000000E+00  0.00000000000E+00 -0.10319736713E+04  0.22617666732E+04  0.20126149224E+04 0.  0.
        3    1    3    3  502    0 -0.81130401637E+03 -0.21377026813E+03  0.10844567244E+03  0.84597423636E+03  0.10100000352E+00 0. -1.
       -3    1    3    3    0  502  0.81130401637E+03  0.21377026813E+03 -0.11404193437E+04  0.14157924369E+04  0.10100000352E+00 0.  1.
</event>
<event>
 5   0  0.3787698E-05  0.2016882E+04  0.7818609E-02  0.8598768E-01
       -1   -1    0    0    0  501  0.00000000000E+00  0.00000000000E+00  0.45521631763E+03  0.45521631766E+03  0.50400001928E-02 0. -1.
        1   -1    0    0  501    0  0.00000000000E+00  0.00000000000E+00 -0.22339996289E+04  0.22339996289E+04  0.50400001928E-02 0.  1.
    10030    2    1    2    0    0  0.00000000000E+00  0.00000000000E+00 -0.17787833112E+04  0.26892159465E+04  0.20168818356E+04 0.  0.
        4    1    3    3  502    0  0.12135075266E+03  0.78183282461E+03 -0.17230977908E+04  0.18960633377E+04  0.12699999809E+01 0.  1.
       -4    1    3    3    0  502 -0.12135075266E+03 -0.78183282461E+03 -0.55685520385E+02  0.79315260883E+03  0.12699999809E+01 0. -1.
</event>
<event>
 5   0  0.8011197E-05  0.2015612E+04  0.7818609E-02  0.8599356E-01
        2   -1    0    0  501    0  0.00000000000E+00  0.00000000000E+00  0.13286679658E+04  0.13286679658E+04  0.25500000920E-02 0.  1.
       -2   -1    0    0    0  501  0.00000000000E+00  0.00000000000E+00 -0.76442945194E+03  0.76442945194E+03  0.25500000920E-02 0. -1.
    10030    2    1    2    0    0  0.00000000000E+00  0.00000000000E+00  0.56423851383E+03  0.20930974177E+04  0.20156119913E+04 0.  0.
        5    1    3    3  502    0 -0.95523485918E+03  0.75371215155E+02  0.60636684244E+03  0.11339564780E+04  0.46999998093E+01 0.  1.
       -5    1    3    3    0  502  0.95523485918E+03 -0.75371215155E+02 -0.42128328613E+02  0.95914093977E+03  0.46999998093E+01 0. -1.
</event>
<event>
 5   0  0.3970042E-05  0.2105759E+04  0.7818609E-02  0.8558711E-01
       -1   -1    0    0    0  501  0.00000000000E+00  0.00000000000E+00  0.55448376674E+03  0.55448376677E+03  0.50400001928E-02 0.  1.
        1   -1    0    0  501    0  0.00000000000E+00  0.00000000000E+00 -0.19992571438E+04  0.19992571438E+04  0.50400001928E-02 0. -1.
    10030    2    1    2    0    0  0.00000000000E+00  0.00000000000E+00 -0.14447733771E+04  0.25537409106E+04  0.21057593707E+04 0.  0.
        3    1    3    3  502    0  0.18333927732E+02  0.79798633341E+03  0.11029700988E+03  0.80578146032E+03  0.10100000352E+00 0.  1.
       -3    1    3    3    0  502 -0.18333927732E+02 -0.79798633341E+03 -0.15550703870E+04  0.17479594503E+04  0.10100000352E+00 0. -1.
</event>
<event>
 5   0  0.7843846E-05  0.2000055E+04  0.7818609E-02  0.8606595E-01
        2   -1    0    0  501    0  0.00000000000E+00  0.00000000000E+00  0.20620101288E+04  0.20620101288E+04  0.25500000920E-02 0.  1.
       -2   -1    0    0    0  501  0.00000000000E+00  0.00000000000E+00 -0.48499045544E+03  0.48499045544E+03  0.25500000920E-02 0. -1.
    10030    2    1    2    0    0  0.00000000000E+00  0.00000000000E+00  0.15770196734E+04  0.25470005843E+04  0.20000552307E+04 0.  0.
        2    1    3    3  502    0 -0.59352883033E+02  0.96496616447E+02 -0.47679223688E+03  0.49006652493E+03  0.25500000920E-02 0. -1.
       -2    1    3    3    0  502  0.59352883033E+02 -0.96496616447E+02  0.20538119102E+04  0.20569340593E+04  0.25500000920E-02 0.  1.
</event>
<event>
 5   0  0.3549426E-05  0.1907002E+04  0.7818609E-02  0.8651379E-01
        1   -1    0    0  501    0  0.00000000000E+00  0.00000000000E+00  0.11284173831E+04  0.11284173831E+04  0.50400001928E-02 0.  1.
       -1   -1    0    0    0  501  0.00000000000E+00  0.00000000000E+00 -0.80569853283E+03  0.80569853285E+03  0.50400001928E-02 0. -1.
    10030    2    1    2    0    0  0.00000000000E+00  0.00000000000E+00  0.32271885028E+03  0.19341159160E+04  0.19070020766E+04 0.  0.
        5    1    3    3  502    0 -0.64336912041E+03  0.66535583478E+03  0.39379007370E+03  0.10058404069E+04  0.46999998093E+01 0.  1.
       -5    1    3    3    0  502  0.64336912041E+03 -0.66535583478E+03 -0.71071223423E+02  0.92827550908E+03  0.46999998093E+01 0. -1.
</event>
<event>
 5   0  0.3772949E-05  0.2006554E+04  0.7818609E-02  0.8603563E-01
        1   -1    0    0  501    0  0.00000000000E+00  0.00000000000E+00  0.51645165296E+03  0.51645165298E+03  0.50400001928E-02 0. -1.
       -1   -1    0    0    0  501  0.00000000000E+00  0.00000000000E+00 -0.19490004350E+04  0.19490004350E+04  0.50400001928E-02 0.  1.
    10030    2    1    2    0    0  0.00000000000E+00  0.00000000000E+00 -0.14325487821E+04  0.24654520880E+04  0.20065537584E+04 0.  0.
        2    1    3    3  502    0  0.14972333931E+02 -0.49567413514E+02 -0.19473575872E+04  0.19480458597E+04  0.25500000920E-02 0.  1.
       -2    1    3    3    0  502 -0.14972333931E+02  0.49567413514E+02  0.51480880510E+03  0.51740622830E+03  0.25500000920E-02 0. -1.
</event>
<event>
 5   0  0.3549426E-05  0.1993466E+04  0.7818609E-02  0.8609682E-01
        1   -1    0    0  501    0  0.00000000000E+00  0.00000000000E+00  0.12584487764E+04  0.12584487764E+04  0.50400001928E-02 0.  1.
       -1   -1    0    0    0  501  0.00000000000E+00  0.00000000000E+00 -0.78944552374E+03  0.78944552376E+03  0.50400001928E-02 0. -1.
    10030    2    1    2    0    0  0.00000000000E+00  0.00000000000E+00  0.46900325269E+03  0.20478943002E+04  0.19934660804E+04 0.  0.
        5    1    3    3  502    0  0.80293828610E+03  0.35259452091E+03  0.72116793443E+03  0.11354021610E+04  0.46999998093E+01 0.  1.
       -5    1    3    3    0  502 -0.80293828610E+03 -0.35259452091E+03 -0.25216468174E+03  0.91249213924E+03  0.46999998093E+01 0. -1.
</event>
<event>
 5   0  0.8011197E-05  0.2044695E+04  0.7818609E-02  0.8586005E-01
       -2   -1    0    0    0  501  0.00000000000E+00  0.00000000000E+00  0.62508971246E+03  0.62508971247E+03  0.25500000920E-02 0.  1.
        2   -1    0    0  501    0  0.00000000000E+00  0.00000000000E+00 -0.16720717025E+04  0.16720717025E+04  0.25500000920E-02 0. -1.
    10030    2    1    2    0    0  0.00000000000E+00  0.00000000000E+00 -0.10469819900E+04  0.22971614149E+04  0.20446954000E+04 0.  0.
        5    1    3    3  502    0 -0.69087349690E+03 -0.35609685156E+03  0.22263557216E+03  0.80851706500E+03  0.46999998093E+01 0.  1.
       -5    1    3    3    0  502  0.69087349690E+03  0.35609685156E+03 -0.12696175622E+04  0.14886443499E+04  0.46999998093E+01 0. -1.
</event>
<event>
 5   0  0.3549426E-05  0.2031400E+04  0.7818609E-02  0.8592079E-01
        1   -1    0    0  501    0  0.00000000000E+00  0.00000000000E+00  0.14740174917E+04  0.14740174917E+04  0.50400001928E-02 0.  1.
       -1   -1    0    0    0  501  0.00000000000E+00  0.00000000000E+00 -0.69988763144E+03  0.69988763146E+03  0.50400001928E-02 0. -1.
    10030    2    1    2    0    0  0.00000000000E+00  0.00000000000E+00  0.77412986028E+03  0.21739051232E+04  0.20314001191E+04 0.  0.
        5    1    3    3  502    0  0.81841323521E+03 -0.45900667954E+03 -0.28970913615E+02  0.93880176782E+03  0.46999998093E+01 0. -1.
       -5    1    3    3    0  502 -0.81841323521E+03  0.45900667954E+03  0.80310077390E+03  0.12351033554E+04  0.46999998093E+01 0.  1.
</event>
<event>
 5   0  0.8022574E-05  0.1995298E+04  0.7818609E-02  0.8608822E-01
        2   -1    0    0  501    0  0.00000000000E+00  0.00000000000E+00  0.23227199091E+04  0.23227199091E+04  0.25500000920E-02 0. -1.
       -2   -1    0    0    0  501  0.00000000000E+00  0.00000000000E+00 -0.42850774935E+03  0.42850774935E+03  0.25500000920E-02 0.  1.
    10030    2    1    2    0    0  0.00000000000E+00  0.00000000000E+00  0.18942121597E+04  0.27512276584E+04  0.19952979533E+04 0.  0.
        1    1    3    3  502    0 -0.69100348360E+03 -0.71121097085E+03  0.79608128852E+03  0.12716337041E+04  0.50400001928E-02 0. -1.
       -1    1    3    3    0  502  0.69100348360E+03  0.71121097085E+03  0.10981308712E+04  0.14795939543E+04  0.50400001928E-02 0.  1.
</event>
<event>
 5   0  0.8011197E-05  0.1996158E+04  0.7818609E-02  0.8608419E-01
       -2   -1    0    0    0  501  0.00000000000E+00  0.00000000000E+00  0.78499182978E+03  0.78499182979E+03  0.25500000920E-02 0.  1.
        2   -1    0    0  501    0  0.00000000000E+00  0.00000000000E+00 -0.12690084560E+04  0.12690084560E+04  0.25500000920E-02 0. -1.
    10030    2    1    2    0    0  0.00000000000E+00  0.00000000000E+00 -0.48401662620E+03  0.20540002858E+04  0.19961575788E+04 0.  0.
        5    1    3    3  502    0  0.68714171569E+03  0.58928705940E+03 -0.67456583126E+03  0.11289305233E+04  0.46999998093E+01 0. -1.
       -5    1    3    3    0  502 -0.68714171569E+03 -0.58928705940E+03  0.19054920506E+03  0.92506976243E+03  0.46999998093E+01 0.  1.
</event>
<event>
 5   0  0.8011197E-05  0.1882504E+04  0.7818609E-02  0.8663615E-01
        2   -1    0    0  501    0  0.00000000000E+00  0.00000000000E+00  0.27540490812E+04  0.27540490812E+04  0.25500000920E-02 0.  1.
       -2   -1    0    0    0  501  0.00000000000E+00  0.00000000000E+00 -0.32169175517E+03  0.32169175518E+03  0.25500000920E-02 0. -1.
    10030    2    1    2    0    0  0.00000000000E+00  0.00000000000E+00  0.24323573261E+04  0.30757408364E+04  0.18825035275E+04 0.  0.
        5    1    3    3  502    0  0.70573917502E+03  0.14138684800E+03  0.22071564989E+04  0.23215554968E+04  0.46999998093E+01 0.  1.
       -5    1    3    3    0  502 -0.70573917502E+03 -0.14138684800E+03  0.22520082713E+03  0.75418533961E+03  0.46999998093E+01 0. -1.
</event>
<event>
 5   0  0.3549426E-05  0.1990863E+04  0.7818609E-02  0.8610904E-01
        1   -1    0    0  501    0  0.00000000000E+00  0.00000000000E+00  0.27161539763E+04  0.27161539763E+04  0.50400001928E-02 0.  1.
       -1   -1    0    0    0  501  0.00000000000E+00  0.00000000000E+00 -0.36481148634E+03  0.36481148638E+03  0.50400001928E-02 0. -1.
    10030    2    1    2    0    0  0.00000000000E+00  0.00000000000E+00  0.23513424900E+04  0.30809654627E+04  0.19908632995E+04 0.  0.
        5    1    3    3  502    0  0.38401268407E+03 -0.32036529623E+03 -0.15626935937E+03  0.52396742955E+03  0.46999998093E+01 0. -1.
       -5    1    3    3    0  502 -0.38401268407E+03  0.32036529623E+03  0.25076118493E+04  0.25569980331E+04  0.46999998093E+01 0.  1.
</event>
<event>
 5   0  0.3549426E-05  0.1997622E+04  0.7818609E-02  0.8607733E-01
       -1   -1    0    0    0  501  0.00000000000E+00  0.00000000000E+00  0.70665581434E+03  0.70665581436E+03  0.50400001928E-02 0. -1.
        1   -1    0    0  501    0  0.00000000000E+00  0.00000000000E+00 -0.14117522837E+04  0.14117522837E+04  0.50400001928E-02 0.  1.
    10030    2    1    2    0    0  0.00000000000E+00  0.00000000000E+00 -0.70509646936E+03  0.21184080981E+04  0.19976215455E+04 0.  0.
        5    1    3    3  502    0  0.19020873821E+02 -0.74293310115E+03 -0.10601968050E+04  0.12947396424E+04  0.46999998093E+01 0.  1.
       -5    1    3    3    0  502 -0.19020873821E+02  0.74293310115E+03  0.35510033563E+03  0.82366845562E+03  0.46999998093E+01 0. -1.
</event>
<event>
 5   0  0.8011197E-05  0.2006617E+04  0.7818609E-02  0.8603533E-01
        2   -1    0    0  501    0  0.00000000000E+00  0.00000000000E+00  0.14402199228E+04  0.14402199228E+04  0.25500000920E-02 0. -1.
       -2   -1    0    0    0  501  0.00000000000E+00  0.00000000000E+00 -0.69894057589E+03  0.69894057590E+03  0.25500000920E-02 0.  1.
    10030    2    1    2    0    0  0.00000000000E+00  0.00000000000E+00  0.74127934691E+03  0.21391604987E+04  0.20066171955E+04 0.  0.
        5    1    3    3  502    0 -0.60455106867E+03 -0.14582356387E+03  0.12099556454E+04  0.13604268670E+04  0.46999998093E+01 0. -1.
       -5    1    3    3    0  502  0.60455106867E+03  0.14582356387E+03 -0.46867629853E+03  0.77873363175E+03  0.46999998093E+01 0.  1.
</event>
<event>
 5   0  0.3787698E-05  0.2003912E+04  0.7818609E-02  0.8604794E-01
       -1   -1    0    0    0  501  0.00000000000E+00  0.00000000000E+00  0.14539584915E+04  0.14539584915E+04  0.50400001928E-02 0.  1.
        1   -1    0    0  501    0  0.00000000000E+00  0.00000000000E+00 -0.69047096682E+03  0.69047096684E+03  0.50400001928E-02 0. -1.
    10030    2    1    2    0    0  0.00000000000E+00  0.00000000000E+00  0.76348752467E+03  0.21444294583E+04  0.20039122989E+04 0.  0.
        4    1    3    3  502    0 -0.69892899034E+03  0.70860860239E+03  0.50509412608E+03  0.11161315218E+04  0.12699999809E+01 0.  1.
       -4    1    3    3    0  502  0.69892899034E+03 -0.70860860239E+03  0.25839339858E+03  0.10282979365E+04  0.12699999809E+01 0. -1.
</event>
<event>
 5   0  0.8022574E-05  0.2008909E+04  0.7818609E-02  0.8602467E-01
        2   -1    0    0  501    0  0.00000000000E+00  0.00000000000E+00  0.79829620561E+03  0.79829620562E+03  0.25500000920E-02 0. -1.
       -2   -1    0    0    0  501  0.00000000000E+00  0.00000000000E+00 -0.12638531372E+04  0.12638531372E+04  0.25500000920E-02 0.  1.
    10030    2    1    2    0    0  0.00000000000E+00  0.00000000000E+00 -0.46555693162E+03  0.20621493429E+04  0.20089093199E+04 0.  0.
        1    1    3    3  502    0 -0.66541339951E+03 -0.30724154908E+03  0.47226982802E+03  0.87190088440E+03  0.50400001928E-02 0. -1.
       -1    1    3    3    0  502  0.66541339951E+03  0.30724154908E+03 -0.93782675964E+03  0.11902484585E+04  0.50400001928E-02 0.  1.
</event>
<event>
 5   0  0.3549426E-05  0.2008664E+04  0.7818609E-02  0.8602580E-01
        1   -1    0    0  501    0  0.00000000000E+00  0.00000000000E+00  0.11231630837E+04  0.11231630838E+04  0.50400001928E-02 0.  1.
       -1   -1    0    0    0  501  0.00000000000E+00  0.00000000000E+00 -0.89807360855E+03  0.89807360857E+03  0.50400001928E-02 0. -1.
    10030    2    1    2    0    0  0.00000000000E+00  0.00000000000E+00  0.22508947519E+03  0.20212366923E+04  0.20086643559E+04 0.  0.
        5    1    3    3  502    0  0.54708722702E+03  0.83035274715E+03 -0.29301797927E+02  0.99482199616E+03  0.46999998093E+01 0.  1.
       -5    1    3    3    0  502 -0.54708722702E+03 -0.83035274715E+03  0.25439127312E+03  0.10264146962E+04  0.46999998093E+01 0. -1.
</event>
<event>
 5   0  0.3818907E-05  0.2061688E+04  0.7818609E-02  0.8578310E-01
       -1   -1    0    0    0  501  0.00000000000E+00  0.00000000000E+00  0.99275265445E+03  0.99275265446E+03  0.50400001928E-02 0.  1.
        1   -1    0    0  501    0  0.00000000000E+00  0.00000000000E+00 -0.10703971780E+04  0.10703971780E+04  0.50400001928E-02 0. -1.
    10030    2    1    2    0    0  0.00000000000E+00  0.00000000000E+00 -0.77644523577E+02  0.20631498325E+04  0.20616882789E+04 0.  0.
        1    1    3    3  502    0  0.94832023762E+03  0.15076457134E+03 -0.41405262430E+03  0.10456963253E+04  0.50400001928E-02 0. -1.
       -1    1    3    3    0  502 -0.94832023762E+03 -0.15076457134E+03  0.33640810072E+03  0.10174535072E+04  0.50400001928E-02 0.  1.
</event>
<event>
 5   0  0.3818907E-05  0.2024025E+04  0.7818609E-02  0.8595470E-01
       -1   -1    0    0    0  501  0.00000000000E+00  0.00000000000E+00  0.10565417958E+04  0.10565417958E+04  0.50400001928E-02 0.  1.
        1   -1    0    0  501    0  0.00000000000E+00  0.00000000000E+00 -0.96935998258E+03  0.96935998259E+03  0.50400001928E-02 0. -1.
    10030    2    1    2    0    0  0.00000000000E+00  0.00000000000E+00  0.87181813187E+02  0.20259017784E+04  0.20240250362E+04 0.  0.
        1    1    3    3  502    0  0.14550763384E+03  0.70875959800E+03  0.75181797360E+03  0.10434284378E+04  0.50400001928E-02 0.  1.
       -1    1    3    3    0  502 -0.14550763384E+03 -0.70875959800E+03 -0.66463616041E+03  0.98247334061E+03  0.50400001928E-02 0. -1.
</event>
<event>
 5   0  0.3787698E-05  0.1998378E+04  0.7818609E-02  0.8607379E-01
       -1   -1    0    0    0  501  0.00000000000E+00  0.00000000000E+00  0.72485046361E+03  0.72485046363E+03  0.50400001928E-02 0. -1.
        1   -1    0    0  501    0  0.00000000000E+00  0.00000000000E+00 -0.13773580358E+04  0.13773580358E+04  0.50400001928E-02 0.  1.
    10030    2    1    2    0    0  0.00000000000E+00  0.00000000000E+00 -0.65250757217E+03  0.21022084994E+04  0.19983779531E+04 0.  0.
        4    1    3    3  502    0 -0.57196176148E+03  0.76475977054E+03 -0.17079879266E+02  0.95513930838E+03  0.12699999809E+01 0. -1.
       -4    1    3    3    0  502  0.57196176148E+03 -0.76475977054E+03 -0.63542769290E+03  0.11470691910E+04  0.12699999809E+01 0.  1.
</event>
<event>
 5   0  0.7857136E-05  0.2006965E+04  0.7818609E-02  0.8603371E-01
       -2   -1    0    0    0  501  0.00000000000E+00  0.00000000000E+00  0.82728062703E+03  0.82728062704E+03  0.25500000920E-02 0.  1.
        2   -1    0    0  501    0  0.00000000000E+00  0.00000000000E+00 -0.12172135734E+04  0.12172135734E+04  0.25500000920E-02 0. -1.
    10030    2    1    2    0    0  0.00000000000E+00  0.00000000000E+00 -0.38993294639E+03  0.20444942005E+04  0.20069650802E+04 0.  0.
        4    1    3    3  502    0 -0.64818431806E+03  0.35218319337E+03 -0.88798140718E+03  0.11544212854E+04  0.12699999809E+01 0. -1.
       -4    1    3    3    0  502  0.64818431806E+03 -0.35218319337E+03  0.49804846079E+03  0.89007291503E+03  0.12699999809E+01 0.  1.
</event>
<event>
 5   0  0.8022574E-05  0.1994011E+04  0.7818609E-02  0.8609426E-01
       -2   -1    0    0    0  501  0.00000000000E+00  0.00000000000E+00  0.17943456643E+04  0.17943456643E+04  0.25500000920E-02 0.  1.
        2   -1    0    0  501    0  0.00000000000E+00  0.00000000000E+00 -0.55397352923E+03  0.55397352923E+03  0.25500000920E-02 0. -1.
    10030    2    1    2    0    0  0.00000000000E+00  0.00000000000E+00  0.12403721350E+04  0.23483191935E+04  0.19940110334E+04 0.  0.
        1    1    3    3  502    0 -0.43588603018E+03  0.11771385809E+03 -0.42667479643E+03  0.62121217440E+03  0.50400001928E-02 0. -1.
       -1    1    3    3    0  502  0.43588603018E+03 -0.11771385809E+03  0.16670469315E+04  0.17271070191E+04  0.50400001928E-02 0.  1.
</event>
<event>
 5   0  0.3787698E-05  0.2005512E+04  0.7818609E-02  0.8604048E-01
        1   -1    0    0  501    0  0.00000000000E+00  0.00000000000E+00  0.15357194053E+04  0.15357194053E+04  0.50400001928E-02 0. -1.
       -1   -1    0    0    0  501  0.00000000000E+00  0.00000000000E+00 -0.65475498807E+03  0.65475498809E+03  0.50400001928E-02 0.  1.
    10030    2    1    2    0    0  0.00000000000E+00  0.00000000000E+00  0.88096441721E+03  0.21904743934E+04  0.20055123444E+04 0.  0.
        4    1    3    3  502    0  0.73239503709E+03  0.67175554786E+03  0.29451426880E+03  0.10365318489E+04  0.12699999809E+01 0.  1.
       -4    1    3    3    0  502 -0.73239503709E+03 -0.67175554786E+03  0.58645014842E+03  0.11539425445E+04  0.12699999809E+01 0. -1.
</event>
<event>
 5   0  0.8011197E-05  0.2024343E+04  0.7818609E-02  0.8595323E-01
        2   -1    0    0  501    0  0.00000000000E+00  0.00000000000E+00  0.22426601846E+04  0.22426601846E+04  0.25500000920E-02 0.  1.
       -2   -1    0    0    0  501  0.00000000000E+00  0.00000000000E+00 -0.45681967128E+03  0.45681967128E+03  0.25500000920E-02 0. -1.
    10030    2    1    2    0    0  0.00000000000E+00  0.00000000000E+00  0.17858405133E+04  0.26994798559E+04  0.20243431412E+04 0.  0.
        5    1    3    3  502    0  0.13637771917E+03  0.44304886257E+03 -0.30692521049E+03  0.55598233042E+03  0.46999998093E+01 0. -1.
       -5    1    3    3    0  502 -0.13637771917E+03 -0.44304886257E+03  0.20927657238E+04  0.21434975255E+04  0.46999998093E+01 0.  1.
</event>
<event>
 5   0  0.7935008E-05  0.1990400E+04  0.7818609E-02  0.8611122E-01
       -2   -1    0    0    0  501  0.00000000000E+00  0.00000000000E+00  0.71844236550E+03  0.71844236551E+03  0.25500000920E-02 0.  1.
        2   -1    0    0  501    0  0.00000000000E+00  0.00000000000E+00 -0.13785704781E+04  0.13785704781E+04  0.25500000920E-02 0. -1.
    10030    2    1    2    0    0  0.00000000000E+00  0.00000000000E+00 -0.66012811258E+03  0.20970128436E+04  0.19904003972E+04 0.  0.
        3    1    3    3  502    0  0.22051915150E+03 -0.95756549890E+03 -0.49619012665E+03  0.11008019953E+04  0.10100000352E+00 0. -1.
       -3    1    3    3    0  502 -0.22051915150E+03  0.95756549890E+03 -0.16393798593E+03  0.99621084831E+03  0.10100000352E+00 0.  1.
</event>
<event>
 5   0  0.7857136E-05  0.2001124E+04  0.7818609E-02  0.8606095E-01
        2   -1    0    0  501    0  0.00000000000E+00  0.00000000000E+00  0.27055059991E+04  0.27055059991E+04  0.25500000920E-02 0. -1.
       -2   -1    0    0    0  501  0.00000000000E+00  0.00000000000E+00 -0.37003222412E+03  0.37003222412E+03  0.25500000920E-02 0.  1.
    10030    2    1    2    0    0  0.00000000000E+00  0.00000000000E+00  0.23354737750E+04  0.30755382233E+04  0.20011240863E+04 0.  0.
        4    1    3    3  502    0  0.17665535740E+03 -0.94648276354E+03  0.15860633486E+04  0.18554339912E+04  0.12699999809E+01 0. -1.
       -4    1    3    3    0  502 -0.17665535740E+03  0.94648276354E+03  0.74941042636E+03  0.12201042320E+04  0.12699999809E+01 0.  1.
</event>
<event>
 5   0  0.7843846E-05  0.2003849E+04  0.7818609E-02  0.8604823E-01
       -2   -1    0    0    0  501  0.00000000000E+00  0.00000000000E+00  0.11789002072E+04  0.11789002072E+04  0.25500000920E-02 0. -1.
        2   -1    0    0  501    0  0.00000000000E+00  0.00000000000E+00 -0.85151602730E+03  0.85151602731E+03  0.25500000920E-02 0.  1.
    10030    2    1    2    0    0  0.00000000000E+00  0.00000000000E+00  0.32738417993E+03  0.20304162345E+04  0.20038487179E+04 0.  0.
        2    1    3    3  502    0 -0.74965906654E+03  0.64848136160E+03  0.31169589067E+03  0.10390722403E+04  0.25500000920E-02 0.  1.
       -2    1    3    3    0  502  0.74965906654E+03 -0.64848136160E+03  0.15688289257E+02  0.99134399419E+03  0.25500000920E-02 0. -1.
</event>
<event>
 5   0  0.7843846E-05  0.1918388E+04  0.7818609E-02  0.8645757E-01
        2   -1    0    0  501    0  0.00000000000E+00  0.00000000000E+00  0.12145000339E+04  0.12145000339E+04  0.25500000920E-02 0. -1.
       -2   -1    0    0    0  501  0.00000000000E+00  0.00000000000E+00 -0.75755724939E+03  0.75755724939E+03  0.25500000920E-02 0.  1.
    10030    2    1    2    0    0  0.00000000000E+00  0.00000000000E+00  0.45694278450E+03  0.19720572833E+04  0.19183881829E+04 0.  0.
        2    1    3    3  502    0 -0.48677667270E+03  0.28667742241E+02  0.10775821352E+04  0.11827749687E+04  0.25500000920E-02 0. -1.
       -2    1    3    3    0  502  0.48677667270E+03 -0.28667742241E+02 -0.62063935067E+03  0.78928231459E+03  0.25500000920E-02 0.  1.
</event>
<event>
 5   0  0.7843846E-05  0.2011463E+04  0.7818609E-02  0.8601280E-01
        2   -1    0    0  501    0  0.00000000000E+00  0.00000000000E+00  0.14791629067E+04  0.14791629067E+04  0.25500000920E-02 0. -1.
       -2   -1    0    0    0  501  0.00000000000E+00  0.00000000000E+00 -0.68382983388E+03  0.68382983388E+03  0.25500000920E-02 0.  1.
    10030    2    1    2    0    0  0.00000000000E+00  0.00000000000E+00  0.79533307278E+03  0.21629927405E+04  0.20114628754E+04 0.  0.
        2    1    3    3  502    0 -0.12408162961E+03  0.50460265096E+03 -0.52829188062E+03  0.74102118546E+03  0.25500000920E-02 0.  1.
       -2    1    3    3    0  502  0.12408162961E+03 -0.50460265096E+03  0.13236249534E+04  0.14219715551E+04  0.25500000920E-02 0. -1.
</event>
<event>
 5   0  0.7935008E-05  0.1990369E+04  0.7818609E-02  0.8611137E-01
       -2   -1    0    0    0  501  0.00000000000E+00  0.00000000000E+00  0.10088046969E+04  0.10088046969E+04  0.25500000920E-02 0.  1.
        2   -1    0    0  501    0  0.00000000000E+00  0.00000000000E+00 -0.98174812146E+03  0.98174812146E+03  0.25500000920E-02 0. -1.
    10030    2    1    2    0    0  0.00000000000E+00  0.00000000000E+00  0.27056575457E+02  0.19905528184E+04  0.19903689267E+04 0.  0.
        3    1    3    3  502    0 -0.48304435483E+03 -0.13738785242E+03  0.87278450352E+03  0.10069558434E+04  0.10100000352E+00 0.  1.
       -3    1    3    3    0  502  0.48304435483E+03  0.13738785242E+03 -0.84572792806E+03  0.98359697500E+03  0.10100000352E+00 0. -1.
</event>
<event>
 5   0  0.7857136E-05  0.2001768E+04  0.7818609E-02  0.8605794E-01
       -2   -1    0    0    0  501  0.00000000000E+00  0.00000000000E+00  0.16398632393E+04  0.16398632393E+04  0.25500000920E-02 0. -1.
        2   -1    0    0  501    0  0.00000000000E+00  0.00000000000E+00 -0.61088576304E+03  0.61088576304E+03  0.25500000920E-02 0.  1.
    10030    2    1    2    0    0  0.00000000000E+00  0.00000000000E+00  0.10289774763E+04  0.22507490024E+04  0.20017683245E+04 0.  0.
        4    1    3    3  502    0  0.85876622975E+03 -0.70256636083E+02 -0.58120176931E+02  0.86359423350E+03  0.12699999809E+01 0.  1.
       -4    1    3    3    0  502 -0.85876622975E+03  0.70256636083E+02  0.10870976532E+04  0.13871547689E+04  0.12699999809E+01 0. -1.
</event>
<event>
 5   0  0.8022574E-05  0.2000775E+04  0.7818609E-02  0.8606258E-01
        2   -1    0    0  501    0  0.00000000000E+00  0.00000000000E+00  0.98367648929E+03  0.98367648929E+03  0.25500000920E-02 0. -1.
       -2   -1    0    0    0  501  0.00000000000E+00  0.00000000000E+00 -0.10173827916E+04  0.10173827916E+04  0.25500000920E-02 0.  1.
    10030    2    1    2    0    0  0.00000000000E+00  0.00000000000E+00 -0.33706302357E+02  0.20010592809E+04  0.20007753824E+04 0.  0.
        1    1    3    3  502    0  0.63168101744E+03  0.81107056645E+02  0.75473299854E+03  0.98753286606E+03  0.50400001928E-02 0. -1.
       -1    1    3    3    0  502 -0.63168101744E+03 -0.81107056645E+02 -0.78843930090E+03  0.10135264149E+04  0.50400001928E-02 0.  1.
</event>
<event>
 5   0  0.3818907E-05  0.1997544E+04  0.7818609E-02  0.8607770E-01
       -1   -1    0    0    0  501  0.00000000000E+00  0.00000000000E+00  0.95255777091E+03  0.95255777092E+03  0.50400001928E-02 0. -1.
        1   -1    0    0  501    0  0.00000000000E+00  0.00000000000E+00 -0.10472287250E+04  0.10472287250E+04  0.50400001928E-02 0.  1.
    10030    2    1    2    0    0  0.00000000000E+00  0.00000000000E+00 -0.94670954083E+02  0.19997864959E+04  0.19975443524E+04 0.  0.
        1    1    3    3  502    0 -0.54966425976E+03 -0.14506145873E+03 -0.86945893641E+03  0.10388130089E+04  0.50400001928E-02 0.  1.
       -1    1    3    3    0  502  0.54966425976E+03  0.14506145873E+03  0.77478798232E+03  0.96097348706E+03  0.50400001928E-02 0. -1.
</event>
<event>
 5   0  0.3970042E-05  0.2015024E+04  0.7818609E-02  0.8599629E-01
       -1   -1    0    0    0  501  0.00000000000E+00  0.00000000000E+00  0.72389665924E+03  0.72389665925E+03  0.50400001928E-02 0. -1.
        1   -1    0    0  501    0  0.00000000000E+00  0.00000000000E+00 -0.14022442655E+04  0.14022442656E+04  0.50400001928E-02 0.  1.
    10030    2    1    2    0    0  0.00000000000E+00  0.00000000000E+00 -0.67834760631E+03  0.21261409248E+04  0.20150235128E+04 0.  0.
        3    1    3    3  502    0 -0.14471195499E+03 -0.76795567673E+03 -0.10101514970E+04  0.12771466354E+04  0.10100000352E+00 0.  1.
       -3    1    3    3    0  502  0.14471195499E+03  0.76795567673E+03  0.33180389066E+03  0.84899428938E+03  0.10100000352E+00 0. -1.
</event>
<event>
 5   0  0.3818907E-05  0.2003261E+04  0.7818609E-02  0.8605097E-01
        1   -1    0    0  501    0  0.00000000000E+00  0.00000000000E+00  0.21742272701E+04  0.21742272701E+04  0.50400001928E-02 0. -1.
       -1   -1    0    0    0  501  0.00000000000E+00  0.00000000000E+00 -0.46143473401E+03  0.46143473404E+03  0.50400001928E-02 0.  1.
    10030    2    1    2    0    0  0.00000000000E+00  0.00000000000E+00  0.17127925361E+04  0.26356620041E+04  0.20032613230E+04 0.  0.
        1    1    3    3  502    0 -0.24531296807E+03  0.25769409170E+03 -0.37549529819E+03  0.51728272365E+03  0.50400001928E-02 0.  1.
       -1    1    3    3    0  502  0.24531296807E+03 -0.25769409170E+03  0.20882878343E+04  0.21183792805E+04  0.50400001928E-02 0. -1.
</event>
<event>
 5   0  0.7857136E-05  0.2001341E+04  0.7818609E-02  0.8605994E-01
       -2   -1    0    0    0  501  0.00000000000E+00  0.00000000000E+00  0.61816710828E+03  0.61816710829E+03  0.25500000920E-02 0.  1.
        2   -1    0    0  501    0  0.00000000000E+00  0.00000000000E+00 -0.16198549224E+04  0.16198549224E+04  0.25500000920E-02 0. -1.
    10030    2    1    2    0    0  0.00000000000E+00  0.00000000000E+00 -0.10016878141E+04  0.22380220307E+04  0.20013405839E+04 0.  0.
        4    1    3    3  502    0  0.93972189936E+03 -0.30382326185E+03 -0.68099717292E+03  0.11996435241E+04  0.12699999809E+01 0. -1.
       -4    1    3    3    0  502 -0.93972189936E+03  0.30382326185E+03 -0.32069064118E+03  0.10383785065E+04  0.12699999809E+01 0.  1.
</event>
<event>
 5   0  0.7843846E-05  0.1981521E+04  0.7818609E-02  0.8615309E-01
       -2   -1    0    0    0  501  0.00000000000E+00  0.00000000000E+00  0.10138156034E+04  0.10138156034E+04  0.25500000920E-02 0. -1.
        2   -1    0    0  501    0  0.00000000000E+00  0.00000000000E+00 -0.96822949297E+03  0.96822949297E+03  0.25500000920E-02 0.  1.
    10030    2    1    2    0    0  0.00000000000E+00  0.00000000000E+00  0.45586110421E+02  0.19820450964E+04  0.19815207974E+04 0.  0.
        2    1    3    3  502    0  0.32320102401E+03  0.92894188260E+03 -0.96461996955E+02  0.98827973774E+03  0.25500000920E-02 0. -1.
       -2    1    3    3    0  502 -0.32320102401E+03 -0.92894188260E+03  0.14204810738E+03  0.99376535862E+03  0.25500000920E-02 0.  1.
</event>
<event>
 5   0  0.7843846E-05  0.2001946E+04  0.7818609E-02  0.8605711E-01
       -2   -1    0    0    0  501  0.00000000000E+00  0.00000000000E+00  0.17264271266E+04  0.17264271266E+04  0.25500000920E-02 0. -1.
        2   -1    0    0  501    0  0.00000000000E+00  0.00000000000E+00 -0.58035886013E+03  0.58035886013E+03  0.25500000920E-02 0.  1.
    10030    2    1    2    0    0  0.00000000000E+00  0.00000000000E+00  0.11460682664E+04  0.23067859867E+04  0.20019463322E+04 0.  0.
        2    1    3    3  502    0  0.52090706669E+02 -0.72081725495E+03 -0.22499723111E+03  0.75691129650E+03  0.25500000920E-02 0.  1.
       -2    1    3    3    0  502 -0.52090706669E+02  0.72081725495E+03  0.13710654975E+04  0.15498746902E+04  0.25500000920E-02 0. -1.
</event>
<event>
 5   0  0.8022574E-05  0.2003243E+04  0.7818609E-02  0.8605106E-01
       -2   -1    0    0    0  501  0.00000000000E+00  0.00000000000E+00  0.13919059562E+04  0.13919059562E+04  0.25500000920E-02 0.  1.
        2   -1    0    0  501    0  0.00000000000E+00  0.00000000000E+00 -0.72077090549E+03  0.72077090550E+03  0.25500000920E-02 0. -1.
    10030    2    1    2    0    0  0.00000000000E+00  0.00000000000E+00  0.67113505074E+03  0.21126768617E+04  0.20032426877E+04 0.  0.
        1    1    3    3  502    0  0.23596862336E+03 -0.97187078799E+03  0.39363243170E+03  0.10747839369E+04  0.50400001928E-02 0.  1.
       -1    1    3    3    0  502 -0.23596862336E+03  0.97187078799E+03  0.27750261903E+03  0.10378929248E+04  0.50400001928E-02 0. -1.
</event>
<event>
 5   0  0.8011197E-05  0.2124155E+04  0.7818609E-02  0.8550677E-01
       -2   -1    0    0    0  501  0.00000000000E+00  0.00000000000E+00  0.55720379751E+03  0.55720379751E+03  0.25500000920E-02 0.  1.
        2   -1    0    0  501    0  0.00000000000E+00  0.00000000000E+00 -0.20244090770E+04  0.20244090770E+04  0.25500000920E-02 0. -1.
    10030    2    1    2    0    0  0.00000000000E+00  0.00000000000E+00 -0.14672052795E+04  0.25816128745E+04  0.21241548206E+04 0.  0.
        5    1    3    3  502    0 -0.74497578375E+01  0.80380488272E+03 -0.15772310844E+04  0.17702648875E+04  0.46999998093E+01 0. -1.
       -5    1    3    3    0  502  0.74497578375E+01 -0.80380488272E+03  0.11002580485E+03  0.81134798706E+03  0.46999998093E+01 0.  1.
</event>
<event>
 5   0  0.3772949E-05  0.1996562E+04  0.7818609E-02  0.8608230E-01
        1   -1    0    0  501    0  0.00000000000E+00  0.00000000000E+00  0.12541845265E+04  0.12541845265E+04  0.50400001928E-02 0. -1.
       -1   -1    0    0    0  501  0.00000000000E+00  0.00000000000E+00 -0.79459170907E+03  0.79459170909E+03  0.50400001928E-02 0.  1.
    10030    2    1    2    0    0  0.00000000000E+00  0.00000000000E+00  0.45959281744E+03  0.20487762356E+04  0.19965616709E+04 0.  0.
        2    1    3    3  502    0 -0.50139757106E+03 -0.49493972174E+03 -0.49594774177E+03  0.86158517570E+03  0.25500000920E-02 0.  1.
       -2    1    3    3    0  502  0.50139757106E+03  0.49493972174E+03  0.95554055921E+03  0.11871910599E+04  0.25500000920E-02 0. -1.
</event>
<event>
 5   0  0.3970042E-05  0.1998958E+04  0.7818609E-02  0.8607108E-01
       -1   -1    0    0    0  501  0.00000000000E+00  0.00000000000E+00  0.83798795702E+03  0.83798795704E+03  0.50400001928E-02 0.  1.
        1   -1    0    0  501    0  0.00000000000E+00  0.00000000000E+00 -0.11920914324E+04  0.11920914324E+04  0.50400001928E-02 0. -1.
    10030    2    1    2    0    0  0.00000000000E+00  0.00000000000E+00 -0.35410347540E+03  0.20300793895E+04  0.19989579926E+04 0.  0.
        3    1    3    3  502    0  0.27663173286E+03  0.59887463978E+03 -0.93959602953E+03  0.11480490663E+04  0.10100000352E+00 0. -1.
       -3    1    3    3    0  502 -0.27663173286E+03 -0.59887463978E+03  0.58549255413E+03  0.88203032314E+03  0.10100000352E+00 0.  1.
</event>
<event>
 5   0  0.3818907E-05  0.1993722E+04  0.7818609E-02  0.8609562E-01
       -1   -1    0    0    0  501  0.00000000000E+00  0.00000000000E+00  0.99835412140E+03  0.99835412141E+03  0.50400001928E-02 0.  1.
        1   -1    0    0  501    0  0.00000000000E+00  0.00000000000E+00 -0.99536995472E+03  0.99536995473E+03  0.50400001928E-02 0. -1.
    10030    2    1    2    0    0  0.00000000000E+00  0.00000000000E+00  0.29841666815E+01  0.19937240761E+04  0.19937218428E+04 0.  0.
        1    1    3    3  502    0 -0.11129210091E+03 -0.98235860158E+03  0.12923158129E+03  0.99705323602E+03  0.50400001928E-02 0. -1.
       -1    1    3    3    0  502  0.11129210091E+03  0.98235860158E+03 -0.12624741461E+03  0.99667084012E+03  0.50400001928E-02 0.  1.
</event>
<event>
 5   0  0.3772949E-05  0.1998941E+04  0.7818609E-02  0.8607116E-01
        1   -1    0    0  501    0  0.00000000000E+00  0.00000000000E+00  0.86953292500E+03  0.86953292502E+03  0.50400001928E-02 0.  1.
       -1   -1    0    0    0  501  0.00000000000E+00  0.00000000000E+00 -0.11488252196E+04  0.11488252196E+04  0.50400001928E-02 0. -1.
    10030    2    1    2    0    0  0.00000000000E+00  0.00000000000E+00 -0.27929229463E+03  0.20183581447E+04  0.19989410732E+04 0.  0.
        2    1    3    3  502    0 -0.44421885733E+03  0.59681296735E+03 -0.81353093430E+03  0.11024285429E+04  0.25500000920E-02 0. -1.
       -2    1    3    3    0  502  0.44421885733E+03 -0.59681296735E+03  0.53423863967E+03  0.91592960173E+03  0.25500000920E-02 0.  1.
</event>
<event>
 5   0  0.7935008E-05  0.2001664E+04  0.7818609E-02  0.8605843E-01
        2   -1    0    0  501    0  0.00000000000E+00  0.00000000000E+00  0.25061589295E+04  0.25061589295E+04  0.25500000920E-02 0. -1.
       -2   -1    0    0    0  501  0.00000000000E+00  0.00000000000E+00 -0.39968135469E+03  0.39968135470E+03  0.25500000920E-02 0.  1.
    10030    2    1    2    0    0  0.00000000000E+00  0.00000000000E+00  0.21064775748E+04  0.29058402842E+04  0.20016643036E+04 0.  0.
        3    1    3    3  502    0  0.92861168819E+03  0.36118021980E+03  0.91632942716E+03  0.13536729472E+04  0.10100000352E+00 0.  1.
       -3    1    3    3    0  502 -0.92861168819E+03 -0.36118021980E+03  0.11901481477E+04  0.15521673371E+04  0.10100000352E+00 0. -1.
</event>
<event>
 5   0  0.3772949E-05  0.2000698E+04  0.7818609E-02  0.8606295E-01
       -1   -1    0    0    0  501  0.00000000000E+00  0.00000000000E+00  0.54371513637E+03  0.54371513639E+03  0.50400001928E-02 0.  1.
        1   -1    0    0  501    0  0.00000000000E+00  0.00000000000E+00 -0.18404815294E+04  0.18404815294E+04  0.50400001928E-02 0. -1.
    10030    2    1    2    0    0  0.00000000000E+00  0.00000000000E+00 -0.12967663930E+04  0.23841966658E+04  0.20006975441E+04 0.  0.
        2    1    3    3  502    0 -0.49894771632E+02 -0.33145693099E+03 -0.17715683168E+04  0.18029995803E+04  0.25500000920E-02 0. -1.
       -2    1    3    3    0  502  0.49894771632E+02  0.33145693099E+03  0.47480192380E+03  0.58119708549E+03  0.25500000920E-02 0.  1.
</event>
<event>
 5   0  0.8011197E-05  0.2021750E+04  0.7818609E-02  0.8596519E-01
        2   -1    0    0  501    0  0.00000000000E+00  0.00000000000E+00  0.15626237729E+04  0.15626237729E+04  0.25500000920E-02 0. -1.
       -2   -1    0    0    0  501  0.00000000000E+00  0.00000000000E+00 -0.65394395192E+03  0.65394395193E+03  0.25500000920E-02 0.  1.
    10030    2    1    2    0    0  0.00000000000E+00  0.00000000000E+00  0.90867982098E+03  0.22165677248E+04  0.20217500987E+04 0.  0.
        5    1    3    3  502    0 -0.13887606790E+03 -0.65315407380E+03  0.12863828188E+04  0.14493790577E+04  0.46999998093E+01 0. -1.
       -5    1    3    3    0  502  0.13887606790E+03  0.65315407380E+03 -0.37770299786E+03  0.76718866711E+03  0.46999998093E+01 0.  1.
</event>
<event>
 5   0  0.7857136E-05  0.2008356E+04  0.7818609E-02  0.8602724E-01
        2   -1    0    0  501    0  0.00000000000E+00  0.00000000000E+00  0.12350547607E+04  0.12350547607E+04  0.25500000920E-02 0. -1.
       -2   -1    0    0    0  501  0.00000000000E+00  0.00000000000E+00 -0.81646024517E+03  0.81646024517E+03  0.25500000920E-02 0.  1.
    10030    2    1    2    0    0  0.00000000000E+00  0.00000000000E+00  0.41859451554E+03  0.20515150059E+04  0.20083556585E+04 0.  0.
        4    1    3    3  502    0 -0.24397609647E+03 -0.97041458145E+03  0.12296652863E+03  0.10081424382E+04  0.12699999809E+01 0. -1.
       -4    1    3    3    0  502  0.24397609647E+03  0.97041458145E+03  0.29562798691E+03  0.10433725677E+04  0.12699999809E+01 0.  1.
</event>
<event>
 5   0  0.3549426E-05  0.2019810E+04  0.7818609E-02  0.8597415E-01
       -1   -1    0    0    0  501  0.00000000000E+00  0.00000000000E+00  0.55247038016E+03  0.55247038018E+03  0.50400001928E-02 0. -1.
        1   -1    0    0  501    0  0.00000000000E+00  0.00000000000E+00 -0.18460858731E+04  0.18460858731E+04  0.50400001928E-02 0.  1.
    10030    2    1    2    0    0  0.00000000000E+00  0.00000000000E+00 -0.12936154929E+04  0.23985562532E+04  0.20198096585E+04 0.  0.
        5    1    3    3  502    0  0.93210901590E+03 -0.13757391132E+03 -0.21514629809E+03  0.96646977096E+03  0.46999998093E+01 0. -1.
       -5    1    3    3    0  502 -0.93210901590E+03  0.13757391132E+03 -0.10784691948E+04  0.14320864823E+04  0.46999998093E+01 0.  1.
</event>
<event>
 5   0  0.3970042E-05  0.2000008E+04  0.7818609E-02  0.8606617E-01
       -1   -1    0    0    0  501  0.00000000000E+00  0.00000000000E+00  0.96888779142E+03  0.96888779144E+03  0.50400001928E-02 0.  1.
        1   -1    0    0  501    0  0.00000000000E+00  0.00000000000E+00 -0.10321198953E+04  0.10321198953E+04  0.50400001928E-02 0. -1.
    10030    2    1    2    0    0  0.00000000000E+00  0.00000000000E+00 -0.63232103839E+02  0.20010076867E+04  0.20000083658E+04 0.  0.
        3    1    3    3  502    0 -0.28206124788E+03 -0.73872653274E+03 -0.64407624517E+03  0.10198576653E+04  0.10100000352E+00 0. -1.
       -3    1    3    3    0  502  0.28206124788E+03  0.73872653274E+03  0.58084414133E+03  0.98115002138E+03  0.10100000352E+00 0.  1.
</event>
<event>
 5   0  0.3787698E-05  0.2010478E+04  0.7818609E-02  0.8601737E-01
       -1   -1    0    0    0  501  0.00000000000E+00  0.00000000000E+00  0.11499720405E+04  0.11499720405E+04  0.50400001928E-02 0.  1.
        1   -1    0    0  501    0  0.00000000000E+00  0.00000000000E+00 -0.87872194307E+03  0.87872194309E+03  0.50400001928E-02 0. -1.
    10030    2    1    2    0    0  0.00000000000E+00  0.00000000000E+00  0.27125009740E+03  0.20286939836E+04  0.20104782176E+04 0.  0.
        4    1    3    3  502    0  0.23255910757E+03 -0.33466192172E+03 -0.79162500040E+03  0.89036739300E+03  0.12699999809E+01 0. -1.
       -4    1    3    3    0  502 -0.23255910757E+03  0.33466192172E+03  0.10628750978E+04  0.11383265906E+04  0.12699999809E+01 0.  1.
</event>
<event>
 5   0  0.3549426E-05  0.1986243E+04  0.7818609E-02  0.8613079E-01
        1   -1    0    0  501    0  0.00000000000E+00  0.00000000000E+00  0.11752819168E+04  0.11752819168E+04  0.50400001928E-02 0.  1.
       -1   -1    0    0    0  501  0.00000000000E+00  0.00000000000E+00 -0.83919506692E+03  0.83919506694E+03  0.50400001928E-02 0. -1.
    10030    2    1    2    0    0  0.00000000000E+00  0.00000000000E+00  0.33608684990E+03  0.20144769838E+04  0.19862434764E+04 0.  0.
        5    1    3    3  502    0 -0.94221393358E+03  0.11959675479E+03 -0.12625048299E+03  0.95813973659E+03  0.46999998093E+01 0. -1.
       -5    1    3    3    0  502  0.94221393358E+03 -0.11959675479E+03  0.46233733289E+03  0.10563372472E+04  0.46999998093E+01 0.  1.
</event>
<event>
 5   0  0.7843846E-05  0.1894453E+04  0.7818609E-02  0.8657622E-01
        2   -1    0    0  501    0  0.00000000000E+00  0.00000000000E+00  0.15494325013E+04  0.15494325013E+04  0.25500000920E-02 0.  1.
       -2   -1    0    0    0  501  0.00000000000E+00  0.00000000000E+00 -0.57907553035E+03  0.57907553035E+03  0.25500000920E-02 0. -1.
    10030    2    1    2    0    0  0.00000000000E+00  0.00000000000E+00  0.97035697095E+03  0.21285080316E+04  0.18944534277E+04 0.  0.
        2    1    3    3  502    0  0.52290386070E+03 -0.31001708567E+03 -0.33099909852E+03  0.69217009771E+03  0.25500000920E-02 0. -1.
       -2    1    3    3    0  502 -0.52290386070E+03  0.31001708567E+03  0.13013560695E+04  0.14363379339E+04  0.25500000920E-02 0.  1.
</event>
<event>
 5   0  0.3772949E-05  0.1993923E+04  0.7818609E-02  0.8609467E-01
        1   -1    0    0  501    0  0.00000000000E+00  0.00000000000E+00  0.96360063053E+03  0.96360063054E+03  0.50400001928E-02 0.  1.
       -1   -1    0    0    0  501  0.00000000000E+00  0.00000000000E+00 -0.10314769636E+04  0.10314769636E+04  0.50400001928E-02 0. -1.
    10030    2    1    2    0    0  0.00000000000E+00  0.00000000000E+00 -0.67876333064E+02  0.19950775941E+04  0.19939226189E+04 0.  0.
        2    1    3    3  502    0  0.47544786830E+03  0.15561938757E+03  0.82892078137E+03  0.96818269508E+03  0.25500000920E-02 0.  1.
       -2    1    3    3    0  502 -0.47544786830E+03 -0.15561938757E+03 -0.89679711443E+03  0.10268948991E+04  0.25500000920E-02 0. -1.
</event>
<event>
 5   0  0.8011197E-05  0.1997283E+04  0.7818609E-02  0.8607892E-01
       -2   -1    0    0    0  501  0.00000000000E+00  0.00000000000E+00  0.38941629265E+03  0.38941629266E+03  0.25500000920E-02 0. -1.
        2   -1    0    0  501    0  0.00000000000E+00  0.00000000000E+00 -0.25609746556E+04  0.25609746556E+04  0.25500000920E-02 0.  1.
    10030    2    1    2    0    0  0.00000000000E+00  0.00000000000E+00 -0.21715583630E+04  0.29503909483E+04  0.19972834110E+04 0.  0.
        5    1    3    3  502    0 -0.17648620901E+03 -0.41299102122E+03  0.23179403711E+03  0.50543004582E+03  0.46999998093E+01 0. -1.
       -5    1    3    3    0  502  0.17648620901E+03  0.41299102122E+03 -0.24033524001E+04  0.24449609025E+04  0.46999998093E+01 0.  1.
</event>
<event>
 5   0  0.3818907E-05  0.1984191E+04  0.7818609E-02  0.8614048E-01
       -1   -1    0    0    0  501  0.00000000000E+00  0.00000000000E+00  0.11442316265E+04  0.11442316265E+04  0.50400001928E-02 0.  1.
        1   -1    0    0  501    0  0.00000000000E+00  0.00000000000E+00 -0.86018707982E+03  0.86018707984E+03  0.50400001928E-02 0. -1.
    10030    2    1    2    0    0  0.00000000000E+00  0.00000000000E+00  0.28404454669E+03  0.20044187064E+04  0.19841907786E+04 0.  0.
        1    1    3    3  502    0  0.48170441870E+03  0.85227729163E+03  0.30440152638E+03  0.10252199852E+04  0.50400001928E-02 0.  1.
       -1    1    3    3    0  502 -0.48170441870E+03 -0.85227729163E+03 -0.20356979694E+02  0.97919872113E+03  0.50400001928E-02 0. -1.
</event>
<event>
 5   0  0.7935008E-05  0.2003455E+04  0.7818609E-02  0.8605007E-01
        2   -1    0    0  501    0  0.00000000000E+00  0.00000000000E+00  0.18823913783E+04  0.18823913783E+04  0.25500000920E-02 0.  1.
       -2   -1    0    0    0  501  0.00000000000E+00  0.00000000000E+00 -0.53307613177E+03  0.53307613178E+03  0.25500000920E-02 0. -1.
    10030    2    1    2    0    0  0.00000000000E+00  0.00000000000E+00  0.13493152465E+04  0.24154675101E+04  0.20034549303E+04 0.  0.
        3    1    3    3  502    0  0.13495935097E+02 -0.19103289879E+03 -0.51079975801E+03  0.54552003782E+03  0.10100000352E+00 0. -1.
       -3    1    3    3    0  502 -0.13495935097E+02  0.19103289879E+03  0.18601150046E+04  0.18699474723E+04  0.10100000352E+00 0.  1.
</event>
<event>
 5   0  0.8011197E-05  0.2074708E+04  0.7818609E-02  0.8572467E-01
        2   -1    0    0  501    0  0.00000000000E+00  0.00000000000E+00  0.11010009400E+04  0.11010009400E+04  0.25500000920E-02 0. -1.
       -2   -1    0    0    0  501  0.00000000000E+00  0.00000000000E+00 -0.97738636931E+03  0.97738636931E+03  0.25500000920E-02 0.  1.
    10030    2    1    2    0    0  0.00000000000E+00  0.00000000000E+00  0.12361457069E+03  0.20783873093E+04  0.20747079904E+04 0.  0.
        5    1    3    3  502    0  0.98046591345E+02  0.71853044969E+03 -0.68125072930E+03  0.99499939064E+03  0.46999998093E+01 0.  1.
       -5    1    3    3    0  502 -0.98046591345E+02 -0.71853044969E+03  0.80486529999E+03  0.10833879187E+04  0.46999998093E+01 0. -1.
</event>
<event>
 5   0  0.8011197E-05  0.2007338E+04  0.7818609E-02  0.8603197E-01
       -2   -1    0    0    0  501  0.00000000000E+00  0.00000000000E+00  0.11170870231E+04  0.11170870231E+04  0.25500000920E-02 0. -1.
        2   -1    0    0  501    0  0.00000000000E+00  0.00000000000E+00 -0.90176675661E+03  0.90176675662E+03  0.25500000920E-02 0.  1.
    10030    2    1    2    0    0  0.00000000000E+00  0.00000000000E+00  0.21532026646E+03  0.20188537797E+04  0.20073384783E+04 0.  0.
        5    1    3    3  502    0 -0.88606672232E+03 -0.52469462749E+02  0.57881587357E+03  0.10596778692E+04  0.46999998093E+01 0. -1.
       -5    1    3    3    0  502  0.88606672232E+03  0.52469462749E+02 -0.36349560712E+03  0.95917591051E+03  0.46999998093E+01 0.  1.
</event>
<event>
 5   0  0.7935008E-05  0.1997957E+04  0.7818609E-02  0.8607576E-01
        2   -1    0    0  501    0  0.00000000000E+00  0.00000000000E+00  0.11020075980E+04  0.11020075980E+04  0.25500000920E-02 0.  1.
       -2   -1    0    0    0  501  0.00000000000E+00  0.00000000000E+00 -0.90558214112E+03  0.90558214113E+03  0.25500000920E-02 0. -1.
    10030    2    1    2    0    0  0.00000000000E+00  0.00000000000E+00  0.19642545692E+03  0.20075897392E+04  0.19979573571E+04 0.  0.
        3    1    3    3  502    0  0.70132469922E+03 -0.16699727440E+03 -0.59665138113E+03  0.93580836938E+03  0.10100000352E+00 0. -1.
       -3    1    3    3    0  502 -0.70132469922E+03  0.16699727440E+03  0.79307683805E+03  0.10717813698E+04  0.10100000352E+00 0.  1.
</event>
<event>
 5   0  0.3818907E-05  0.2032266E+04  0.7818609E-02  0.8591682E-01
       -1   -1    0    0    0  501  0.00000000000E+00  0.00000000000E+00  0.15690784597E+04  0.15690784597E+04  0.50400001928E-02 0. -1.
        1   -1    0    0  501    0  0.00000000000E+00  0.00000000000E+00 -0.65804610436E+03  0.65804610438E+03  0.50400001928E-02 0.  1.
    10030    2    1    2    0    0  0.00000000000E+00  0.00000000000E+00  0.91103235536E+03  0.22271245641E+04  0.20322656990E+04 0.  0.
        1    1    3    3  502    0 -0.58623656823E+03  0.64370980241E+03 -0.11863671444E+03  0.87869806742E+03  0.50400001928E-02 0.  1.
       -1    1    3    3    0  502  0.58623656823E+03 -0.64370980241E+03  0.10296690698E+04  0.13484264967E+04  0.50400001928E-02 0. -1.
</event>
<event>
 5   0  0.3772949E-05  0.2092581E+04  0.7818609E-02  0.8564519E-01
       -1   -1    0    0    0  501  0.00000000000E+00  0.00000000000E+00  0.13667712299E+04  0.13667712299E+04  0.50400001928E-02 0. -1.
        1   -1    0    0  501    0  0.00000000000E+00  0.00000000000E+00 -0.80095616231E+03  0.80095616232E+03  0.50400001928E-02 0.  1.
    10030    2    1    2    0    0  0.00000000000E+00  0.00000000000E+00  0.56581506763E+03  0.21677273923E+04  0.20925810274E+04 0.  0.
        2    1    3    3  502    0  0.65373966249E+03 -0.74975791652E+03 -0.53103623258E+02  0.99615886007E+03  0.25500000920E-02 0.  1.
       -2    1    3    3    0  502 -0.65373966249E+03  0.74975791652E+03  0.61891869089E+03  0.11715685322E+04  0.25500000920E-02 0. -1.
</event>
<event>
 5   0  0.3549426E-05  0.2001360E+04  0.7818609E-02  0.8605985E-01
       -1   -1    0    0    0  501  0.00000000000E+00  0.00000000000E+00  0.70612245688E+03  0.70612245690E+03  0.50400001928E-02 0. -1.
        1   -1    0    0  501    0  0.00000000000E+00  0.00000000000E+00 -0.14181119974E+04  0.14181119974E+04  0.50400001928E-02 0.  1.
    10030    2    1    2    0    0  0.00000000000E+00  0.00000000000E+00 -0.71198954055E+03  0.21242344543E+04  0.20013602652E+04 0.  0.
        5    1    3    3  502    0 -0.62335000258E+03 -0.60776070598E+03 -0.87964073670E+03  0.12376300809E+04  0.46999998093E+01 0.  1.
       -5    1    3    3    0  502  0.62335000258E+03  0.60776070598E+03  0.16765119616E+03  0.88660437345E+03  0.46999998093E+01 0. -1.
</event>
<event>
 5   0  0.7843846E-05  0.2000828E+04  0.7818609E-02  0.8606233E-01
        2   -1    0    0  501    0  0.00000000000E+00  0.00000000000E+00  0.70707795414E+03  0.70707795415E+03  0.25500000920E-02 0. -1.
       -2   -1    0    0    0  501  0.00000000000E+00  0.00000000000E+00 -0.14154431745E+04  0.14154431745E+04  0.25500000920E-02 0.  1.
    10030    2    1    2    0    0  0.00000000000E+00  0.00000000000E+00 -0.70836522031E+03  0.21225211286E+04  0.20008284924E+04 0.  0.
        2    1    3    3  502    0 -0.99193348823E+03 -0.59283174173E+02 -0.23146562228E+03  0.10203052848E+04  0.25500000920E-02 0. -1.
       -2    1    3    3    0  502  0.99193348823E+03  0.59283174173E+02 -0.47689959804E+03  0.11022158438E+04  0.25500000920E-02 0.  1.
</event>
<event>
 5   0  0.3970042E-05  0.2019256E+04  0.7818609E-02  0.8597670E-01
       -1   -1    0    0    0  501  0.00000000000E+00  0.00000000000E+00  0.45487781118E+03  0.45487781121E+03  0.50400001928E-02 0.  1.
        1   -1    0    0  501    0  0.00000000000E+00  0.00000000000E+00 -0.22409286724E+04  0.22409286724E+04  0.50400001928E-02 0. -1.
    10030    2    1    2    0    0  0.00000000000E+00  0.00000000000E+00 -0.17860508612E+04  0.26958064836E+04  0.20192560309E+04 0.  0.
        3    1    3    3  502    0 -0.74975106700E+02 -0.99926888678E+03 -0.72848827564E+03  0.12388925509E+04  0.10100000352E+00 0. -1.
       -3    1    3    3    0  502  0.74975106700E+02  0.99926888678E+03 -0.10575625855E+04  0.14569139327E+04  0.10100000352E+00 0.  1.
</event>
<event>
 5   0  0.3787698E-05  0.2032996E+04  0.7818609E-02  0.8591348E-01
       -1   -1    0    0    0  501  0.00000000000E+00  0.00000000000E+00  0.83357585159E+03  0.83357585161E+03  0.50400001928E-02 0. -1.
        1   -1    0    0  501    0  0.00000000000E+00  0.00000000000E+00 -0.12395605094E+04  0.12395605094E+04  0.50400001928E-02 0.  1.
    10030    2    1    2    0    0  0.00000000000E+00  0.00000000000E+00 -0.40598465784E+03  0.20731363611E+04  0.20329955310E+04 0.  0.
        4    1    3    3  502    0 -0.67025338656E+03 -0.16319584368E+03 -0.96432144163E+03  0.11856601289E+04  0.12699999809E+01 0.  1.
       -4    1    3    3    0  502  0.67025338656E+03  0.16319584368E+03  0.55833678379E+03  0.88747623215E+03  0.12699999809E+01 0. -1.
</event>
<event>
 5   0  0.7857136E-05  0.1975454E+04  0.7818609E-02  0.8618183E-01
       -2   -1    0    0    0  501  0.00000000000E+00  0.00000000000E+00  0.10512892255E+04  0.10512892255E+04  0.25500000920E-02 0. -1.
        2   -1    0    0  501    0  0.00000000000E+00  0.00000000000E+00 -0.92800816746E+03  0.92800816747E+03  0.25500000920E-02 0.  1.
    10030    2    1    2    0    0  0.00000000000E+00  0.00000000000E+00  0.12328105805E+03  0.19792973930E+04  0.19754543656E+04 0.  0.
        4    1    3    3  502    0 -0.10119247922E+03 -0.42914831109E+03  0.94721243329E+03  0.10448067752E+04  0.12699999809E+01 0. -1.
       -4    1    3    3    0  502  0.10119247922E+03  0.42914831109E+03 -0.82393137524E+03  0.93449061781E+03  0.12699999809E+01 0.  1.
</event>
<event>
 5   0  0.3787698E-05  0.1992694E+04  0.7818609E-02  0.8610044E-01
        1   -1    0    0  501    0  0.00000000000E+00  0.00000000000E+00  0.76273219018E+03  0.76273219020E+03  0.50400001928E-02 0.  1.
       -1   -1    0    0    0  501  0.00000000000E+00  0.00000000000E+00 -0.13015150780E+04  0.13015150780E+04  0.50400001928E-02 0. -1.
    10030    2    1    2    0    0  0.00000000000E+00  0.00000000000E+00 -0.53878288784E+03  0.20642472682E+04  0.19926941020E+04 0.  0.
        4    1    3    3  502    0 -0.73793866951E+03 -0.28558068387E+03  0.35782142384E+03  0.86841671519E+03  0.12699999809E+01 0.  1.
       -4    1    3    3    0  502  0.73793866951E+03  0.28558068387E+03 -0.89660431168E+03  0.11958305530E+04  0.12699999809E+01 0. -1.
</event>
<event>
 5   0  0.3787698E-05  0.1988950E+04  0.7818609E-02  0.8611805E-01
       -1   -1    0    0    0  501  0.00000000000E+00  0.00000000000E+00  0.72740566849E+03  0.72740566851E+03  0.50400001928E-02 0. -1.
        1   -1    0    0  501    0  0.00000000000E+00  0.00000000000E+00 -0.13595991830E+04  0.13595991830E+04  0.50400001928E-02 0.  1.
    10030    2    1    2    0    0  0.00000000000E+00  0.00000000000E+00 -0.63219351454E+03  0.20870048516E+04  0.19889496250E+04 0.  0.
        4    1    3    3  502    0  0.58625658708E+03  0.26193619173E+03  0.48072980095E+03  0.80212848650E+03  0.12699999809E+01 0. -1.
       -4    1    3    3    0  502 -0.58625658708E+03 -0.26193619173E+03 -0.11129233155E+04  0.12848763651E+04  0.12699999809E+01 0.  1.
</event>
<event>
 5   0  0.3818907E-05  0.2000160E+04  0.7818609E-02  0.8606546E-01
       -1   -1    0    0    0  501  0.00000000000E+00  0.00000000000E+00  0.15302317391E+04  0.15302317391E+04  0.50400001928E-02 0. -1.
        1   -1    0    0  501    0  0.00000000000E+00  0.00000000000E+00 -0.65360019741E+03  0.65360019743E+03  0.50400001928E-02 0.  1.
    10030    2    1    2    0    0  0.00000000000E+00  0.00000000000E+00  0.87663154165E+03  0.21838319365E+04  0.20001597604E+04 0.  0.
        1    1    3    3  502    0 -0.79605641077E+03  0.59158935286E+03  0.29816988422E+03  0.10356587524E+04  0.50400001928E-02 0. -1.
       -1    1    3    3    0  502  0.79605641077E+03 -0.59158935286E+03  0.57846165743E+03  0.11481731841E+04  0.50400001928E-02 0.  1.
</event>
<event>
 5   0  0.8022574E-05  0.1998686E+04  0.7818609E-02  0.8607235E-01
       -2   -1    0    0    0  501  0.00000000000E+00  0.00000000000E+00  0.44453430709E+03  0.44453430709E+03  0.25500000920E-02 0.  1.
        2   -1    0    0  501    0  0.00000000000E+00  0.00000000000E+00 -0.22465908817E+04  0.22465908817E+04  0.25500000920E-02 0. -1.
    10030    2    1    2    0    0  0.00000000000E+00  0.00000000000E+00 -0.18020565746E+04  0.26911251888E+04  0.19986862894E+04 0.  0.
        1    1    3    3  502    0 -0.50099406982E+03 -0.54292015209E+03 -0.18071875000E+04  0.19523534541E+04  0.50400001928E-02 0. -1.
       -1    1    3    3    0  502  0.50099406982E+03  0.54292015209E+03  0.51309254057E+01  0.73877173468E+03  0.50400001928E-02 0.  1.
</event>
<event>
 5   0  0.3970042E-05  0.1996715E+04  0.7818609E-02  0.8608158E-01
       -1   -1    0    0    0  501  0.00000000000E+00  0.00000000000E+00  0.49728108090E+03  0.49728108093E+03  0.50400001928E-02 0.  1.
        1   -1    0    0  501    0  0.00000000000E+00  0.00000000000E+00 -0.20043341739E+04  0.20043341739E+04  0.50400001928E-02 0. -1.
    10030    2    1    2    0    0  0.00000000000E+00  0.00000000000E+00 -0.15070530930E+04  0.25016152549E+04  0.19967147663E+04 0.  0.
        3    1    3    3  502    0  0.88747854470E+03  0.26398515459E+03 -0.28573410201E+03  0.96899448729E+03  0.10100000352E+00 0. -1.
       -3    1    3    3    0  502 -0.88747854470E+03 -0.26398515459E+03 -0.12213189910E+04  0.15326207676E+04  0.10100000352E+00 0.  1.
</event>
<event>
 5   0  0.7843846E-05  0.1947727E+04  0.7818609E-02  0.8631457E-01
        2   -1    0    0  501    0  0.00000000000E+00  0.00000000000E+00  0.13592005197E+04  0.13592005197E+04  0.25500000920E-02 0.  1.
       -2   -1    0    0    0  501  0.00000000000E+00  0.00000000000E+00 -0.69777087230E+03  0.69777087230E+03  0.25500000920E-02 0. -1.
    10030    2    1    2    0    0  0.00000000000E+00  0.00000000000E+00  0.66142964735E+03  0.20569713920E+04  0.19477274268E+04 0.  0.
        2    1    3    3  502    0  0.13366347604E+03 -0.61674126233E+03 -0.45262540051E+03  0.77659864968E+03  0.25500000920E-02 0. -1.
       -2    1    3    3    0  502 -0.13366347604E+03  0.61674126233E+03  0.11140550479E+04  0.12803727423E+04  0.25500000920E-02 0.  1.
</event>
<event>
 5   0  0.7935008E-05  0.2033919E+04  0.7818609E-02  0.8590925E-01
       -2   -1    0    0    0  501  0.00000000000E+00  0.00000000000E+00  0.58748023648E+03  0.58748023648E+03  0.25500000920E-02 0. -1.
        2   -1    0    0  501    0  0.00000000000E+00  0.00000000000E+00 -0.17604108095E+04  0.17604108095E+04  0.25500000920E-02 0.  1.
    10030    2    1    2    0    0  0.00000000000E+00  0.00000000000E+00 -0.11729305730E+04  0.23478910459E+04  0.20339189351E+04 0.  0.
        3    1    3    3  502    0  0.93627521157E+03  0.39593950094E+03 -0.61966592779E+03  0.11905314916E+04  0.10100000352E+00 0.  1.
       -3    1    3    3    0  502 -0.93627521157E+03 -0.39593950094E+03 -0.55326464519E+03  0.11573595543E+04  0.10100000352E+00 0. -1.
</event>
<event>
 5   0  0.2859625E-05  0.2004245E+04  0.7818609E-02  0.8604638E-01
        3   -1    0    0  501    0  0.00000000000E+00  0.00000000000E+00  0.77817293288E+03  0.77817293944E+03  0.10100000352E+00 0.  1.
       -3   -1    0    0    0  501  0.00000000000E+00  0.00000000000E+00 -0.12905228999E+04  0.12905229039E+04  0.10100000352E+00 0. -1.
    10030    2    1    2    0    0  0.00000000000E+00  0.00000000000E+00 -0.51234996702E+03  0.20686958433E+04  0.20042454948E+04 0.  0.
        1    1    3    3  502    0  0.44677188568E+03 -0.43480103939E+03  0.55365255430E+03  0.83377947480E+03  0.50400001928E-02 0.  1.
       -1    1    3    3    0  502 -0.44677188568E+03  0.43480103939E+03 -0.10660025213E+04  0.12349163685E+04  0.50400001928E-02 0. -1.
</event>
<event>
 5   0  0.3549426E-05  0.2003979E+04  0.7818609E-02  0.8604762E-01
        1   -1    0    0  501    0  0.00000000000E+00  0.00000000000E+00  0.14454782481E+04  0.14454782481E+04  0.50400001928E-02 0. -1.
       -1   -1    0    0    0  501  0.00000000000E+00  0.00000000000E+00 -0.69456823455E+03  0.69456823457E+03  0.50400001928E-02 0.  1.
    10030    2    1    2    0    0  0.00000000000E+00  0.00000000000E+00  0.75091001351E+03  0.21400464826E+04  0.20039793161E+04 0.  0.
        5    1    3    3  502    0 -0.19593524561E+03 -0.93175083094E+03  0.42156115555E+02  0.95307369049E+03  0.46999998093E+01 0.  1.
       -5    1    3    3    0  502  0.19593524561E+03  0.93175083094E+03  0.70875389796E+03  0.11869727921E+04  0.46999998093E+01 0. -1.
</event>
<event>
 5   0  0.7857136E-05  0.2009453E+04  0.7818609E-02  0.8602214E-01
        2   -1    0    0  501    0  0.00000000000E+00  0.00000000000E+00  0.18496024900E+04  0.18496024900E+04  0.25500000920E-02 0. -1.
       -2   -1    0    0    0  501  0.00000000000E+00  0.00000000000E+00 -0.54577974521E+03  0.54577974522E+03  0.25500000920E-02 0.  1.
    10030    2    1    2    0    0  0.00000000000E+00  0.00000000000E+00  0.13038227448E+04  0.23953822352E+04  0.20094532348E+04 0.  0.
        4    1    3    3  502    0  0.44123480163E+03 -0.21039079840E+03 -0.39446833458E+03  0.62813956897E+03  0.12699999809E+01 0.  1.
       -4    1    3    3    0  502 -0.44123480163E+03  0.21039079840E+03  0.16982910794E+04  0.17672426662E+04  0.12699999809E+01 0. -1.
</event>
<event>
 5   0  0.7857136E-05  0.1989480E+04  0.7818609E-02  0.8611555E-01
        2   -1    0    0  501    0  0.00000000000E+00  0.00000000000E+00  0.16002013438E+04  0.16002013438E+04  0.25500000920E-02 0. -1.
       -2   -1    0    0    0  501  0.00000000000E+00  0.00000000000E+00 -0.61836447389E+03  0.61836447389E+03  0.25500000920E-02 0.  1.
    10030    2    1    2    0    0  0.00000000000E+00  0.00000000000E+00  0.98183686988E+03  0.22185658177E+04  0.19894799944E+04 0.  0.
        4    1    3    3  502    0 -0.63547292832E+03 -0.32957822757E+03 -0.27930816661E+03  0.76841545764E+03  0.12699999809E+01 0.  1.
       -4    1    3    3    0  502  0.63547292832E+03  0.32957822757E+03  0.12611450365E+04  0.14501503600E+04  0.12699999809E+01 0. -1.
</event>
<event>
 5   0  0.7843846E-05  0.2004082E+04  0.7818609E-02  0.8604714E-01
        2   -1    0    0  501    0  0.00000000000E+00  0.00000000000E+00  0.15361123035E+04  0.15361123035E+04  0.25500000920E-02 0.  1.
       -2   -1    0    0    0  501  0.00000000000E+00  0.00000000000E+00 -0.65365442088E+03  0.65365442089E+03  0.25500000920E-02 0. -1.
    10030    2    1    2    0    0  0.00000000000E+00  0.00000000000E+00  0.88245788266E+03  0.21897667244E+04  0.20040824316E+04 0.  0.
        2    1    3    3  502    0 -0.38926160725E+03  0.82221626592E+03 -0.17844530063E+02  0.90988054935E+03  0.25500000920E-02 0. -1.
       -2    1    3    3    0  502  0.38926160725E+03 -0.82221626592E+03  0.90030241272E+03  0.12798861751E+04  0.25500000920E-02 0.  1.
</event>
<event>
 5   0  0.3549426E-05  0.1990734E+04  0.7818609E-02  0.8610965E-01
        1   -1    0    0  501    0  0.00000000000E+00  0.00000000000E+00  0.90810578656E+03  0.90810578658E+03  0.50400001928E-02 0. -1.
       -1   -1    0    0    0  501  0.00000000000E+00  0.00000000000E+00 -0.10910131966E+04  0.10910131966E+04  0.50400001928E-02 0.  1.
    10030    2    1    2    0    0  0.00000000000E+00  0.00000000000E+00 -0.18290741001E+03  0.19991189832E+04  0.19907339320E+04 0.  0.
        5    1    3    3  502    0  0.56238996495E+03  0.53376174043E+03  0.53531399036E+03  0.94221400249E+03  0.46999998093E+01 0. -1.
       -5    1    3    3    0  502 -0.56238996495E+03 -0.53376174043E+03 -0.71822140037E+03  0.10569049807E+04  0.46999998093E+01 0.  1.
</event>
<event>
 5   0  0.7935008E-05  0.1991959E+04  0.7818609E-02  0.8610389E-01
       -2   -1    0    0    0  501  0.00000000000E+00  0.00000000000E+00  0.13064705404E+04  0.13064705404E+04  0.25500000920E-02 0. -1.
        2   -1    0    0  501    0  0.00000000000E+00  0.00000000000E+00 -0.75927843695E+03  0.75927843696E+03  0.25500000920E-02 0.  1.
    10030    2    1    2    0    0  0.00000000000E+00  0.00000000000E+00  0.54719210341E+03  0.20657489773E+04  0.19919587444E+04 0.  0.
        3    1    3    3  502    0  0.43160224004E+03 -0.19910380007E+03 -0.63407055057E+03  0.79244450286E+03  0.10100000352E+00 0.  1.
       -3    1    3    3    0  502 -0.43160224004E+03  0.19910380007E+03  0.11812626540E+04  0.12733044745E+04  0.10100000352E+00 0. -1.
</event>
<event>
 5   0  0.3549426E-05  0.2005508E+04  0.7818609E-02  0.8604050E-01
       -1   -1    0    0    0  501  0.00000000000E+00  0.00000000000E+00  0.11396594491E+04  0.11396594492E+04  0.50400001928E-02 0.  1.
        1   -1    0    0  501    0  0.00000000000E+00  0.00000000000E+00 -0.88229517906E+03  0.88229517907E+03  0.50400001928E-02 0. -1.
    10030    2    1    2    0    0  0.00000000000E+00  0.00000000000E+00  0.25736427009E+03  0.20219546282E+04  0.20055084520E+04 0.  0.
        5    1    3    3  502    0  0.13495562085E+03  0.71863217196E+03  0.82049337036E+03  0.10990344303E+04  0.46999998093E+01 0.  1.
       -5    1    3    3    0  502 -0.13495562085E+03 -0.71863217196E+03 -0.56312910028E+03  0.92292019793E+03  0.46999998093E+01 0. -1.
</event>
<event>
 5   0  0.3970042E-05  0.2000269E+04  0.7818609E-02  0.8606495E-01
       -1   -1    0    0    0  501  0.00000000000E+00  0.00000000000E+00  0.87018370106E+03  0.87018370107E+03  0.50400001928E-02 0. -1.
        1   -1    0    0  501    0  0.00000000000E+00  0.00000000000E+00 -0.11494913612E+04  0.11494913612E+04  0.50400001928E-02 0.  1.
    10030    2    1    2    0    0  0.00000000000E+00  0.00000000000E+00 -0.27930766011E+03  0.20196750623E+04  0.20002686290E+04 0.  0.
        3    1    3    3  502    0  0.56543885414E+03 -0.46824017035E+03 -0.82543299458E+03  0.11046762393E+04  0.10100000352E+00 0.  1.
       -3    1    3    3    0  502 -0.56543885414E+03  0.46824017035E+03  0.54612533447E+03  0.91499882297E+03  0.10100000352E+00 0. -1.
</event>
<event>
 5   0  0.2859625E-05  0.2047775E+04  0.7818609E-02  0.8584604E-01
        3   -1    0    0  501    0  0.00000000000E+00  0.00000000000E+00  0.17237136019E+04  0.17237136048E+04  0.10100000352E+00 0. -1.
       -3   -1    0    0    0  501  0.00000000000E+00  0.00000000000E+00 -0.60819013450E+03  0.60819014289E+03  0.10100000352E+00 0.  1.
    10030    2    1    2    0    0  0.00000000000E+00  0.00000000000E+00  0.11155234674E+04  0.23319037477E+04  0.20477750077E+04 0.  0.
        2    1    3    3  502    0  0.82269412701E+03 -0.57517400091E+03  0.78748139936E+03  0.12758439216E+04  0.25500000920E-02 0. -1.
       -2    1    3    3    0  502 -0.82269412701E+03  0.57517400091E+03  0.32804206800E+03  0.10560598261E+04  0.25500000920E-02 0.  1.
</event>
<event>
 5   0  0.7857136E-05  0.1986083E+04  0.7818609E-02  0.8613155E-01
       -2   -1    0    0    0  501  0.00000000000E+00  0.00000000000E+00  0.92389603942E+03  0.92389603943E+03  0.25500000920E-02 0.  1.
        2   -1    0    0  501    0  0.00000000000E+00  0.00000000000E+00 -0.10673614192E+04  0.10673614192E+04  0.25500000920E-02 0. -1.
    10030    2    1    2    0    0  0.00000000000E+00  0.00000000000E+00 -0.14346537976E+03  0.19912574586E+04  0.19860825641E+04 0.  0.
        4    1    3    3  502    0  0.78495044076E+03 -0.10757924389E+03  0.52849980273E+03  0.95238340102E+03  0.12699999809E+01 0.  1.
       -4    1    3    3    0  502 -0.78495044076E+03  0.10757924389E+03 -0.67196518250E+03  0.10388740576E+04  0.12699999809E+01 0. -1.
</event>
<event>
 5   0  0.3787698E-05  0.1955844E+04  0.7818609E-02  0.8627548E-01
       -1   -1    0    0    0  501  0.00000000000E+00  0.00000000000E+00  0.80252958880E+03  0.80252958882E+03  0.50400001928E-02 0. -1.
        1   -1    0    0  501    0  0.00000000000E+00  0.00000000000E+00 -0.11916469290E+04  0.11916469291E+04  0.50400001928E-02 0.  1.
    10030    2    1    2    0    0  0.00000000000E+00  0.00000000000E+00 -0.38911734024E+03  0.19941765179E+04  0.19558444928E+04 0.  0.
        4    1    3    3  502    0  0.77372877733E+03  0.57621273499E+02 -0.80150161796E+03  0.11155191117E+04  0.12699999809E+01 0.  1.
       -4    1    3    3    0  502 -0.77372877733E+03 -0.57621273499E+02  0.41238427772E+03  0.87865740619E+03  0.12699999809E+01 0. -1.
</event>
<event>
 5   0  0.3970042E-05  0.1986468E+04  0.7818609E-02  0.8612973E-01
       -1   -1    0    0    0  501  0.00000000000E+00  0.00000000000E+00  0.10090021578E+04  0.10090021578E+04  0.50400001928E-02 0.  1.
        1   -1    0    0  501    0  0.00000000000E+00  0.00000000000E+00 -0.97771260654E+03  0.97771260655E+03  0.50400001928E-02 0. -1.
    10030    2    1    2    0    0  0.00000000000E+00  0.00000000000E+00  0.31289551299E+02  0.19867147644E+04  0.19864683534E+04 0.  0.
        3    1    3    3  502    0 -0.63388953621E+03 -0.72806735980E+03  0.24937463158E+03  0.99703848552E+03  0.10100000352E+00 0. -1.
       -3    1    3    3    0  502  0.63388953621E+03  0.72806735980E+03 -0.21808508028E+03  0.98967627888E+03  0.10100000352E+00 0.  1.
</event>
<event>
 5   0  0.7843846E-05  0.2009941E+04  0.7818609E-02  0.8601987E-01
       -2   -1    0    0    0  501  0.00000000000E+00  0.00000000000E+00  0.94367476274E+03  0.94367476274E+03  0.25500000920E-02 0. -1.
        2   -1    0    0  501    0  0.00000000000E+00  0.00000000000E+00 -0.10702474076E+04  0.10702474076E+04  0.25500000920E-02 0.  1.
    10030    2    1    2    0    0  0.00000000000E+00  0.00000000000E+00 -0.12657264482E+03  0.20139221703E+04  0.20099407637E+04 0.  0.
        2    1    3    3  502    0 -0.94296521485E+02  0.39894426838E+03  0.85609164371E+03  0.94917925898E+03  0.25500000920E-02 0. -1.
       -2    1    3    3    0  502  0.94296521485E+02 -0.39894426838E+03 -0.98266428854E+03  0.10647429113E+04  0.25500000920E-02 0.  1.
</event>
<event>
 5   0  0.3970042E-05  0.2002694E+04  0.7818609E-02  0.8605362E-01
       -1   -1    0    0    0  501  0.00000000000E+00  0.00000000000E+00  0.92246413890E+03  0.92246413891E+03  0.50400001928E-02 0. -1.
        1   -1    0    0  501    0  0.00000000000E+00  0.00000000000E+00 -0.10869756028E+04  0.10869756028E+04  0.50400001928E-02 0.  1.
    10030    2    1    2    0    0  0.00000000000E+00  0.00000000000E+00 -0.16451146386E+03  0.20094397417E+04  0.20026941987E+04 0.  0.
        3    1    3    3  502    0  0.63951844466E+03 -0.57515313381E+02 -0.85322141718E+03  0.10678383067E+04  0.10100000352E+00 0.  1.
       -3    1    3    3    0  502 -0.63951844466E+03  0.57515313381E+02  0.68870995332E+03  0.94160143497E+03  0.10100000352E+00 0. -1.
</event>
<event>
 5   0  0.7857136E-05  0.1998324E+04  0.7818609E-02  0.8607405E-01
        2   -1    0    0  501    0  0.00000000000E+00  0.00000000000E+00  0.85695297011E+03  0.85695297012E+03  0.25500000920E-02 0.  1.
       -2   -1    0    0    0  501  0.00000000000E+00  0.00000000000E+00 -0.11649697375E+04  0.11649697375E+04  0.25500000920E-02 0. -1.
    10030    2    1    2    0    0  0.00000000000E+00  0.00000000000E+00 -0.30801676742E+03  0.20219227077E+04  0.19983235741E+04 0.  0.
        4    1    3    3  502    0 -0.22903582454E+03  0.31636289835E+03  0.77651520067E+03  0.86920674304E+03  0.12699999809E+01 0.  1.
       -4    1    3    3    0  502  0.22903582454E+03 -0.31636289835E+03 -0.10845319681E+04  0.11527159646E+04  0.12699999809E+01 0. -1.
</event>
<event>
 5   0  0.8022574E-05  0.1997115E+04  0.7818609E-02  0.8607971E-01
       -2   -1    0    0    0  501  0.00000000000E+00  0.00000000000E+00  0.59267592541E+03  0.59267592541E+03  0.25500000920E-02 0. -1.
        2   -1    0    0  501    0  0.00000000000E+00  0.00000000000E+00 -0.16823983177E+04  0.16823983177E+04  0.25500000920E-02 0.  1.
    10030    2    1    2    0    0  0.00000000000E+00  0.00000000000E+00 -0.10897223922E+04  0.22750742431E+04  0.19971148989E+04 0.  0.
        1    1    3    3  502    0 -0.45824760508E+03  0.13592085038E+03 -0.15436123628E+04  0.16159221738E+04  0.50400001928E-02 0.  1.
       -1    1    3    3    0  502  0.45824760508E+03 -0.13592085038E+03  0.45388997051E+03  0.65915206932E+03  0.50400001928E-02 0. -1.
</event>
<event>
 5   0  0.8022574E-05  0.1986154E+04  0.7818609E-02  0.8613121E-01
       -2   -1    0    0    0  501  0.00000000000E+00  0.00000000000E+00  0.66001766613E+03  0.66001766613E+03  0.25500000920E-02 0. -1.
        2   -1    0    0  501    0  0.00000000000E+00  0.00000000000E+00 -0.14942059559E+04  0.14942059559E+04  0.25500000920E-02 0.  1.
    10030    2    1    2    0    0  0.00000000000E+00  0.00000000000E+00 -0.83418828973E+03  0.21542236220E+04  0.19861544026E+04 0.  0.
        1    1    3    3  502    0 -0.49968323360E+03  0.83127902495E+03 -0.64843678108E+03  0.11666955088E+04  0.50400001928E-02 0.  1.
       -1    1    3    3    0  502  0.49968323360E+03 -0.83127902495E+03 -0.18575150865E+03  0.98752811315E+03  0.50400001928E-02 0. -1.
</event>
<event>
 5   0  0.7935008E-05  0.2003168E+04  0.7818609E-02  0.8605141E-01
       -2   -1    0    0    0  501  0.00000000000E+00  0.00000000000E+00  0.13242424867E+04  0.13242424867E+04  0.25500000920E-02 0. -1.
        2   -1    0    0  501    0  0.00000000000E+00  0.00000000000E+00 -0.75754285427E+03  0.75754285427E+03  0.25500000920E-02 0.  1.
    10030    2    1    2    0    0  0.00000000000E+00  0.00000000000E+00  0.56669963241E+03  0.20817853410E+04  0.20031679242E+04 0.  0.
        3    1    3    3  502    0 -0.30266020828E+03 -0.61958535748E+03 -0.47157621685E+03  0.83538814654E+03  0.10100000352E+00 0. -1.
       -3    1    3    3    0  502  0.30266020828E+03  0.61958535748E+03  0.10382758493E+04  0.12463971944E+04  0.10100000352E+00 0.  1.
</event>
<event>
 5   0  0.8011197E-05  0.1975389E+04  0.7818609E-02  0.8618214E-01
        2   -1    0    0  501    0  0.00000000000E+00  0.00000000000E+00  0.57898400672E+03  0.57898400673E+03  0.25500000920E-02 0. -1.
       -2   -1    0    0    0  501  0.00000000000E+00  0.00000000000E+00 -0.16849174653E+04  0.16849174653E+04  0.25500000920E-02 0.  1.
    10030    2    1    2    0    0  0.00000000000E+00  0.00000000000E+00 -0.11059334585E+04  0.22639014720E+04  0.19753888377E+04 0.  0.
        5    1    3    3  502    0 -0.41935927507E+03 -0.67778633035E+03  0.11554870300E+03  0.80537575327E+03  0.46999998093E+01 0. -1.
       -5    1    3    3    0  502  0.41935927507E+03  0.67778633035E+03 -0.12214821615E+04  0.14585257187E+04  0.46999998093E+01 0.  1.
</event>
<event>
 5   0  0.3970042E-05  0.2000909E+04  0.7818609E-02  0.8606196E-01
       -1   -1    0    0    0  501  0.00000000000E+00  0.00000000000E+00  0.74003348103E+03  0.74003348104E+03  0.50400001928E-02 0.  1.
        1   -1    0    0  501    0  0.00000000000E+00  0.00000000000E+00 -0.13525190476E+04  0.13525190476E+04  0.50400001928E-02 0. -1.
    10030    2    1    2    0    0  0.00000000000E+00  0.00000000000E+00 -0.61248556656E+03  0.20925525286E+04  0.20009091723E+04 0.  0.
        3    1    3    3  502    0 -0.88290395187E+03 -0.32303074892E+03  0.51538996714E+02  0.94155431673E+03  0.10100000352E+00 0.  1.
       -3    1    3    3    0  502  0.88290395187E+03  0.32303074892E+03 -0.66402456327E+03  0.11509982119E+04  0.10100000352E+00 0. -1.
</event>
<event>
 5   0  0.3787698E-05  0.1972132E+04  0.7818609E-02  0.8619762E-01
       -1   -1    0    0    0  501  0.00000000000E+00  0.00000000000E+00  0.10852738534E+04  0.10852738534E+04  0.50400001928E-02 0.  1.
        1   -1    0    0  501    0  0.00000000000E+00  0.00000000000E+00 -0.89592675254E+03  0.89592675255E+03  0.50400001928E-02 0. -1.
    10030    2    1    2    0    0  0.00000000000E+00  0.00000000000E+00  0.18934710087E+03  0.19812006060E+04  0.19721317189E+04 0.  0.
        4    1    3    3  502    0 -0.32133998649E+03 -0.32817620147E+03 -0.78190141325E+03  0.90682437057E+03  0.12699999809E+01 0. -1.
       -4    1    3    3    0  502  0.32133998649E+03  0.32817620147E+03  0.97124851411E+03  0.10743762354E+04  0.12699999809E+01 0.  1.
</event>
<event>
 5   0  0.7857136E-05  0.1994719E+04  0.7818609E-02  0.8609094E-01
        2   -1    0    0  501    0  0.00000000000E+00  0.00000000000E+00  0.15557155030E+04  0.15557155030E+04  0.25500000920E-02 0.  1.
       -2   -1    0    0    0  501  0.00000000000E+00  0.00000000000E+00 -0.63940069117E+03  0.63940069117E+03  0.25500000920E-02 0. -1.
    10030    2    1    2    0    0  0.00000000000E+00  0.00000000000E+00  0.91631481180E+03  0.21951161941E+04  0.19947185946E+04 0.  0.
        4    1    3    3  502    0 -0.43249171309E+03 -0.67881891360E+03  0.11062922274E+04  0.13681112179E+04  0.12699999809E+01 0.  1.
       -4    1    3    3    0  502  0.43249171309E+03  0.67881891360E+03 -0.18997741559E+03  0.82700497621E+03  0.12699999809E+01 0. -1.
</event>
<event>
 5   0  0.3970042E-05  0.1978076E+04  0.7818609E-02  0.8616940E-01
        1   -1    0    0  501    0  0.00000000000E+00  0.00000000000E+00  0.11537920323E+04  0.11537920323E+04  0.50400001928E-02 0.  1.
       -1   -1    0    0    0  501  0.00000000000E+00  0.00000000000E+00 -0.84781005586E+03  0.84781005588E+03  0.50400001928E-02 0. -1.
    10030    2    1    2    0    0  0.00000000000E+00  0.00000000000E+00  0.30598197640E+03  0.20016020881E+04  0.19780763255E+04 0.  0.
        3    1    3    3  502    0 -0.85094697289E+03 -0.38853346114E+03 -0.17196301740E+03  0.95112580170E+03  0.10100000352E+00 0. -1.
       -3    1    3    3    0  502  0.85094697289E+03  0.38853346114E+03  0.47794499380E+03  0.10504762865E+04  0.10100000352E+00 0.  1.
</event>
<event>
 5   0  0.3772949E-05  0.1996764E+04  0.7818609E-02  0.8608135E-01
       -1   -1    0    0    0  501  0.00000000000E+00  0.00000000000E+00  0.91152504741E+03  0.91152504743E+03  0.50400001928E-02 0. -1.
        1   -1    0    0  501    0  0.00000000000E+00  0.00000000000E+00 -0.10935153127E+04  0.10935153127E+04  0.50400001928E-02 0.  1.
    10030    2    1    2    0    0  0.00000000000E+00  0.00000000000E+00 -0.18199026529E+03  0.20050403601E+04  0.19967639793E+04 0.  0.
        2    1    3    3  502    0  0.61608925371E+03 -0.51136802664E+02 -0.87819968242E+03  0.10739718913E+04  0.25500000920E-02 0.  1.
       -2    1    3    3    0  502 -0.61608925371E+03  0.51136802664E+02  0.69620941714E+03  0.93106846882E+03  0.25500000920E-02 0. -1.
</event>
<event>
 5   0  0.3970042E-05  0.2028585E+04  0.7818609E-02  0.8593372E-01
       -1   -1    0    0    0  501  0.00000000000E+00  0.00000000000E+00  0.46927053608E+03  0.46927053611E+03  0.50400001928E-02 0.  1.
        1   -1    0    0  501    0  0.00000000000E+00  0.00000000000E+00 -0.21923164606E+04  0.21923164606E+04  0.50400001928E-02 0. -1.
    10030    2    1    2    0    0  0.00000000000E+00  0.00000000000E+00 -0.17230459245E+04  0.26615869967E+04  0.20285852418E+04 0.  0.
        3    1    3    3  502    0  0.87256738168E+03  0.47493940761E+03 -0.59312082313E+03  0.11570365584E+04  0.10100000352E+00 0. -1.
       -3    1    3    3    0  502 -0.87256738168E+03 -0.47493940761E+03 -0.11299251014E+04  0.15045504383E+04  0.10100000352E+00 0.  1.
</event>
<event>
 5   0  0.3970042E-05  0.2007574E+04  0.7818609E-02  0.8603088E-01
       -1   -1    0    0    0  501  0.00000000000E+00  0.00000000000E+00  0.63333039256E+03  0.63333039258E+03  0.50400001928E-02 0.  1.
        1   -1    0    0  501    0  0.00000000000E+00  0.00000000000E+00 -0.15909363546E+04  0.15909363546E+04  0.50400001928E-02 0. -1.
    10030    2    1    2    0    0  0.00000000000E+00  0.00000000000E+00 -0.95760596199E+03  0.22242667471E+04  0.20075740046E+04 0.  0.
        3    1    3    3  502    0 -0.21580863132E+03 -0.95789512326E+03 -0.24785205507E+03  0.10127028606E+04  0.10100000352E+00 0.  1.
       -3    1    3    3    0  502  0.21580863132E+03  0.95789512326E+03 -0.70975390692E+03  0.12115638865E+04  0.10100000352E+00 0. -1.
</event>
<event>
 5   0  0.3549426E-05  0.1956674E+04  0.7818609E-02  0.8627149E-01
       -1   -1    0    0    0  501  0.00000000000E+00  0.00000000000E+00  0.73976356082E+03  0.73976356083E+03  0.50400001928E-02 0. -1.
        1   -1    0    0  501    0  0.00000000000E+00  0.00000000000E+00 -0.12938502533E+04  0.12938502533E+04  0.50400001928E-02 0.  1.
    10030    2    1    2    0    0  0.00000000000E+00  0.00000000000E+00 -0.55408669244E+03  0.20336138141E+04  0.19566739846E+04 0.  0.
        5    1    3    3  502    0 -0.23425002866E+03 -0.92788315710E+03 -0.48820976828E+03  0.10743421694E+04  0.46999998093E+01 0.  1.
       -5    1    3    3    0  502  0.23425002866E+03  0.92788315710E+03 -0.65876924155E+02  0.95927164468E+03  0.46999998093E+01 0. -1.
</event>
<event>
 5   0  0.3772949E-05  0.2018687E+04  0.7818609E-02  0.8597933E-01
        1   -1    0    0  501    0  0.00000000000E+00  0.00000000000E+00  0.74186086338E+03  0.74186086340E+03  0.50400001928E-02 0.  1.
       -1   -1    0    0    0  501  0.00000000000E+00  0.00000000000E+00 -0.13732691980E+04  0.13732691981E+04  0.50400001928E-02 0. -1.
    10030    2    1    2    0    0  0.00000000000E+00  0.00000000000E+00 -0.63140833466E+03  0.21151300615E+04  0.20186873685E+04 0.  0.
        2    1    3    3  502    0  0.68406724421E+03 -0.60543442564E+02  0.45933856275E+03  0.82619938167E+03  0.25500000920E-02 0.  1.
       -2    1    3    3    0  502 -0.68406724421E+03  0.60543442564E+02 -0.10907468974E+04  0.12889306798E+04  0.25500000920E-02 0. -1.
</event>
<event>
 5   0  0.2859625E-05  0.1930056E+04  0.7818609E-02  0.8640038E-01
       -3   -1    0    0    0  501  0.00000000000E+00  0.00000000000E+00  0.87688983541E+03  0.87688984123E+03  0.10100000352E+00 0.  1.
        3   -1    0    0  501    0  0.00000000000E+00  0.00000000000E+00 -0.10620255676E+04  0.10620255724E+04  0.10100000352E+00 0. -1.
    10030    2    1    2    0    0  0.00000000000E+00  0.00000000000E+00 -0.18513573218E+03  0.19389154136E+04  0.19300564090E+04 0.  0.
        3    1    3    3  502    0  0.55927103100E+02  0.97331576578E+02 -0.10554442925E+04  0.10613971648E+04  0.10100000352E+00 0. -1.
       -3    1    3    3    0  502 -0.55927103100E+02 -0.97331576578E+02  0.87030856032E+03  0.87751824883E+03  0.10100000352E+00 0.  1.
</event>
<event>
 5   0  0.3772949E-05  0.2005186E+04  0.7818609E-02  0.8604200E-01
       -1   -1    0    0    0  501  0.00000000000E+00  0.00000000000E+00  0.87341553164E+03  0.87341553165E+03  0.50400001928E-02 0. -1.
        1   -1    0    0  501    0  0.00000000000E+00  0.00000000000E+00 -0.11508761464E+04  0.11508761464E+04  0.50400001928E-02 0.  1.
    10030    2    1    2    0    0  0.00000000000E+00  0.00000000000E+00 -0.27746061475E+03  0.20242916781E+04  0.20051863766E+04 0.  0.
        2    1    3    3  502    0 -0.56421556105E+03 -0.67270846753E+03  0.34994505887E+03  0.94516529022E+03  0.25500000920E-02 0. -1.
       -2    1    3    3    0  502  0.56421556105E+03  0.67270846753E+03 -0.62740567363E+03  0.10791263878E+04  0.25500000920E-02 0.  1.
</event>
<event>
 5   0  0.8011197E-05  0.2016994E+04  0.7818609E-02  0.8598716E-01
       -2   -1    0    0    0  501  0.00000000000E+00  0.00000000000E+00  0.51576826683E+03  0.51576826684E+03  0.25500000920E-02 0.  1.
        2   -1    0    0  501    0  0.00000000000E+00  0.00000000000E+00 -0.19719439538E+04  0.19719439538E+04  0.25500000920E-02 0. -1.
    10030    2    1    2    0    0  0.00000000000E+00  0.00000000000E+00 -0.14561756869E+04  0.24877122206E+04  0.20169939170E+04 0.  0.
        5    1    3    3  502    0  0.98736037496E+03  0.78438957011E+02 -0.49403592287E+03  0.11068544453E+04  0.46999998093E+01 0. -1.
       -5    1    3    3    0  502 -0.98736037496E+03 -0.78438957011E+02 -0.96213976405E+03  0.13808577753E+04  0.46999998093E+01 0.  1.
</event>
<event>
 5   0  0.3970042E-05  0.1999176E+04  0.7818609E-02  0.8607006E-01
        1   -1    0    0  501    0  0.00000000000E+00  0.00000000000E+00  0.10278846049E+04  0.10278846049E+04  0.50400001928E-02 0. -1.
       -1   -1    0    0    0  501  0.00000000000E+00  0.00000000000E+00 -0.97207019467E+03  0.97207019468E+03  0.50400001928E-02 0.  1.
    10030    2    1    2    0    0  0.00000000000E+00  0.00000000000E+00  0.55814410225E+02  0.19999547996E+04  0.19991758182E+04 0.  0.
        3    1    3    3  502    0  0.54276906619E+03  0.54803610077E+03  0.66394905352E+03  0.10177279513E+04  0.10100000352E+00 0. -1.
       -3    1    3    3    0  502 -0.54276906619E+03 -0.54803610077E+03 -0.60813464330E+03  0.98222684831E+03  0.10100000352E+00 0.  1.
</event>
<event>
 5   0  0.8011197E-05  0.1992921E+04  0.7818609E-02  0.8609938E-01
        2   -1    0    0  501    0  0.00000000000E+00  0.00000000000E+00  0.16667985336E+04  0.16667985336E+04  0.25500000920E-02 0. -1.
       -2   -1    0    0    0  501  0.00000000000E+00  0.00000000000E+00 -0.59571286389E+03  0.59571286389E+03  0.25500000920E-02 0.  1.
    10030    2    1    2    0    0  0.00000000000E+00  0.00000000000E+00  0.10710856697E+04  0.22625113975E+04  0.19929207992E+04 0.  0.
        5    1    3    3  502    0 -0.67565180610E+03 -0.60757535216E+03  0.99983811811E+03  0.13510557072E+04  0.46999998093E+01 0. -1.
       -5    1    3    3    0  502  0.67565180610E+03  0.60757535216E+03  0.71247551570E+02  0.91145569022E+03  0.46999998093E+01 0.  1.
</event>
<event>
 5   0  0.3970042E-05  0.1997321E+04  0.7818609E-02  0.8607874E-01
        1   -1    0    0  501    0  0.00000000000E+00  0.00000000000E+00  0.15302963184E+04  0.15302963184E+04  0.50400001928E-02 0. -1.
       -1   -1    0    0    0  501  0.00000000000E+00  0.00000000000E+00 -0.65171857080E+03  0.65171857082E+03  0.50400001928E-02 0.  1.
    10030    2    1    2    0    0  0.00000000000E+00  0.00000000000E+00  0.87857774762E+03  0.21820148893E+04  0.19973207350E+04 0.  0.
        3    1    3    3  502    0  0.99677153460E+03  0.57490532605E+02  0.41575973136E+03  0.10815335492E+04  0.10100000352E+00 0. -1.
       -3    1    3    3    0  502 -0.99677153460E+03 -0.57490532605E+02  0.46281801626E+03  0.11004813401E+04  0.10100000352E+00 0.  1.
</event>
<event>
 5   0  0.7857136E-05  0.2004824E+04  0.7818609E-02  0.8604369E-01
       -2   -1    0    0    0  501  0.00000000000E+00  0.00000000000E+00  0.14409486982E+04  0.14409486982E+04  0.25500000920E-02 0.  1.
        2   -1    0    0  501    0  0.00000000000E+00  0.00000000000E+00 -0.69733898729E+03  0.69733898730E+03  0.25500000920E-02 0. -1.
    10030    2    1    2    0    0  0.00000000000E+00  0.00000000000E+00  0.74360971094E+03  0.21382876855E+04  0.20048238885E+04 0.  0.
        4    1    3    3  502    0 -0.72515242385E+02  0.62650391750E+03  0.12028155255E+04  0.13581356413E+04  0.12699999809E+01 0.  1.
       -4    1    3    3    0  502  0.72515242385E+02 -0.62650391750E+03 -0.45920581456E+03  0.78015204418E+03  0.12699999809E+01 0. -1.
</event>
<event>
 5   0  0.3787698E-05  0.1976256E+04  0.7818609E-02  0.8617803E-01
       -1   -1    0    0    0  501  0.00000000000E+00  0.00000000000E+00  0.81116339275E+03  0.81116339277E+03  0.50400001928E-02 0.  1.
        1   -1    0    0  501    0  0.00000000000E+00  0.00000000000E+00 -0.12037000063E+04  0.12037000064E+04  0.50400001928E-02 0. -1.
    10030    2    1    2    0    0  0.00000000000E+00  0.00000000000E+00 -0.39253661359E+03  0.20148633991E+04  0.19762564419E+04 0.  0.
        4    1    3    3  502    0 -0.56173400817E+03 -0.36298857135E+03 -0.93786378524E+03  0.11519096716E+04  0.12699999809E+01 0. -1.
       -4    1    3    3    0  502  0.56173400817E+03  0.36298857135E+03  0.54532717165E+03  0.86295372756E+03  0.12699999809E+01 0.  1.
</event>
<event>
 5   0  0.7857136E-05  0.2003629E+04  0.7818609E-02  0.8604926E-01
       -2   -1    0    0    0  501  0.00000000000E+00  0.00000000000E+00  0.95931693378E+03  0.95931693378E+03  0.25500000920E-02 0. -1.
        2   -1    0    0  501    0  0.00000000000E+00  0.00000000000E+00 -0.10461942214E+04  0.10461942214E+04  0.25500000920E-02 0.  1.
    10030    2    1    2    0    0  0.00000000000E+00  0.00000000000E+00 -0.86877287616E+02  0.20055111552E+04  0.20036285410E+04 0.  0.
        4    1    3    3  502    0 -0.42298557017E+03  0.63774379436E+03  0.60369515188E+03  0.97472221126E+03  0.12699999809E+01 0. -1.
       -4    1    3    3    0  502  0.42298557017E+03 -0.63774379436E+03 -0.69057243950E+03  0.10307889439E+04  0.12699999809E+01 0.  1.
</event>
<event>
 5   0  0.7843846E-05  0.1972261E+04  0.7818609E-02  0.8619700E-01
        2   -1    0    0  501    0  0.00000000000E+00  0.00000000000E+00  0.13801455361E+04  0.13801455361E+04  0.25500000920E-02 0. -1.
       -2   -1    0    0    0  501  0.00000000000E+00  0.00000000000E+00 -0.70460199493E+03  0.70460199493E+03  0.25500000920E-02 0.  1.
    10030    2    1    2    0    0  0.00000000000E+00  0.00000000000E+00  0.67554354115E+03  0.20847475310E+04  0.19722609341E+04 0.  0.
        2    1    3    3  502    0  0.58352134605E+03  0.64914071872E+03  0.82282554152E+03  0.11995510434E+04  0.25500000920E-02 0. -1.
       -2    1    3    3    0  502 -0.58352134605E+03 -0.64914071872E+03 -0.14728200037E+03  0.88519648759E+03  0.25500000920E-02 0.  1.
</event>
<event>
 5   0  0.3818907E-05  0.1996761E+04  0.7818609E-02  0.8608136E-01
       -1   -1    0    0    0  501  0.00000000000E+00  0.00000000000E+00  0.14779983435E+04  0.14779983435E+04  0.50400001928E-02 0.  1.
        1   -1    0    0  501    0  0.00000000000E+00  0.00000000000E+00 -0.67440112634E+03  0.67440112636E+03  0.50400001928E-02 0. -1.
    10030    2    1    2    0    0  0.00000000000E+00  0.00000000000E+00  0.80359721716E+03  0.21523994699E+04  0.19967611250E+04 0.  0.
        1    1    3    3  502    0  0.52441709965E+03  0.14862109691E+03 -0.49985759761E+03  0.73956686159E+03  0.50400001928E-02 0. -1.
       -1    1    3    3    0  502 -0.52441709965E+03 -0.14862109691E+03  0.13034548148E+04  0.14128326083E+04  0.50400001928E-02 0.  1.
</event>
<event>
 5   0  0.2859625E-05  0.2001377E+04  0.7818609E-02  0.8605977E-01
       -3   -1    0    0    0  501  0.00000000000E+00  0.00000000000E+00  0.67043572882E+03  0.67043573643E+03  0.10100000352E+00 0.  1.
        3   -1    0    0  501    0  0.00000000000E+00  0.00000000000E+00 -0.14936212798E+04  0.14936212832E+04  0.10100000352E+00 0. -1.
    10030    2    1    2    0    0  0.00000000000E+00  0.00000000000E+00 -0.82318555097E+03  0.21640570196E+04  0.20013766095E+04 0.  0.
        4    1    3    3  502    0  0.98384159786E+03 -0.83962000889E+02 -0.23596623717E+03  0.10152219389E+04  0.12699999809E+01 0. -1.
       -4    1    3    3    0  502 -0.98384159786E+03  0.83962000889E+02 -0.58721931380E+03  0.11488350807E+04  0.12699999809E+01 0.  1.
</event>
<event>
 5   0  0.3818907E-05  0.1996911E+04  0.7818609E-02  0.8608066E-01
       -1   -1    0    0    0  501  0.00000000000E+00  0.00000000000E+00  0.86195502361E+03  0.86195502363E+03  0.50400001928E-02 0. -1.
        1   -1    0    0  501    0  0.00000000000E+00  0.00000000000E+00 -0.11565727963E+04  0.11565727963E+04  0.50400001928E-02 0.  1.
    10030    2    1    2    0    0  0.00000000000E+00  0.00000000000E+00 -0.29461777265E+03  0.20185278199E+04  0.19969113470E+04 0.  0.
        1    1    3    3  502    0 -0.47377096141E+03  0.36698018304E+03 -0.95456533490E+03  0.11270884425E+04  0.50400001928E-02 0.  1.
       -1    1    3    3    0  502  0.47377096141E+03 -0.36698018304E+03  0.65994756225E+03  0.89143937739E+03  0.50400001928E-02 0. -1.
</event>
<event>
 5   0  0.8011197E-05  0.2004935E+04  0.7818609E-02  0.8604317E-01
       -2   -1    0    0    0  501  0.00000000000E+00  0.00000000000E+00  0.22890020697E+04  0.22890020697E+04  0.25500000920E-02 0. -1.
        2   -1    0    0  501    0  0.00000000000E+00  0.00000000000E+00 -0.43903028579E+03  0.43903028580E+03  0.25500000920E-02 0.  1.
    10030    2    1    2    0    0  0.00000000000E+00  0.00000000000E+00  0.18499717839E+04  0.27280323555E+04  0.20049351439E+04 0.  0.
        5    1    3    3  502    0 -0.52561897949E+03 -0.50038714537E+01 -0.23646104391E+03  0.57639939765E+03  0.46999998093E+01 0.  1.
       -5    1    3    3    0  502  0.52561897949E+03  0.50038714537E+01  0.20864328278E+04  0.21516329579E+04  0.46999998093E+01 0. -1.
</event>
<event>
 5   0  0.7935008E-05  0.2008434E+04  0.7818609E-02  0.8602688E-01
       -2   -1    0    0    0  501  0.00000000000E+00  0.00000000000E+00  0.75766671625E+03  0.75766671625E+03  0.25500000920E-02 0. -1.
        2   -1    0    0  501    0  0.00000000000E+00  0.00000000000E+00 -0.13309966390E+04  0.13309966390E+04  0.25500000920E-02 0.  1.
    10030    2    1    2    0    0  0.00000000000E+00  0.00000000000E+00 -0.57332992271E+03  0.20886633552E+04  0.20084340694E+04 0.  0.
        3    1    3    3  502    0  0.12728645302E+03 -0.33323529760E+03 -0.12628882323E+04  0.13123011477E+04  0.10100000352E+00 0.  1.
       -3    1    3    3    0  502 -0.12728645302E+03  0.33323529760E+03  0.68955830962E+03  0.77636220752E+03  0.10100000352E+00 0. -1.
</event>
<event>
 5   0  0.7935008E-05  0.1990731E+04  0.7818609E-02  0.8610967E-01
        2   -1    0    0  501    0  0.00000000000E+00  0.00000000000E+00  0.15775685732E+04  0.15775685732E+04  0.25500000920E-02 0. -1.
       -2   -1    0    0    0  501  0.00000000000E+00  0.00000000000E+00 -0.62802490223E+03  0.62802490223E+03  0.25500000920E-02 0.  1.
    10030    2    1    2    0    0  0.00000000000E+00  0.00000000000E+00  0.94954367093E+03  0.22055934754E+04  0.19907308697E+04 0.  0.
        3    1    3    3  502    0 -0.94955016559E+02 -0.63786616642E+03 -0.36525847896E+03  0.74115009821E+03  0.10100000352E+00 0.  1.
       -3    1    3    3    0  502  0.94955016559E+02  0.63786616642E+03  0.13148021499E+04  0.14644433772E+04  0.10100000352E+00 0. -1.
</event>
<event>
 5   0  0.3772949E-05  0.1997224E+04  0.7818609E-02  0.8607920E-01
       -1   -1    0    0    0  501  0.00000000000E+00  0.00000000000E+00  0.53704402878E+03  0.53704402881E+03  0.50400001928E-02 0.  1.
        1   -1    0    0  501    0  0.00000000000E+00  0.00000000000E+00 -0.18568787780E+04  0.18568787780E+04  0.50400001928E-02 0. -1.
    10030    2    1    2    0    0  0.00000000000E+00  0.00000000000E+00 -0.13198347492E+04  0.23939228068E+04  0.19972237330E+04 0.  0.
        2    1    3    3  502    0 -0.29158663762E+03  0.77427590117E+02  0.48111334439E+03  0.56788013622E+03  0.25500000920E-02 0.  1.
       -2    1    3    3    0  502  0.29158663762E+03 -0.77427590117E+02 -0.18009480936E+04  0.18260426706E+04  0.25500000920E-02 0. -1.
</event>
<event>
 5   0  0.7857136E-05  0.1987178E+04  0.7818609E-02  0.8612639E-01
        2   -1    0    0  501    0  0.00000000000E+00  0.00000000000E+00  0.21778415131E+04  0.21778415131E+04  0.25500000920E-02 0. -1.
       -2   -1    0    0    0  501  0.00000000000E+00  0.00000000000E+00 -0.45330147539E+03  0.45330147540E+03  0.25500000920E-02 0.  1.
    10030    2    1    2    0    0  0.00000000000E+00  0.00000000000E+00  0.17245400377E+04  0.26311429885E+04  0.19871776680E+04 0.  0.
        4    1    3    3  502    0  0.75573042144E+03 -0.26230499565E+03  0.81989747927E+02  0.80414943406E+03  0.12699999809E+01 0.  1.
       -4    1    3    3    0  502 -0.75573042144E+03  0.26230499565E+03  0.16425502898E+04  0.18269935545E+04  0.12699999809E+01 0. -1.
</event>
<event>
 5   0  0.3818907E-05  0.2031025E+04  0.7818609E-02  0.8592251E-01
       -1   -1    0    0    0  501  0.00000000000E+00  0.00000000000E+00  0.88636416576E+03  0.88636416578E+03  0.50400001928E-02 0.  1.
        1   -1    0    0  501    0  0.00000000000E+00  0.00000000000E+00 -0.11634786802E+04  0.11634786802E+04  0.50400001928E-02 0. -1.
    10030    2    1    2    0    0  0.00000000000E+00  0.00000000000E+00 -0.27711451446E+03  0.20498428460E+04  0.20310251695E+04 0.  0.
        1    1    3    3  502    0  0.92672398042E+03 -0.69419267885E+02 -0.55177637590E+03  0.10807837617E+04  0.50400001928E-02 0. -1.
       -1    1    3    3    0  502 -0.92672398042E+03  0.69419267885E+02  0.27466186144E+03  0.96905908426E+03  0.50400001928E-02 0.  1.
</event>
<event>
 5   0  0.7935008E-05  0.1995496E+04  0.7818609E-02  0.8608729E-01
       -2   -1    0    0    0  501  0.00000000000E+00  0.00000000000E+00  0.10148852934E+04  0.10148852934E+04  0.25500000920E-02 0. -1.
        2   -1    0    0  501    0  0.00000000000E+00  0.00000000000E+00 -0.98090051878E+03  0.98090051879E+03  0.25500000920E-02 0.  1.
    10030    2    1    2    0    0  0.00000000000E+00  0.00000000000E+00  0.33984774622E+02  0.19957858122E+04  0.19954964403E+04 0.  0.
        3    1    3    3  502    0  0.53843078692E+03  0.11412276431E+03 -0.81533606953E+03  0.98371979451E+03  0.10100000352E+00 0.  1.
       -3    1    3    3    0  502 -0.53843078692E+03 -0.11412276431E+03  0.84932084415E+03  0.10120660177E+04  0.10100000352E+00 0. -1.
</event>
<event>
 5   0  0.3818907E-05  0.1970305E+04  0.7818609E-02  0.8620631E-01
       -1   -1    0    0    0  501  0.00000000000E+00  0.00000000000E+00  0.65220556418E+03  0.65220556420E+03  0.50400001928E-02 0. -1.
        1   -1    0    0  501    0  0.00000000000E+00  0.00000000000E+00 -0.14880667302E+04  0.14880667302E+04  0.50400001928E-02 0.  1.
    10030    2    1    2    0    0  0.00000000000E+00  0.00000000000E+00 -0.83586116606E+03  0.21402722944E+04  0.19703049524E+04 0.  0.
        1    1    3    3  502    0  0.78727927516E+03 -0.38599252087E+03  0.69953979879E+02  0.87959788687E+03  0.50400001928E-02 0. -1.
       -1    1    3    3    0  502 -0.78727927516E+03  0.38599252087E+03 -0.90581514594E+03  0.12606744076E+04  0.50400001928E-02 0.  1.
</event>
<event>
 5   0  0.8011197E-05  0.2008326E+04  0.7818609E-02  0.8602738E-01
        2   -1    0    0  501    0  0.00000000000E+00  0.00000000000E+00  0.22039705520E+04  0.22039705520E+04  0.25500000920E-02 0.  1.
       -2   -1    0    0    0  501  0.00000000000E+00  0.00000000000E+00 -0.45751214708E+03  0.45751214709E+03  0.25500000920E-02 0. -1.
    10030    2    1    2    0    0  0.00000000000E+00  0.00000000000E+00  0.17464584049E+04  0.26614826991E+04  0.20083259689E+04 0.  0.
        5    1    3    3  502    0 -0.17759748568E+03  0.55007882129E+03  0.19613616645E+04  0.20447711964E+04  0.46999998093E+01 0.  1.
       -5    1    3    3    0  502  0.17759748568E+03 -0.55007882129E+03 -0.21490325961E+03  0.61671150268E+03  0.46999998093E+01 0. -1.
</event>
<event>
 5   0  0.2859625E-05  0.2032260E+04  0.7818609E-02  0.8591685E-01
       -3   -1    0    0    0  501  0.00000000000E+00  0.00000000000E+00  0.11632036787E+04  0.11632036831E+04  0.10100000352E+00 0.  1.
        3   -1    0    0  501    0  0.00000000000E+00  0.00000000000E+00 -0.88765187206E+03  0.88765187780E+03  0.10100000352E+00 0. -1.
    10030    2    1    2    0    0  0.00000000000E+00  0.00000000000E+00  0.27555180667E+03  0.20508555609E+04  0.20322597604E+04 0.  0.
        1    1    3    3  502    0  0.76792297979E+03 -0.57358792707E+03 -0.20267007321E+03  0.97968564937E+03  0.50400001928E-02 0. -1.
       -1    1    3    3    0  502 -0.76792297979E+03  0.57358792707E+03  0.47822187987E+03  0.10711699115E+04  0.50400001928E-02 0.  1.
</event>
<event>
 5   0  0.3787698E-05  0.1991206E+04  0.7818609E-02  0.8610743E-01
       -1   -1    0    0    0  501  0.00000000000E+00  0.00000000000E+00  0.86306511629E+03  0.86306511631E+03  0.50400001928E-02 0. -1.
        1   -1    0    0  501    0  0.00000000000E+00  0.00000000000E+00 -0.11484945127E+04  0.11484945127E+04  0.50400001928E-02 0.  1.
    10030    2    1    2    0    0  0.00000000000E+00  0.00000000000E+00 -0.28542939643E+03  0.20115596290E+04  0.19912062176E+04 0.  0.
        4    1    3    3  502    0 -0.39960012506E+03  0.90784913808E+03 -0.22934448768E+03  0.10180721116E+04  0.12699999809E+01 0. -1.
       -4    1    3    3    0  502  0.39960012506E+03 -0.90784913808E+03 -0.56084908744E+02  0.99348751746E+03  0.12699999809E+01 0.  1.
</event>
<event>
 5   0  0.7843846E-05  0.2001027E+04  0.7818609E-02  0.8606141E-01
       -2   -1    0    0    0  501  0.00000000000E+00  0.00000000000E+00  0.94147687818E+03  0.94147687819E+03  0.25500000920E-02 0. -1.
        2   -1    0    0  501    0  0.00000000000E+00  0.00000000000E+00 -0.10632516157E+04  0.10632516157E+04  0.25500000920E-02 0.  1.
    10030    2    1    2    0    0  0.00000000000E+00  0.00000000000E+00 -0.12177473750E+03  0.20047284939E+04  0.20010265484E+04 0.  0.
        2    1    3    3  502    0  0.61911183542E+02  0.83972808356E+03 -0.60230417960E+03  0.10352519373E+04  0.25500000920E-02 0.  1.
       -2    1    3    3    0  502 -0.61911183542E+02 -0.83972808356E+03  0.48052944210E+03  0.96947655655E+03  0.25500000920E-02 0. -1.
</event>
<event>
 5   0  0.7935008E-05  0.2005667E+04  0.7818609E-02  0.8603976E-01
        2   -1    0    0  501    0  0.00000000000E+00  0.00000000000E+00  0.14774556619E+04  0.14774556619E+04  0.25500000920E-02 0. -1.
       -2   -1    0    0    0  501  0.00000000000E+00  0.00000000000E+00 -0.68068060847E+03  0.68068060847E+03  0.25500000920E-02 0.  1.
    10030    2    1    2    0    0  0.00000000000E+00  0.00000000000E+00  0.79677505339E+03  0.21581362703E+04  0.20056673891E+04 0.  0.
        3    1    3    3  502    0 -0.86870145934E+03  0.31575016277E+03 -0.20203261597E+02  0.92452613415E+03  0.10100000352E+00 0. -1.
       -3    1    3    3    0  502  0.86870145934E+03 -0.31575016277E+03  0.81697831498E+03  0.12336101362E+04  0.10100000352E+00 0.  1.
</event>
<event>
 5   0  0.3549426E-05  0.2006320E+04  0.7818609E-02  0.8603672E-01
       -1   -1    0    0    0  501  0.00000000000E+00  0.00000000000E+00  0.77609441723E+03  0.77609441725E+03  0.50400001928E-02 0. -1.
        1   -1    0    0  501    0  0.00000000000E+00  0.00000000000E+00 -0.12966590749E+04  0.12966590749E+04  0.50400001928E-02 0.  1.
    10030    2    1    2    0    0  0.00000000000E+00  0.00000000000E+00 -0.52056465765E+03  0.20727534921E+04  0.20063198839E+04 0.  0.
        5    1    3    3  502    0 -0.89863553262E+03  0.43708352435E+03 -0.16950973199E+03  0.10135795317E+04  0.46999998093E+01 0.  1.
       -5    1    3    3    0  502  0.89863553262E+03 -0.43708352435E+03 -0.35105492566E+03  0.10591739605E+04  0.46999998093E+01 0. -1.
</event>
<event>
 5   0  0.8011197E-05  0.2021340E+04  0.7818609E-02  0.8596708E-01
        2   -1    0    0  501    0  0.00000000000E+00  0.00000000000E+00  0.14872779874E+04  0.14872779874E+04  0.25500000920E-02 0.  1.
       -2   -1    0    0    0  501  0.00000000000E+00  0.00000000000E+00 -0.68679404969E+03  0.68679404970E+03  0.25500000920E-02 0. -1.
    10030    2    1    2    0    0  0.00000000000E+00  0.00000000000E+00  0.80048393769E+03  0.21740720371E+04  0.20213398249E+04 0.  0.
        5    1    3    3  502    0 -0.69114400131E+03  0.73015724409E+03  0.51109223259E+03  0.11278506071E+04  0.46999998093E+01 0. -1.
       -5    1    3    3    0  502  0.69114400131E+03 -0.73015724409E+03  0.28939170510E+03  0.10462214300E+04  0.46999998093E+01 0.  1.
</event>
<event>
 5   0  0.7857136E-05  0.1991000E+04  0.7818609E-02  0.8610840E-01
        2   -1    0    0  501    0  0.00000000000E+00  0.00000000000E+00  0.93878851672E+03  0.93878851672E+03  0.25500000920E-02 0. -1.
       -2   -1    0    0    0  501  0.00000000000E+00  0.00000000000E+00 -0.10556371378E+04  0.10556371378E+04  0.25500000920E-02 0.  1.
    10030    2    1    2    0    0  0.00000000000E+00  0.00000000000E+00 -0.11684862104E+03  0.19944256545E+04  0.19909997717E+04 0.  0.
        4    1    3    3  502    0  0.92869265782E+03 -0.43313210655E+02 -0.41494727504E+03  0.10181006536E+04  0.12699999809E+01 0.  1.
       -4    1    3    3    0  502 -0.92869265782E+03  0.43313210655E+02  0.29809865401E+03  0.97632500087E+03  0.12699999809E+01 0. -1.
</event>
<event>
 5   0  0.7843846E-05  0.2000531E+04  0.7818609E-02  0.8606373E-01
        2   -1    0    0  501    0  0.00000000000E+00  0.00000000000E+00  0.84343154884E+03  0.84343154884E+03  0.25500000920E-02 0. -1.
       -2   -1    0    0    0  501  0.00000000000E+00  0.00000000000E+00 -0.11862617419E+04  0.11862617419E+04  0.25500000920E-02 0.  1.
    10030    2    1    2    0    0  0.00000000000E+00  0.00000000000E+00 -0.34283019303E+03  0.20296932907E+04  0.20005305079E+04 0.  0.
        2    1    3    3  502    0  0.79566674805E+03  0.20718429256E+03  0.40655551011E+03  0.91722313961E+03  0.25500000920E-02 0. -1.
       -2    1    3    3    0  502 -0.79566674805E+03 -0.20718429256E+03 -0.74938570314E+03  0.11124701511E+04  0.25500000920E-02 0.  1.
</event>
<event>
 5   0  0.3772949E-05  0.1980141E+04  0.7818609E-02  0.8615962E-01
        1   -1    0    0  501    0  0.00000000000E+00  0.00000000000E+00  0.66444005151E+03  0.66444005152E+03  0.50400001928E-02 0.  1.
       -1   -1    0    0    0  501  0.00000000000E+00  0.00000000000E+00 -0.14752870132E+04  0.14752870132E+04  0.50400001928E-02 0. -1.
    10030    2    1    2    0    0  0.00000000000E+00  0.00000000000E+00 -0.81084696167E+03  0.21397270647E+04  0.19801411859E+04 0.  0.
        2    1    3    3  502    0 -0.74682690236E+02  0.75035637931E+03 -0.10987127135E+04  0.13325846416E+04  0.25500000920E-02 0. -1.
       -2    1    3    3    0  502  0.74682690236E+02 -0.75035637931E+03  0.28786575179E+03  0.80714242315E+03  0.25500000920E-02 0.  1.
</event>
<event>
 5   0  0.7843846E-05  0.1967618E+04  0.7818609E-02  0.8621912E-01
       -2   -1    0    0    0  501  0.00000000000E+00  0.00000000000E+00  0.92954237561E+03  0.92954237562E+03  0.25500000920E-02 0. -1.
        2   -1    0    0  501    0  0.00000000000E+00  0.00000000000E+00 -0.10412432521E+04  0.10412432521E+04  0.25500000920E-02 0.  1.
    10030    2    1    2    0    0  0.00000000000E+00  0.00000000000E+00 -0.11170087651E+03  0.19707856277E+04  0.19676175707E+04 0.  0.
        2    1    3    3  502    0  0.50046843535E+03  0.30636458684E+03  0.73507394928E+03  0.94056452504E+03  0.25500000920E-02 0. -1.
       -2    1    3    3    0  502 -0.50046843535E+03 -0.30636458684E+03 -0.84677482579E+03  0.10302211027E+04  0.25500000920E-02 0.  1.
</event>
<event>
 5   0  0.8011197E-05  0.1985019E+04  0.7818609E-02  0.8613657E-01
        2   -1    0    0  501    0  0.00000000000E+00  0.00000000000E+00  0.72420098278E+03  0.72420098278E+03  0.25500000920E-02 0.  1.
       -2   -1    0    0    0  501  0.00000000000E+00  0.00000000000E+00 -0.13602235913E+04  0.13602235913E+04  0.25500000920E-02 0. -1.
    10030    2    1    2    0    0  0.00000000000E+00  0.00000000000E+00 -0.63602260850E+03  0.20844245741E+04  0.19850191552E+04 0.  0.
        5    1    3    3  502    0 -0.96041999163E+03  0.83774318776E+02 -0.56567939657E+03  0.11177835061E+04  0.46999998093E+01 0. -1.
       -5    1    3    3    0  502  0.96041999163E+03 -0.83774318776E+02 -0.70343211927E+02  0.96664106796E+03  0.46999998093E+01 0.  1.
</event>
<event>
 5   0  0.7857136E-05  0.1952396E+04  0.7818609E-02  0.8629206E-01
        2   -1    0    0  501    0  0.00000000000E+00  0.00000000000E+00  0.56243591205E+03  0.56243591206E+03  0.25500000920E-02 0.  1.
       -2   -1    0    0    0  501  0.00000000000E+00  0.00000000000E+00 -0.16943482950E+04  0.16943482950E+04  0.25500000920E-02 0. -1.
    10030    2    1    2    0    0  0.00000000000E+00  0.00000000000E+00 -0.11319123830E+04  0.22567842071E+04  0.19523957884E+04 0.  0.
        4    1    3    3  502    0 -0.55647343918E+03  0.37850250188E+03  0.25141982193E+03  0.71842910033E+03  0.12699999809E+01 0.  1.
       -4    1    3    3    0  502  0.55647343918E+03 -0.37850250188E+03 -0.13833322049E+04  0.15383551067E+04  0.12699999809E+01 0. -1.
</event>
<event>
 5   0  0.7843846E-05  0.2010609E+04  0.7818609E-02  0.8601677E-01
        2   -1    0    0  501    0  0.00000000000E+00  0.00000000000E+00  0.10277774722E+04  0.10277774722E+04  0.25500000920E-02 0.  1.
       -2   -1    0    0    0  501  0.00000000000E+00  0.00000000000E+00 -0.98332256818E+03  0.98332256818E+03  0.25500000920E-02 0. -1.
    10030    2    1    2    0    0  0.00000000000E+00  0.00000000000E+00  0.44454903989E+02  0.20111000404E+04  0.20106086476E+04 0.  0.
        2    1    3    3  502    0 -0.34556873026E+03 -0.66340976219E+03 -0.64958133878E+03  0.99069984132E+03  0.25500000920E-02 0. -1.
       -2    1    3    3    0  502  0.34556873026E+03  0.66340976219E+03  0.69403624277E+03  0.10204001990E+04  0.25500000920E-02 0.  1.
</event>
<event>
 5   0  0.8011197E-05  0.1993587E+04  0.7818609E-02  0.8609625E-01
       -2   -1    0    0    0  501  0.00000000000E+00  0.00000000000E+00  0.77559322401E+03  0.77559322401E+03  0.25500000920E-02 0.  1.
        2   -1    0    0  501    0  0.00000000000E+00  0.00000000000E+00 -0.12810805449E+04  0.12810805449E+04  0.25500000920E-02 0. -1.
    10030    2    1    2    0    0  0.00000000000E+00  0.00000000000E+00 -0.50548732091E+03  0.20566737689E+04  0.19935871088E+04 0.  0.
        5    1    3    3  502    0 -0.26073128880E+03 -0.15568996658E+03  0.72669706835E+03  0.78761087460E+03  0.46999998093E+01 0.  1.
       -5    1    3    3    0  502  0.26073128880E+03  0.15568996658E+03 -0.12321843893E+04  0.12690628943E+04  0.46999998093E+01 0. -1.
</event>
<event>
 5   0  0.3818907E-05  0.1985608E+04  0.7818609E-02  0.8613379E-01
       -1   -1    0    0    0  501  0.00000000000E+00  0.00000000000E+00  0.70379399694E+03  0.70379399696E+03  0.50400001928E-02 0. -1.
        1   -1    0    0  501    0  0.00000000000E+00  0.00000000000E+00 -0.14004945320E+04  0.14004945320E+04  0.50400001928E-02 0.  1.
    10030    2    1    2    0    0  0.00000000000E+00  0.00000000000E+00 -0.69670053503E+03  0.21042885289E+04  0.19856078610E+04 0.  0.
        1    1    3    3  502    0 -0.56428729848E+03 -0.42257651332E+03 -0.10891810371E+04  0.12974229829E+04  0.50400001928E-02 0.  1.
       -1    1    3    3    0  502  0.56428729848E+03  0.42257651332E+03  0.39248050211E+03  0.80686554604E+03  0.50400001928E-02 0. -1.
</event>
<event>
 5   0  0.7935008E-05  0.2008412E+04  0.7818609E-02  0.8602698E-01
        2   -1    0    0  501    0  0.00000000000E+00  0.00000000000E+00  0.12376212799E+04  0.12376212799E+04  0.25500000920E-02 0.  1.
       -2   -1    0    0    0  501  0.00000000000E+00  0.00000000000E+00 -0.81481293390E+03  0.81481293391E+03  0.25500000920E-02 0. -1.
    10030    2    1    2    0    0  0.00000000000E+00  0.00000000000E+00  0.42280834596E+03  0.20524342138E+04  0.20084121351E+04 0.  0.
        3    1    3    3  502    0  0.15320451365E+02  0.95986061567E+03 -0.89780638272E+02  0.96417202353E+03  0.10100000352E+00 0. -1.
       -3    1    3    3    0  502 -0.15320451365E+02 -0.95986061567E+03  0.51258898423E+03  0.10882621902E+04  0.10100000352E+00 0.  1.
</event>
<event>
 5   0  0.3818907E-05  0.1999616E+04  0.7818609E-02  0.8606800E-01
        1   -1    0    0  501    0  0.00000000000E+00  0.00000000000E+00  0.50029066473E+03  0.50029066475E+03  0.50400001928E-02 0. -1.
       -1   -1    0    0    0  501  0.00000000000E+00  0.00000000000E+00 -0.19980701553E+04  0.19980701553E+04  0.50400001928E-02 0.  1.
    10030    2    1    2    0    0  0.00000000000E+00  0.00000000000E+00 -0.14977794905E+04  0.24983608200E+04  0.19996158093E+04 0.  0.
        1    1    3    3  502    0  0.53213685724E+03  0.11260730813E+03  0.29925842282E+03  0.62081047376E+03  0.50400001928E-02 0. -1.
       -1    1    3    3    0  502 -0.53213685724E+03 -0.11260730813E+03 -0.17970379134E+04  0.18775503463E+04  0.50400001928E-02 0.  1.
</event>
<event>
 5   0  0.7843846E-05  0.1997572E+04  0.7818609E-02  0.8607757E-01
        2   -1    0    0  501    0  0.00000000000E+00  0.00000000000E+00  0.16163421081E+04  0.16163421081E+04  0.25500000920E-02 0.  1.
       -2   -1    0    0    0  501  0.00000000000E+00  0.00000000000E+00 -0.61717971341E+03  0.61717971342E+03  0.25500000920E-02 0. -1.
    10030    2    1    2    0    0  0.00000000000E+00  0.00000000000E+00  0.99916239467E+03  0.22335218215E+04  0.19975720854E+04 0.  0.
        2    1    3    3  502    0 -0.38456235652E+03 -0.92176586267E+03  0.49315348420E+03  0.11138854836E+04  0.25500000920E-02 0. -1.
       -2    1    3    3    0  502  0.38456235652E+03  0.92176586267E+03  0.50600891047E+03  0.11196363379E+04  0.25500000920E-02 0.  1.
</event>
<event>
 5   0  0.8011197E-05  0.1992332E+04  0.7818609E-02  0.8610214E-01
        2   -1    0    0  501    0  0.00000000000E+00  0.00000000000E+00  0.10733143935E+04  0.10733143935E+04  0.25500000920E-02 0.  1.
       -2   -1    0    0    0  501  0.00000000000E+00  0.00000000000E+00 -0.92456253378E+03  0.92456253378E+03  0.25500000920E-02 0. -1.
    10030    2    1    2    0    0  0.00000000000E+00  0.00000000000E+00  0.14875185975E+03  0.19978769273E+04  0.19923315740E+04 0.  0.
        5    1    3    3  502    0 -0.13238166368E+03  0.97637670779E+03 -0.72619265275E+02  0.98799394132E+03  0.46999998093E+01 0. -1.
       -5    1    3    3    0  502  0.13238166368E+03 -0.97637670779E+03  0.22137112503E+03  0.10098829860E+04  0.46999998093E+01 0.  1.
</event>
<event>
 5   0  0.3818907E-05  0.1985277E+04  0.7818609E-02  0.8613535E-01
       -1   -1    0    0    0  501  0.00000000000E+00  0.00000000000E+00  0.81755425696E+03  0.81755425698E+03  0.50400001928E-02 0. -1.
        1   -1    0    0  501    0  0.00000000000E+00  0.00000000000E+00 -0.12052186877E+04  0.12052186877E+04  0.50400001928E-02 0.  1.
    10030    2    1    2    0    0  0.00000000000E+00  0.00000000000E+00 -0.38766443069E+03  0.20227729446E+04  0.19852774805E+04 0.  0.
        1    1    3    3  502    0 -0.85188405139E+02 -0.97670627810E+03 -0.35594637899E+02  0.98106024093E+03  0.50400001928E-02 0. -1.
       -1    1    3    3    0  502  0.85188405139E+02  0.97670627810E+03 -0.35206979279E+03  0.10417127037E+04  0.50400001928E-02 0.  1.
</event>
<event>
 5   0  0.3787698E-05  0.1999891E+04  0.7818609E-02  0.8606671E-01
       -1   -1    0    0    0  501  0.00000000000E+00  0.00000000000E+00  0.84370895065E+03  0.84370895067E+03  0.50400001928E-02 0.  1.
        1   -1    0    0  501    0  0.00000000000E+00  0.00000000000E+00 -0.11851140186E+04  0.11851140186E+04  0.50400001928E-02 0. -1.
    10030    2    1    2    0    0  0.00000000000E+00  0.00000000000E+00 -0.34140506797E+03  0.20288229693E+04  0.19998913021E+04 0.  0.
        4    1    3    3  502    0 -0.33841086255E+03 -0.29539944639E+03 -0.10769948694E+04  0.11669200086E+04  0.12699999809E+01 0. -1.
       -4    1    3    3    0  502  0.33841086255E+03  0.29539944639E+03  0.73558980143E+03  0.86190296071E+03  0.12699999809E+01 0.  1.
</event>
<event>
 5   0  0.3549426E-05  0.1978152E+04  0.7818609E-02  0.8616904E-01
        1   -1    0    0  501    0  0.00000000000E+00  0.00000000000E+00  0.13132750346E+04  0.13132750346E+04  0.50400001928E-02 0.  1.
       -1   -1    0    0    0  501  0.00000000000E+00  0.00000000000E+00 -0.74490988100E+03  0.74490988102E+03  0.50400001928E-02 0. -1.
    10030    2    1    2    0    0  0.00000000000E+00  0.00000000000E+00  0.56836515362E+03  0.20581849157E+04  0.19781522184E+04 0.  0.
        5    1    3    3  502    0  0.36330078503E+03  0.47430549379E+03 -0.53593112245E+03  0.80261910010E+03  0.46999998093E+01 0. -1.
       -5    1    3    3    0  502 -0.36330078503E+03 -0.47430549379E+03  0.11042962761E+04  0.12555658155E+04  0.46999998093E+01 0.  1.
</event>
<event>
 5   0  0.2859625E-05  0.1987476E+04  0.7818609E-02  0.8612498E-01
        3   -1    0    0  501    0  0.00000000000E+00  0.00000000000E+00  0.92970059545E+03  0.92970060094E+03  0.10100000352E+00 0. -1.
       -3   -1    0    0    0  501  0.00000000000E+00  0.00000000000E+00 -0.10621865588E+04  0.10621865636E+04  0.10100000352E+00 0.  1.
    10030    2    1    2    0    0  0.00000000000E+00  0.00000000000E+00 -0.13248596336E+03  0.19918871645E+04  0.19874762755E+04 0.  0.
        1    1    3    3  502    0  0.26928731670E+02  0.97261199782E+03  0.13623566631E+03  0.98247616343E+03  0.50400001928E-02 0.  1.
       -1    1    3    3    0  502 -0.26928731670E+02 -0.97261199782E+03 -0.26872162967E+03  0.10094110011E+04  0.50400001928E-02 0. -1.
</event>
<event>
 5   0  0.3549426E-05  0.2001355E+04  0.7818609E-02  0.8605987E-01
        1   -1    0    0  501    0  0.00000000000E+00  0.00000000000E+00  0.21972804360E+04  0.21972804360E+04  0.50400001928E-02 0. -1.
       -1   -1    0    0    0  501  0.00000000000E+00  0.00000000000E+00 -0.45572488255E+03  0.45572488258E+03  0.50400001928E-02 0.  1.
    10030    2    1    2    0    0  0.00000000000E+00  0.00000000000E+00  0.17415555535E+04  0.26530053186E+04  0.20013549097E+04 0.  0.
        5    1    3    3  502    0  0.85678763180E+02 -0.89919280402E+03  0.14416267930E+04  0.17012343900E+04  0.46999998093E+01 0. -1.
       -5    1    3    3    0  502 -0.85678763180E+02  0.89919280402E+03  0.29992876046E+03  0.95177092865E+03  0.46999998093E+01 0.  1.
</event>
<event>
 5   0  0.3970042E-05  0.1993572E+04  0.7818609E-02  0.8609632E-01
        1   -1    0    0  501    0  0.00000000000E+00  0.00000000000E+00  0.11697881619E+04  0.11697881619E+04  0.50400001928E-02 0. -1.
       -1   -1    0    0    0  501  0.00000000000E+00  0.00000000000E+00 -0.84936921695E+03  0.84936921697E+03  0.50400001928E-02 0.  1.
    10030    2    1    2    0    0  0.00000000000E+00  0.00000000000E+00  0.32041894494E+03  0.20191573789E+04  0.19935717244E+04 0.  0.
        3    1    3    3  502    0  0.64918884359E+03 -0.59555319028E+03 -0.31209308340E+03  0.93462926339E+03  0.10100000352E+00 0.  1.
       -3    1    3    3    0  502 -0.64918884359E+03  0.59555319028E+03  0.63251202833E+03  0.10845281155E+04  0.10100000352E+00 0. -1.
</event>
<event>
 5   0  0.8011197E-05  0.2021271E+04  0.7818609E-02  0.8596740E-01
        2   -1    0    0  501    0  0.00000000000E+00  0.00000000000E+00  0.14709124329E+04  0.14709124329E+04  0.25500000920E-02 0. -1.
       -2   -1    0    0    0  501  0.00000000000E+00  0.00000000000E+00 -0.69438818146E+03  0.69438818146E+03  0.25500000920E-02 0.  1.
    10030    2    1    2    0    0  0.00000000000E+00  0.00000000000E+00  0.77652425146E+03  0.21653006144E+04  0.20212710945E+04 0.  0.
        5    1    3    3  502    0 -0.81042386560E+03 -0.18997969049E+03  0.10022362657E+04  0.13028348886E+04  0.46999998093E+01 0. -1.
       -5    1    3    3    0  502  0.81042386560E+03  0.18997969049E+03 -0.22571201424E+03  0.86246572576E+03  0.46999998093E+01 0.  1.
</event>
<event>
 5   0  0.3549426E-05  0.1998998E+04  0.7818609E-02  0.8607089E-01
       -1   -1    0    0    0  501  0.00000000000E+00  0.00000000000E+00  0.10879644308E+04  0.10879644308E+04  0.50400001928E-02 0. -1.
        1   -1    0    0  501    0  0.00000000000E+00  0.00000000000E+00 -0.91822684437E+03  0.91822684438E+03  0.50400001928E-02 0.  1.
    10030    2    1    2    0    0  0.00000000000E+00  0.00000000000E+00  0.16973758645E+03  0.20061912752E+04  0.19989978951E+04 0.  0.
        5    1    3    3  502    0  0.91022640330E+03  0.34284171194E+03 -0.14601015017E+03  0.98356169032E+03  0.46999998093E+01 0. -1.
       -5    1    3    3    0  502 -0.91022640330E+03 -0.34284171194E+03  0.31574773662E+03  0.10226295849E+04  0.46999998093E+01 0.  1.
</event>
<event>
 5   0  0.8011197E-05  0.1977757E+04  0.7818609E-02  0.8617091E-01
        2   -1    0    0  501    0  0.00000000000E+00  0.00000000000E+00  0.30175097834E+04  0.30175097834E+04  0.25500000920E-02 0.  1.
       -2   -1    0    0    0  501  0.00000000000E+00  0.00000000000E+00 -0.32406892976E+03  0.32406892977E+03  0.25500000920E-02 0. -1.
    10030    2    1    2    0    0  0.00000000000E+00  0.00000000000E+00  0.26934408536E+04  0.33415787132E+04  0.19777574837E+04 0.  0.
        5    1    3    3  502    0  0.65241002984E+02  0.98599142535E+03  0.12829716066E+04  0.16194053577E+04  0.46999998093E+01 0.  1.
       -5    1    3    3    0  502 -0.65241002984E+02 -0.98599142535E+03  0.14104692470E+04  0.17221733554E+04  0.46999998093E+01 0. -1.
</event>
<event>
 5   0  0.3787698E-05  0.2000986E+04  0.7818609E-02  0.8606160E-01
       -1   -1    0    0    0  501  0.00000000000E+00  0.00000000000E+00  0.80532294544E+03  0.80532294546E+03  0.50400001928E-02 0.  1.
        1   -1    0    0  501    0  0.00000000000E+00  0.00000000000E+00 -0.12429619592E+04  0.12429619593E+04  0.50400001928E-02 0. -1.
    10030    2    1    2    0    0  0.00000000000E+00  0.00000000000E+00 -0.43763901380E+03  0.20482849047E+04  0.20009855433E+04 0.  0.
        4    1    3    3  502    0  0.17686743715E+02 -0.15789513566E+02  0.80503451279E+03  0.80538457232E+03  0.12699999809E+01 0.  1.
       -4    1    3    3    0  502 -0.17686743715E+02  0.15789513566E+02 -0.12426735266E+04  0.12429003324E+04  0.12699999809E+01 0. -1.
</event>
<event>
 5   0  0.3549426E-05  0.2060463E+04  0.7818609E-02  0.8578862E-01
       -1   -1    0    0    0  501  0.00000000000E+00  0.00000000000E+00  0.84814447753E+03  0.84814447754E+03  0.50400001928E-02 0.  1.
        1   -1    0    0  501    0  0.00000000000E+00  0.00000000000E+00 -0.12514108257E+04  0.12514108257E+04  0.50400001928E-02 0. -1.
    10030    2    1    2    0    0  0.00000000000E+00  0.00000000000E+00 -0.40326634817E+03  0.20995553033E+04  0.20604632304E+04 0.  0.
        5    1    3    3  502    0  0.98076937216E+03 -0.30283779499E+03 -0.29125526111E+03  0.10669915691E+04  0.46999998093E+01 0. -1.
       -5    1    3    3    0  502 -0.98076937216E+03  0.30283779499E+03 -0.11201108706E+03  0.10325637341E+04  0.46999998093E+01 0.  1.
</event>
<event>
 5   0  0.7935008E-05  0.2004908E+04  0.7818609E-02  0.8604329E-01
        2   -1    0    0  501    0  0.00000000000E+00  0.00000000000E+00  0.13747171387E+04  0.13747171387E+04  0.25500000920E-02 0. -1.
       -2   -1    0    0    0  501  0.00000000000E+00  0.00000000000E+00 -0.73099701996E+03  0.73099701996E+03  0.25500000920E-02 0.  1.
    10030    2    1    2    0    0  0.00000000000E+00  0.00000000000E+00  0.64372011871E+03  0.21057141586E+04  0.20049081093E+04 0.  0.
        3    1    3    3  502    0  0.95270385768E+03 -0.15325315361E+03  0.36572418204E+02  0.96564420027E+03  0.10100000352E+00 0.  1.
       -3    1    3    3    0  502 -0.95270385768E+03  0.15325315361E+03  0.60714770051E+03  0.11400699584E+04  0.10100000352E+00 0. -1.
</event>
<event>
 5   0  0.8011197E-05  0.1826785E+04  0.7818609E-02  0.8692184E-01
        2   -1    0    0  501    0  0.00000000000E+00  0.00000000000E+00  0.11251153899E+04  0.11251153899E+04  0.25500000920E-02 0.  1.
       -2   -1    0    0    0  501  0.00000000000E+00  0.00000000000E+00 -0.74151174276E+03  0.74151174276E+03  0.25500000920E-02 0. -1.
    10030    2    1    2    0    0  0.00000000000E+00  0.00000000000E+00  0.38360364715E+03  0.18666271327E+04  0.18267854538E+04 0.  0.
        5    1    3    3  502    0  0.84591542242E+03 -0.12529275084E+03  0.51972635092E+03  0.10007041247E+04  0.46999998093E+01 0.  1.
       -5    1    3    3    0  502 -0.84591542242E+03  0.12529275084E+03 -0.13612270377E+03  0.86592300800E+03  0.46999998093E+01 0. -1.
</event>
<event>
 5   0  0.2859625E-05  0.2017194E+04  0.7818609E-02  0.8598624E-01
       -3   -1    0    0    0  501  0.00000000000E+00  0.00000000000E+00  0.10021859341E+04  0.10021859392E+04  0.10100000352E+00 0. -1.
        3   -1    0    0  501    0  0.00000000000E+00  0.00000000000E+00 -0.10150486182E+04  0.10150486233E+04  0.10100000352E+00 0.  1.
    10030    2    1    2    0    0  0.00000000000E+00  0.00000000000E+00 -0.12862684160E+02  0.20172345624E+04  0.20171935532E+04 0.  0.
        2    1    3    3  502    0  0.45931051194E+03 -0.84521817930E+03  0.29673738615E+03  0.10066841577E+04  0.25500000920E-02 0. -1.
       -2    1    3    3    0  502 -0.45931051194E+03  0.84521817930E+03 -0.30960007031E+03  0.10105504048E+04  0.25500000920E-02 0.  1.
</event>
<event>
 5   0  0.7857136E-05  0.1991025E+04  0.7818609E-02  0.8610828E-01
       -2   -1    0    0    0  501  0.00000000000E+00  0.00000000000E+00  0.11636549095E+04  0.11636549095E+04  0.25500000920E-02 0.  1.
        2   -1    0    0  501    0  0.00000000000E+00  0.00000000000E+00 -0.85166609941E+03  0.85166609941E+03  0.25500000920E-02 0. -1.
    10030    2    1    2    0    0  0.00000000000E+00  0.00000000000E+00  0.31198881010E+03  0.20153210089E+04  0.19910253015E+04 0.  0.
        4    1    3    3  502    0  0.33919437906E+03  0.44043829020E+03 -0.67991895769E+03  0.87825401575E+03  0.12699999809E+01 0. -1.
       -4    1    3    3    0  502 -0.33919437906E+03 -0.44043829020E+03  0.99190776779E+03  0.11370669932E+04  0.12699999809E+01 0.  1.
</event>
<event>
 5   0  0.3818907E-05  0.1986732E+04  0.7818609E-02  0.8612849E-01
        1   -1    0    0  501    0  0.00000000000E+00  0.00000000000E+00  0.16988912956E+04  0.16988912956E+04  0.50400001928E-02 0. -1.
       -1   -1    0    0    0  501  0.00000000000E+00  0.00000000000E+00 -0.58083540424E+03  0.58083540426E+03  0.50400001928E-02 0.  1.
    10030    2    1    2    0    0  0.00000000000E+00  0.00000000000E+00  0.11180558914E+04  0.22797266999E+04  0.19867322039E+04 0.  0.
        1    1    3    3  502    0  0.89915931171E+03 -0.64529559823E+02  0.80206470368E+02  0.90503293302E+03  0.50400001928E-02 0.  1.
       -1    1    3    3    0  502 -0.89915931171E+03  0.64529559823E+02  0.10378494210E+04  0.13746937669E+04  0.50400001928E-02 0. -1.
</event>
<event>
 5   0  0.3772949E-05  0.1837625E+04  0.7818609E-02  0.8686543E-01
       -1   -1    0    0    0  501  0.00000000000E+00  0.00000000000E+00  0.14617634287E+04  0.14617634287E+04  0.50400001928E-02 0.  1.
        1   -1    0    0  501    0  0.00000000000E+00  0.00000000000E+00 -0.57753273128E+03  0.57753273130E+03  0.50400001928E-02 0. -1.
    10030    2    1    2    0    0  0.00000000000E+00  0.00000000000E+00  0.88423069738E+03  0.20392961600E+04  0.18376247990E+04 0.  0.
        2    1    3    3  502    0 -0.25459411697E+03 -0.24429650211E+03 -0.49935018050E+03  0.61143237411E+03  0.25500000920E-02 0. -1.
       -2    1    3    3    0  502  0.25459411697E+03  0.24429650211E+03  0.13835808779E+04  0.14278637859E+04  0.25500000920E-02 0.  1.
</event>
<event>
 5   0  0.3787698E-05  0.1999585E+04  0.7818609E-02  0.8606815E-01
        1   -1    0    0  501    0  0.00000000000E+00  0.00000000000E+00  0.72369003750E+03  0.72369003752E+03  0.50400001928E-02 0. -1.
       -1   -1    0    0    0  501  0.00000000000E+00  0.00000000000E+00 -0.13812334942E+04  0.13812334942E+04  0.50400001928E-02 0.  1.
    10030    2    1    2    0    0  0.00000000000E+00  0.00000000000E+00 -0.65754345671E+03  0.21049235317E+04  0.19995848762E+04 0.  0.
        4    1    3    3  502    0 -0.67120618321E+03  0.27152886876E+03  0.39699588193E+03  0.82574391316E+03  0.12699999809E+01 0. -1.
       -4    1    3    3    0  502  0.67120618321E+03 -0.27152886876E+03 -0.10545393386E+04  0.12791796186E+04  0.12699999809E+01 0.  1.
</event>
<event>
 5   0  0.3787698E-05  0.1997048E+04  0.7818609E-02  0.8608002E-01
        1   -1    0    0  501    0  0.00000000000E+00  0.00000000000E+00  0.11448431726E+04  0.11448431726E+04  0.50400001928E-02 0. -1.
       -1   -1    0    0    0  501  0.00000000000E+00  0.00000000000E+00 -0.87090561450E+03  0.87090561451E+03  0.50400001928E-02 0.  1.
    10030    2    1    2    0    0  0.00000000000E+00  0.00000000000E+00  0.27393755812E+03  0.20157487871E+04  0.19970481684E+04 0.  0.
        4    1    3    3  502    0  0.37915223942E+03  0.90015014588E+03  0.34632858484E+03  0.10363261105E+04  0.12699999809E+01 0. -1.
       -4    1    3    3    0  502 -0.37915223942E+03 -0.90015014588E+03 -0.72391026721E+02  0.97942267660E+03  0.12699999809E+01 0.  1.
</event>
<event>
 5   0  0.3818907E-05  0.1994013E+04  0.7818609E-02  0.8609425E-01
       -1   -1    0    0    0  501  0.00000000000E+00  0.00000000000E+00  0.94676175808E+03  0.94676175809E+03  0.50400001928E-02 0.  1.
        1   -1    0    0  501    0  0.00000000000E+00  0.00000000000E+00 -0.10499181369E+04  0.10499181369E+04  0.50400001928E-02 0. -1.
    10030    2    1    2    0    0  0.00000000000E+00  0.00000000000E+00 -0.10315637883E+03  0.19966798950E+04  0.19940133813E+04 0.  0.
        1    1    3    3  502    0  0.56087272296E+03  0.45100331024E+03  0.63930108645E+03  0.96264639218E+03  0.50400001928E-02 0.  1.
       -1    1    3    3    0  502 -0.56087272296E+03 -0.45100331024E+03 -0.74245746528E+03  0.10340335028E+04  0.50400001928E-02 0. -1.
</event>
<event>
 5   0  0.3549426E-05  0.2026103E+04  0.7818609E-02  0.8594513E-01
        1   -1    0    0  501    0  0.00000000000E+00  0.00000000000E+00  0.10067946734E+04  0.10067946734E+04  0.50400001928E-02 0.  1.
       -1   -1    0    0    0  501  0.00000000000E+00  0.00000000000E+00 -0.10193470386E+04  0.10193470386E+04  0.50400001928E-02 0. -1.
    10030    2    1    2    0    0  0.00000000000E+00  0.00000000000E+00 -0.12552365190E+02  0.20261417121E+04  0.20261028295E+04 0.  0.
        5    1    3    3  502    0  0.93819021400E+03 -0.54416737836E+02  0.37200216985E+03  0.10107273437E+04  0.46999998093E+01 0. -1.
       -5    1    3    3    0  502 -0.93819021400E+03  0.54416737836E+02 -0.38455453504E+03  0.10154143683E+04  0.46999998093E+01 0.  1.
</event>
<event>
 5   0  0.7857136E-05  0.2001499E+04  0.7818609E-02  0.8605920E-01
       -2   -1    0    0    0  501  0.00000000000E+00  0.00000000000E+00  0.56116385727E+03  0.56116385728E+03  0.25500000920E-02 0. -1.
        2   -1    0    0  501    0  0.00000000000E+00  0.00000000000E+00 -0.17846836445E+04  0.17846836445E+04  0.25500000920E-02 0.  1.
    10030    2    1    2    0    0  0.00000000000E+00  0.00000000000E+00 -0.12235197873E+04  0.23458475018E+04  0.20014993959E+04 0.  0.
        4    1    3    3  502    0 -0.75204584170E+03  0.24533246625E+03 -0.13301932913E+04  0.15476358655E+04  0.12699999809E+01 0.  1.
       -4    1    3    3    0  502  0.75204584170E+03 -0.24533246625E+03  0.10667350405E+03  0.79821163633E+03  0.12699999809E+01 0. -1.
</event>
<event>
 5   0  0.3549426E-05  0.2006495E+04  0.7818609E-02  0.8603590E-01
        1   -1    0    0  501    0  0.00000000000E+00  0.00000000000E+00  0.99829450612E+03  0.99829450613E+03  0.50400001928E-02 0. -1.
       -1   -1    0    0    0  501  0.00000000000E+00  0.00000000000E+00 -0.10082253011E+04  0.10082253011E+04  0.50400001928E-02 0.  1.
    10030    2    1    2    0    0  0.00000000000E+00  0.00000000000E+00 -0.99307950087E+01  0.20065198073E+04  0.20064952321E+04 0.  0.
        5    1    3    3  502    0 -0.54961113504E+02  0.84987717433E+03 -0.53522820137E+03  0.10058843139E+04  0.46999998093E+01 0.  1.
       -5    1    3    3    0  502  0.54961113504E+02 -0.84987717433E+03  0.52529740636E+03  0.10006354934E+04  0.46999998093E+01 0. -1.
</event>
<event>
 5   0  0.7857136E-05  0.2045288E+04  0.7818609E-02  0.8585735E-01
        2   -1    0    0  501    0  0.00000000000E+00  0.00000000000E+00  0.17515465072E+04  0.17515465072E+04  0.25500000920E-02 0.  1.
       -2   -1    0    0    0  501  0.00000000000E+00  0.00000000000E+00 -0.59707281904E+03  0.59707281904E+03  0.25500000920E-02 0. -1.
    10030    2    1    2    0    0  0.00000000000E+00  0.00000000000E+00  0.11544736882E+04  0.23486193263E+04  0.20452880587E+04 0.  0.
        4    1    3    3  502    0 -0.18193067932E+03 -0.38842370204E+02  0.17319520763E+04  0.17419147825E+04  0.12699999809E+01 0.  1.
       -4    1    3    3    0  502  0.18193067932E+03  0.38842370204E+02 -0.57747838814E+03  0.60670454380E+03  0.12699999809E+01 0. -1.
</event>
<event>
 5   0  0.3818907E-05  0.1970914E+04  0.7818609E-02  0.8620341E-01
       -1   -1    0    0    0  501  0.00000000000E+00  0.00000000000E+00  0.62846815291E+03  0.62846815293E+03  0.50400001928E-02 0.  1.
        1   -1    0    0  501    0  0.00000000000E+00  0.00000000000E+00 -0.15452263341E+04  0.15452263341E+04  0.50400001928E-02 0. -1.
    10030    2    1    2    0    0  0.00000000000E+00  0.00000000000E+00 -0.91675818115E+03  0.21736944870E+04  0.19709140418E+04 0.  0.
        1    1    3    3  502    0  0.34880743759E+03 -0.63518623499E+03 -0.11949201522E+04  0.13974842939E+04  0.50400001928E-02 0. -1.
       -1    1    3    3    0  502 -0.34880743759E+03  0.63518623499E+03  0.27816197105E+03  0.77621019306E+03  0.50400001928E-02 0.  1.
</event>
<event>
 5   0  0.8022574E-05  0.1999769E+04  0.7818609E-02  0.8606729E-01
       -2   -1    0    0    0  501  0.00000000000E+00  0.00000000000E+00  0.80040061433E+03  0.80040061433E+03  0.25500000920E-02 0.  1.
        2   -1    0    0  501    0  0.00000000000E+00  0.00000000000E+00 -0.12490854074E+04  0.12490854074E+04  0.25500000920E-02 0. -1.
    10030    2    1    2    0    0  0.00000000000E+00  0.00000000000E+00 -0.44868479307E+03  0.20494860217E+04  0.19997687141E+04 0.  0.
        1    1    3    3  502    0 -0.16561206040E+03 -0.61189903791E+03  0.56813534450E+03  0.85124940931E+03  0.50400001928E-02 0.  1.
       -1    1    3    3    0  502  0.16561206040E+03  0.61189903791E+03 -0.10168201376E+04  0.11982366124E+04  0.50400001928E-02 0. -1.
</event>
<event>
 5   0  0.3970042E-05  0.2006982E+04  0.7818609E-02  0.8603363E-01
       -1   -1    0    0    0  501  0.00000000000E+00  0.00000000000E+00  0.63096167672E+03  0.63096167674E+03  0.50400001928E-02 0. -1.
        1   -1    0    0  501    0  0.00000000000E+00  0.00000000000E+00 -0.15959680454E+04  0.15959680454E+04  0.50400001928E-02 0.  1.
    10030    2    1    2    0    0  0.00000000000E+00  0.00000000000E+00 -0.96500636870E+03  0.22269297222E+04  0.20069824852E+04 0.  0.
        3    1    3    3  502    0  0.13533683986E+03  0.95643885809E+03 -0.78414732026E+03  0.12441777926E+04  0.10100000352E+00 0. -1.
       -3    1    3    3    0  502 -0.13533683986E+03 -0.95643885809E+03 -0.18085904844E+03  0.98275192958E+03  0.10100000352E+00 0.  1.
</event>
<event>
 5   0  0.7843846E-05  0.2002269E+04  0.7818609E-02  0.8605561E-01
        2   -1    0    0  501    0  0.00000000000E+00  0.00000000000E+00  0.19087649669E+04  0.19087649669E+04  0.25500000920E-02 0. -1.
       -2   -1    0    0    0  501  0.00000000000E+00  0.00000000000E+00 -0.52508828167E+03  0.52508828168E+03  0.25500000920E-02 0.  1.
    10030    2    1    2    0    0  0.00000000000E+00  0.00000000000E+00  0.13836766852E+04  0.24338532486E+04  0.20022688297E+04 0.  0.
        2    1    3    3  502    0  0.56290843924E+03  0.37002316313E+03  0.15920718978E+04  0.17287209086E+04  0.25500000920E-02 0. -1.
       -2    1    3    3    0  502 -0.56290843924E+03 -0.37002316313E+03 -0.20839521256E+03  0.70513233995E+03  0.25500000920E-02 0.  1.
</event>
<event>
 5   0  0.3818907E-05  0.2004882E+04  0.7818609E-02  0.8604342E-01
        1   -1    0    0  501    0  0.00000000000E+00  0.00000000000E+00  0.16857257795E+04  0.16857257796E+04  0.50400001928E-02 0.  1.
       -1   -1    0    0    0  501  0.00000000000E+00  0.00000000000E+00 -0.59611581889E+03  0.59611581891E+03  0.50400001928E-02 0. -1.
    10030    2    1    2    0    0  0.00000000000E+00  0.00000000000E+00  0.10896099607E+04  0.22818415985E+04  0.20048818454E+04 0.  0.
        1    1    3    3  502    0 -0.87283477433E+03  0.15753038603E+03  0.10764911540E+04  0.13948080766E+04  0.50400001928E-02 0. -1.
       -1    1    3    3    0  502  0.87283477433E+03 -0.15753038603E+03  0.13118806614E+02  0.88703352187E+03  0.50400001928E-02 0.  1.
</event>
<event>
 5   0  0.3970042E-05  0.1998727E+04  0.7818609E-02  0.8607216E-01
        1   -1    0    0  501    0  0.00000000000E+00  0.00000000000E+00  0.93900493808E+03  0.93900493810E+03  0.50400001928E-02 0.  1.
       -1   -1    0    0    0  501  0.00000000000E+00  0.00000000000E+00 -0.10636018419E+04  0.10636018419E+04  0.50400001928E-02 0. -1.
    10030    2    1    2    0    0  0.00000000000E+00  0.00000000000E+00 -0.12459690384E+03  0.20026067800E+04  0.19987269766E+04 0.  0.
        3    1    3    3  502    0  0.29833428769E+03 -0.51210622352E+03  0.74391947207E+03  0.95114264046E+03  0.10100000352E+00 0.  1.
       -3    1    3    3    0  502 -0.29833428769E+03  0.51210622352E+03 -0.86851637591E+03  0.10514641396E+04  0.10100000352E+00 0. -1.
</event>
<event>
 5   0  0.3818907E-05  0.1998222E+04  0.7818609E-02  0.8607452E-01
       -1   -1    0    0    0  501  0.00000000000E+00  0.00000000000E+00  0.13297884351E+04  0.13297884351E+04  0.50400001928E-02 0. -1.
        1   -1    0    0  501    0  0.00000000000E+00  0.00000000000E+00 -0.75066320053E+03  0.75066320055E+03  0.50400001928E-02 0.  1.
    10030    2    1    2    0    0  0.00000000000E+00  0.00000000000E+00  0.57912523459E+03  0.20804516357E+04  0.19982224529E+04 0.  0.
        1    1    3    3  502    0 -0.70707033875E+03 -0.70552065366E+03  0.26592628278E+03  0.10336462860E+04  0.50400001928E-02 0.  1.
       -1    1    3    3    0  502  0.70707033875E+03  0.70552065366E+03  0.31319895181E+03  0.10468053497E+04  0.50400001928E-02 0. -1.
</event>
<event>
 5   0  0.8011197E-05  0.1981953E+04  0.7818609E-02  0.8615105E-01
        2   -1    0    0  501    0  0.00000000000E+00  0.00000000000E+00  0.10766211920E+04  0.10766211920E+04  0.25500000920E-02 0.  1.
       -2   -1    0    0    0  501  0.00000000000E+00  0.00000000000E+00 -0.91214460054E+03  0.91214460054E+03  0.25500000920E-02 0. -1.
    10030    2    1    2    0    0  0.00000000000E+00  0.00000000000E+00  0.16447659142E+03  0.19887657925E+04  0.19819527816E+04 0.  0.
        5    1    3    3  502    0  0.23961747295E+02 -0.85359178922E+03 -0.42230123651E+03  0.95265604093E+03  0.46999998093E+01 0. -1.
       -5    1    3    3    0  502 -0.23961747295E+02  0.85359178922E+03  0.58677782794E+03  0.10361097516E+04  0.46999998093E+01 0.  1.
</event>
<event>
 5   0  0.7935008E-05  0.2030082E+04  0.7818609E-02  0.8592684E-01
       -2   -1    0    0    0  501  0.00000000000E+00  0.00000000000E+00  0.55096595483E+03  0.55096595483E+03  0.25500000920E-02 0.  1.
        2   -1    0    0  501    0  0.00000000000E+00  0.00000000000E+00 -0.18700037392E+04  0.18700037392E+04  0.25500000920E-02 0. -1.
    10030    2    1    2    0    0  0.00000000000E+00  0.00000000000E+00 -0.13190377844E+04  0.24209696940E+04  0.20300821616E+04 0.  0.
        3    1    3    3  502    0 -0.76569040748E+03  0.64316316407E+03 -0.45170149507E+03  0.10972579034E+04  0.10100000352E+00 0.  1.
       -3    1    3    3    0  502  0.76569040748E+03 -0.64316316407E+03 -0.86733628929E+03  0.13237117906E+04  0.10100000352E+00 0. -1.
</event>
<event>
 5   0  0.8022574E-05  0.1924236E+04  0.7818609E-02  0.8642886E-01
       -2   -1    0    0    0  501  0.00000000000E+00  0.00000000000E+00  0.30311026244E+04  0.30311026244E+04  0.25500000920E-02 0. -1.
        2   -1    0    0  501    0  0.00000000000E+00  0.00000000000E+00 -0.30539095839E+03  0.30539095840E+03  0.25500000920E-02 0.  1.
    10030    2    1    2    0    0  0.00000000000E+00  0.00000000000E+00  0.27257116660E+04  0.33364935828E+04  0.19242363009E+04 0.  0.
        1    1    3    3  502    0  0.36171494879E+03 -0.34742547196E+03 -0.60794884154E+02  0.50521102592E+03  0.50400001928E-02 0.  1.
       -1    1    3    3    0  502 -0.36171494879E+03  0.34742547196E+03  0.27865065502E+04  0.28312825569E+04  0.50400001928E-02 0. -1.
</event>
<event>
 5   0  0.3772949E-05  0.2026491E+04  0.7818609E-02  0.8594334E-01
        1   -1    0    0  501    0  0.00000000000E+00  0.00000000000E+00  0.18070300151E+04  0.18070300151E+04  0.50400001928E-02 0.  1.
       -1   -1    0    0    0  501  0.00000000000E+00  0.00000000000E+00 -0.56815141145E+03  0.56815141148E+03  0.50400001928E-02 0. -1.
    10030    2    1    2    0    0  0.00000000000E+00  0.00000000000E+00  0.12388786036E+04  0.23751814265E+04  0.20264912076E+04 0.  0.
        2    1    3    3  502    0  0.38900048290E+03  0.25672336569E+03 -0.43505433699E+03  0.63757394734E+03  0.25500000920E-02 0. -1.
       -2    1    3    3    0  502 -0.38900048290E+03 -0.25672336569E+03  0.16739329406E+04  0.17376074792E+04  0.25500000920E-02 0.  1.
</event>
<event>
 5   0  0.3818907E-05  0.1996404E+04  0.7818609E-02  0.8608304E-01
       -1   -1    0    0    0  501  0.00000000000E+00  0.00000000000E+00  0.71515059746E+03  0.71515059748E+03  0.50400001928E-02 0. -1.
        1   -1    0    0  501    0  0.00000000000E+00  0.00000000000E+00 -0.13932832177E+04  0.13932832178E+04  0.50400001928E-02 0.  1.
    10030    2    1    2    0    0  0.00000000000E+00  0.00000000000E+00 -0.67813262028E+03  0.21084338152E+04  0.19964040930E+04 0.  0.
        1    1    3    3  502    0  0.92719610666E+03  0.17506846029E+03  0.48866754967E+01  0.94359178971E+03  0.50400001928E-02 0. -1.
       -1    1    3    3    0  502 -0.92719610666E+03 -0.17506846029E+03 -0.68301929577E+03  0.11648420255E+04  0.50400001928E-02 0.  1.
</event>
<event>
 5   0  0.8011197E-05  0.2009997E+04  0.7818609E-02  0.8601961E-01
       -2   -1    0    0    0  501  0.00000000000E+00  0.00000000000E+00  0.76712690425E+03  0.76712690425E+03  0.25500000920E-02 0.  1.
        2   -1    0    0  501    0  0.00000000000E+00  0.00000000000E+00 -0.13166292183E+04  0.13166292183E+04  0.25500000920E-02 0. -1.
    10030    2    1    2    0    0  0.00000000000E+00  0.00000000000E+00 -0.54950231403E+03  0.20837561225E+04  0.20099967127E+04 0.  0.
        5    1    3    3  502    0 -0.57089987459E+03  0.67379495355E+03  0.22251013339E+03  0.91074648267E+03  0.46999998093E+01 0.  1.
       -5    1    3    3    0  502  0.57089987459E+03 -0.67379495355E+03 -0.77201244742E+03  0.11730096399E+04  0.46999998093E+01 0. -1.
</event>
<event>
 5   0  0.3970042E-05  0.2007962E+04  0.7818609E-02  0.8602907E-01
        1   -1    0    0  501    0  0.00000000000E+00  0.00000000000E+00  0.14159258325E+04  0.14159258325E+04  0.50400001928E-02 0. -1.
       -1   -1    0    0    0  501  0.00000000000E+00  0.00000000000E+00 -0.71188577108E+03  0.71188577110E+03  0.50400001928E-02 0.  1.
    10030    2    1    2    0    0  0.00000000000E+00  0.00000000000E+00  0.70404006141E+03  0.21278116036E+04  0.20079616063E+04 0.  0.
        3    1    3    3  502    0  0.10224321471E+03  0.55317506389E+03 -0.52919214997E+03  0.77233455708E+03  0.10100000352E+00 0.  1.
       -3    1    3    3    0  502 -0.10224321471E+03 -0.55317506389E+03  0.12332322114E+04  0.13554770465E+04  0.10100000352E+00 0. -1.
</event>
<event>
 5   0  0.3787698E-05  0.1941439E+04  0.7818609E-02  0.8634500E-01
       -1   -1    0    0    0  501  0.00000000000E+00  0.00000000000E+00  0.77806829011E+03  0.77806829012E+03  0.50400001928E-02 0.  1.
        1   -1    0    0  501    0  0.00000000000E+00  0.00000000000E+00 -0.12110715268E+04  0.12110715268E+04  0.50400001928E-02 0. -1.
    10030    2    1    2    0    0  0.00000000000E+00  0.00000000000E+00 -0.43300323665E+03  0.19891398169E+04  0.19414390045E+04 0.  0.
        4    1    3    3  502    0 -0.12975243620E+03  0.96199619747E+03 -0.22134649069E+03  0.99562455800E+03  0.12699999809E+01 0. -1.
       -4    1    3    3    0  502  0.12975243620E+03 -0.96199619747E+03 -0.21165674596E+03  0.99351525890E+03  0.12699999809E+01 0.  1.
</event>
<event>
 5   0  0.7935008E-05  0.1890736E+04  0.7818609E-02  0.8659482E-01
       -2   -1    0    0    0  501  0.00000000000E+00  0.00000000000E+00  0.11373442959E+04  0.11373442959E+04  0.25500000920E-02 0. -1.
        2   -1    0    0  501    0  0.00000000000E+00  0.00000000000E+00 -0.78579591083E+03  0.78579591084E+03  0.25500000920E-02 0.  1.
    10030    2    1    2    0    0  0.00000000000E+00  0.00000000000E+00  0.35154838505E+03  0.19231402067E+04  0.18907358323E+04 0.  0.
        3    1    3    3  502    0 -0.43149668261E+03  0.76606221509E+03  0.52911789200E+03  0.10261610294E+04  0.10100000352E+00 0. -1.
       -3    1    3    3    0  502  0.43149668261E+03 -0.76606221509E+03 -0.17756950695E+03  0.89697917729E+03  0.10100000352E+00 0.  1.
</event>
<event>
 5   0  0.3549426E-05  0.1996129E+04  0.7818609E-02  0.8608433E-01
        1   -1    0    0  501    0  0.00000000000E+00  0.00000000000E+00  0.95900263001E+03  0.95900263003E+03  0.50400001928E-02 0. -1.
       -1   -1    0    0    0  501  0.00000000000E+00  0.00000000000E+00 -0.10387171275E+04  0.10387171275E+04  0.50400001928E-02 0.  1.
    10030    2    1    2    0    0  0.00000000000E+00  0.00000000000E+00 -0.79714497471E+02  0.19977197575E+04  0.19961287104E+04 0.  0.
        5    1    3    3  502    0 -0.35458411941E+03  0.68096539000E+03  0.59835521271E+03  0.97339345113E+03  0.46999998093E+01 0. -1.
       -5    1    3    3    0  502  0.35458411941E+03 -0.68096539000E+03 -0.67806971018E+03  0.10243263064E+04  0.46999998093E+01 0.  1.
</event>
<event>
 5   0  0.8011197E-05  0.1996537E+04  0.7818609E-02  0.8608242E-01
        2   -1    0    0  501    0  0.00000000000E+00  0.00000000000E+00  0.17063511699E+04  0.17063511699E+04  0.25500000920E-02 0. -1.
       -2   -1    0    0    0  501  0.00000000000E+00  0.00000000000E+00 -0.58401802356E+03  0.58401802357E+03  0.25500000920E-02 0.  1.
    10030    2    1    2    0    0  0.00000000000E+00  0.00000000000E+00  0.11223331464E+04  0.22903691935E+04  0.19965368394E+04 0.  0.
        5    1    3    3  502    0 -0.94647891357E+03 -0.13680889803E+02  0.92485460965E+03  0.13234000301E+04  0.46999998093E+01 0. -1.
       -5    1    3    3    0  502  0.94647891357E+03  0.13680889803E+02  0.19747853671E+03  0.96696916343E+03  0.46999998093E+01 0.  1.
</event>
<event>
 5   0  0.7857136E-05  0.1992287E+04  0.7818609E-02  0.8610235E-01
       -2   -1    0    0    0  501  0.00000000000E+00  0.00000000000E+00  0.59790610616E+03  0.59790610617E+03  0.25500000920E-02 0. -1.
        2   -1    0    0  501    0  0.00000000000E+00  0.00000000000E+00 -0.16596281422E+04  0.16596281423E+04  0.25500000920E-02 0.  1.
    10030    2    1    2    0    0  0.00000000000E+00  0.00000000000E+00 -0.10617220361E+04  0.22575342484E+04  0.19922869273E+04 0.  0.
        4    1    3    3  502    0  0.71635664592E+03 -0.34232325091E+03  0.15085835189E+03  0.80815339355E+03  0.12699999809E+01 0. -1.
       -4    1    3    3    0  502 -0.71635664592E+03  0.34232325091E+03 -0.12125803880E+04  0.14493808549E+04  0.12699999809E+01 0.  1.
</event>
<event>
 5   0  0.8022574E-05  0.2011185E+04  0.7818609E-02  0.8601409E-01
       -2   -1    0    0    0  501  0.00000000000E+00  0.00000000000E+00  0.10685353428E+04  0.10685353428E+04  0.25500000920E-02 0. -1.
        2   -1    0    0  501    0  0.00000000000E+00  0.00000000000E+00 -0.94635741093E+03  0.94635741093E+03  0.25500000920E-02 0.  1.
    10030    2    1    2    0    0  0.00000000000E+00  0.00000000000E+00  0.12217793191E+03  0.20148927538E+04  0.20111850641E+04 0.  0.
        1    1    3    3  502    0  0.59201179576E+03  0.60336163430E+03 -0.48461062993E+03  0.97435655215E+03  0.50400001928E-02 0.  1.
       -1    1    3    3    0  502 -0.59201179576E+03 -0.60336163430E+03  0.60678856184E+03  0.10405362016E+04  0.50400001928E-02 0. -1.
</event>
<event>
 5   0  0.8022574E-05  0.1972635E+04  0.7818609E-02  0.8619523E-01
        2   -1    0    0  501    0  0.00000000000E+00  0.00000000000E+00  0.11804624771E+04  0.11804624771E+04  0.25500000920E-02 0.  1.
       -2   -1    0    0    0  501  0.00000000000E+00  0.00000000000E+00 -0.82410230909E+03  0.82410230909E+03  0.25500000920E-02 0. -1.
    10030    2    1    2    0    0  0.00000000000E+00  0.00000000000E+00  0.35636016799E+03  0.20045647862E+04  0.19726346374E+04 0.  0.
        1    1    3    3  502    0 -0.97210131083E+03  0.16524750420E+03  0.20166602109E+03  0.10064575899E+04  0.50400001928E-02 0. -1.
       -1    1    3    3    0  502  0.97210131083E+03 -0.16524750420E+03  0.15469414690E+03  0.99810719628E+03  0.50400001928E-02 0.  1.
</event>
<event>
 5   0  0.3772949E-05  0.1955615E+04  0.7818609E-02  0.8627658E-01
        1   -1    0    0  501    0  0.00000000000E+00  0.00000000000E+00  0.68120244482E+03  0.68120244483E+03  0.50400001928E-02 0.  1.
       -1   -1    0    0    0  501  0.00000000000E+00  0.00000000000E+00 -0.14035585395E+04  0.14035585395E+04  0.50400001928E-02 0. -1.
    10030    2    1    2    0    0  0.00000000000E+00  0.00000000000E+00 -0.72235609472E+03  0.20847609844E+04  0.19556150016E+04 0.  0.
        2    1    3    3  502    0 -0.39795934977E+03  0.26146522224E+03 -0.12716097986E+04  0.13578391607E+04  0.25500000920E-02 0. -1.
       -2    1    3    3    0  502  0.39795934977E+03 -0.26146522224E+03  0.54925370386E+03  0.72692182367E+03  0.25500000920E-02 0.  1.
</event>
<event>
 5   0  0.8022574E-05  0.2007399E+04  0.7818609E-02  0.8603169E-01
        2   -1    0    0  501    0  0.00000000000E+00  0.00000000000E+00  0.15915541145E+04  0.15915541145E+04  0.25500000920E-02 0. -1.
       -2   -1    0    0    0  501  0.00000000000E+00  0.00000000000E+00 -0.63297437205E+03  0.63297437205E+03  0.25500000920E-02 0.  1.
    10030    2    1    2    0    0  0.00000000000E+00  0.00000000000E+00  0.95857974245E+03  0.22245284865E+04  0.20073992789E+04 0.  0.
        1    1    3    3  502    0 -0.90131052943E+03 -0.59504232185E+02 -0.56654001353E+01  0.90329038570E+03  0.50400001928E-02 0.  1.
       -1    1    3    3    0  502  0.90131052943E+03  0.59504232185E+02  0.96424514258E+03  0.13212381008E+04  0.50400001928E-02 0. -1.
</event>
<event>
 5   0  0.3549426E-05  0.1993539E+04  0.7818609E-02  0.8609647E-01
       -1   -1    0    0    0  501  0.00000000000E+00  0.00000000000E+00  0.63885463325E+03  0.63885463327E+03  0.50400001928E-02 0.  1.
        1   -1    0    0  501    0  0.00000000000E+00  0.00000000000E+00 -0.15552043001E+04  0.15552043001E+04  0.50400001928E-02 0. -1.
    10030    2    1    2    0    0  0.00000000000E+00  0.00000000000E+00 -0.91634966683E+03  0.21940589334E+04  0.19935390368E+04 0.  0.
        5    1    3    3  502    0  0.92886968086E+02 -0.96451888426E+03 -0.71535096927E+03  0.12044391916E+04  0.46999998093E+01 0.  1.
       -5    1    3    3    0  502 -0.92886968086E+02  0.96451888426E+03 -0.20099869755E+03  0.98961974180E+03  0.46999998093E+01 0. -1.
</event>
<event>
 5   0  0.3970042E-05  0.1996112E+04  0.7818609E-02  0.8608441E-01
       -1   -1    0    0    0  501  0.00000000000E+00  0.00000000000E+00  0.90777994350E+03  0.90777994352E+03  0.50400001928E-02 0. -1.
        1   -1    0    0  501    0  0.00000000000E+00  0.00000000000E+00 -0.10973094204E+04  0.10973094204E+04  0.50400001928E-02 0.  1.
    10030    2    1    2    0    0  0.00000000000E+00  0.00000000000E+00 -0.18952947691E+03  0.20050893639E+04  0.19961117040E+04 0.  0.
        3    1    3    3  502    0 -0.22737794273E+03 -0.44950093112E+03  0.77071567443E+03  0.92073583450E+03  0.10100000352E+00 0. -1.
       -3    1    3    3    0  502  0.22737794273E+03  0.44950093112E+03 -0.96024515134E+03  0.10843535294E+04  0.10100000352E+00 0.  1.
</event>
<event>
 5   0  0.7857136E-05  0.1905593E+04  0.7818609E-02  0.8652077E-01
       -2   -1    0    0    0  501  0.00000000000E+00  0.00000000000E+00  0.65989748942E+03  0.65989748942E+03  0.25500000920E-02 0.  1.
        2   -1    0    0  501    0  0.00000000000E+00  0.00000000000E+00 -0.13757008147E+04  0.13757008147E+04  0.25500000920E-02 0. -1.
    10030    2    1    2    0    0  0.00000000000E+00  0.00000000000E+00 -0.71580332531E+03  0.20355983042E+04  0.19055933604E+04 0.  0.
        4    1    3    3  502    0  0.31148465097E+03 -0.64225646440E+03 -0.10320711615E+04  0.12548659486E+04  0.12699999809E+01 0. -1.
       -4    1    3    3    0  502 -0.31148465097E+03  0.64225646440E+03  0.31626783615E+03  0.78073235551E+03  0.12699999809E+01 0.  1.
</event>
<event>
 5   0  0.3787698E-05  0.1999771E+04  0.7818609E-02  0.8606728E-01
       -1   -1    0    0    0  501  0.00000000000E+00  0.00000000000E+00  0.94185534385E+03  0.94185534386E+03  0.50400001928E-02 0. -1.
        1   -1    0    0  501    0  0.00000000000E+00  0.00000000000E+00 -0.10614906971E+04  0.10614906971E+04  0.50400001928E-02 0.  1.
    10030    2    1    2    0    0  0.00000000000E+00  0.00000000000E+00 -0.11963535326E+03  0.20033460410E+04  0.19997706724E+04 0.  0.
        4    1    3    3  502    0  0.88711678892E+03 -0.68483836994E+02 -0.51681618255E+03  0.10289639510E+04  0.12699999809E+01 0.  1.
       -4    1    3    3    0  502 -0.88711678892E+03  0.68483836994E+02  0.39718082929E+03  0.97438208993E+03  0.12699999809E+01 0. -1.
</event>
<event>
 5   0  0.7935008E-05  0.1988499E+04  0.7818609E-02  0.8612017E-01
       -2   -1    0    0    0  501  0.00000000000E+00  0.00000000000E+00  0.49028088007E+03  0.49028088008E+03  0.25500000920E-02 0. -1.
        2   -1    0    0  501    0  0.00000000000E+00  0.00000000000E+00 -0.20162573866E+04  0.20162573866E+04  0.25500000920E-02 0.  1.
    10030    2    1    2    0    0  0.00000000000E+00  0.00000000000E+00 -0.15259765066E+04  0.25065382667E+04  0.19884993799E+04 0.  0.
        3    1    3    3  502    0  0.66571150026E+03 -0.74355011560E+02  0.16315502348E+03  0.68943458081E+03  0.10100000352E+00 0. -1.
       -3    1    3    3    0  502 -0.66571150026E+03  0.74355011560E+02 -0.16891315300E+04  0.18171036859E+04  0.10100000352E+00 0.  1.
</event>
<event>
 5   0  0.7935008E-05  0.2002776E+04  0.7818609E-02  0.8605324E-01
        2   -1    0    0  501    0  0.00000000000E+00  0.00000000000E+00  0.21238733341E+04  0.21238733341E+04  0.25500000920E-02 0.  1.
       -2   -1    0    0    0  501  0.00000000000E+00  0.00000000000E+00 -0.47214595390E+03  0.47214595391E+03  0.25500000920E-02 0. -1.
    10030    2    1    2    0    0  0.00000000000E+00  0.00000000000E+00  0.16517273802E+04  0.25960192881E+04  0.20027762744E+04 0.  0.
        3    1    3    3  502    0 -0.13688715933E+03 -0.59461736910E+03 -0.20335529061E+03  0.64316506003E+03  0.10100000352E+00 0. -1.
       -3    1    3    3    0  502  0.13688715933E+03  0.59461736910E+03  0.18550826709E+04  0.19528542280E+04  0.10100000352E+00 0.  1.
</event>
<event>
 5   0  0.7935008E-05  0.1973772E+04  0.7818609E-02  0.8618982E-01
       -2   -1    0    0    0  501  0.00000000000E+00  0.00000000000E+00  0.59564553489E+03  0.59564553489E+03  0.25500000920E-02 0. -1.
        2   -1    0    0  501    0  0.00000000000E+00  0.00000000000E+00 -0.16351071970E+04  0.16351071970E+04  0.25500000920E-02 0.  1.
    10030    2    1    2    0    0  0.00000000000E+00  0.00000000000E+00 -0.10394616621E+04  0.22307527319E+04  0.19737723283E+04 0.  0.
        3    1    3    3  502    0  0.25836177434E+03 -0.78189489326E+03 -0.11344522105E+04  0.14018174841E+04  0.10100000352E+00 0.  1.
       -3    1    3    3    0  502 -0.25836177434E+03  0.78189489326E+03  0.94990548418E+02  0.82893524779E+03  0.10100000352E+00 0. -1.
</event>
<event>
 5   0  0.3772949E-05  0.1989039E+04  0.7818609E-02  0.8611763E-01
       -1   -1    0    0    0  501  0.00000000000E+00  0.00000000000E+00  0.20332141063E+04  0.20332141063E+04  0.50400001928E-02 0. -1.
        1   -1    0    0  501    0  0.00000000000E+00  0.00000000000E+00 -0.48645569100E+03  0.48645569103E+03  0.50400001928E-02 0.  1.
    10030    2    1    2    0    0  0.00000000000E+00  0.00000000000E+00  0.15467584153E+04  0.25196697973E+04  0.19890385346E+04 0.  0.
        2    1    3    3  502    0  0.72997304190E+03 -0.67279253523E+03  0.84894264187E+03  0.13062212854E+04  0.25500000920E-02 0. -1.
       -2    1    3    3    0  502 -0.72997304190E+03  0.67279253523E+03  0.69781577344E+03  0.12134485119E+04  0.25500000920E-02 0.  1.
</event>
<event>
 5   0  0.8011197E-05  0.1998674E+04  0.7818609E-02  0.8607241E-01
       -2   -1    0    0    0  501  0.00000000000E+00  0.00000000000E+00  0.87306992431E+03  0.87306992431E+03  0.25500000920E-02 0. -1.
        2   -1    0    0  501    0  0.00000000000E+00  0.00000000000E+00 -0.11438649953E+04  0.11438649953E+04  0.25500000920E-02 0.  1.
    10030    2    1    2    0    0  0.00000000000E+00  0.00000000000E+00 -0.27079507097E+03  0.20169349196E+04  0.19986736851E+04 0.  0.
        5    1    3    3  502    0  0.23192271948E+03 -0.72017032810E+03 -0.79421663685E+03  0.10969209659E+04  0.46999998093E+01 0.  1.
       -5    1    3    3    0  502 -0.23192271948E+03  0.72017032810E+03  0.52342156588E+03  0.92001395365E+03  0.46999998093E+01 0. -1.
</event>
<event>
 5   0  0.8011197E-05  0.2018002E+04  0.7818609E-02  0.8598250E-01
        2   -1    0    0  501    0  0.00000000000E+00  0.00000000000E+00  0.15432803886E+04  0.15432803886E+04  0.25500000920E-02 0. -1.
       -2   -1    0    0    0  501  0.00000000000E+00  0.00000000000E+00 -0.65968783194E+03  0.65968783194E+03  0.25500000920E-02 0.  1.
    10030    2    1    2    0    0  0.00000000000E+00  0.00000000000E+00  0.88359255667E+03  0.22029682206E+04  0.20180022732E+04 0.  0.
        5    1    3    3  502    0  0.13729826556E+03  0.97401144413E+03  0.19644728594E+03  0.10030766337E+04  0.46999998093E+01 0. -1.
       -5    1    3    3    0  502 -0.13729826556E+03 -0.97401144413E+03  0.68714527073E+03  0.11998915868E+04  0.46999998093E+01 0.  1.
</event>
<event>
 5   0  0.7857136E-05  0.1994251E+04  0.7818609E-02  0.8609313E-01
        2   -1    0    0  501    0  0.00000000000E+00  0.00000000000E+00  0.14250545948E+04  0.14250545948E+04  0.25500000920E-02 0.  1.
       -2   -1    0    0    0  501  0.00000000000E+00  0.00000000000E+00 -0.69769883739E+03  0.69769883740E+03  0.25500000920E-02 0. -1.
    10030    2    1    2    0    0  0.00000000000E+00  0.00000000000E+00  0.72735575741E+03  0.21227534322E+04  0.19942506703E+04 0.  0.
        4    1    3    3  502    0 -0.32851391639E+02  0.76744041459E+03 -0.31306721191E+03  0.82949182995E+03  0.12699999809E+01 0. -1.
       -4    1    3    3    0  502  0.32851391639E+02 -0.76744041459E+03  0.10404229693E+04  0.12932616022E+04  0.12699999809E+01 0.  1.
</event>
<event>
 5   0  0.7857136E-05  0.1984608E+04  0.7818609E-02  0.8613851E-01
       -2   -1    0    0    0  501  0.00000000000E+00  0.00000000000E+00  0.10547920825E+04  0.10547920825E+04  0.25500000920E-02 0.  1.
        2   -1    0    0  501    0  0.00000000000E+00  0.00000000000E+00 -0.93351821082E+03  0.93351821082E+03  0.25500000920E-02 0. -1.
    10030    2    1    2    0    0  0.00000000000E+00  0.00000000000E+00  0.12127387173E+03  0.19883102934E+04  0.19846083923E+04 0.  0.
        4    1    3    3  502    0 -0.49701481913E+03 -0.72679750088E+03  0.51910134479E+03  0.10221184651E+04  0.12699999809E+01 0.  1.
       -4    1    3    3    0  502  0.49701481913E+03  0.72679750088E+03 -0.39782747306E+03  0.96619182823E+03  0.12699999809E+01 0. -1.
</event>
<event>
 5   0  0.3772949E-05  0.1948625E+04  0.7818609E-02  0.8631024E-01
       -1   -1    0    0    0  501  0.00000000000E+00  0.00000000000E+00  0.59492352381E+03  0.59492352384E+03  0.50400001928E-02 0.  1.
        1   -1    0    0  501    0  0.00000000000E+00  0.00000000000E+00 -0.15956411974E+04  0.15956411974E+04  0.50400001928E-02 0. -1.
    10030    2    1    2    0    0  0.00000000000E+00  0.00000000000E+00 -0.10007176736E+04  0.21905647212E+04  0.19486246267E+04 0.  0.
        2    1    3    3  502    0 -0.76516348106E+03 -0.15581374332E+02 -0.11781873956E+04  0.14049353975E+04  0.25500000920E-02 0. -1.
       -2    1    3    3    0  502  0.76516348106E+03  0.15581374332E+02  0.17746972208E+03  0.78562932369E+03  0.25500000920E-02 0.  1.
</event>
<event>
 5   0  0.7935008E-05  0.1989309E+04  0.7818609E-02  0.8611636E-01
       -2   -1    0    0    0  501  0.00000000000E+00  0.00000000000E+00  0.18618614300E+04  0.18618614300E+04  0.25500000920E-02 0.  1.
        2   -1    0    0  501    0  0.00000000000E+00  0.00000000000E+00 -0.53136997267E+03  0.53136997268E+03  0.25500000920E-02 0. -1.
    10030    2    1    2    0    0  0.00000000000E+00  0.00000000000E+00  0.13304914573E+04  0.23932314026E+04  0.19893086811E+04 0.  0.
        3    1    3    3  502    0 -0.54016183228E+03  0.56840214448E+03  0.14014488702E+04  0.16058999810E+04  0.10100000352E+00 0.  1.
       -3    1    3    3    0  502  0.54016183228E+03 -0.56840214448E+03 -0.70957412899E+02  0.78733142167E+03  0.10100000352E+00 0. -1.
</event>
<event>
 5   0  0.3787698E-05  0.1991841E+04  0.7818609E-02  0.8610445E-01
        1   -1    0    0  501    0  0.00000000000E+00  0.00000000000E+00  0.14004131637E+04  0.14004131637E+04  0.50400001928E-02 0. -1.
       -1   -1    0    0    0  501  0.00000000000E+00  0.00000000000E+00 -0.70826079331E+03  0.70826079333E+03  0.50400001928E-02 0.  1.
    10030    2    1    2    0    0  0.00000000000E+00  0.00000000000E+00  0.69215237041E+03  0.21086739571E+04  0.19918410964E+04 0.  0.
        4    1    3    3  502    0  0.62120059547E+03  0.31599823706E+03 -0.40706718882E+03  0.80712475786E+03  0.12699999809E+01 0.  1.
       -4    1    3    3    0  502 -0.62120059547E+03 -0.31599823706E+03  0.10992195592E+04  0.13015491992E+04  0.12699999809E+01 0. -1.
</event>
<event>
 5   0  0.8022574E-05  0.1988646E+04  0.7818609E-02  0.8611947E-01
       -2   -1    0    0    0  501  0.00000000000E+00  0.00000000000E+00  0.50211511466E+03  0.50211511466E+03  0.25500000920E-02 0.  1.
        2   -1    0    0  501    0  0.00000000000E+00  0.00000000000E+00 -0.19690279462E+04  0.19690279462E+04  0.25500000920E-02 0. -1.
    10030    2    1    2    0    0  0.00000000000E+00  0.00000000000E+00 -0.14669128315E+04  0.24711430608E+04  0.19886464673E+04 0.  0.
        1    1    3    3  502    0 -0.38614677846E+03  0.88172877010E+03 -0.10431762960E+04  0.14194265543E+04  0.50400001928E-02 0. -1.
       -1    1    3    3    0  502  0.38614677846E+03 -0.88172877010E+03 -0.42373653552E+03  0.10517165065E+04  0.50400001928E-02 0.  1.
</event>
<event>
 5   0  0.7843846E-05  0.1987651E+04  0.7818609E-02  0.8612416E-01
        2   -1    0    0  501    0  0.00000000000E+00  0.00000000000E+00  0.19580577548E+04  0.19580577548E+04  0.25500000920E-02 0.  1.
       -2   -1    0    0    0  501  0.00000000000E+00  0.00000000000E+00 -0.50442272120E+03  0.50442272121E+03  0.25500000920E-02 0. -1.
    10030    2    1    2    0    0  0.00000000000E+00  0.00000000000E+00  0.14536350336E+04  0.24624804760E+04  0.19876506946E+04 0.  0.
        2    1    3    3  502    0 -0.12117498392E+03 -0.74114212989E+03 -0.79616853303E+02  0.75519128488E+03  0.25500000920E-02 0. -1.
       -2    1    3    3    0  502  0.12117498392E+03  0.74114212989E+03  0.15332518869E+04  0.17072891911E+04  0.25500000920E-02 0.  1.
</event>
<event>
 5   0  0.3787698E-05  0.2000126E+04  0.7818609E-02  0.8606562E-01
       -1   -1    0    0    0  501  0.00000000000E+00  0.00000000000E+00  0.13819831203E+04  0.13819831204E+04  0.50400001928E-02 0. -1.
        1   -1    0    0  501    0  0.00000000000E+00  0.00000000000E+00 -0.72368913812E+03  0.72368913814E+03  0.50400001928E-02 0.  1.
    10030    2    1    2    0    0  0.00000000000E+00  0.00000000000E+00  0.65829398222E+03  0.21056722585E+04  0.20001261693E+04 0.  0.
        4    1    3    3  502    0 -0.37206917377E+03 -0.63711906036E+03  0.10398783626E+04  0.12750312895E+04  0.12699999809E+01 0. -1.
       -4    1    3    3    0  502  0.37206917377E+03  0.63711906036E+03 -0.38158438042E+03  0.83064096903E+03  0.12699999809E+01 0.  1.
</event>
<event>
 5   0  0.3772949E-05  0.1979394E+04  0.7818609E-02  0.8616315E-01
        1   -1    0    0  501    0  0.00000000000E+00  0.00000000000E+00  0.12464778033E+04  0.12464778033E+04  0.50400001928E-02 0.  1.
       -1   -1    0    0    0  501  0.00000000000E+00  0.00000000000E+00 -0.78581465532E+03  0.78581465534E+03  0.50400001928E-02 0. -1.
    10030    2    1    2    0    0  0.00000000000E+00  0.00000000000E+00  0.46066314800E+03  0.20322924587E+04  0.19793943775E+04 0.  0.
        2    1    3    3  502    0  0.86446600782E+03 -0.38124007893E+03 -0.72256221941E+02  0.94755814496E+03  0.25500000920E-02 0. -1.
       -2    1    3    3    0  502 -0.86446600782E+03  0.38124007893E+03  0.53291936994E+03  0.10847343137E+04  0.25500000920E-02 0.  1.
</event>
<event>
 5   0  0.7857136E-05  0.2004286E+04  0.7818609E-02  0.8604619E-01
        2   -1    0    0  501    0  0.00000000000E+00  0.00000000000E+00  0.14155721929E+04  0.14155721929E+04  0.25500000920E-02 0. -1.
       -2   -1    0    0    0  501  0.00000000000E+00  0.00000000000E+00 -0.70945943287E+03  0.70945943287E+03  0.25500000920E-02 0.  1.
    10030    2    1    2    0    0  0.00000000000E+00  0.00000000000E+00  0.70611276008E+03  0.21250316258E+04  0.20042864518E+04 0.  0.
        4    1    3    3  502    0 -0.22060326370E+03  0.65464097863E+03 -0.41667513861E+03  0.80674679726E+03  0.12699999809E+01 0.  1.
       -4    1    3    3    0  502  0.22060326370E+03 -0.65464097863E+03  0.11227878987E+04  0.13182848286E+04  0.12699999809E+01 0. -1.
</event>
<event>
 5   0  0.7857136E-05  0.1978425E+04  0.7818609E-02  0.8616775E-01
       -2   -1    0    0    0  501  0.00000000000E+00  0.00000000000E+00  0.48209082215E+03  0.48209082216E+03  0.25500000920E-02 0.  1.
        2   -1    0    0  501    0  0.00000000000E+00  0.00000000000E+00 -0.20297863260E+04  0.20297863260E+04  0.25500000920E-02 0. -1.
    10030    2    1    2    0    0  0.00000000000E+00  0.00000000000E+00 -0.15476955038E+04  0.25118771481E+04  0.19784249884E+04 0.  0.
        4    1    3    3  502    0  0.50648773997E+03 -0.46732462708E+03  0.12716151800E+03  0.70078085189E+03  0.12699999809E+01 0.  1.
       -4    1    3    3    0  502 -0.50648773997E+03  0.46732462708E+03 -0.16748570218E+04  0.18110962962E+04  0.12699999809E+01 0. -1.
</event>
<event>
 5   0  0.3787698E-05  0.1991429E+04  0.7818609E-02  0.8610638E-01
        1   -1    0    0  501    0  0.00000000000E+00  0.00000000000E+00  0.79600910821E+03  0.79600910822E+03  0.50400001928E-02 0. -1.
       -1   -1    0    0    0  501  0.00000000000E+00  0.00000000000E+00 -0.12455232014E+04  0.12455232014E+04  0.50400001928E-02 0.  1.
    10030    2    1    2    0    0  0.00000000000E+00  0.00000000000E+00 -0.44951409318E+03  0.20415323096E+04  0.19914294492E+04 0.  0.
        4    1    3    3  502    0 -0.34950968691E+03 -0.64449476690E+03 -0.91544029377E+03  0.11728440093E+04  0.12699999809E+01 0.  1.
       -4    1    3    3    0  502  0.34950968691E+03  0.64449476690E+03  0.46592620059E+03  0.86868830031E+03  0.12699999809E+01 0. -1.
</event>
<event>
 5   0  0.3772949E-05  0.1994467E+04  0.7818609E-02  0.8609212E-01
        1   -1    0    0  501    0  0.00000000000E+00  0.00000000000E+00  0.87136576531E+03  0.87136576533E+03  0.50400001928E-02 0.  1.
       -1   -1    0    0    0  501  0.00000000000E+00  0.00000000000E+00 -0.11412822532E+04  0.11412822532E+04  0.50400001928E-02 0. -1.
    10030    2    1    2    0    0  0.00000000000E+00  0.00000000000E+00 -0.26991648784E+03  0.20126480185E+04  0.19944666294E+04 0.  0.
        2    1    3    3  502    0  0.84568483352E+03  0.18866607801E+03 -0.63311468811E+03  0.10731318348E+04  0.25500000920E-02 0. -1.
       -2    1    3    3    0  502 -0.84568483352E+03 -0.18866607801E+03  0.36319820028E+03  0.93951618365E+03  0.25500000920E-02 0.  1.
</event>
<event>
 5   0  0.8011197E-05  0.2006104E+04  0.7818609E-02  0.8603772E-01
       -2   -1    0    0    0  501  0.00000000000E+00  0.00000000000E+00  0.61386277372E+03  0.61386277373E+03  0.25500000920E-02 0. -1.
        2   -1    0    0  501    0  0.00000000000E+00  0.00000000000E+00 -0.16389874422E+04  0.16389874422E+04  0.25500000920E-02 0.  1.
    10030    2    1    2    0    0  0.00000000000E+00  0.00000000000E+00 -0.10251246685E+04  0.22528502159E+04  0.20061040625E+04 0.  0.
        5    1    3    3  502    0  0.72604633946E+03  0.31002646263E+03  0.18227436050E+03  0.81025041011E+03  0.46999998093E+01 0.  1.
       -5    1    3    3    0  502 -0.72604633946E+03 -0.31002646263E+03 -0.12073990290E+04  0.14425998058E+04  0.46999998093E+01 0. -1.
</event>
<event>
 5   0  0.8011197E-05  0.1990678E+04  0.7818609E-02  0.8610992E-01
        2   -1    0    0  501    0  0.00000000000E+00  0.00000000000E+00  0.17185848899E+04  0.17185848899E+04  0.25500000920E-02 0. -1.
       -2   -1    0    0    0  501  0.00000000000E+00  0.00000000000E+00 -0.57646234286E+03  0.57646234287E+03  0.25500000920E-02 0.  1.
    10030    2    1    2    0    0  0.00000000000E+00  0.00000000000E+00  0.11421225470E+04  0.22950472328E+04  0.19906777459E+04 0.  0.
        5    1    3    3  502    0 -0.97705697370E+03  0.15651026439E+03  0.69491910590E+03  0.12091610507E+04  0.46999998093E+01 0. -1.
       -5    1    3    3    0  502  0.97705697370E+03 -0.15651026439E+03  0.44720344112E+03  0.10858861821E+04  0.46999998093E+01 0.  1.
</event>
<event>
 5   0  0.3549426E-05  0.1991753E+04  0.7818609E-02  0.8610486E-01
        1   -1    0    0  501    0  0.00000000000E+00  0.00000000000E+00  0.13387815109E+04  0.13387815109E+04  0.50400001928E-02 0. -1.
       -1   -1    0    0    0  501  0.00000000000E+00  0.00000000000E+00 -0.74080066326E+03  0.74080066328E+03  0.50400001928E-02 0.  1.
    10030    2    1    2    0    0  0.00000000000E+00  0.00000000000E+00  0.59798084767E+03  0.20795821742E+04  0.19917532290E+04 0.  0.
        5    1    3    3  502    0 -0.73858500300E+03 -0.27085270449E+03 -0.33857477670E+03  0.85646013544E+03  0.46999998093E+01 0.  1.
       -5    1    3    3    0  502  0.73858500300E+03  0.27085270449E+03  0.93655562437E+03  0.12231220388E+04  0.46999998093E+01 0. -1.
</event>
<event>
 5   0  0.7843846E-05  0.2002142E+04  0.7818609E-02  0.8605620E-01
       -2   -1    0    0    0  501  0.00000000000E+00  0.00000000000E+00  0.11318284243E+04  0.11318284243E+04  0.25500000920E-02 0.  1.
        2   -1    0    0  501    0  0.00000000000E+00  0.00000000000E+00 -0.88541948037E+03  0.88541948038E+03  0.25500000920E-02 0. -1.
    10030    2    1    2    0    0  0.00000000000E+00  0.00000000000E+00  0.24640894393E+03  0.20172479047E+04  0.20021417885E+04 0.  0.
        2    1    3    3  502    0  0.60398552816E+03 -0.79491294035E+03  0.19763903065E+03  0.10177162116E+04  0.25500000920E-02 0.  1.
       -2    1    3    3    0  502 -0.60398552816E+03  0.79491294035E+03  0.48769913286E+02  0.99953169305E+03  0.25500000920E-02 0. -1.
</event>
<event>
 5   0  0.3787698E-05  0.1981009E+04  0.7818609E-02  0.8615551E-01
        1   -1    0    0  501    0  0.00000000000E+00  0.00000000000E+00  0.92087296894E+03  0.92087296896E+03  0.50400001928E-02 0.  1.
       -1   -1    0    0    0  501  0.00000000000E+00  0.00000000000E+00 -0.10654013618E+04  0.10654013618E+04  0.50400001928E-02 0. -1.
    10030    2    1    2    0    0  0.00000000000E+00  0.00000000000E+00 -0.14452839285E+03  0.19862743308E+04  0.19810091521E+04 0.  0.
        4    1    3    3  502    0 -0.78502907266E+03  0.49022469461E+03  0.28152885134E+03  0.96739392347E+03  0.12699999809E+01 0.  1.
       -4    1    3    3    0  502  0.78502907266E+03 -0.49022469461E+03 -0.42605724419E+03  0.10188804073E+04  0.12699999809E+01 0. -1.
</event>
<event>
 5   0  0.7935008E-05  0.2004464E+04  0.7818609E-02  0.8604537E-01
       -2   -1    0    0    0  501  0.00000000000E+00  0.00000000000E+00  0.10066498988E+04  0.10066498988E+04  0.25500000920E-02 0. -1.
        2   -1    0    0  501    0  0.00000000000E+00  0.00000000000E+00 -0.99783325767E+03  0.99783325767E+03  0.25500000920E-02 0.  1.
    10030    2    1    2    0    0  0.00000000000E+00  0.00000000000E+00  0.88166411036E+01  0.20044831565E+04  0.20044637665E+04 0.  0.
        3    1    3    3  502    0 -0.59125705415E+03 -0.76866502725E+03  0.25746789528E+03  0.10033546509E+04  0.10100000352E+00 0. -1.
       -3    1    3    3    0  502  0.59125705415E+03  0.76866502725E+03 -0.24865125417E+03  0.10011285055E+04  0.10100000352E+00 0.  1.
</event>
<event>
 5   0  0.8011197E-05  0.1994514E+04  0.7818609E-02  0.8609190E-01
       -2   -1    0    0    0  501  0.00000000000E+00  0.00000000000E+00  0.20743079770E+04  0.20743079770E+04  0.25500000920E-02 0. -1.
        2   -1    0    0  501    0  0.00000000000E+00  0.00000000000E+00 -0.47944745054E+03  0.47944745055E+03  0.25500000920E-02 0.  1.
    10030    2    1    2    0    0  0.00000000000E+00  0.00000000000E+00  0.15948605265E+04  0.25537554275E+04  0.19945141476E+04 0.  0.
        5    1    3    3  502    0  0.93274984674E+03 -0.15695347469E+03  0.39285362657E+03  0.10242132257E+04  0.46999998093E+01 0.  1.
       -5    1    3    3    0  502 -0.93274984674E+03  0.15695347469E+03  0.12020068999E+04  0.15295422018E+04  0.46999998093E+01 0. -1.
</event>
<event>
 5   0  0.7843846E-05  0.1999504E+04  0.7818609E-02  0.8606853E-01
       -2   -1    0    0    0  501  0.00000000000E+00  0.00000000000E+00  0.19767351053E+04  0.19767351053E+04  0.25500000920E-02 0.  1.
        2   -1    0    0  501    0  0.00000000000E+00  0.00000000000E+00 -0.50563374280E+03  0.50563374280E+03  0.25500000920E-02 0. -1.
    10030    2    1    2    0    0  0.00000000000E+00  0.00000000000E+00  0.14711013625E+04  0.24823688481E+04  0.19995039083E+04 0.  0.
        2    1    3    3  502    0  0.99510335467E+03 -0.81792083882E+02  0.79865145727E+03  0.12785792043E+04  0.25500000920E-02 0.  1.
       -2    1    3    3    0  502 -0.99510335467E+03  0.81792083882E+02  0.67244990522E+03  0.12037896438E+04  0.25500000920E-02 0. -1.
</event>
<event>
 5   0  0.3970042E-05  0.2002811E+04  0.7818609E-02  0.8605307E-01
        1   -1    0    0  501    0  0.00000000000E+00  0.00000000000E+00  0.17668568708E+04  0.17668568708E+04  0.50400001928E-02 0. -1.
       -1   -1    0    0    0  501  0.00000000000E+00  0.00000000000E+00 -0.56756902116E+03  0.56756902118E+03  0.50400001928E-02 0.  1.
    10030    2    1    2    0    0  0.00000000000E+00  0.00000000000E+00  0.11992878496E+04  0.23344258920E+04  0.20028112489E+04 0.  0.
        3    1    3    3  502    0 -0.60822629743E+03 -0.72028137848E+03  0.99330579957E+03  0.13694527793E+04  0.10100000352E+00 0.  1.
       -3    1    3    3    0  502  0.60822629743E+03  0.72028137848E+03  0.20598205007E+03  0.96497311270E+03  0.10100000352E+00 0. -1.
</event>
<event>
 5   0  0.7843846E-05  0.1991809E+04  0.7818609E-02  0.8610460E-01
        2   -1    0    0  501    0  0.00000000000E+00  0.00000000000E+00  0.15475392047E+04  0.15475392047E+04  0.25500000920E-02 0. -1.
       -2   -1    0    0    0  501  0.00000000000E+00  0.00000000000E+00 -0.64090516765E+03  0.64090516766E+03  0.25500000920E-02 0.  1.
    10030    2    1    2    0    0  0.00000000000E+00  0.00000000000E+00  0.90663403708E+03  0.21884443724E+04  0.19918091008E+04 0.  0.
        2    1    3    3  502    0  0.19923131047E+03  0.80145473750E+03 -0.15823112553E+03  0.84086853932E+03  0.25500000920E-02 0.  1.
       -2    1    3    3    0  502 -0.19923131047E+03 -0.80145473750E+03  0.10648651626E+04  0.13475758331E+04  0.25500000920E-02 0. -1.
</event>
<event>
 5   0  0.3549426E-05  0.2007499E+04  0.7818609E-02  0.8603123E-01
       -1   -1    0    0    0  501  0.00000000000E+00  0.00000000000E+00  0.12423842776E+04  0.12423842777E+04  0.50400001928E-02 0.  1.
        1   -1    0    0  501    0  0.00000000000E+00  0.00000000000E+00 -0.81095119652E+03  0.81095119653E+03  0.50400001928E-02 0. -1.
    10030    2    1    2    0    0  0.00000000000E+00  0.00000000000E+00  0.43143308112E+03  0.20533354742E+04  0.20074989579E+04 0.  0.
        5    1    3    3  502    0 -0.38346903108E+03 -0.69262889691E+03 -0.41538665297E+03  0.89406456595E+03  0.46999998093E+01 0. -1.
       -5    1    3    3    0  502  0.38346903108E+03  0.69262889691E+03  0.84681973409E+03  0.11592709082E+04  0.46999998093E+01 0.  1.
</event>
<event>
 5   0  0.3787698E-05  0.1999415E+04  0.7818609E-02  0.8606894E-01
       -1   -1    0    0    0  501  0.00000000000E+00  0.00000000000E+00  0.61248713181E+03  0.61248713183E+03  0.50400001928E-02 0.  1.
        1   -1    0    0  501    0  0.00000000000E+00  0.00000000000E+00 -0.16317325929E+04  0.16317325929E+04  0.50400001928E-02 0. -1.
    10030    2    1    2    0    0  0.00000000000E+00  0.00000000000E+00 -0.10192454611E+04  0.22442197248E+04  0.19994151302E+04 0.  0.
        4    1    3    3  502    0  0.62228867924E+03 -0.28018303457E+03  0.31034720472E+03  0.74970843236E+03  0.12699999809E+01 0.  1.
       -4    1    3    3    0  502 -0.62228867924E+03  0.28018303457E+03 -0.13295926658E+04  0.14945112924E+04  0.12699999809E+01 0. -1.
</event>
<event>
 5   0  0.7935008E-05  0.1999506E+04  0.7818609E-02  0.8606852E-01
        2   -1    0    0  501    0  0.00000000000E+00  0.00000000000E+00  0.73117934269E+03  0.73117934270E+03  0.25500000920E-02 0.  1.
       -2   -1    0    0    0  501  0.00000000000E+00  0.00000000000E+00 -0.13669781200E+04  0.13669781200E+04  0.25500000920E-02 0. -1.
    10030    2    1    2    0    0  0.00000000000E+00  0.00000000000E+00 -0.63579877727E+03  0.20981574627E+04  0.19995061023E+04 0.  0.
        3    1    3    3  502    0 -0.66135677714E+03  0.59551355243E+03  0.16007023642E+03  0.90424093503E+03  0.10100000352E+00 0.  1.
       -3    1    3    3    0  502  0.66135677714E+03 -0.59551355243E+03 -0.79586901368E+03  0.11939165276E+04  0.10100000352E+00 0. -1.
</event>
<event>
 5   0  0.3970042E-05  0.1998129E+04  0.7818609E-02  0.8607496E-01
        1   -1    0    0  501    0  0.00000000000E+00  0.00000000000E+00  0.19600983228E+04  0.19600983228E+04  0.50400001928E-02 0.  1.
       -1   -1    0    0    0  501  0.00000000000E+00  0.00000000000E+00 -0.50922455698E+03  0.50922455700E+03  0.50400001928E-02 0. -1.
    10030    2    1    2    0    0  0.00000000000E+00  0.00000000000E+00  0.14508737658E+04  0.24693228798E+04  0.19981293252E+04 0.  0.
        3    1    3    3  502    0  0.12641254498E+02  0.39531516031E+03 -0.40835149016E+03  0.56849347138E+03  0.10100000352E+00 0. -1.
       -3    1    3    3    0  502 -0.12641254498E+02 -0.39531516031E+03  0.18592252559E+04  0.19008294084E+04  0.10100000352E+00 0.  1.
</event>
<event>
 5   0  0.3772949E-05  0.2008959E+04  0.7818609E-02  0.8602443E-01
        1   -1    0    0  501    0  0.00000000000E+00  0.00000000000E+00  0.74461084489E+03  0.74461084491E+03  0.50400001928E-02 0. -1.
       -1   -1    0    0    0  501  0.00000000000E+00  0.00000000000E+00 -0.13550422090E+04  0.13550422090E+04  0.50400001928E-02 0.  1.
    10030    2    1    2    0    0  0.00000000000E+00  0.00000000000E+00 -0.61043136413E+03  0.20996530539E+04  0.20089590580E+04 0.  0.
        2    1    3    3  502    0 -0.82725753770E+03 -0.52328330328E+03 -0.69655086256E+02  0.98134208114E+03  0.25500000920E-02 0. -1.
       -2    1    3    3    0  502  0.82725753770E+03  0.52328330328E+03 -0.54077627788E+03  0.11183109728E+04  0.25500000920E-02 0.  1.
</event>
<event>
 5   0  0.3772949E-05  0.2003888E+04  0.7818609E-02  0.8604805E-01
       -1   -1    0    0    0  501  0.00000000000E+00  0.00000000000E+00  0.66235669427E+03  0.66235669429E+03  0.50400001928E-02 0.  1.
        1   -1    0    0  501    0  0.00000000000E+00  0.00000000000E+00 -0.15156366130E+04  0.15156366130E+04  0.50400001928E-02 0. -1.
    10030    2    1    2    0    0  0.00000000000E+00  0.00000000000E+00 -0.85327991872E+03  0.21779933073E+04  0.20038882770E+04 0.  0.
        2    1    3    3  502    0 -0.28711406374E+03 -0.85358311201E+03  0.50665864562E+02  0.90200091161E+03  0.25500000920E-02 0.  1.
       -2    1    3    3    0  502  0.28711406374E+03  0.85358311201E+03 -0.90394578328E+03  0.12759923957E+04  0.25500000920E-02 0. -1.
</event>
<event>
 5   0  0.7857136E-05  0.2009602E+04  0.7818609E-02  0.8602144E-01
       -2   -1    0    0    0  501  0.00000000000E+00  0.00000000000E+00  0.16449662737E+04  0.16449662737E+04  0.25500000920E-02 0. -1.
        2   -1    0    0  501    0  0.00000000000E+00  0.00000000000E+00 -0.61376649514E+03  0.61376649515E+03  0.25500000920E-02 0.  1.
    10030    2    1    2    0    0  0.00000000000E+00  0.00000000000E+00  0.10311997785E+04  0.22587327688E+04  0.20096021342E+04 0.  0.
        4    1    3    3  502    0 -0.46031796142E+03  0.88712561058E+03  0.39912329830E+03  0.10761902688E+04  0.12699999809E+01 0.  1.
       -4    1    3    3    0  502  0.46031796142E+03 -0.88712561058E+03  0.63207648023E+03  0.11825425000E+04  0.12699999809E+01 0. -1.
</event>
<event>
 5   0  0.3787698E-05  0.1997722E+04  0.7818609E-02  0.8607686E-01
       -1   -1    0    0    0  501  0.00000000000E+00  0.00000000000E+00  0.11201406297E+04  0.11201406298E+04  0.50400001928E-02 0.  1.
        1   -1    0    0  501    0  0.00000000000E+00  0.00000000000E+00 -0.89071274828E+03  0.89071274829E+03  0.50400001928E-02 0. -1.
    10030    2    1    2    0    0  0.00000000000E+00  0.00000000000E+00  0.22942788147E+03  0.20108533780E+04  0.19977222418E+04 0.  0.
        4    1    3    3  502    0  0.34839164015E+03 -0.21027737149E+03  0.10329207927E+04  0.11101893013E+04  0.12699999809E+01 0.  1.
       -4    1    3    3    0  502 -0.34839164015E+03  0.21027737149E+03 -0.80349291120E+03  0.90066407675E+03  0.12699999809E+01 0. -1.
</event>
<event>
 5   0  0.3818907E-05  0.2013989E+04  0.7818609E-02  0.8600108E-01
        1   -1    0    0  501    0  0.00000000000E+00  0.00000000000E+00  0.79834596015E+03  0.79834596017E+03  0.50400001928E-02 0.  1.
       -1   -1    0    0    0  501  0.00000000000E+00  0.00000000000E+00 -0.12701737772E+04  0.12701737773E+04  0.50400001928E-02 0. -1.
    10030    2    1    2    0    0  0.00000000000E+00  0.00000000000E+00 -0.47182781710E+03  0.20685197374E+04  0.20139891795E+04 0.  0.
        1    1    3    3  502    0 -0.18886869180E+03  0.43623452313E+03 -0.11476809228E+04  0.12422332481E+04  0.50400001928E-02 0. -1.
       -1    1    3    3    0  502  0.18886869180E+03 -0.43623452313E+03  0.67585310575E+03  0.82628648935E+03  0.50400001928E-02 0.  1.
</event>
<event>
 5   0  0.8011197E-05  0.2012041E+04  0.7818609E-02  0.8601012E-01
        2   -1    0    0  501    0  0.00000000000E+00  0.00000000000E+00  0.17479379388E+04  0.17479379388E+04  0.25500000920E-02 0. -1.
       -2   -1    0    0    0  501  0.00000000000E+00  0.00000000000E+00 -0.57901219427E+03  0.57901219427E+03  0.25500000920E-02 0.  1.
    10030    2    1    2    0    0  0.00000000000E+00  0.00000000000E+00  0.11689257446E+04  0.23269501331E+04  0.20120411342E+04 0.  0.
        5    1    3    3  502    0  0.38546015347E+03  0.42166665414E+03  0.15421171294E+04  0.16445454168E+04  0.46999998093E+01 0. -1.
       -5    1    3    3    0  502 -0.38546015347E+03 -0.42166665414E+03 -0.37319138484E+03  0.68240471631E+03  0.46999998093E+01 0.  1.
</event>
<event>
 5   0  0.8022574E-05  0.1994236E+04  0.7818609E-02  0.8609320E-01
        2   -1    0    0  501    0  0.00000000000E+00  0.00000000000E+00  0.10419656596E+04  0.10419656596E+04  0.25500000920E-02 0.  1.
       -2   -1    0    0    0  501  0.00000000000E+00  0.00000000000E+00 -0.95420021983E+03  0.95420021984E+03  0.25500000920E-02 0. -1.
    10030    2    1    2    0    0  0.00000000000E+00  0.00000000000E+00  0.87765439796E+02  0.19961658795E+04  0.19942355543E+04 0.  0.
        1    1    3    3  502    0  0.58488989641E+03  0.46132964252E+03  0.70733846817E+03  0.10272531035E+04  0.50400001928E-02 0.  1.
       -1    1    3    3    0  502 -0.58488989641E+03 -0.46132964252E+03 -0.61957302838E+03  0.96891277601E+03  0.50400001928E-02 0. -1.
</event>
<event>
 5   0  0.8022574E-05  0.1979001E+04  0.7818609E-02  0.8616502E-01
       -2   -1    0    0    0  501  0.00000000000E+00  0.00000000000E+00  0.40400540371E+03  0.40400540372E+03  0.25500000920E-02 0.  1.
        2   -1    0    0  501    0  0.00000000000E+00  0.00000000000E+00 -0.24235113191E+04  0.24235113191E+04  0.25500000920E-02 0. -1.
    10030    2    1    2    0    0  0.00000000000E+00  0.00000000000E+00 -0.20195059154E+04  0.28275167228E+04  0.19790014339E+04 0.  0.
        1    1    3    3  502    0  0.41320809347E+03  0.53987204654E+03 -0.20369791486E+04  0.21474372649E+04  0.50400001928E-02 0. -1.
       -1    1    3    3    0  502 -0.41320809347E+03 -0.53987204654E+03  0.17473233167E+02  0.68007945789E+03  0.50400001928E-02 0.  1.
</event>
<event>
 5   0  0.3970042E-05  0.1996069E+04  0.7818609E-02  0.8608461E-01
       -1   -1    0    0    0  501  0.00000000000E+00  0.00000000000E+00  0.23108840086E+04  0.23108840086E+04  0.50400001928E-02 0. -1.
        1   -1    0    0  501    0  0.00000000000E+00  0.00000000000E+00 -0.43103529587E+03  0.43103529589E+03  0.50400001928E-02 0.  1.
    10030    2    1    2    0    0  0.00000000000E+00  0.00000000000E+00  0.18798487127E+04  0.27419193045E+04  0.19960687086E+04 0.  0.
        3    1    3    3  502    0 -0.40894187793E+03 -0.76010460821E+03  0.16282363201E+04  0.18428635324E+04  0.10100000352E+00 0. -1.
       -3    1    3    3    0  502  0.40894187793E+03  0.76010460821E+03  0.25161239265E+03  0.89905577206E+03  0.10100000352E+00 0.  1.
</event>
<event>
 5   0  0.8011197E-05  0.2006020E+04  0.7818609E-02  0.8603811E-01
       -2   -1    0    0    0  501  0.00000000000E+00  0.00000000000E+00  0.67672467929E+03  0.67672467929E+03  0.25500000920E-02 0. -1.
        2   -1    0    0  501    0  0.00000000000E+00  0.00000000000E+00 -0.14866149094E+04  0.14866149094E+04  0.25500000920E-02 0.  1.
    10030    2    1    2    0    0  0.00000000000E+00  0.00000000000E+00 -0.80989023010E+03  0.21633395887E+04  0.20060199379E+04 0.  0.
        5    1    3    3  502    0  0.78828402378E+03  0.49862510460E+03 -0.72593165566E+01  0.93278801705E+03  0.46999998093E+01 0. -1.
       -5    1    3    3    0  502 -0.78828402378E+03 -0.49862510460E+03 -0.80263091354E+03  0.12305515716E+04  0.46999998093E+01 0.  1.
</event>
<event>
 5   0  0.7843846E-05  0.2008053E+04  0.7818609E-02  0.8602865E-01
        2   -1    0    0  501    0  0.00000000000E+00  0.00000000000E+00  0.95135251922E+03  0.95135251922E+03  0.25500000920E-02 0.  1.
       -2   -1    0    0    0  501  0.00000000000E+00  0.00000000000E+00 -0.10596166202E+04  0.10596166202E+04  0.25500000920E-02 0. -1.
    10030    2    1    2    0    0  0.00000000000E+00  0.00000000000E+00 -0.10826410094E+03  0.20109691394E+04  0.20080527294E+04 0.  0.
        2    1    3    3  502    0 -0.53598183693E+03  0.43096350694E+03  0.67841023547E+03  0.96604685260E+03  0.25500000920E-02 0.  1.
       -2    1    3    3    0  502  0.53598183693E+03 -0.43096350694E+03 -0.78667433641E+03  0.10449222868E+04  0.25500000920E-02 0. -1.
</event>
<event>
 5   0  0.3549426E-05  0.1991484E+04  0.7818609E-02  0.8610613E-01
       -1   -1    0    0    0  501  0.00000000000E+00  0.00000000000E+00  0.12505296507E+04  0.12505296507E+04  0.50400001928E-02 0. -1.
        1   -1    0    0  501    0  0.00000000000E+00  0.00000000000E+00 -0.79286573524E+03  0.79286573525E+03  0.50400001928E-02 0.  1.
    10030    2    1    2    0    0  0.00000000000E+00  0.00000000000E+00  0.45766391549E+03  0.20433953860E+04  0.19914839803E+04 0.  0.
        5    1    3    3  502    0 -0.30740799474E+03 -0.61362025192E+03 -0.51139571987E+03  0.85590721524E+03  0.46999998093E+01 0.  1.
       -5    1    3    3    0  502  0.30740799474E+03  0.61362025192E+03  0.96905963536E+03  0.11874881708E+04  0.46999998093E+01 0. -1.
</event>
<event>
 5   0  0.8022574E-05  0.1995212E+04  0.7818609E-02  0.8608862E-01
        2   -1    0    0  501    0  0.00000000000E+00  0.00000000000E+00  0.82377388341E+03  0.82377388341E+03  0.25500000920E-02 0. -1.
       -2   -1    0    0    0  501  0.00000000000E+00  0.00000000000E+00 -0.12081204522E+04  0.12081204522E+04  0.25500000920E-02 0.  1.
    10030    2    1    2    0    0  0.00000000000E+00  0.00000000000E+00 -0.38434656875E+03  0.20318943356E+04  0.19952123461E+04 0.  0.
        1    1    3    3  502    0 -0.12918952631E+03 -0.64685717027E+03  0.56998699522E+03  0.87177939136E+03  0.50400001928E-02 0. -1.
       -1    1    3    3    0  502  0.12918952631E+03  0.64685717027E+03 -0.95433356397E+03  0.11601149442E+04  0.50400001928E-02 0.  1.
</event>
<event>
 5   0  0.7857136E-05  0.2000887E+04  0.7818609E-02  0.8606206E-01
        2   -1    0    0  501    0  0.00000000000E+00  0.00000000000E+00  0.21239376652E+04  0.21239376652E+04  0.25500000920E-02 0. -1.
       -2   -1    0    0    0  501  0.00000000000E+00  0.00000000000E+00 -0.47124128333E+03  0.47124128333E+03  0.25500000920E-02 0.  1.
    10030    2    1    2    0    0  0.00000000000E+00  0.00000000000E+00  0.16526963818E+04  0.25951789485E+04  0.20008869144E+04 0.  0.
        4    1    3    3  502    0  0.29431252460E+03  0.95064055224E+03  0.69313922443E+03  0.12127575681E+04  0.12699999809E+01 0. -1.
       -4    1    3    3    0  502 -0.29431252460E+03 -0.95064055224E+03  0.95955715740E+03  0.13824213804E+04  0.12699999809E+01 0.  1.
</event>
<event>
 5   0  0.8022574E-05  0.2028297E+04  0.7818609E-02  0.8593504E-01
       -2   -1    0    0    0  501  0.00000000000E+00  0.00000000000E+00  0.75840241936E+03  0.75840241936E+03  0.25500000920E-02 0.  1.
        2   -1    0    0  501    0  0.00000000000E+00  0.00000000000E+00 -0.13561362379E+04  0.13561362379E+04  0.25500000920E-02 0. -1.
    10030    2    1    2    0    0  0.00000000000E+00  0.00000000000E+00 -0.59773381855E+03  0.21145386573E+04  0.20282968262E+04 0.  0.
        1    1    3    3  502    0 -0.60477438546E+03 -0.52587391873E+03 -0.94674177896E+03  0.12404093807E+04  0.50400001928E-02 0. -1.
       -1    1    3    3    0  502  0.60477438546E+03  0.52587391873E+03  0.34900796041E+03  0.87412927657E+03  0.50400001928E-02 0.  1.
</event>
<event>
 5   0  0.7843846E-05  0.1990009E+04  0.7818609E-02  0.8611306E-01
       -2   -1    0    0    0  501  0.00000000000E+00  0.00000000000E+00  0.14357527501E+04  0.14357527501E+04  0.25500000920E-02 0.  1.
        2   -1    0    0  501    0  0.00000000000E+00  0.00000000000E+00 -0.68955725664E+03  0.68955725665E+03  0.25500000920E-02 0. -1.
    10030    2    1    2    0    0  0.00000000000E+00  0.00000000000E+00  0.74619549342E+03  0.21253100067E+04  0.19900087714E+04 0.  0.
        2    1    3    3  502    0 -0.50975742342E+03 -0.35879300944E+02 -0.53870189302E+03  0.74252251449E+03  0.25500000920E-02 0.  1.
       -2    1    3    3    0  502  0.50975742342E+03  0.35879300944E+02  0.12848973864E+04  0.13827874922E+04  0.25500000920E-02 0. -1.
</event>
<event>
 5   0  0.3772949E-05  0.2017180E+04  0.7818609E-02  0.8598630E-01
       -1   -1    0    0    0  501  0.00000000000E+00  0.00000000000E+00  0.67785693636E+03  0.67785693637E+03  0.50400001928E-02 0. -1.
        1   -1    0    0  501    0  0.00000000000E+00  0.00000000000E+00 -0.15006916367E+04  0.15006916367E+04  0.50400001928E-02 0.  1.
    10030    2    1    2    0    0  0.00000000000E+00  0.00000000000E+00 -0.82283470032E+03  0.21785485731E+04  0.20171804434E+04 0.  0.
        2    1    3    3  502    0 -0.15093197714E+03 -0.21213972868E+03 -0.14637746995E+04  0.14867481620E+04  0.25500000920E-02 0.  1.
       -2    1    3    3    0  502  0.15093197714E+03  0.21213972868E+03  0.64093999919E+03  0.69180041108E+03  0.25500000920E-02 0. -1.
</event>
<event>
 5   0  0.3772949E-05  0.1988047E+04  0.7818609E-02  0.8612229E-01
       -1   -1    0    0    0  501  0.00000000000E+00  0.00000000000E+00  0.13415045051E+04  0.13415045051E+04  0.50400001928E-02 0.  1.
        1   -1    0    0  501    0  0.00000000000E+00  0.00000000000E+00 -0.73654837539E+03  0.73654837541E+03  0.50400001928E-02 0. -1.
    10030    2    1    2    0    0  0.00000000000E+00  0.00000000000E+00  0.60495612971E+03  0.20780528805E+04  0.19880472468E+04 0.  0.
        2    1    3    3  502    0  0.52756081247E+03  0.30315931496E+03 -0.51914736626E+03  0.79983746411E+03  0.25500000920E-02 0. -1.
       -2    1    3    3    0  502 -0.52756081247E+03 -0.30315931496E+03  0.11241034960E+04  0.12782154164E+04  0.25500000920E-02 0.  1.
</event>
<event>
 5   0  0.8022574E-05  0.2007904E+04  0.7818609E-02  0.8602934E-01
        2   -1    0    0  501    0  0.00000000000E+00  0.00000000000E+00  0.73145074944E+03  0.73145074944E+03  0.25500000920E-02 0. -1.
       -2   -1    0    0    0  501  0.00000000000E+00  0.00000000000E+00 -0.13779734147E+04  0.13779734147E+04  0.25500000920E-02 0.  1.
    10030    2    1    2    0    0  0.00000000000E+00  0.00000000000E+00 -0.64652266528E+03  0.21094241642E+04  0.20079040683E+04 0.  0.
        1    1    3    3  502    0  0.16317123845E+03 -0.20341696515E+03  0.69524929329E+03  0.74254622389E+03  0.50400001928E-02 0. -1.
       -1    1    3    3    0  502 -0.16317123845E+03  0.20341696515E+03 -0.13417719586E+04  0.13668779403E+04  0.50400001928E-02 0.  1.
</event>
<event>
 5   0  0.3818907E-05  0.1987821E+04  0.7818609E-02  0.8612336E-01
        1   -1    0    0  501    0  0.00000000000E+00  0.00000000000E+00  0.13676765689E+04  0.13676765690E+04  0.50400001928E-02 0. -1.
       -1   -1    0    0    0  501  0.00000000000E+00  0.00000000000E+00 -0.72228897649E+03  0.72228897650E+03  0.50400001928E-02 0.  1.
    10030    2    1    2    0    0  0.00000000000E+00  0.00000000000E+00  0.64538759246E+03  0.20899655455E+04  0.19878206249E+04 0.  0.
        1    1    3    3  502    0 -0.15641526802E+03  0.15347871975E+03  0.13419609554E+04  0.13597355108E+04  0.50400001928E-02 0. -1.
       -1    1    3    3    0  502  0.15641526802E+03 -0.15347871975E+03 -0.69657336296E+03  0.73023003464E+03  0.50400001928E-02 0.  1.
</event>
<event>
 5   0  0.3549426E-05  0.2020703E+04  0.7818609E-02  0.8597002E-01
        1   -1    0    0  501    0  0.00000000000E+00  0.00000000000E+00  0.11850130217E+04  0.11850130218E+04  0.50400001928E-02 0. -1.
       -1   -1    0    0    0  501  0.00000000000E+00  0.00000000000E+00 -0.86143368802E+03  0.86143368804E+03  0.50400001928E-02 0.  1.
    10030    2    1    2    0    0  0.00000000000E+00  0.00000000000E+00  0.32357933372E+03  0.20464467098E+04  0.20207029843E+04 0.  0.
        5    1    3    3  502    0 -0.54558419454E+03  0.65223640046E+03  0.71437239117E+03  0.11105964338E+04  0.46999998093E+01 0. -1.
       -5    1    3    3    0  502  0.54558419454E+03 -0.65223640046E+03 -0.39079305745E+03  0.93585027604E+03  0.46999998093E+01 0.  1.
</event>
<event>
 5   0  0.8022574E-05  0.1997988E+04  0.7818609E-02  0.8607562E-01
        2   -1    0    0  501    0  0.00000000000E+00  0.00000000000E+00  0.27656294309E+04  0.27656294309E+04  0.25500000920E-02 0.  1.
       -2   -1    0    0    0  501  0.00000000000E+00  0.00000000000E+00 -0.36085415025E+03  0.36085415026E+03  0.25500000920E-02 0. -1.
    10030    2    1    2    0    0  0.00000000000E+00  0.00000000000E+00  0.24047752806E+04  0.31264835811E+04  0.19979878460E+04 0.  0.
        1    1    3    3  502    0 -0.97439054619E+03  0.19908108995E+03  0.13501666183E+04  0.16769079027E+04  0.50400001928E-02 0.  1.
       -1    1    3    3    0  502  0.97439054619E+03 -0.19908108995E+03  0.10546086623E+04  0.14495756785E+04  0.50400001928E-02 0. -1.
</event>
<event>
 5   0  0.3787698E-05  0.2043532E+04  0.7818609E-02  0.8586534E-01
        1   -1    0    0  501    0  0.00000000000E+00  0.00000000000E+00  0.11049878718E+04  0.11049878718E+04  0.50400001928E-02 0.  1.
       -1   -1    0    0    0  501  0.00000000000E+00  0.00000000000E+00 -0.94481241805E+03  0.94481241807E+03  0.50400001928E-02 0. -1.
    10030    2    1    2    0    0  0.00000000000E+00  0.00000000000E+00  0.16017545371E+03  0.20498002898E+04  0.20435324936E+04 0.  0.
        4    1    3    3  502    0 -0.86350239286E+03  0.14597498336E+03 -0.44789119150E+03  0.98364282672E+03  0.12699999809E+01 0. -1.
       -4    1    3    3    0  502  0.86350239286E+03 -0.14597498336E+03  0.60806664521E+03  0.10661574631E+04  0.12699999809E+01 0.  1.
</event>
<event>
 5   0  0.7843846E-05  0.2008634E+04  0.7818609E-02  0.8602595E-01
        2   -1    0    0  501    0  0.00000000000E+00  0.00000000000E+00  0.27882931242E+04  0.27882931242E+04  0.25500000920E-02 0.  1.
       -2   -1    0    0    0  501  0.00000000000E+00  0.00000000000E+00 -0.36174539984E+03  0.36174539985E+03  0.25500000920E-02 0. -1.
    10030    2    1    2    0    0  0.00000000000E+00  0.00000000000E+00  0.24265477243E+04  0.31500385240E+04  0.20086335764E+04 0.  0.
        2    1    3    3  502    0 -0.13512999679E+03  0.60686369657E+03 -0.23664992209E+02  0.62217657792E+03  0.25500000920E-02 0. -1.
       -2    1    3    3    0  502  0.13512999679E+03 -0.60686369657E+03  0.24502127166E+04  0.25278619461E+04  0.25500000920E-02 0.  1.
</event>
<event>
 5   0  0.3787698E-05  0.2011400E+04  0.7818609E-02  0.8601309E-01
       -1   -1    0    0    0  501  0.00000000000E+00  0.00000000000E+00  0.98129605179E+03  0.98129605180E+03  0.50400001928E-02 0. -1.
        1   -1    0    0  501    0  0.00000000000E+00  0.00000000000E+00 -0.10307103598E+04  0.10307103598E+04  0.50400001928E-02 0.  1.
    10030    2    1    2    0    0  0.00000000000E+00  0.00000000000E+00 -0.49414307961E+02  0.20120064116E+04  0.20113995193E+04 0.  0.
        4    1    3    3  502    0  0.10742804299E+03 -0.76429319859E+03  0.62027070337E+03  0.99016273217E+03  0.12699999809E+01 0. -1.
       -4    1    3    3    0  502 -0.10742804299E+03  0.76429319859E+03 -0.66968501133E+03  0.10218436794E+04  0.12699999809E+01 0.  1.
</event>
<event>
 5   0  0.3818907E-05  0.1981764E+04  0.7818609E-02  0.8615194E-01
        1   -1    0    0  501    0  0.00000000000E+00  0.00000000000E+00  0.16691244183E+04  0.16691244183E+04  0.50400001928E-02 0. -1.
       -1   -1    0    0    0  501  0.00000000000E+00  0.00000000000E+00 -0.58824099855E+03  0.58824099857E+03  0.50400001928E-02 0.  1.
    10030    2    1    2    0    0  0.00000000000E+00  0.00000000000E+00  0.10808834197E+04  0.22573654168E+04  0.19817642791E+04 0.  0.
        1    1    3    3  502    0  0.44885085393E+03  0.61805086121E+03  0.12594037658E+04  0.14729398499E+04  0.50400001928E-02 0. -1.
       -1    1    3    3    0  502 -0.44885085393E+03 -0.61805086121E+03 -0.17852034606E+03  0.78442556695E+03  0.50400001928E-02 0.  1.
</event>
<event>
 5   0  0.8011197E-05  0.1992097E+04  0.7818609E-02  0.8610324E-01
        2   -1    0    0  501    0  0.00000000000E+00  0.00000000000E+00  0.17770925894E+04  0.17770925894E+04  0.25500000920E-02 0. -1.
       -2   -1    0    0    0  501  0.00000000000E+00  0.00000000000E+00 -0.55827858641E+03  0.55827858641E+03  0.25500000920E-02 0.  1.
    10030    2    1    2    0    0  0.00000000000E+00  0.00000000000E+00  0.12188140030E+04  0.23353711758E+04  0.19920971249E+04 0.  0.
        5    1    3    3  502    0 -0.67619048873E+03  0.52854506486E+03  0.16838629286E+02  0.85842826845E+03  0.46999998093E+01 0.  1.
       -5    1    3    3    0  502  0.67619048873E+03 -0.52854506486E+03  0.12019753737E+04  0.14769429074E+04  0.46999998093E+01 0. -1.
</event>
<event>
 5   0  0.3970042E-05  0.1998728E+04  0.7818609E-02  0.8607216E-01
       -1   -1    0    0    0  501  0.00000000000E+00  0.00000000000E+00  0.21411804304E+04  0.21411804304E+04  0.50400001928E-02 0.  1.
        1   -1    0    0  501    0  0.00000000000E+00  0.00000000000E+00 -0.46643810108E+03  0.46643810110E+03  0.50400001928E-02 0. -1.
    10030    2    1    2    0    0  0.00000000000E+00  0.00000000000E+00  0.16747423293E+04  0.26076185315E+04  0.19987277294E+04 0.  0.
        3    1    3    3  502    0 -0.12413797954E+03 -0.19114800264E+03  0.21068195094E+04  0.21191121378E+04  0.10100000352E+00 0.  1.
       -3    1    3    3    0  502  0.12413797954E+03  0.19114800264E+03 -0.43207718015E+03  0.48850639370E+03  0.10100000352E+00 0. -1.
</event>
<event>
 5   0  0.3970042E-05  0.2004181E+04  0.7818609E-02  0.8604669E-01
       -1   -1    0    0    0  501  0.00000000000E+00  0.00000000000E+00  0.12573643234E+04  0.12573643234E+04  0.50400001928E-02 0. -1.
        1   -1    0    0  501    0  0.00000000000E+00  0.00000000000E+00 -0.79864285981E+03  0.79864285983E+03  0.50400001928E-02 0.  1.
    10030    2    1    2    0    0  0.00000000000E+00  0.00000000000E+00  0.45872146356E+03  0.20560071832E+04  0.20041806696E+04 0.  0.
        3    1    3    3  502    0 -0.59496600263E+03 -0.60744219221E+03  0.77337036317E+03  0.11493790889E+04  0.10100000352E+00 0. -1.
       -3    1    3    3    0  502  0.59496600263E+03  0.60744219221E+03 -0.31464889961E+03  0.90662809431E+03  0.10100000352E+00 0.  1.
</event>
<event>
 5   0  0.7843846E-05  0.2020091E+04  0.7818609E-02  0.8597285E-01
        2   -1    0    0  501    0  0.00000000000E+00  0.00000000000E+00  0.11161887919E+04  0.11161887919E+04  0.25500000920E-02 0.  1.
       -2   -1    0    0    0  501  0.00000000000E+00  0.00000000000E+00 -0.91399598209E+03  0.91399598210E+03  0.25500000920E-02 0. -1.
    10030    2    1    2    0    0  0.00000000000E+00  0.00000000000E+00  0.20219280983E+03  0.20301847740E+04  0.20200911574E+04 0.  0.
        2    1    3    3  502    0 -0.42067576100E+03 -0.65897192637E+03  0.74380723925E+03  0.10791020827E+04  0.25500000920E-02 0.  1.
       -2    1    3    3    0  502  0.42067576100E+03  0.65897192637E+03 -0.54161442942E+03  0.95108269136E+03  0.25500000920E-02 0. -1.
</event>
<event>
 5   0  0.7857136E-05  0.2000266E+04  0.7818609E-02  0.8606496E-01
        2   -1    0    0  501    0  0.00000000000E+00  0.00000000000E+00  0.11940270791E+04  0.11940270791E+04  0.25500000920E-02 0.  1.
       -2   -1    0    0    0  501  0.00000000000E+00  0.00000000000E+00 -0.83772499121E+03  0.83772499121E+03  0.25500000920E-02 0. -1.
    10030    2    1    2    0    0  0.00000000000E+00  0.00000000000E+00  0.35630208789E+03  0.20317520703E+04  0.20002663066E+04 0.  0.
        4    1    3    3  502    0 -0.16995541060E+03  0.90536276260E+03  0.57376628679E+03  0.10852538589E+04  0.12699999809E+01 0.  1.
       -4    1    3    3    0  502  0.16995541060E+03 -0.90536276260E+03 -0.21746419890E+03  0.94649821141E+03  0.12699999809E+01 0. -1.
</event>
<event>
 5   0  0.3970042E-05  0.2017255E+04  0.7818609E-02  0.8598596E-01
       -1   -1    0    0    0  501  0.00000000000E+00  0.00000000000E+00  0.93605855456E+03  0.93605855458E+03  0.50400001928E-02 0. -1.
        1   -1    0    0  501    0  0.00000000000E+00  0.00000000000E+00 -0.10868222311E+04  0.10868222311E+04  0.50400001928E-02 0.  1.
    10030    2    1    2    0    0  0.00000000000E+00  0.00000000000E+00 -0.15076367654E+03  0.20228807857E+04  0.20172548146E+04 0.  0.
        3    1    3    3  502    0 -0.58057148608E+03  0.31019291370E+03  0.69097878657E+03  0.95432415240E+03  0.10100000352E+00 0. -1.
       -3    1    3    3    0  502  0.58057148608E+03 -0.31019291370E+03 -0.84174246311E+03  0.10685566333E+04  0.10100000352E+00 0.  1.
</event>
<event>
 5   0  0.7843846E-05  0.1993955E+04  0.7818609E-02  0.8609452E-01
       -2   -1    0    0    0  501  0.00000000000E+00  0.00000000000E+00  0.16112374778E+04  0.16112374778E+04  0.25500000920E-02 0. -1.
        2   -1    0    0  501    0  0.00000000000E+00  0.00000000000E+00 -0.61689496103E+03  0.61689496104E+03  0.25500000920E-02 0.  1.
    10030    2    1    2    0    0  0.00000000000E+00  0.00000000000E+00  0.99434251679E+03  0.22281324389E+04  0.19939551460E+04 0.  0.
        2    1    3    3  502    0 -0.95052982838E+03 -0.14470037051E+03  0.79180180987E+03  0.12455501828E+04  0.25500000920E-02 0. -1.
       -2    1    3    3    0  502  0.95052982838E+03  0.14470037051E+03  0.20254070692E+03  0.98258225602E+03  0.25500000920E-02 0.  1.
</event>
<event>
 5   0  0.7857136E-05  0.1973166E+04  0.7818609E-02  0.8619270E-01
        2   -1    0    0  501    0  0.00000000000E+00  0.00000000000E+00  0.10402477153E+04  0.10402477153E+04  0.25500000920E-02 0.  1.
       -2   -1    0    0    0  501  0.00000000000E+00  0.00000000000E+00 -0.93568670889E+03  0.93568670889E+03  0.25500000920E-02 0. -1.
    10030    2    1    2    0    0  0.00000000000E+00  0.00000000000E+00  0.10456100639E+03  0.19759344242E+04  0.19731659445E+04 0.  0.
        4    1    3    3  502    0 -0.17447090381E+03  0.27879652227E+03 -0.87917333484E+03  0.93867724096E+03  0.12699999809E+01 0. -1.
       -4    1    3    3    0  502  0.17447090381E+03 -0.27879652227E+03  0.98373434123E+03  0.10372571832E+04  0.12699999809E+01 0.  1.
</event>
<event>
 5   0  0.7935008E-05  0.1968837E+04  0.7818609E-02  0.8621331E-01
       -2   -1    0    0    0  501  0.00000000000E+00  0.00000000000E+00  0.62392470571E+03  0.62392470572E+03  0.25500000920E-02 0. -1.
        2   -1    0    0  501    0  0.00000000000E+00  0.00000000000E+00 -0.15531999214E+04  0.15531999214E+04  0.25500000920E-02 0.  1.
    10030    2    1    2    0    0  0.00000000000E+00  0.00000000000E+00 -0.92927521571E+03  0.21771246271E+04  0.19688370211E+04 0.  0.
        3    1    3    3  502    0 -0.27432510926E+03  0.87110456126E+03 -0.87093517529E+03  0.12619847511E+04  0.10100000352E+00 0.  1.
       -3    1    3    3    0  502  0.27432510926E+03 -0.87110456126E+03 -0.58340040418E+02  0.91513987605E+03  0.10100000352E+00 0. -1.
</event>
<event>
 5   0  0.3970042E-05  0.2029420E+04  0.7818609E-02  0.8592988E-01
       -1   -1    0    0    0  501  0.00000000000E+00  0.00000000000E+00  0.96796051447E+03  0.96796051449E+03  0.50400001928E-02 0. -1.
        1   -1    0    0  501    0  0.00000000000E+00  0.00000000000E+00 -0.10637169656E+04  0.10637169656E+04  0.50400001928E-02 0.  1.
    10030    2    1    2    0    0  0.00000000000E+00  0.00000000000E+00 -0.95756451139E+02  0.20316774801E+04  0.20294196425E+04 0.  0.
        3    1    3    3  502    0  0.42612690407E+03 -0.10615870649E+03  0.86789749327E+03  0.97267665664E+03  0.10100000352E+00 0. -1.
       -3    1    3    3    0  502 -0.42612690407E+03  0.10615870649E+03 -0.96365394441E+03  0.10590008235E+04  0.10100000352E+00 0.  1.
</event>
<event>
 5   0  0.7843846E-05  0.2027307E+04  0.7818609E-02  0.8593959E-01
       -2   -1    0    0    0  501  0.00000000000E+00  0.00000000000E+00  0.16698202916E+04  0.16698202916E+04  0.25500000920E-02 0. -1.
        2   -1    0    0  501    0  0.00000000000E+00  0.00000000000E+00 -0.61533184179E+03  0.61533184180E+03  0.25500000920E-02 0.  1.
    10030    2    1    2    0    0  0.00000000000E+00  0.00000000000E+00  0.10544884498E+04  0.22851521334E+04  0.20273071751E+04 0.  0.
        2    1    3    3  502    0  0.39704559032E+03  0.92363048338E+03  0.67314896312E+03  0.12099041273E+04  0.25500000920E-02 0. -1.
       -2    1    3    3    0  502 -0.39704559032E+03 -0.92363048338E+03  0.38133948671E+03  0.10752480062E+04  0.25500000920E-02 0.  1.
</event>
<event>
 5   0  0.3549426E-05  0.2021954E+04  0.7818609E-02  0.8596425E-01
        1   -1    0    0  501    0  0.00000000000E+00  0.00000000000E+00  0.10520095870E+04  0.10520095870E+04  0.50400001928E-02 0.  1.
       -1   -1    0    0    0  501  0.00000000000E+00  0.00000000000E+00 -0.97154503023E+03  0.97154503024E+03  0.50400001928E-02 0. -1.
    10030    2    1    2    0    0  0.00000000000E+00  0.00000000000E+00  0.80464556754E+02  0.20235546172E+04  0.20219541894E+04 0.  0.
        5    1    3    3  502    0 -0.21026323807E+03  0.24129948712E+03 -0.91949315102E+03  0.97361481939E+03  0.46999998093E+01 0. -1.
       -5    1    3    3    0  502  0.21026323807E+03 -0.24129948712E+03  0.99995770777E+03  0.10499397978E+04  0.46999998093E+01 0.  1.
</event>
<event>
 5   0  0.3787698E-05  0.1998352E+04  0.7818609E-02  0.8607392E-01
        1   -1    0    0  501    0  0.00000000000E+00  0.00000000000E+00  0.10539652294E+04  0.10539652294E+04  0.50400001928E-02 0.  1.
       -1   -1    0    0    0  501  0.00000000000E+00  0.00000000000E+00 -0.94723487680E+03  0.94723487681E+03  0.50400001928E-02 0. -1.
    10030    2    1    2    0    0  0.00000000000E+00  0.00000000000E+00  0.10673035262E+03  0.20012001063E+04  0.19983519453E+04 0.  0.
        4    1    3    3  502    0 -0.29844469237E+02  0.13816604977E+02  0.10534222610E+04  0.10539362712E+04  0.12699999809E+01 0.  1.
       -4    1    3    3    0  502  0.29844469237E+02 -0.13816604977E+02 -0.94669190837E+03  0.94726383504E+03  0.12699999809E+01 0. -1.
</event>
<event>
 5   0  0.7843846E-05  0.2012675E+04  0.7818609E-02  0.8600718E-01
       -2   -1    0    0    0  501  0.00000000000E+00  0.00000000000E+00  0.11300134619E+04  0.11300134619E+04  0.25500000920E-02 0.  1.
        2   -1    0    0  501    0  0.00000000000E+00  0.00000000000E+00 -0.89619726670E+03  0.89619726670E+03  0.25500000920E-02 0. -1.
    10030    2    1    2    0    0  0.00000000000E+00  0.00000000000E+00  0.23381619518E+03  0.20262107286E+04  0.20126748132E+04 0.  0.
        2    1    3    3  502    0 -0.63048680412E+03  0.21011188885E+03 -0.64385550185E+03  0.92531644494E+03  0.25500000920E-02 0. -1.
       -2    1    3    3    0  502  0.63048680412E+03 -0.21011188885E+03  0.87767169702E+03  0.11008942836E+04  0.25500000920E-02 0.  1.
</event>
<event>
 5   0  0.3549426E-05  0.1989809E+04  0.7818609E-02  0.8611400E-01
       -1   -1    0    0    0  501  0.00000000000E+00  0.00000000000E+00  0.10896461823E+04  0.10896461823E+04  0.50400001928E-02 0. -1.
        1   -1    0    0  501    0  0.00000000000E+00  0.00000000000E+00 -0.90840067418E+03  0.90840067420E+03  0.50400001928E-02 0.  1.
    10030    2    1    2    0    0  0.00000000000E+00  0.00000000000E+00  0.18124550814E+03  0.19980468565E+04  0.19898093644E+04 0.  0.
        5    1    3    3  502    0  0.38836198760E+03 -0.85552789575E+02  0.10063569563E+04  0.10820909050E+04  0.46999998093E+01 0. -1.
       -5    1    3    3    0  502 -0.38836198760E+03  0.85552789575E+02 -0.82511144817E+03  0.91595595151E+03  0.46999998093E+01 0.  1.
</event>
<event>
 5   0  0.3549426E-05  0.2004339E+04  0.7818609E-02  0.8604595E-01
        1   -1    0    0  501    0  0.00000000000E+00  0.00000000000E+00  0.20298987776E+04  0.20298987776E+04  0.50400001928E-02 0.  1.
       -1   -1    0    0    0  501  0.00000000000E+00  0.00000000000E+00 -0.49477534489E+03  0.49477534492E+03  0.50400001928E-02 0. -1.
    10030    2    1    2    0    0  0.00000000000E+00  0.00000000000E+00  0.15351234327E+04  0.25246741225E+04  0.20043391607E+04 0.  0.
        5    1    3    3  502    0  0.63035293326E+03 -0.73166320106E+03  0.43040653260E+03  0.10573304751E+04  0.46999998093E+01 0.  1.
       -5    1    3    3    0  502 -0.63035293326E+03  0.73166320106E+03  0.11047169001E+04  0.14673436474E+04  0.46999998093E+01 0. -1.
</event>
<event>
 5   0  0.3970042E-05  0.2001235E+04  0.7818609E-02  0.8606043E-01
       -1   -1    0    0    0  501  0.00000000000E+00  0.00000000000E+00  0.12880409745E+04  0.12880409745E+04  0.50400001928E-02 0. -1.
        1   -1    0    0  501    0  0.00000000000E+00  0.00000000000E+00 -0.77733206844E+03  0.77733206846E+03  0.50400001928E-02 0.  1.
    10030    2    1    2    0    0  0.00000000000E+00  0.00000000000E+00  0.51070890610E+03  0.20653730430E+04  0.20012351736E+04 0.  0.
        3    1    3    3  502    0 -0.38195426443E+03  0.87518099861E+03  0.56394353942E+03  0.11089919595E+04  0.10100000352E+00 0.  1.
       -3    1    3    3    0  502  0.38195426443E+03 -0.87518099861E+03 -0.53234633326E+02  0.95638108348E+03  0.10100000352E+00 0. -1.
</event>
<event>
 5   0  0.3772949E-05  0.1746744E+04  0.7818609E-02  0.8735145E-01
       -1   -1    0    0    0  501  0.00000000000E+00  0.00000000000E+00  0.14187533795E+04  0.14187533795E+04  0.50400001928E-02 0.  1.
        1   -1    0    0  501    0  0.00000000000E+00  0.00000000000E+00 -0.53764015049E+03  0.53764015051E+03  0.50400001928E-02 0. -1.
    10030    2    1    2    0    0  0.00000000000E+00  0.00000000000E+00  0.88111322901E+03  0.19563935300E+04  0.17467441490E+04 0.  0.
        2    1    3    3  502    0 -0.56214754718E+03 -0.30834192355E+03  0.11047728818E+04  0.12773440128E+04  0.25500000920E-02 0.  1.
       -2    1    3    3    0  502  0.56214754718E+03  0.30834192355E+03 -0.22365965276E+03  0.67904951726E+03  0.25500000920E-02 0. -1.
</event>
<event>
 5   0  0.8011197E-05  0.2000692E+04  0.7818609E-02  0.8606297E-01
        2   -1    0    0  501    0  0.00000000000E+00  0.00000000000E+00  0.14415111318E+04  0.14415111318E+04  0.25500000920E-02 0.  1.
       -2   -1    0    0    0  501  0.00000000000E+00  0.00000000000E+00 -0.69419680520E+03  0.69419680521E+03  0.25500000920E-02 0. -1.
    10030    2    1    2    0    0  0.00000000000E+00  0.00000000000E+00  0.74731432662E+03  0.21357079370E+04  0.20006923026E+04 0.  0.
        5    1    3    3  502    0  0.48507311599E+03  0.11759894110E+03  0.12990774689E+04  0.13916715844E+04  0.46999998093E+01 0.  1.
       -5    1    3    3    0  502 -0.48507311599E+03 -0.11759894110E+03 -0.55176314227E+03  0.74403635258E+03  0.46999998093E+01 0. -1.
</event>
<event>
 5   0  0.3787698E-05  0.2000638E+04  0.7818609E-02  0.8606322E-01
       -1   -1    0    0    0  501  0.00000000000E+00  0.00000000000E+00  0.12233326563E+04  0.12233326563E+04  0.50400001928E-02 0.  1.
        1   -1    0    0  501    0  0.00000000000E+00  0.00000000000E+00 -0.81796076471E+03  0.81796076473E+03  0.50400001928E-02 0. -1.
    10030    2    1    2    0    0  0.00000000000E+00  0.00000000000E+00  0.40537189162E+03  0.20412934211E+04  0.20006380133E+04 0.  0.
        4    1    3    3  502    0  0.93303540867E+03 -0.18375414584E+03  0.51934053233E+03  0.10835298156E+04  0.12699999809E+01 0.  1.
       -4    1    3    3    0  502 -0.93303540867E+03  0.18375414584E+03 -0.11396864071E+03  0.95776360544E+03  0.12699999809E+01 0. -1.
</event>
<event>
 5   0  0.3549426E-05  0.2075153E+04  0.7818609E-02  0.8572268E-01
        1   -1    0    0  501    0  0.00000000000E+00  0.00000000000E+00  0.14801527326E+04  0.14801527326E+04  0.50400001928E-02 0.  1.
       -1   -1    0    0    0  501  0.00000000000E+00  0.00000000000E+00 -0.72733360712E+03  0.72733360714E+03  0.50400001928E-02 0. -1.
    10030    2    1    2    0    0  0.00000000000E+00  0.00000000000E+00  0.75281912551E+03  0.22074863398E+04  0.20751528389E+04 0.  0.
        5    1    3    3  502    0 -0.32316998539E+01 -0.10285833821E+04  0.52128759766E+03  0.11531509300E+04  0.46999998093E+01 0.  1.
       -5    1    3    3    0  502  0.32316998539E+01  0.10285833821E+04  0.23153152785E+03  0.10543354098E+04  0.46999998093E+01 0. -1.
</event>
<event>
 5   0  0.7843846E-05  0.1967608E+04  0.7818609E-02  0.8621917E-01
       -2   -1    0    0    0  501  0.00000000000E+00  0.00000000000E+00  0.66854094317E+03  0.66854094318E+03  0.25500000920E-02 0.  1.
        2   -1    0    0  501    0  0.00000000000E+00  0.00000000000E+00 -0.14477346231E+04  0.14477346231E+04  0.25500000920E-02 0. -1.
    10030    2    1    2    0    0  0.00000000000E+00  0.00000000000E+00 -0.77919367989E+03  0.21162755662E+04  0.19676075527E+04 0.  0.
        2    1    3    3  502    0 -0.94900555557E+03 -0.25853614911E+03 -0.36762318016E+03  0.10500472787E+04  0.25500000920E-02 0. -1.
       -2    1    3    3    0  502  0.94900555557E+03  0.25853614911E+03 -0.41157049973E+03  0.10662282875E+04  0.25500000920E-02 0.  1.
</event>
<event>
 5   0  0.3772949E-05  0.2092136E+04  0.7818609E-02  0.8564715E-01
        1   -1    0    0  501    0  0.00000000000E+00  0.00000000000E+00  0.11739636058E+04  0.11739636058E+04  0.50400001928E-02 0.  1.
       -1   -1    0    0    0  501  0.00000000000E+00  0.00000000000E+00 -0.93210572952E+03  0.93210572953E+03  0.50400001928E-02 0. -1.
    10030    2    1    2    0    0  0.00000000000E+00  0.00000000000E+00  0.24185787629E+03  0.21060693354E+04  0.20921359452E+04 0.  0.
        2    1    3    3  502    0 -0.72491142277E+03  0.19644629047E+03  0.85390625994E+03  0.11372086953E+04  0.25500000920E-02 0.  1.
       -2    1    3    3    0  502  0.72491142277E+03 -0.19644629047E+03 -0.61204838365E+03  0.96886064005E+03  0.25500000920E-02 0. -1.
</event>
<event>
 5   0  0.8011197E-05  0.2004356E+04  0.7818609E-02  0.8604587E-01
       -2   -1    0    0    0  501  0.00000000000E+00  0.00000000000E+00  0.12664737202E+04  0.12664737202E+04  0.25500000920E-02 0.  1.
        2   -1    0    0  501    0  0.00000000000E+00  0.00000000000E+00 -0.79303749445E+03  0.79303749445E+03  0.25500000920E-02 0. -1.
    10030    2    1    2    0    0  0.00000000000E+00  0.00000000000E+00  0.47343622577E+03  0.20595112147E+04  0.20043564013E+04 0.  0.
        5    1    3    3  502    0 -0.36526971064E+03 -0.26938627281E+03 -0.68137212606E+03  0.81870690095E+03  0.46999998093E+01 0. -1.
       -5    1    3    3    0  502  0.36526971064E+03  0.26938627281E+03  0.11548083518E+04  0.12408043137E+04  0.46999998093E+01 0.  1.
</event>
<event>
 5   0  0.3818907E-05  0.2020134E+04  0.7818609E-02  0.8597265E-01
       -1   -1    0    0    0  501  0.00000000000E+00  0.00000000000E+00  0.70678012363E+03  0.70678012364E+03  0.50400001928E-02 0.  1.
        1   -1    0    0  501    0  0.00000000000E+00  0.00000000000E+00 -0.14434972621E+04  0.14434972621E+04  0.50400001928E-02 0. -1.
    10030    2    1    2    0    0  0.00000000000E+00  0.00000000000E+00 -0.73671713849E+03  0.21502773858E+04  0.20201338306E+04 0.  0.
        1    1    3    3  502    0 -0.36716858379E+03 -0.34646081450E+03  0.56286717564E+03  0.75608684841E+03  0.50400001928E-02 0.  1.
       -1    1    3    3    0  502  0.36716858379E+03  0.34646081450E+03 -0.12995843141E+04  0.13941905374E+04  0.50400001928E-02 0. -1.
</event>
<event>
 5   0  0.7935008E-05  0.1750110E+04  0.7818609E-02  0.8733290E-01
       -2   -1    0    0    0  501  0.00000000000E+00  0.00000000000E+00  0.68099173897E+03  0.68099173898E+03  0.25500000920E-02 0.  1.
        2   -1    0    0  501    0  0.00000000000E+00  0.00000000000E+00 -0.11244210931E+04  0.11244210931E+04  0.25500000920E-02 0. -1.
    10030    2    1    2    0    0  0.00000000000E+00  0.00000000000E+00 -0.44342935411E+03  0.18054128321E+04  0.17501102543E+04 0.  0.
        3    1    3    3  502    0  0.70041681255E+03  0.11424070445E+03 -0.74983599986E+03  0.10324188524E+04  0.10100000352E+00 0. -1.
       -3    1    3    3    0  502 -0.70041681255E+03 -0.11424070445E+03  0.30640664575E+03  0.77299397968E+03  0.10100000352E+00 0.  1.
</event>
<event>
 5   0  0.8011197E-05  0.2000855E+04  0.7818609E-02  0.8606221E-01
        2   -1    0    0  501    0  0.00000000000E+00  0.00000000000E+00  0.13944586066E+04  0.13944586066E+04  0.25500000920E-02 0.  1.
       -2   -1    0    0    0  501  0.00000000000E+00  0.00000000000E+00 -0.71773781221E+03  0.71773781222E+03  0.25500000920E-02 0. -1.
    10030    2    1    2    0    0  0.00000000000E+00  0.00000000000E+00  0.67672079434E+03  0.21121964188E+04  0.20008554865E+04 0.  0.
        5    1    3    3  502    0  0.34383969112E+03 -0.59419115544E+03  0.11065526081E+04  0.13022171965E+04  0.46999998093E+01 0.  1.
       -5    1    3    3    0  502 -0.34383969112E+03  0.59419115544E+03 -0.42983181375E+03  0.80997922227E+03  0.46999998093E+01 0. -1.
</event>
<event>
 5   0  0.3818907E-05  0.2093399E+04  0.7818609E-02  0.8564157E-01
        1   -1    0    0  501    0  0.00000000000E+00  0.00000000000E+00  0.20329774710E+04  0.20329774710E+04  0.50400001928E-02 0.  1.
       -1   -1    0    0    0  501  0.00000000000E+00  0.00000000000E+00 -0.53890402975E+03  0.53890402978E+03  0.50400001928E-02 0. -1.
    10030    2    1    2    0    0  0.00000000000E+00  0.00000000000E+00  0.14940734412E+04  0.25718815008E+04  0.20933989123E+04 0.  0.
        1    1    3    3  502    0  0.87635039956E+03  0.89522054407E+02  0.52515180398E+02  0.88247496578E+03  0.50400001928E-02 0. -1.
       -1    1    3    3    0  502 -0.87635039956E+03 -0.89522054407E+02  0.14415582608E+04  0.16894065350E+04  0.50400001928E-02 0.  1.
</event>
<event>
 5   0  0.7843846E-05  0.1994751E+04  0.7818609E-02  0.8609079E-01
        2   -1    0    0  501    0  0.00000000000E+00  0.00000000000E+00  0.93737246797E+03  0.93737246797E+03  0.25500000920E-02 0. -1.
       -2   -1    0    0    0  501  0.00000000000E+00  0.00000000000E+00 -0.10612192872E+04  0.10612192872E+04  0.25500000920E-02 0.  1.
    10030    2    1    2    0    0  0.00000000000E+00  0.00000000000E+00 -0.12384681925E+03  0.19985917552E+04  0.19947508539E+04 0.  0.
        2    1    3    3  502    0  0.38101256486E+03 -0.16815623312E+02 -0.98527503814E+03  0.10565132467E+04  0.25500000920E-02 0.  1.
       -2    1    3    3    0  502 -0.38101256486E+03  0.16815623312E+02  0.86142821889E+03  0.94207850845E+03  0.25500000920E-02 0. -1.
</event>
<event>
 5   0  0.8011197E-05  0.1983360E+04  0.7818609E-02  0.8614440E-01
        2   -1    0    0  501    0  0.00000000000E+00  0.00000000000E+00  0.46597109759E+03  0.46597109760E+03  0.25500000920E-02 0. -1.
       -2   -1    0    0    0  501  0.00000000000E+00  0.00000000000E+00 -0.21104940642E+04  0.21104940642E+04  0.25500000920E-02 0.  1.
    10030    2    1    2    0    0  0.00000000000E+00  0.00000000000E+00 -0.16445229666E+04  0.25764651618E+04  0.19833600133E+04 0.  0.
        5    1    3    3  502    0 -0.24487996482E+03  0.95322788548E+03 -0.98028349317E+03  0.13890958987E+04  0.46999998093E+01 0. -1.
       -5    1    3    3    0  502  0.24487996482E+03 -0.95322788548E+03 -0.66423947338E+03  0.11873692630E+04  0.46999998093E+01 0.  1.
</event>
<event>
 5   0  0.3772949E-05  0.1977957E+04  0.7818609E-02  0.8616996E-01
        1   -1    0    0  501    0  0.00000000000E+00  0.00000000000E+00  0.13999773127E+04  0.13999773127E+04  0.50400001928E-02 0. -1.
       -1   -1    0    0    0  501  0.00000000000E+00  0.00000000000E+00 -0.69863873846E+03  0.69863873848E+03  0.50400001928E-02 0.  1.
    10030    2    1    2    0    0  0.00000000000E+00  0.00000000000E+00  0.70133857426E+03  0.20986160512E+04  0.19779569092E+04 0.  0.
        2    1    3    3  502    0  0.34257866551E+02  0.79561072043E+03 -0.27154149575E+03  0.84137078854E+03  0.25500000920E-02 0.  1.
       -2    1    3    3    0  502 -0.34257866551E+02 -0.79561072043E+03  0.97288007001E+03  0.12572452627E+04  0.25500000920E-02 0. -1.
</event>
<event>
 5   0  0.8011197E-05  0.2232893E+04  0.7818609E-02  0.8504861E-01
        2   -1    0    0  501    0  0.00000000000E+00  0.00000000000E+00  0.20182773185E+04  0.20182773185E+04  0.25500000920E-02 0. -1.
       -2   -1    0    0    0  501  0.00000000000E+00  0.00000000000E+00 -0.61758231464E+03  0.61758231465E+03  0.25500000920E-02 0.  1.
    10030    2    1    2    0    0  0.00000000000E+00  0.00000000000E+00  0.14006950039E+04  0.26358596332E+04  0.22328926333E+04 0.  0.
        5    1    3    3  502    0  0.75739823061E+03 -0.70835107164E+03  0.21217418358E+03  0.10585146643E+04  0.46999998093E+01 0.  1.
       -5    1    3    3    0  502 -0.75739823061E+03  0.70835107164E+03  0.11885208203E+04  0.15773449688E+04  0.46999998093E+01 0. -1.
</event>
<event>
 5   0  0.3787698E-05  0.1993622E+04  0.7818609E-02  0.8609608E-01
        1   -1    0    0  501    0  0.00000000000E+00  0.00000000000E+00  0.96651511153E+03  0.96651511154E+03  0.50400001928E-02 0. -1.
       -1   -1    0    0    0  501  0.00000000000E+00  0.00000000000E+00 -0.10280567141E+04  0.10280567141E+04  0.50400001928E-02 0.  1.
    10030    2    1    2    0    0  0.00000000000E+00  0.00000000000E+00 -0.61541602560E+02  0.19945718256E+04  0.19936221806E+04 0.  0.
        4    1    3    3  502    0 -0.56636865068E+03  0.29312233276E+02  0.78937457303E+03  0.97198070194E+03  0.12699999809E+01 0. -1.
       -4    1    3    3    0  502  0.56636865068E+03 -0.29312233276E+02 -0.85091617559E+03  0.10225911237E+04  0.12699999809E+01 0.  1.
</event>
<event>
 5   0  0.3549426E-05  0.2004571E+04  0.7818609E-02  0.8604486E-01
       -1   -1    0    0    0  501  0.00000000000E+00  0.00000000000E+00  0.61936959248E+03  0.61936959250E+03  0.50400001928E-02 0.  1.
        1   -1    0    0  501    0  0.00000000000E+00  0.00000000000E+00 -0.16219336633E+04  0.16219336633E+04  0.50400001928E-02 0. -1.
    10030    2    1    2    0    0  0.00000000000E+00  0.00000000000E+00 -0.10025640708E+04  0.22413032558E+04  0.20045711682E+04 0.  0.
        5    1    3    3  502    0 -0.10031924950E+03 -0.36223930916E+03  0.53756888703E+03  0.65596011100E+03  0.46999998093E+01 0.  1.
       -5    1    3    3    0  502  0.10031924950E+03  0.36223930916E+03 -0.15401329579E+04  0.15853431448E+04  0.46999998093E+01 0. -1.
</event>
<event>
 5   0  0.3549426E-05  0.1890926E+04  0.7818609E-02  0.8659387E-01
        1   -1    0    0  501    0  0.00000000000E+00  0.00000000000E+00  0.79483235426E+03  0.79483235427E+03  0.50400001928E-02 0.  1.
       -1   -1    0    0    0  501  0.00000000000E+00  0.00000000000E+00 -0.11246395279E+04  0.11246395279E+04  0.50400001928E-02 0. -1.
    10030    2    1    2    0    0  0.00000000000E+00  0.00000000000E+00 -0.32980717367E+03  0.19194718822E+04  0.18909255762E+04 0.  0.
        5    1    3    3  502    0 -0.11453485391E+03 -0.34312062199E+03 -0.10516052011E+04  0.11120906362E+04  0.46999998093E+01 0. -1.
       -5    1    3    3    0  502  0.11453485391E+03  0.34312062199E+03  0.72179802747E+03  0.80738124604E+03  0.46999998093E+01 0.  1.
</event>
<event>
 5   0  0.3549426E-05  0.1988200E+04  0.7818609E-02  0.8612158E-01
        1   -1    0    0  501    0  0.00000000000E+00  0.00000000000E+00  0.13568751607E+04  0.13568751607E+04  0.50400001928E-02 0.  1.
       -1   -1    0    0    0  501  0.00000000000E+00  0.00000000000E+00 -0.72831640276E+03  0.72831640278E+03  0.50400001928E-02 0. -1.
    10030    2    1    2    0    0  0.00000000000E+00  0.00000000000E+00  0.62855875797E+03  0.20851915635E+04  0.19881996239E+04 0.  0.
        5    1    3    3  502    0  0.27869365309E+03 -0.70598568634E+03 -0.35900911374E+03  0.83964014634E+03  0.46999998093E+01 0.  1.
       -5    1    3    3    0  502 -0.27869365309E+03  0.70598568634E+03  0.98756787172E+03  0.12455514172E+04  0.46999998093E+01 0. -1.
</event>
<event>
 5   0  0.7935008E-05  0.2067103E+04  0.7818609E-02  0.8575875E-01
        2   -1    0    0  501    0  0.00000000000E+00  0.00000000000E+00  0.60676306329E+03  0.60676306330E+03  0.25500000920E-02 0.  1.
       -2   -1    0    0    0  501  0.00000000000E+00  0.00000000000E+00 -0.17605360994E+04  0.17605360994E+04  0.25500000920E-02 0. -1.
    10030    2    1    2    0    0  0.00000000000E+00  0.00000000000E+00 -0.11537730361E+04  0.23672991627E+04  0.20671025874E+04 0.  0.
        3    1    3    3  502    0  0.52770883311E+03  0.69868658555E+03  0.52038184604E+02  0.87712458649E+03  0.10100000352E+00 0. -1.
       -3    1    3    3    0  502 -0.52770883311E+03 -0.69868658555E+03 -0.12058112207E+04  0.14901745762E+04  0.10100000352E+00 0.  1.
</event>
<event>
 5   0  0.3549426E-05  0.1999580E+04  0.7818609E-02  0.8606817E-01
       -1   -1    0    0    0  501  0.00000000000E+00  0.00000000000E+00  0.41146904815E+03  0.41146904818E+03  0.50400001928E-02 0.  1.
        1   -1    0    0  501    0  0.00000000000E+00  0.00000000000E+00 -0.24292951421E+04  0.24292951421E+04  0.50400001928E-02 0. -1.
    10030    2    1    2    0    0  0.00000000000E+00  0.00000000000E+00 -0.20178260940E+04  0.28407641903E+04  0.19995797157E+04 0.  0.
        5    1    3    3  502    0 -0.95670738320E+03 -0.28999683280E+03 -0.99036297523E+03  0.14072057749E+04  0.46999998093E+01 0.  1.
       -5    1    3    3    0  502  0.95670738320E+03  0.28999683280E+03 -0.10274631187E+04  0.14335584154E+04  0.46999998093E+01 0. -1.
</event>
<event>
 5   0  0.3549426E-05  0.1996531E+04  0.7818609E-02  0.8608244E-01
        1   -1    0    0  501    0  0.00000000000E+00  0.00000000000E+00  0.12383071461E+04  0.12383071461E+04  0.50400001928E-02 0.  1.
       -1   -1    0    0    0  501  0.00000000000E+00  0.00000000000E+00 -0.80475538023E+03  0.80475538024E+03  0.50400001928E-02 0. -1.
    10030    2    1    2    0    0  0.00000000000E+00  0.00000000000E+00  0.43355176584E+03  0.20430625263E+04  0.19965313303E+04 0.  0.
        5    1    3    3  502    0 -0.42279784056E+03 -0.17055285840E+03 -0.69199012848E+03  0.82868493374E+03  0.46999998093E+01 0. -1.
       -5    1    3    3    0  502  0.42279784056E+03  0.17055285840E+03  0.11255418943E+04  0.12143775926E+04  0.46999998093E+01 0.  1.
</event>
<event>
 5   0  0.7935008E-05  0.2014077E+04  0.7818609E-02  0.8600067E-01
       -2   -1    0    0    0  501  0.00000000000E+00  0.00000000000E+00  0.49417851475E+03  0.49417851476E+03  0.25500000920E-02 0.  1.
        2   -1    0    0  501    0  0.00000000000E+00  0.00000000000E+00 -0.20521471749E+04  0.20521471749E+04  0.25500000920E-02 0. -1.
    10030    2    1    2    0    0  0.00000000000E+00  0.00000000000E+00 -0.15579686602E+04  0.25463256897E+04  0.20140774990E+04 0.  0.
        3    1    3    3  502    0 -0.87083989407E+03  0.49976559589E+02 -0.14273506188E+03  0.88387390826E+03  0.10100000352E+00 0.  1.
       -3    1    3    3    0  502  0.87083989407E+03 -0.49976559589E+02 -0.14152335983E+04  0.16624517814E+04  0.10100000352E+00 0. -1.
</event>
<event>
 5   0  0.8022574E-05  0.2000655E+04  0.7818609E-02  0.8606315E-01
       -2   -1    0    0    0  501  0.00000000000E+00  0.00000000000E+00  0.15245011130E+04  0.15245011130E+04  0.25500000920E-02 0. -1.
        2   -1    0    0  501    0  0.00000000000E+00  0.00000000000E+00 -0.65638182355E+03  0.65638182356E+03  0.25500000920E-02 0.  1.
    10030    2    1    2    0    0  0.00000000000E+00  0.00000000000E+00  0.86811928948E+03  0.21808829366E+04  0.20006547134E+04 0.  0.
        1    1    3    3  502    0  0.58789515570E+03  0.42902086395E+03  0.11821589213E+04  0.13882288467E+04  0.50400001928E-02 0. -1.
       -1    1    3    3    0  502 -0.58789515570E+03 -0.42902086395E+03 -0.31403963178E+03  0.79265408985E+03  0.50400001928E-02 0.  1.
</event>
<event>
 5   0  0.7857136E-05  0.2099456E+04  0.7818609E-02  0.8561483E-01
        2   -1    0    0  501    0  0.00000000000E+00  0.00000000000E+00  0.11396080071E+04  0.11396080071E+04  0.25500000920E-02 0. -1.
       -2   -1    0    0    0  501  0.00000000000E+00  0.00000000000E+00 -0.96693656279E+03  0.96693656279E+03  0.25500000920E-02 0.  1.
    10030    2    1    2    0    0  0.00000000000E+00  0.00000000000E+00  0.17267144436E+03  0.21065445699E+04  0.20994557860E+04 0.  0.
        4    1    3    3  502    0 -0.69429691316E+03 -0.68193199819E+03 -0.30849972401E+03  0.10209080009E+04  0.12699999809E+01 0. -1.
       -4    1    3    3    0  502  0.69429691316E+03  0.68193199819E+03  0.48117116837E+03  0.10856365690E+04  0.12699999809E+01 0.  1.
</event>
<event>
 5   0  0.3772949E-05  0.2001678E+04  0.7818609E-02  0.8605836E-01
        1   -1    0    0  501    0  0.00000000000E+00  0.00000000000E+00  0.18631750117E+04  0.18631750117E+04  0.50400001928E-02 0.  1.
       -1   -1    0    0    0  501  0.00000000000E+00  0.00000000000E+00 -0.53761939956E+03  0.53761939958E+03  0.50400001928E-02 0. -1.
    10030    2    1    2    0    0  0.00000000000E+00  0.00000000000E+00  0.13255556121E+04  0.24007944113E+04  0.20016783269E+04 0.  0.
        2    1    3    3  502    0  0.32679749571E+03 -0.63179535389E+03  0.15072349549E+04  0.16666490878E+04  0.25500000920E-02 0.  1.
       -2    1    3    3    0  502 -0.32679749571E+03  0.63179535389E+03 -0.18167934281E+03  0.73414532349E+03  0.25500000920E-02 0. -1.
</event>
<event>
 5   0  0.8011197E-05  0.2010330E+04  0.7818609E-02  0.8601806E-01
        2   -1    0    0  501    0  0.00000000000E+00  0.00000000000E+00  0.18138930256E+04  0.18138930256E+04  0.25500000920E-02 0. -1.
       -2   -1    0    0    0  501  0.00000000000E+00  0.00000000000E+00 -0.55700993067E+03  0.55700993067E+03  0.25500000920E-02 0.  1.
    10030    2    1    2    0    0  0.00000000000E+00  0.00000000000E+00  0.12568830950E+04  0.23709029563E+04  0.20103297525E+04 0.  0.
        5    1    3    3  502    0  0.58179729413E+03  0.80062356201E+03  0.83558017917E+03  0.12952615587E+04  0.46999998093E+01 0. -1.
       -5    1    3    3    0  502 -0.58179729413E+03 -0.80062356201E+03  0.42130291581E+03  0.10756413977E+04  0.46999998093E+01 0.  1.
</event>
<event>
 5   0  0.3787698E-05  0.1992692E+04  0.7818609E-02  0.8610045E-01
        1   -1    0    0  501    0  0.00000000000E+00  0.00000000000E+00  0.12349700650E+04  0.12349700651E+04  0.50400001928E-02 0.  1.
       -1   -1    0    0    0  501  0.00000000000E+00  0.00000000000E+00 -0.80382966886E+03  0.80382966888E+03  0.50400001928E-02 0. -1.
    10030    2    1    2    0    0  0.00000000000E+00  0.00000000000E+00  0.43114039618E+03  0.20387997339E+04  0.19926922276E+04 0.  0.
        4    1    3    3  502    0  0.73922034861E+03  0.32655833500E+03  0.81182101257E+03  0.11454876862E+04  0.12699999809E+01 0.  1.
       -4    1    3    3    0  502 -0.73922034861E+03 -0.32655833500E+03 -0.38068061639E+03  0.89331204769E+03  0.12699999809E+01 0. -1.
</event>
<event>
 5   0  0.8022574E-05  0.1983494E+04  0.7818609E-02  0.8614377E-01
        2   -1    0    0  501    0  0.00000000000E+00  0.00000000000E+00  0.11696256120E+04  0.11696256120E+04  0.25500000920E-02 0. -1.
       -2   -1    0    0    0  501  0.00000000000E+00  0.00000000000E+00 -0.84092004839E+03  0.84092004839E+03  0.25500000920E-02 0.  1.
    10030    2    1    2    0    0  0.00000000000E+00  0.00000000000E+00  0.32870556364E+03  0.20105456604E+04  0.19834935102E+04 0.  0.
        1    1    3    3  502    0 -0.50610250309E+03  0.15497223274E+03  0.10144841350E+04  0.11442614198E+04  0.50400001928E-02 0. -1.
       -1    1    3    3    0  502  0.50610250309E+03 -0.15497223274E+03 -0.68577857140E+03  0.86628424063E+03  0.50400001928E-02 0.  1.
</event>
<event>
 5   0  0.8011197E-05  0.2023140E+04  0.7818609E-02  0.8595878E-01
       -2   -1    0    0    0  501  0.00000000000E+00  0.00000000000E+00  0.72333773819E+03  0.72333773819E+03  0.25500000920E-02 0. -1.
        2   -1    0    0  501    0  0.00000000000E+00  0.00000000000E+00 -0.14146551599E+04  0.14146551599E+04  0.25500000920E-02 0.  1.
    10030    2    1    2    0    0  0.00000000000E+00  0.00000000000E+00 -0.69131742174E+03  0.21379928981E+04  0.20231396034E+04 0.  0.
        5    1    3    3  502    0  0.57708723084E+03  0.52722510365E+03 -0.10241801568E+04  0.12883955392E+04  0.46999998093E+01 0.  1.
       -5    1    3    3    0  502 -0.57708723084E+03 -0.52722510365E+03  0.33286273503E+03  0.84959735892E+03  0.46999998093E+01 0. -1.
</event>
<event>
 5   0  0.7843846E-05  0.1983223E+04  0.7818609E-02  0.8614505E-01
        2   -1    0    0  501    0  0.00000000000E+00  0.00000000000E+00  0.96767912624E+03  0.96767912624E+03  0.25500000920E-02 0. -1.
       -2   -1    0    0    0  501  0.00000000000E+00  0.00000000000E+00 -0.10161358556E+04  0.10161358556E+04  0.25500000920E-02 0.  1.
    10030    2    1    2    0    0  0.00000000000E+00  0.00000000000E+00 -0.48456729376E+02  0.19838149819E+04  0.19832230907E+04 0.  0.
        2    1    3    3  502    0  0.26319052557E+03 -0.69437329830E+03 -0.68159260740E+03  0.10079642913E+04  0.25500000920E-02 0.  1.
       -2    1    3    3    0  502 -0.26319052557E+03  0.69437329830E+03  0.63313587802E+03  0.97585069052E+03  0.25500000920E-02 0. -1.
</event>
<event>
 5   0  0.3818907E-05  0.2004457E+04  0.7818609E-02  0.8604540E-01
       -1   -1    0    0    0  501  0.00000000000E+00  0.00000000000E+00  0.70083209144E+03  0.70083209146E+03  0.50400001928E-02 0. -1.
        1   -1    0    0  501    0  0.00000000000E+00  0.00000000000E+00 -0.14332421017E+04  0.14332421017E+04  0.50400001928E-02 0.  1.
    10030    2    1    2    0    0  0.00000000000E+00  0.00000000000E+00 -0.73241001023E+03  0.21340741931E+04  0.20044570933E+04 0.  0.
        1    1    3    3  502    0 -0.52538139965E+03  0.56734532607E+03 -0.10450533923E+04  0.13000165102E+04  0.50400001928E-02 0.  1.
       -1    1    3    3    0  502  0.52538139965E+03 -0.56734532607E+03  0.31264338203E+03  0.83405768293E+03  0.50400001928E-02 0. -1.
</event>
<event>
 5   0  0.3787698E-05  0.1755587E+04  0.7818609E-02  0.8730281E-01
        1   -1    0    0  501    0  0.00000000000E+00  0.00000000000E+00  0.12316056730E+04  0.12316056730E+04  0.50400001928E-02 0. -1.
       -1   -1    0    0    0  501  0.00000000000E+00  0.00000000000E+00 -0.62562323636E+03  0.62562323638E+03  0.50400001928E-02 0.  1.
    10030    2    1    2    0    0  0.00000000000E+00  0.00000000000E+00  0.60598243667E+03  0.18572289094E+04  0.17555866565E+04 0.  0.
        4    1    3    3  502    0  0.32970308491E+03  0.46169622529E+03  0.10115860184E+04  0.11598169744E+04  0.12699999809E+01 0. -1.
       -4    1    3    3    0  502 -0.32970308491E+03 -0.46169622529E+03 -0.40560358174E+03  0.69741193499E+03  0.12699999809E+01 0.  1.
</event>
<event>
 5   0  0.7843846E-05  0.1996289E+04  0.7818609E-02  0.8608358E-01
       -2   -1    0    0    0  501  0.00000000000E+00  0.00000000000E+00  0.12557505327E+04  0.12557505327E+04  0.25500000920E-02 0. -1.
        2   -1    0    0  501    0  0.00000000000E+00  0.00000000000E+00 -0.79338400806E+03  0.79338400806E+03  0.25500000920E-02 0.  1.
    10030    2    1    2    0    0  0.00000000000E+00  0.00000000000E+00  0.46236652464E+03  0.20491345408E+04  0.19962889478E+04 0.  0.
        2    1    3    3  502    0 -0.81794756387E+03 -0.18808001692E+03  0.78574423207E+03  0.11496983553E+04  0.25500000920E-02 0.  1.
       -2    1    3    3    0  502  0.81794756387E+03  0.18808001692E+03 -0.32337770743E+03  0.89943618543E+03  0.25500000920E-02 0. -1.
</event>
<event>
 5   0  0.8011197E-05  0.1999453E+04  0.7818609E-02  0.8606876E-01
        2   -1    0    0  501    0  0.00000000000E+00  0.00000000000E+00  0.17402348475E+04  0.17402348475E+04  0.25500000920E-02 0. -1.
       -2   -1    0    0    0  501  0.00000000000E+00  0.00000000000E+00 -0.57432107619E+03  0.57432107620E+03  0.25500000920E-02 0.  1.
    10030    2    1    2    0    0  0.00000000000E+00  0.00000000000E+00  0.11659137713E+04  0.23145559237E+04  0.19994534758E+04 0.  0.
        5    1    3    3  502    0  0.44860733405E+03 -0.86950705584E+03  0.34532445902E+03  0.10375751213E+04  0.46999998093E+01 0.  1.
       -5    1    3    3    0  502 -0.44860733405E+03  0.86950705584E+03  0.82058931232E+03  0.12769808024E+04  0.46999998093E+01 0. -1.
</event>
<event>
 5   0  0.3787698E-05  0.2008758E+04  0.7818609E-02  0.8602537E-01
       -1   -1    0    0    0  501  0.00000000000E+00  0.00000000000E+00  0.13716088893E+04  0.13716088893E+04  0.50400001928E-02 0.  1.
        1   -1    0    0  501    0  0.00000000000E+00  0.00000000000E+00 -0.73547029163E+03  0.73547029165E+03  0.50400001928E-02 0. -1.
    10030    2    1    2    0    0  0.00000000000E+00  0.00000000000E+00  0.63613859768E+03  0.21070791810E+04  0.20087584124E+04 0.  0.
        4    1    3    3  502    0  0.48387160311E+03 -0.87382797574E+03  0.20771081572E+03  0.10202217677E+04  0.12699999809E+01 0. -1.
       -4    1    3    3    0  502 -0.48387160311E+03  0.87382797574E+03  0.42842778196E+03  0.10868574132E+04  0.12699999809E+01 0.  1.
</event>
<event>
 5   0  0.3772949E-05  0.2007210E+04  0.7818609E-02  0.8603257E-01
        1   -1    0    0  501    0  0.00000000000E+00  0.00000000000E+00  0.14601469353E+04  0.14601469353E+04  0.50400001928E-02 0. -1.
       -1   -1    0    0    0  501  0.00000000000E+00  0.00000000000E+00 -0.68980926695E+03  0.68980926697E+03  0.50400001928E-02 0.  1.
    10030    2    1    2    0    0  0.00000000000E+00  0.00000000000E+00  0.77033766836E+03  0.21499562023E+04  0.20072098915E+04 0.  0.
        2    1    3    3  502    0  0.93701737009E+03  0.21367839651E+03  0.75538487374E+02  0.96403634375E+03  0.25500000920E-02 0.  1.
       -2    1    3    3    0  502 -0.93701737009E+03 -0.21367839651E+03  0.69479918098E+03  0.11859198585E+04  0.25500000920E-02 0. -1.
</event>
<event>
 5   0  0.7857136E-05  0.2003748E+04  0.7818609E-02  0.8604870E-01
        2   -1    0    0  501    0  0.00000000000E+00  0.00000000000E+00  0.79216219340E+03  0.79216219340E+03  0.25500000920E-02 0.  1.
       -2   -1    0    0    0  501  0.00000000000E+00  0.00000000000E+00 -0.12671038941E+04  0.12671038941E+04  0.25500000920E-02 0. -1.
    10030    2    1    2    0    0  0.00000000000E+00  0.00000000000E+00 -0.47494170068E+03  0.20592660875E+04  0.20037482876E+04 0.  0.
        4    1    3    3  502    0 -0.92001893525E+03 -0.39555980308E+03 -0.20754731148E+03  0.10227315867E+04  0.12699999809E+01 0.  1.
       -4    1    3    3    0  502  0.92001893525E+03  0.39555980308E+03 -0.26739438920E+03  0.10365345008E+04  0.12699999809E+01 0. -1.
</event>
<event>
 5   0  0.3549426E-05  0.2004674E+04  0.7818609E-02  0.8604438E-01
        1   -1    0    0  501    0  0.00000000000E+00  0.00000000000E+00  0.23104645673E+04  0.23104645673E+04  0.50400001928E-02 0.  1.
       -1   -1    0    0    0  501  0.00000000000E+00  0.00000000000E+00 -0.43483879305E+03  0.43483879308E+03  0.50400001928E-02 0. -1.
    10030    2    1    2    0    0  0.00000000000E+00  0.00000000000E+00  0.18756257742E+04  0.27453033604E+04  0.20046741619E+04 0.  0.
        5    1    3    3  502    0  0.43810577554E+03 -0.41480490809E+03  0.20339366462E+04  0.21215372147E+04  0.46999998093E+01 0.  1.
       -5    1    3    3    0  502 -0.43810577554E+03  0.41480490809E+03 -0.15831087200E+03  0.62376614571E+03  0.46999998093E+01 0. -1.
</event>
<event>
 5   0  0.7857136E-05  0.2003248E+04  0.7818609E-02  0.8605104E-01
        2   -1    0    0  501    0  0.00000000000E+00  0.00000000000E+00  0.16140108308E+04  0.16140108308E+04  0.25500000920E-02 0.  1.
       -2   -1    0    0    0  501  0.00000000000E+00  0.00000000000E+00 -0.62158847769E+03  0.62158847770E+03  0.25500000920E-02 0. -1.
    10030    2    1    2    0    0  0.00000000000E+00  0.00000000000E+00  0.99242235314E+03  0.22355993085E+04  0.20032478981E+04 0.  0.
        4    1    3    3  502    0 -0.39398583755E+03  0.62119362247E+03 -0.26244894521E+03  0.78101691309E+03  0.12699999809E+01 0. -1.
       -4    1    3    3    0  502  0.39398583755E+03 -0.62119362247E+03  0.12548712984E+04  0.14545823954E+04  0.12699999809E+01 0.  1.
</event>
<event>
 5   0  0.7857136E-05  0.2021822E+04  0.7818609E-02  0.8596486E-01
        2   -1    0    0  501    0  0.00000000000E+00  0.00000000000E+00  0.99159328360E+03  0.99159328360E+03  0.25500000920E-02 0. -1.
       -2   -1    0    0    0  501  0.00000000000E+00  0.00000000000E+00 -0.10306047630E+04  0.10306047630E+04  0.25500000920E-02 0.  1.
    10030    2    1    2    0    0  0.00000000000E+00  0.00000000000E+00 -0.39011479388E+02  0.20221980466E+04  0.20218217142E+04 0.  0.
        4    1    3    3  502    0 -0.55939570264E+02 -0.10085704133E+04 -0.59458562223E+02  0.10118697780E+04  0.12699999809E+01 0. -1.
       -4    1    3    3    0  502  0.55939570264E+02  0.10085704133E+04  0.20447082836E+02  0.10103282686E+04  0.12699999809E+01 0.  1.
</event>
<event>
 5   0  0.7935008E-05  0.1997796E+04  0.7818609E-02  0.8607652E-01
        2   -1    0    0  501    0  0.00000000000E+00  0.00000000000E+00  0.19136968367E+04  0.19136968367E+04  0.25500000920E-02 0.  1.
       -2   -1    0    0    0  501  0.00000000000E+00  0.00000000000E+00 -0.52139751630E+03  0.52139751630E+03  0.25500000920E-02 0. -1.
    10030    2    1    2    0    0  0.00000000000E+00  0.00000000000E+00  0.13922993204E+04  0.24350943530E+04  0.19977955627E+04 0.  0.
        3    1    3    3  502    0  0.59323948303E+03  0.30064195294E+03  0.16045937834E+04  0.17369628344E+04  0.10100000352E+00 0.  1.
       -3    1    3    3    0  502 -0.59323948303E+03 -0.30064195294E+03 -0.21229446299E+03  0.69813151864E+03  0.10100000352E+00 0. -1.
</event>
<event>
 5   0  0.3772949E-05  0.1999770E+04  0.7818609E-02  0.8606728E-01
        1   -1    0    0  501    0  0.00000000000E+00  0.00000000000E+00  0.10577108524E+04  0.10577108524E+04  0.50400001928E-02 0. -1.
       -1   -1    0    0    0  501  0.00000000000E+00  0.00000000000E+00 -0.94522084518E+03  0.94522084519E+03  0.50400001928E-02 0.  1.
    10030    2    1    2    0    0  0.00000000000E+00  0.00000000000E+00  0.11249000717E+03  0.20029316976E+04  0.19997703327E+04 0.  0.
        2    1    3    3  502    0  0.36870468942E+03  0.92630778621E+03  0.13239863578E+03  0.10057428407E+04  0.25500000920E-02 0. -1.
       -2    1    3    3    0  502 -0.36870468942E+03 -0.92630778621E+03 -0.19908628605E+02  0.99718885688E+03  0.25500000920E-02 0.  1.
</event>
<event>
 5   0  0.3787698E-05  0.1782297E+04  0.7818609E-02  0.8715771E-01
       -1   -1    0    0    0  501  0.00000000000E+00  0.00000000000E+00  0.92165876309E+03  0.92165876311E+03  0.50400001928E-02 0.  1.
        1   -1    0    0  501    0  0.00000000000E+00  0.00000000000E+00 -0.86164830262E+03  0.86164830263E+03  0.50400001928E-02 0. -1.
    10030    2    1    2    0    0  0.00000000000E+00  0.00000000000E+00  0.60010460476E+02  0.17833070657E+04  0.17822970671E+04 0.  0.
        4    1    3    3  502    0  0.71889160792E+02 -0.70710299451E+03 -0.50786930395E+03  0.87355339796E+03  0.12699999809E+01 0. -1.
       -4    1    3    3    0  502 -0.71889160792E+02  0.70710299451E+03  0.56787976443E+03  0.90975366778E+03  0.12699999809E+01 0.  1.
</event>
<event>
 5   0  0.3549426E-05  0.1972616E+04  0.7818609E-02  0.8619532E-01
        1   -1    0    0  501    0  0.00000000000E+00  0.00000000000E+00  0.74824067366E+03  0.74824067367E+03  0.50400001928E-02 0.  1.
       -1   -1    0    0    0  501  0.00000000000E+00  0.00000000000E+00 -0.13001214366E+04  0.13001214366E+04  0.50400001928E-02 0. -1.
    10030    2    1    2    0    0  0.00000000000E+00  0.00000000000E+00 -0.55188076297E+03  0.20483621103E+04  0.19726162725E+04 0.  0.
        5    1    3    3  502    0 -0.16839452145E+03  0.48347898621E+03  0.59944448007E+03  0.78833014635E+03  0.46999998093E+01 0.  1.
       -5    1    3    3    0  502  0.16839452145E+03 -0.48347898621E+03 -0.11513252430E+04  0.12600319640E+04  0.46999998093E+01 0. -1.
</event>
<event>
 5   0  0.8022574E-05  0.2007190E+04  0.7818609E-02  0.8603267E-01
        2   -1    0    0  501    0  0.00000000000E+00  0.00000000000E+00  0.13952400704E+04  0.13952400704E+04  0.25500000920E-02 0.  1.
       -2   -1    0    0    0  501  0.00000000000E+00  0.00000000000E+00 -0.72188491954E+03  0.72188491955E+03  0.25500000920E-02 0. -1.
    10030    2    1    2    0    0  0.00000000000E+00  0.00000000000E+00  0.67335515083E+03  0.21171249899E+04  0.20071898425E+04 0.  0.
        1    1    3    3  502    0  0.90192713111E+03 -0.28652927556E+02  0.79994796959E+03  0.12059064202E+04  0.50400001928E-02 0.  1.
       -1    1    3    3    0  502 -0.90192713111E+03  0.28652927556E+02 -0.12659281877E+03  0.91121856976E+03  0.50400001928E-02 0. -1.
</event>
<event>
 5   0  0.8011197E-05  0.2008256E+04  0.7818609E-02  0.8602770E-01
        2   -1    0    0  501    0  0.00000000000E+00  0.00000000000E+00  0.86649797044E+03  0.86649797044E+03  0.25500000920E-02 0. -1.
       -2   -1    0    0    0  501  0.00000000000E+00  0.00000000000E+00 -0.11636189368E+04  0.11636189368E+04  0.25500000920E-02 0.  1.
    10030    2    1    2    0    0  0.00000000000E+00  0.00000000000E+00 -0.29712096632E+03  0.20301169072E+04  0.20082564050E+04 0.  0.
        5    1    3    3  502    0  0.13373062992E+03  0.93232161647E+03 -0.50040648909E+03  0.10665534315E+04  0.46999998093E+01 0.  1.
       -5    1    3    3    0  502 -0.13373062992E+03 -0.93232161647E+03  0.20328552277E+03  0.96356347569E+03  0.46999998093E+01 0. -1.
</event>
<event>
 5   0  0.7857136E-05  0.1966618E+04  0.7818609E-02  0.8622389E-01
        2   -1    0    0  501    0  0.00000000000E+00  0.00000000000E+00  0.73812341519E+03  0.73812341519E+03  0.25500000920E-02 0.  1.
       -2   -1    0    0    0  501  0.00000000000E+00  0.00000000000E+00 -0.13099395144E+04  0.13099395144E+04  0.25500000920E-02 0. -1.
    10030    2    1    2    0    0  0.00000000000E+00  0.00000000000E+00 -0.57181609925E+03  0.20480629296E+04  0.19666184461E+04 0.  0.
        4    1    3    3  502    0 -0.14667618798E+03 -0.85069899986E+03 -0.77624983844E+03  0.11609341571E+04  0.12699999809E+01 0. -1.
       -4    1    3    3    0  502  0.14667618798E+03  0.85069899986E+03  0.20443373919E+03  0.88712877256E+03  0.12699999809E+01 0.  1.
</event>
<event>
 5   0  0.3549426E-05  0.1978787E+04  0.7818609E-02  0.8616603E-01
        1   -1    0    0  501    0  0.00000000000E+00  0.00000000000E+00  0.12346488688E+04  0.12346488688E+04  0.50400001928E-02 0. -1.
       -1   -1    0    0    0  501  0.00000000000E+00  0.00000000000E+00 -0.79285694276E+03  0.79285694278E+03  0.50400001928E-02 0.  1.
    10030    2    1    2    0    0  0.00000000000E+00  0.00000000000E+00  0.44179192608E+03  0.20275058116E+04  0.19787874343E+04 0.  0.
        5    1    3    3  502    0  0.46222081915E+02  0.92933965270E+03 -0.12364039566E+03  0.93867870349E+03  0.46999998093E+01 0.  1.
       -5    1    3    3    0  502 -0.46222081915E+02 -0.92933965270E+03  0.56543232174E+03  0.10888271081E+04  0.46999998093E+01 0. -1.
</event>
<event>
 5   0  0.3818907E-05  0.2004688E+04  0.7818609E-02  0.8604432E-01
       -1   -1    0    0    0  501  0.00000000000E+00  0.00000000000E+00  0.56402174610E+03  0.56402174612E+03  0.50400001928E-02 0. -1.
        1   -1    0    0  501    0  0.00000000000E+00  0.00000000000E+00 -0.17813035040E+04  0.17813035040E+04  0.50400001928E-02 0.  1.
    10030    2    1    2    0    0  0.00000000000E+00  0.00000000000E+00 -0.12172817579E+04  0.23453252501E+04  0.20046884173E+04 0.  0.
        1    1    3    3  502    0 -0.54753103121E+02 -0.94591691088E+03 -0.99121943062E+03  0.13712303469E+04  0.50400001928E-02 0.  1.
       -1    1    3    3    0  502  0.54753103121E+02  0.94591691088E+03 -0.22606232723E+03  0.97409490318E+03  0.50400001928E-02 0. -1.
</event>
<event>
 5   0  0.3772949E-05  0.1988087E+04  0.7818609E-02  0.8612211E-01
       -1   -1    0    0    0  501  0.00000000000E+00  0.00000000000E+00  0.83158239332E+03  0.83158239333E+03  0.50400001928E-02 0.  1.
        1   -1    0    0  501    0  0.00000000000E+00  0.00000000000E+00 -0.11882436670E+04  0.11882436670E+04  0.50400001928E-02 0. -1.
    10030    2    1    2    0    0  0.00000000000E+00  0.00000000000E+00 -0.35666127372E+03  0.20198260604E+04  0.19880870328E+04 0.  0.
        2    1    3    3  502    0 -0.59513612103E+03  0.79616294639E+03 -0.18620503361E+03  0.10113034927E+04  0.25500000920E-02 0. -1.
       -2    1    3    3    0  502  0.59513612103E+03 -0.79616294639E+03 -0.17045624010E+03  0.10085225677E+04  0.25500000920E-02 0.  1.
</event>
<event>
 5   0  0.3772949E-05  0.1992697E+04  0.7818609E-02  0.8610043E-01
        1   -1    0    0  501    0  0.00000000000E+00  0.00000000000E+00  0.18803083209E+04  0.18803083209E+04  0.50400001928E-02 0. -1.
       -1   -1    0    0    0  501  0.00000000000E+00  0.00000000000E+00 -0.52795083895E+03  0.52795083898E+03  0.50400001928E-02 0.  1.
    10030    2    1    2    0    0  0.00000000000E+00  0.00000000000E+00  0.13523574819E+04  0.24082591599E+04  0.19926970222E+04 0.  0.
        2    1    3    3  502    0  0.84130782467E+03  0.53226494950E+03  0.62775367252E+03  0.11769364918E+04  0.25500000920E-02 0.  1.
       -2    1    3    3    0  502 -0.84130782467E+03 -0.53226494950E+03  0.72460380942E+03  0.12313226681E+04  0.25500000920E-02 0. -1.
</event>
<event>
 5   0  0.3549426E-05  0.1995608E+04  0.7818609E-02  0.8608677E-01
        1   -1    0    0  501    0  0.00000000000E+00  0.00000000000E+00  0.77754608800E+03  0.77754608802E+03  0.50400001928E-02 0. -1.
       -1   -1    0    0    0  501  0.00000000000E+00  0.00000000000E+00 -0.12804556736E+04  0.12804556736E+04  0.50400001928E-02 0.  1.
    10030    2    1    2    0    0  0.00000000000E+00  0.00000000000E+00 -0.50290958564E+03  0.20580017617E+04  0.19956084786E+04 0.  0.
        5    1    3    3  502    0 -0.36524983394E+03  0.92638890232E+03 -0.18633489781E+03  0.10130876683E+04  0.46999998093E+01 0.  1.
       -5    1    3    3    0  502  0.36524983394E+03 -0.92638890232E+03 -0.31657468783E+03  0.10449140934E+04  0.46999998093E+01 0. -1.
</event>
<event>
 5   0  0.8022574E-05  0.1992545E+04  0.7818609E-02  0.8610114E-01
       -2   -1    0    0    0  501  0.00000000000E+00  0.00000000000E+00  0.13362993148E+04  0.13362993148E+04  0.25500000920E-02 0. -1.
        2   -1    0    0  501    0  0.00000000000E+00  0.00000000000E+00 -0.74276681342E+03  0.74276681342E+03  0.25500000920E-02 0.  1.
    10030    2    1    2    0    0  0.00000000000E+00  0.00000000000E+00  0.59353250139E+03  0.20790661282E+04  0.19925448892E+04 0.  0.
        1    1    3    3  502    0  0.68753989447E+03  0.45307053105E+03  0.88199025787E+03  0.12066030116E+04  0.50400001928E-02 0. -1.
       -1    1    3    3    0  502 -0.68753989447E+03 -0.45307053105E+03 -0.28845775648E+03  0.87246311664E+03  0.50400001928E-02 0.  1.
</event>
<event>
 5   0  0.3772949E-05  0.2009332E+04  0.7818609E-02  0.8602270E-01
        1   -1    0    0  501    0  0.00000000000E+00  0.00000000000E+00  0.74872801525E+03  0.74872801527E+03  0.50400001928E-02 0. -1.
       -1   -1    0    0    0  501  0.00000000000E+00  0.00000000000E+00 -0.13480912274E+04  0.13480912274E+04  0.50400001928E-02 0.  1.
    10030    2    1    2    0    0  0.00000000000E+00  0.00000000000E+00 -0.59936321210E+03  0.20968192426E+04  0.20093318980E+04 0.  0.
        2    1    3    3  502    0 -0.35702509075E+02 -0.22812373340E+03 -0.13200265572E+04  0.13400691096E+04  0.25500000920E-02 0.  1.
       -2    1    3    3    0  502  0.35702509075E+02  0.22812373340E+03  0.72066334507E+03  0.75675013302E+03  0.25500000920E-02 0. -1.
</event>
<event>
 5   0  0.3818907E-05  0.1993411E+04  0.7818609E-02  0.8609708E-01
       -1   -1    0    0    0  501  0.00000000000E+00  0.00000000000E+00  0.39225444872E+03  0.39225444875E+03  0.50400001928E-02 0. -1.
        1   -1    0    0  501    0  0.00000000000E+00  0.00000000000E+00 -0.25325947451E+04  0.25325947451E+04  0.50400001928E-02 0.  1.
    10030    2    1    2    0    0  0.00000000000E+00  0.00000000000E+00 -0.21403402964E+04  0.29248491939E+04  0.19934107009E+04 0.  0.
        1    1    3    3  502    0  0.34691164117E+03  0.78404007998E+03 -0.32438256714E+03  0.91667365168E+03  0.50400001928E-02 0. -1.
       -1    1    3    3    0  502 -0.34691164117E+03 -0.78404007998E+03 -0.18159577293E+04  0.20081755422E+04  0.50400001928E-02 0.  1.
</event>
<event>
 5   0  0.7857136E-05  0.1994834E+04  0.7818609E-02  0.8609040E-01
       -2   -1    0    0    0  501  0.00000000000E+00  0.00000000000E+00  0.13785221872E+04  0.13785221872E+04  0.25500000920E-02 0. -1.
        2   -1    0    0  501    0  0.00000000000E+00  0.00000000000E+00 -0.72167210852E+03  0.72167210853E+03  0.25500000920E-02 0.  1.
    10030    2    1    2    0    0  0.00000000000E+00  0.00000000000E+00  0.65685007863E+03  0.21001942957E+04  0.19948343425E+04 0.  0.
        4    1    3    3  502    0  0.91337939955E+03 -0.39044093378E+03  0.23347669938E+03  0.10204014075E+04  0.12699999809E+01 0. -1.
       -4    1    3    3    0  502 -0.91337939955E+03  0.39044093378E+03  0.42337337926E+03  0.10797928882E+04  0.12699999809E+01 0.  1.
</event>
<event>
 5   0  0.3549426E-05  0.1953070E+04  0.7818609E-02  0.8628882E-01
        1   -1    0    0  501    0  0.00000000000E+00  0.00000000000E+00  0.15658493257E+04  0.15658493257E+04  0.50400001928E-02 0.  1.
       -1   -1    0    0    0  501  0.00000000000E+00  0.00000000000E+00 -0.60901179790E+03  0.60901179792E+03  0.50400001928E-02 0. -1.
    10030    2    1    2    0    0  0.00000000000E+00  0.00000000000E+00  0.95683752778E+03  0.21748611236E+04  0.19530701094E+04 0.  0.
        5    1    3    3  502    0 -0.60454479467E+03 -0.38583038304E+03  0.12164488989E+04  0.14121294229E+04  0.46999998093E+01 0.  1.
       -5    1    3    3    0  502  0.60454479467E+03  0.38583038304E+03 -0.25961137117E+03  0.76273170072E+03  0.46999998093E+01 0. -1.
</event>
<event>
 5   0  0.3549426E-05  0.2002125E+04  0.7818609E-02  0.8605628E-01
       -1   -1    0    0    0  501  0.00000000000E+00  0.00000000000E+00  0.79106511654E+03  0.79106511656E+03  0.50400001928E-02 0.  1.
        1   -1    0    0  501    0  0.00000000000E+00  0.00000000000E+00 -0.12668056008E+04  0.12668056009E+04  0.50400001928E-02 0. -1.
    10030    2    1    2    0    0  0.00000000000E+00  0.00000000000E+00 -0.47574048430E+03  0.20578707174E+04  0.20021245918E+04 0.  0.
        5    1    3    3  502    0  0.65367934873E+03  0.53314956842E+03  0.31617312832E+03  0.90085109221E+03  0.46999998093E+01 0.  1.
       -5    1    3    3    0  502 -0.65367934873E+03 -0.53314956842E+03 -0.79191361262E+03  0.11570196252E+04  0.46999998093E+01 0. -1.
</event>
<event>
 5   0  0.3772949E-05  0.1985643E+04  0.7818609E-02  0.8613363E-01
       -1   -1    0    0    0  501  0.00000000000E+00  0.00000000000E+00  0.11162518188E+04  0.11162518188E+04  0.50400001928E-02 0. -1.
        1   -1    0    0  501    0  0.00000000000E+00  0.00000000000E+00 -0.88303915275E+03  0.88303915276E+03  0.50400001928E-02 0.  1.
    10030    2    1    2    0    0  0.00000000000E+00  0.00000000000E+00  0.23321266607E+03  0.19992909716E+04  0.19856425261E+04 0.  0.
        2    1    3    3  502    0  0.15809992998E+03 -0.89366607913E+01 -0.87024205716E+03  0.88453190436E+03  0.25500000920E-02 0.  1.
       -2    1    3    3    0  502 -0.15809992998E+03  0.89366607913E+01  0.11034547232E+04  0.11147590672E+04  0.25500000920E-02 0. -1.
</event>
<event>
 5   0  0.8022574E-05  0.2003334E+04  0.7818609E-02  0.8605064E-01
       -2   -1    0    0    0  501  0.00000000000E+00  0.00000000000E+00  0.12835565927E+04  0.12835565927E+04  0.25500000920E-02 0. -1.
        2   -1    0    0  501    0  0.00000000000E+00  0.00000000000E+00 -0.78168459690E+03  0.78168459690E+03  0.25500000920E-02 0.  1.
    10030    2    1    2    0    0  0.00000000000E+00  0.00000000000E+00  0.50187199579E+03  0.20652411896E+04  0.20033336395E+04 0.  0.
        1    1    3    3  502    0 -0.75927939976E+03  0.41686435608E+03  0.76952730183E+03  0.11586428986E+04  0.50400001928E-02 0. -1.
       -1    1    3    3    0  502  0.75927939976E+03 -0.41686435608E+03 -0.26765530604E+03  0.90659829095E+03  0.50400001928E-02 0.  1.
</event>
<event>
 5   0  0.3772949E-05  0.1963639E+04  0.7818609E-02  0.8623812E-01
       -1   -1    0    0    0  501  0.00000000000E+00  0.00000000000E+00  0.85080462627E+03  0.85080462629E+03  0.50400001928E-02 0.  1.
        1   -1    0    0  501    0  0.00000000000E+00  0.00000000000E+00 -0.11330097314E+04  0.11330097314E+04  0.50400001928E-02 0. -1.
    10030    2    1    2    0    0  0.00000000000E+00  0.00000000000E+00 -0.28220510515E+03  0.19838143577E+04  0.19636393978E+04 0.  0.
        2    1    3    3  502    0  0.69632346478E+03  0.60437719920E+03  0.19975349761E+03  0.94341911489E+03  0.25500000920E-02 0. -1.
       -2    1    3    3    0  502 -0.69632346478E+03 -0.60437719920E+03 -0.48195860276E+03  0.10403952428E+04  0.25500000920E-02 0.  1.
</event>
<event>
 5   0  0.8022574E-05  0.1984965E+04  0.7818609E-02  0.8613682E-01
        2   -1    0    0  501    0  0.00000000000E+00  0.00000000000E+00  0.10704471540E+04  0.10704471540E+04  0.25500000920E-02 0. -1.
       -2   -1    0    0    0  501  0.00000000000E+00  0.00000000000E+00 -0.92019665794E+03  0.92019665794E+03  0.25500000920E-02 0.  1.
    10030    2    1    2    0    0  0.00000000000E+00  0.00000000000E+00  0.15025049605E+03  0.19906438119E+04  0.19849653837E+04 0.  0.
        1    1    3    3  502    0 -0.77168629459E+03  0.10779719696E+03  0.69162111641E+03  0.10418539925E+04  0.50400001928E-02 0. -1.
       -1    1    3    3    0  502  0.77168629459E+03 -0.10779719696E+03 -0.54137062036E+03  0.94878981948E+03  0.50400001928E-02 0.  1.
</event>
<event>
 5   0  0.7935008E-05  0.2023548E+04  0.7818609E-02  0.8595690E-01
       -2   -1    0    0    0  501  0.00000000000E+00  0.00000000000E+00  0.12055469066E+04  0.12055469066E+04  0.25500000920E-02 0.  1.
        2   -1    0    0  501    0  0.00000000000E+00  0.00000000000E+00 -0.84914678936E+03  0.84914678936E+03  0.25500000920E-02 0. -1.
    10030    2    1    2    0    0  0.00000000000E+00  0.00000000000E+00  0.35640011726E+03  0.20546936960E+04  0.20235476621E+04 0.  0.
        3    1    3    3  502    0  0.47781389108E+03 -0.48793984059E+03 -0.57981210374E+03  0.89586465964E+03  0.10100000352E+00 0. -1.
       -3    1    3    3    0  502 -0.47781389108E+03  0.48793984059E+03  0.93621222101E+03  0.11588290364E+04  0.10100000352E+00 0.  1.
</event>
<event>
 5   0  0.7935008E-05  0.1960906E+04  0.7818609E-02  0.8625120E-01
        2   -1    0    0  501    0  0.00000000000E+00  0.00000000000E+00  0.80530212495E+03  0.80530212495E+03  0.25500000920E-02 0. -1.
       -2   -1    0    0    0  501  0.00000000000E+00  0.00000000000E+00 -0.11936985025E+04  0.11936985025E+04  0.25500000920E-02 0.  1.
    10030    2    1    2    0    0  0.00000000000E+00  0.00000000000E+00 -0.38839637757E+03  0.19990006275E+04  0.19609058525E+04 0.  0.
        3    1    3    3  502    0  0.23024255871E+03  0.26953433840E+03  0.73768732097E+03  0.81843936192E+03  0.10100000352E+00 0. -1.
       -3    1    3    3    0  502 -0.23024255871E+03 -0.26953433840E+03 -0.11260836985E+04  0.11805612656E+04  0.10100000352E+00 0.  1.
</event>
<event>
 5   0  0.3818907E-05  0.2065163E+04  0.7818609E-02  0.8576746E-01
        1   -1    0    0  501    0  0.00000000000E+00  0.00000000000E+00  0.12378691336E+04  0.12378691336E+04  0.50400001928E-02 0. -1.
       -1   -1    0    0    0  501  0.00000000000E+00  0.00000000000E+00 -0.86133900658E+03  0.86133900659E+03  0.50400001928E-02 0.  1.
    10030    2    1    2    0    0  0.00000000000E+00  0.00000000000E+00  0.37653012698E+03  0.20992081402E+04  0.20651634025E+04 0.  0.
        1    1    3    3  502    0 -0.91730185411E+03 -0.45915405525E+03  0.30836455643E+03  0.10711460394E+04  0.50400001928E-02 0. -1.
       -1    1    3    3    0  502  0.91730185411E+03  0.45915405525E+03  0.68165570553E+02  0.10280621008E+04  0.50400001928E-02 0.  1.
</event>
<event>
 5   0  0.3549426E-05  0.2002000E+04  0.7818609E-02  0.8605686E-01
       -1   -1    0    0    0  501  0.00000000000E+00  0.00000000000E+00  0.11227439850E+04  0.11227439850E+04  0.50400001928E-02 0.  1.
        1   -1    0    0  501    0  0.00000000000E+00  0.00000000000E+00 -0.89245702475E+03  0.89245702476E+03  0.50400001928E-02 0. -1.
    10030    2    1    2    0    0  0.00000000000E+00  0.00000000000E+00  0.23028696026E+03  0.20152010098E+04  0.20019997567E+04 0.  0.
        5    1    3    3  502    0 -0.66282388339E+03 -0.73885866813E+03  0.24534490890E+03  0.10224792644E+04  0.46999998093E+01 0.  1.
       -5    1    3    3    0  502  0.66282388339E+03  0.73885866813E+03 -0.15057948640E+02  0.99272174535E+03  0.46999998093E+01 0. -1.
</event>
<event>
 5   0  0.7935008E-05  0.2192228E+04  0.7818609E-02  0.8521670E-01
        2   -1    0    0  501    0  0.00000000000E+00  0.00000000000E+00  0.15950153644E+04  0.15950153644E+04  0.25500000920E-02 0. -1.
       -2   -1    0    0    0  501  0.00000000000E+00  0.00000000000E+00 -0.75326297586E+03  0.75326297587E+03  0.25500000920E-02 0.  1.
    10030    2    1    2    0    0  0.00000000000E+00  0.00000000000E+00  0.84175238853E+03  0.23482783403E+04  0.21922281085E+04 0.  0.
        3    1    3    3  502    0  0.41061370736E+03 -0.27025420244E+03  0.14703216530E+04  0.15503182654E+04  0.10100000352E+00 0. -1.
       -3    1    3    3    0  502 -0.41061370736E+03  0.27025420244E+03 -0.62856926447E+03  0.79796007484E+03  0.10100000352E+00 0.  1.
</event>
<event>
 5   0  0.3549426E-05  0.2008659E+04  0.7818609E-02  0.8602583E-01
        1   -1    0    0  501    0  0.00000000000E+00  0.00000000000E+00  0.99539789689E+03  0.99539789690E+03  0.50400001928E-02 0.  1.
       -1   -1    0    0    0  501  0.00000000000E+00  0.00000000000E+00 -0.10133407951E+04  0.10133407951E+04  0.50400001928E-02 0. -1.
    10030    2    1    2    0    0  0.00000000000E+00  0.00000000000E+00 -0.17942898200E+02  0.20087386920E+04  0.20086585536E+04 0.  0.
        5    1    3    3  502    0  0.94590346348E+02  0.99793353951E+03  0.52970697422E+02  0.10038160527E+04  0.46999998093E+01 0. -1.
       -5    1    3    3    0  502 -0.94590346348E+02 -0.99793353951E+03 -0.70913595623E+02  0.10049226393E+04  0.46999998093E+01 0.  1.
</event>
<event>
 5   0  0.7843846E-05  0.2001650E+04  0.7818609E-02  0.8605849E-01
       -2   -1    0    0    0  501  0.00000000000E+00  0.00000000000E+00  0.16055771072E+04  0.16055771072E+04  0.25500000920E-02 0.  1.
        2   -1    0    0  501    0  0.00000000000E+00  0.00000000000E+00 -0.62385731777E+03  0.62385731777E+03  0.25500000920E-02 0. -1.
    10030    2    1    2    0    0  0.00000000000E+00  0.00000000000E+00  0.98171978941E+03  0.22294344250E+04  0.20016503466E+04 0.  0.
        2    1    3    3  502    0  0.99004507350E+03 -0.12052199715E+03  0.39809830706E+03  0.10738701325E+04  0.25500000920E-02 0.  1.
       -2    1    3    3    0  502 -0.99004507350E+03  0.12052199715E+03  0.58362148235E+03  0.11555642925E+04  0.25500000920E-02 0. -1.
</event>
<event>
 5   0  0.3818907E-05  0.1779108E+04  0.7818609E-02  0.8717489E-01
       -1   -1    0    0    0  501  0.00000000000E+00  0.00000000000E+00  0.39027844571E+03  0.39027844574E+03  0.50400001928E-02 0.  1.
        1   -1    0    0  501    0  0.00000000000E+00  0.00000000000E+00 -0.20275429424E+04  0.20275429424E+04  0.50400001928E-02 0. -1.
    10030    2    1    2    0    0  0.00000000000E+00  0.00000000000E+00 -0.16372644967E+04  0.24178213882E+04  0.17791079880E+04 0.  0.
        1    1    3    3  502    0 -0.24737553061E+03  0.65816282902E+03 -0.15591771412E+04  0.17103819224E+04  0.50400001928E-02 0. -1.
       -1    1    3    3    0  502  0.24737553061E+03 -0.65816282902E+03 -0.78087355482E+02  0.70743946579E+03  0.50400001928E-02 0.  1.
</event>
<event>
 5   0  0.3818907E-05  0.2000072E+04  0.7818609E-02  0.8606587E-01
       -1   -1    0    0    0  501  0.00000000000E+00  0.00000000000E+00  0.11209163212E+04  0.11209163212E+04  0.50400001928E-02 0. -1.
        1   -1    0    0  501    0  0.00000000000E+00  0.00000000000E+00 -0.89219141243E+03  0.89219141245E+03  0.50400001928E-02 0.  1.
    10030    2    1    2    0    0  0.00000000000E+00  0.00000000000E+00  0.22872490879E+03  0.20131077337E+04  0.20000719146E+04 0.  0.
        1    1    3    3  502    0 -0.12237073786E+03 -0.18612487309E+03 -0.86690444986E+03  0.89506446197E+03  0.50400001928E-02 0.  1.
       -1    1    3    3    0  502  0.12237073786E+03  0.18612487309E+03  0.10956293587E+04  0.11180432717E+04  0.50400001928E-02 0. -1.
</event>
<event>
 5   0  0.3787698E-05  0.2026028E+04  0.7818609E-02  0.8594547E-01
       -1   -1    0    0    0  501  0.00000000000E+00  0.00000000000E+00  0.70947645449E+03  0.70947645450E+03  0.50400001928E-02 0.  1.
        1   -1    0    0  501    0  0.00000000000E+00  0.00000000000E+00 -0.14464152822E+04  0.14464152822E+04  0.50400001928E-02 0. -1.
    10030    2    1    2    0    0  0.00000000000E+00  0.00000000000E+00 -0.73693882770E+03  0.21558917367E+04  0.20260282191E+04 0.  0.
        4    1    3    3  502    0  0.16147303119E+03 -0.53219461716E+03  0.53249600026E+03  0.76997289143E+03  0.12699999809E+01 0.  1.
       -4    1    3    3    0  502 -0.16147303119E+03  0.53219461716E+03 -0.12694348280E+04  0.13859188453E+04  0.12699999809E+01 0. -1.
</event>
<event>
 5   0  0.7857136E-05  0.2005395E+04  0.7818609E-02  0.8604102E-01
       -2   -1    0    0    0  501  0.00000000000E+00  0.00000000000E+00  0.11491028800E+04  0.11491028800E+04  0.25500000920E-02 0.  1.
        2   -1    0    0  501    0  0.00000000000E+00  0.00000000000E+00 -0.87494543775E+03  0.87494543775E+03  0.25500000920E-02 0. -1.
    10030    2    1    2    0    0  0.00000000000E+00  0.00000000000E+00  0.27415744230E+03  0.20240483178E+04  0.20053950458E+04 0.  0.
        4    1    3    3  502    0  0.34582325828E+03 -0.65288795332E+03 -0.54712373944E+03  0.91934890260E+03  0.12699999809E+01 0. -1.
       -4    1    3    3    0  502 -0.34582325828E+03  0.65288795332E+03  0.82128118173E+03  0.11046994152E+04  0.12699999809E+01 0.  1.
</event>
<event>
 5   0  0.3970042E-05  0.1996475E+04  0.7818609E-02  0.8608271E-01
       -1   -1    0    0    0  501  0.00000000000E+00  0.00000000000E+00  0.61057176624E+03  0.61057176626E+03  0.50400001928E-02 0. -1.
        1   -1    0    0  501    0  0.00000000000E+00  0.00000000000E+00 -0.16320402345E+04  0.16320402345E+04  0.50400001928E-02 0.  1.
    10030    2    1    2    0    0  0.00000000000E+00  0.00000000000E+00 -0.10214684682E+04  0.22426120008E+04  0.19964745814E+04 0.  0.
        3    1    3    3  502    0 -0.61320999622E+03 -0.13413186268E+03  0.36114111986E+03  0.72418283237E+03  0.10100000352E+00 0. -1.
       -3    1    3    3    0  502  0.61320999622E+03  0.13413186268E+03 -0.13826095881E+04  0.15184291684E+04  0.10100000352E+00 0.  1.
</event>
<event>
 5   0  0.3549426E-05  0.1998307E+04  0.7818609E-02  0.8607413E-01
        1   -1    0    0  501    0  0.00000000000E+00  0.00000000000E+00  0.10272111083E+04  0.10272111083E+04  0.50400001928E-02 0. -1.
       -1   -1    0    0    0  501  0.00000000000E+00  0.00000000000E+00 -0.97186235214E+03  0.97186235215E+03  0.50400001928E-02 0.  1.
    10030    2    1    2    0    0  0.00000000000E+00  0.00000000000E+00  0.55348756191E+02  0.19990734605E+04  0.19983070874E+04 0.  0.
        5    1    3    3  502    0  0.65672488111E+03  0.72847626145E+03 -0.16297804099E+03  0.99425809768E+03  0.46999998093E+01 0.  1.
       -5    1    3    3    0  502 -0.65672488111E+03 -0.72847626145E+03  0.21832679718E+03  0.10048153628E+04  0.46999998093E+01 0. -1.
</event>
<event>
 5   0  0.3787698E-05  0.1999169E+04  0.7818609E-02  0.8607009E-01
       -1   -1    0    0    0  501  0.00000000000E+00  0.00000000000E+00  0.95956294807E+03  0.95956294808E+03  0.50400001928E-02 0. -1.
        1   -1    0    0  501    0  0.00000000000E+00  0.00000000000E+00 -0.10412753185E+04  0.10412753185E+04  0.50400001928E-02 0.  1.
    10030    2    1    2    0    0  0.00000000000E+00  0.00000000000E+00 -0.81712370397E+02  0.20008382666E+04  0.19991690417E+04 0.  0.
        4    1    3    3  502    0 -0.50616584980E+03  0.44460030354E+03  0.69820083650E+03  0.97023673318E+03  0.12699999809E+01 0. -1.
       -4    1    3    3    0  502  0.50616584980E+03 -0.44460030354E+03 -0.77991320690E+03  0.10306015334E+04  0.12699999809E+01 0.  1.
</event>
<event>
 5   0  0.7843846E-05  0.1992984E+04  0.7818609E-02  0.8609908E-01
       -2   -1    0    0    0  501  0.00000000000E+00  0.00000000000E+00  0.13283349282E+04  0.13283349282E+04  0.25500000920E-02 0. -1.
        2   -1    0    0  501    0  0.00000000000E+00  0.00000000000E+00 -0.74754980150E+03  0.74754980151E+03  0.25500000920E-02 0.  1.
    10030    2    1    2    0    0  0.00000000000E+00  0.00000000000E+00  0.58078512671E+03  0.20758847297E+04  0.19929842066E+04 0.  0.
        2    1    3    3  502    0  0.63664920631E+03 -0.24882778026E+03  0.10456460689E+04  0.12492450430E+04  0.25500000920E-02 0. -1.
       -2    1    3    3    0  502 -0.63664920631E+03  0.24882778026E+03 -0.46486094215E+03  0.82663968673E+03  0.25500000920E-02 0.  1.
</event>
<event>
 5   0  0.7857136E-05  0.2000612E+04  0.7818609E-02  0.8606335E-01
        2   -1    0    0  501    0  0.00000000000E+00  0.00000000000E+00  0.88658459079E+03  0.88658459079E+03  0.25500000920E-02 0. -1.
       -2   -1    0    0    0  501  0.00000000000E+00  0.00000000000E+00 -0.11286140899E+04  0.11286140899E+04  0.25500000920E-02 0.  1.
    10030    2    1    2    0    0  0.00000000000E+00  0.00000000000E+00 -0.24202949910E+03  0.20151986807E+04  0.20006117675E+04 0.  0.
        4    1    3    3  502    0  0.54390569424E+03 -0.80623886627E+03 -0.35672032496E+03  0.10359080639E+04  0.12699999809E+01 0.  1.
       -4    1    3    3    0  502 -0.54390569424E+03  0.80623886627E+03  0.11469082586E+03  0.97929061679E+03  0.12699999809E+01 0. -1.
</event>
<event>
 5   0  0.7857136E-05  0.1984630E+04  0.7818609E-02  0.8613841E-01
        2   -1    0    0  501    0  0.00000000000E+00  0.00000000000E+00  0.94350736200E+03  0.94350736200E+03  0.25500000920E-02 0.  1.
       -2   -1    0    0    0  501  0.00000000000E+00  0.00000000000E+00 -0.10436473530E+04  0.10436473530E+04  0.25500000920E-02 0. -1.
    10030    2    1    2    0    0  0.00000000000E+00  0.00000000000E+00 -0.10013999101E+03  0.19871547150E+04  0.19846299009E+04 0.  0.
        4    1    3    3  502    0  0.56037220585E+02 -0.54787231311E+03 -0.87657946211E+03  0.10352281912E+04  0.12699999809E+01 0. -1.
       -4    1    3    3    0  502 -0.56037220585E+02  0.54787231311E+03  0.77643947110E+03  0.95192652382E+03  0.12699999809E+01 0.  1.
</event>
<event>
 5   0  0.3787698E-05  0.2007429E+04  0.7818609E-02  0.8603155E-01
       -1   -1    0    0    0  501  0.00000000000E+00  0.00000000000E+00  0.12888756389E+04  0.12888756389E+04  0.50400001928E-02 0.  1.
        1   -1    0    0  501    0  0.00000000000E+00  0.00000000000E+00 -0.78164466354E+03  0.78164466355E+03  0.50400001928E-02 0. -1.
    10030    2    1    2    0    0  0.00000000000E+00  0.00000000000E+00  0.50723097539E+03  0.20705203025E+04  0.20074289678E+04 0.  0.
        4    1    3    3  502    0 -0.10916862144E+03  0.36374628619E+03 -0.70467690805E+03  0.80050003514E+03  0.12699999809E+01 0. -1.
       -4    1    3    3    0  502  0.10916862144E+03 -0.36374628619E+03  0.12119078834E+04  0.12700202673E+04  0.12699999809E+01 0.  1.
</event>
<event>
 5   0  0.7843846E-05  0.1972824E+04  0.7818609E-02  0.8619433E-01
        2   -1    0    0  501    0  0.00000000000E+00  0.00000000000E+00  0.63515965628E+03  0.63515965628E+03  0.25500000920E-02 0. -1.
       -2   -1    0    0    0  501  0.00000000000E+00  0.00000000000E+00 -0.15319123359E+04  0.15319123359E+04  0.25500000920E-02 0.  1.
    10030    2    1    2    0    0  0.00000000000E+00  0.00000000000E+00 -0.89675267967E+03  0.21670719922E+04  0.19728242829E+04 0.  0.
        2    1    3    3  502    0 -0.36438355487E+03  0.74319045179E+03 -0.10377719416E+04  0.13274328704E+04  0.25500000920E-02 0.  1.
       -2    1    3    3    0  502  0.36438355487E+03 -0.74319045179E+03  0.14101926188E+03  0.83963912184E+03  0.25500000920E-02 0. -1.
</event>
<event>
 5   0  0.7857136E-05  0.1997081E+04  0.7818609E-02  0.8607987E-01
        2   -1    0    0  501    0  0.00000000000E+00  0.00000000000E+00  0.12319089300E+04  0.12319089300E+04  0.25500000920E-02 0. -1.
       -2   -1    0    0    0  501  0.00000000000E+00  0.00000000000E+00 -0.80938025191E+03  0.80938025191E+03  0.25500000920E-02 0.  1.
    10030    2    1    2    0    0  0.00000000000E+00  0.00000000000E+00  0.42252867809E+03  0.20412891819E+04  0.19970806294E+04 0.  0.
        4    1    3    3  502    0 -0.59112073779E+03 -0.79265475765E+03  0.35346942293E+03  0.10500797766E+04  0.12699999809E+01 0. -1.
       -4    1    3    3    0  502  0.59112073779E+03  0.79265475765E+03  0.69059255160E+02  0.99120940527E+03  0.12699999809E+01 0.  1.
</event>
<event>
 5   0  0.8011197E-05  0.2009753E+04  0.7818609E-02  0.8602075E-01
        2   -1    0    0  501    0  0.00000000000E+00  0.00000000000E+00  0.13131460089E+04  0.13131460089E+04  0.25500000920E-02 0.  1.
       -2   -1    0    0    0  501  0.00000000000E+00  0.00000000000E+00 -0.76897494197E+03  0.76897494198E+03  0.25500000920E-02 0. -1.
    10030    2    1    2    0    0  0.00000000000E+00  0.00000000000E+00  0.54417106694E+03  0.20821209509E+04  0.20097525977E+04 0.  0.
        5    1    3    3  502    0 -0.66242098676E+03 -0.43050247395E+03  0.91542963478E+03  0.12092011619E+04  0.46999998093E+01 0.  1.
       -5    1    3    3    0  502  0.66242098676E+03  0.43050247395E+03 -0.37125856784E+03  0.87291978897E+03  0.46999998093E+01 0. -1.
</event>
<event>
 5   0  0.2859625E-05  0.2013372E+04  0.7818609E-02  0.8600394E-01
        4   -1    0    0  501    0  0.00000000000E+00  0.00000000000E+00  0.79952123237E+03  0.79952224104E+03  0.12699999809E+01 0. -1.
       -4   -1    0    0    0  501  0.00000000000E+00  0.00000000000E+00 -0.12675268917E+04  0.12675275279E+04  0.12699999809E+01 0.  1.
    10030    2    1    2    0    0  0.00000000000E+00  0.00000000000E+00 -0.46800565930E+03  0.20670497689E+04  0.20133716622E+04 0.  0.
        4    1    3    3  502    0 -0.68862811049E+03  0.37944718179E+03 -0.87943363012E+03  0.11796584086E+04  0.12699999809E+01 0.  1.
       -4    1    3    3    0  502  0.68862811049E+03 -0.37944718179E+03  0.41142797082E+03  0.88739136034E+03  0.12699999809E+01 0. -1.
</event>
<event>
 5   0  0.7935008E-05  0.1988652E+04  0.7818609E-02  0.8611945E-01
        2   -1    0    0  501    0  0.00000000000E+00  0.00000000000E+00  0.16324256928E+04  0.16324256928E+04  0.25500000920E-02 0. -1.
       -2   -1    0    0    0  501  0.00000000000E+00  0.00000000000E+00 -0.60565337010E+03  0.60565337010E+03  0.25500000920E-02 0.  1.
    10030    2    1    2    0    0  0.00000000000E+00  0.00000000000E+00  0.10267723227E+04  0.22380790629E+04  0.19886519276E+04 0.  0.
        3    1    3    3  502    0 -0.49359248101E+03  0.79416655215E+03  0.13281589732E+03  0.94444381657E+03  0.10100000352E+00 0.  1.
       -3    1    3    3    0  502  0.49359248101E+03 -0.79416655215E+03  0.89395642536E+03  0.12936352463E+04  0.10100000352E+00 0. -1.
</event>
<event>
 5   0  0.3549426E-05  0.2010629E+04  0.7818609E-02  0.8601667E-01
       -1   -1    0    0    0  501  0.00000000000E+00  0.00000000000E+00  0.10984372117E+04  0.10984372117E+04  0.50400001928E-02 0. -1.
        1   -1    0    0  501    0  0.00000000000E+00  0.00000000000E+00 -0.92008657632E+03  0.92008657633E+03  0.50400001928E-02 0.  1.
    10030    2    1    2    0    0  0.00000000000E+00  0.00000000000E+00  0.17835063542E+03  0.20185237881E+04  0.20106290891E+04 0.  0.
        5    1    3    3  502    0 -0.23691114301E+03 -0.96782237748E+03  0.22322187124E+03  0.10211058407E+04  0.46999998093E+01 0. -1.
       -5    1    3    3    0  502  0.23691114301E+03  0.96782237748E+03 -0.44871235822E+02  0.99741794742E+03  0.46999998093E+01 0.  1.
</event>
<event>
 5   0  0.3772949E-05  0.1992529E+04  0.7818609E-02  0.8610122E-01
        1   -1    0    0  501    0  0.00000000000E+00  0.00000000000E+00  0.41383949232E+03  0.41383949235E+03  0.50400001928E-02 0. -1.
       -1   -1    0    0    0  501  0.00000000000E+00  0.00000000000E+00 -0.23983755180E+04  0.23983755180E+04  0.50400001928E-02 0.  1.
    10030    2    1    2    0    0  0.00000000000E+00  0.00000000000E+00 -0.19845360257E+04  0.28122150104E+04  0.19925285512E+04 0.  0.
        2    1    3    3  502    0  0.28913847935E+03  0.44140800965E+03  0.20041109482E+03  0.56445256502E+03  0.25500000920E-02 0. -1.
       -2    1    3    3    0  502 -0.28913847935E+03 -0.44140800965E+03 -0.21849471205E+04  0.22477624453E+04  0.25500000920E-02 0.  1.
</event>
<event>
 5   0  0.8022574E-05  0.1994681E+04  0.7818609E-02  0.8609112E-01
        2   -1    0    0  501    0  0.00000000000E+00  0.00000000000E+00  0.65156993441E+03  0.65156993442E+03  0.25500000920E-02 0. -1.
       -2   -1    0    0    0  501  0.00000000000E+00  0.00000000000E+00 -0.15266019954E+04  0.15266019954E+04  0.25500000920E-02 0.  1.
    10030    2    1    2    0    0  0.00000000000E+00  0.00000000000E+00 -0.87503206095E+03  0.21781719298E+04  0.19946808888E+04 0.  0.
        1    1    3    3  502    0 -0.75622903578E+03  0.57793753097E+03 -0.11212161527E+03  0.95836600571E+03  0.50400001928E-02 0.  1.
       -1    1    3    3    0  502  0.75622903578E+03 -0.57793753097E+03 -0.76291044568E+03  0.12198059241E+04  0.50400001928E-02 0. -1.
</event>
<event>
 5   0  0.3787698E-05  0.1988342E+04  0.7818609E-02  0.8612091E-01
       -1   -1    0    0    0  501  0.00000000000E+00  0.00000000000E+00  0.11243356505E+04  0.11243356505E+04  0.50400001928E-02 0. -1.
        1   -1    0    0  501    0  0.00000000000E+00  0.00000000000E+00 -0.87907570183E+03  0.87907570184E+03  0.50400001928E-02 0.  1.
    10030    2    1    2    0    0  0.00000000000E+00  0.00000000000E+00  0.24525994866E+03  0.20034113523E+04  0.19883421748E+04 0.  0.
        4    1    3    3  502    0  0.62414333370E+03  0.17748744531E+03  0.88154338589E+03  0.10946127390E+04  0.12699999809E+01 0. -1.
       -4    1    3    3    0  502 -0.62414333370E+03 -0.17748744531E+03 -0.63628343723E+03  0.90879861335E+03  0.12699999809E+01 0.  1.
</event>
<event>
 5   0  0.7935008E-05  0.1994159E+04  0.7818609E-02  0.8609356E-01
        2   -1    0    0  501    0  0.00000000000E+00  0.00000000000E+00  0.21827394383E+04  0.21827394383E+04  0.25500000920E-02 0. -1.
       -2   -1    0    0    0  501  0.00000000000E+00  0.00000000000E+00 -0.45546783742E+03  0.45546783743E+03  0.25500000920E-02 0.  1.
    10030    2    1    2    0    0  0.00000000000E+00  0.00000000000E+00  0.17272716009E+04  0.26382072757E+04  0.19941590825E+04 0.  0.
        3    1    3    3  502    0  0.34905349860E+03  0.62881265784E+02 -0.36919313636E+03  0.51195310392E+03  0.10100000352E+00 0.  1.
       -3    1    3    3    0  502 -0.34905349860E+03 -0.62881265784E+02  0.20964647372E+04  0.21262541718E+04  0.10100000352E+00 0. -1.
</event>
<event>
 5   0  0.3549426E-05  0.1985081E+04  0.7818609E-02  0.8613628E-01
       -1   -1    0    0    0  501  0.00000000000E+00  0.00000000000E+00  0.65779113521E+03  0.65779113523E+03  0.50400001928E-02 0. -1.
        1   -1    0    0  501    0  0.00000000000E+00  0.00000000000E+00 -0.14976440028E+04  0.14976440028E+04  0.50400001928E-02 0.  1.
    10030    2    1    2    0    0  0.00000000000E+00  0.00000000000E+00 -0.83985286760E+03  0.21554351380E+04  0.19850813069E+04 0.  0.
        5    1    3    3  502    0  0.28282004525E+03  0.32490199116E+03 -0.13908474914E+04  0.14560313582E+04  0.46999998093E+01 0.  1.
       -5    1    3    3    0  502 -0.28282004525E+03 -0.32490199116E+03  0.55099462376E+03  0.69940377985E+03  0.46999998093E+01 0. -1.
</event>
<event>
 5   0  0.3970042E-05  0.2000299E+04  0.7818609E-02  0.8606481E-01
        1   -1    0    0  501    0  0.00000000000E+00  0.00000000000E+00  0.11810365770E+04  0.11810365770E+04  0.50400001928E-02 0.  1.
       -1   -1    0    0    0  501  0.00000000000E+00  0.00000000000E+00 -0.84696725198E+03  0.84696725199E+03  0.50400001928E-02 0. -1.
    10030    2    1    2    0    0  0.00000000000E+00  0.00000000000E+00  0.33406932501E+03  0.20280038290E+04  0.20002992817E+04 0.  0.
        3    1    3    3  502    0  0.48079994065E+03 -0.13934836320E+03 -0.71081720720E+03  0.86939499740E+03  0.10100000352E+00 0. -1.
       -3    1    3    3    0  502 -0.48079994065E+03  0.13934836320E+03  0.10448865322E+04  0.11586088316E+04  0.10100000352E+00 0.  1.
</event>
<event>
 5   0  0.2859625E-05  0.1980041E+04  0.7818609E-02  0.8616009E-01
       -3   -1    0    0    0  501  0.00000000000E+00  0.00000000000E+00  0.54034161635E+03  0.54034162579E+03  0.10100000352E+00 0. -1.
        3   -1    0    0  501    0  0.00000000000E+00  0.00000000000E+00 -0.18139276200E+04  0.18139276228E+04  0.10100000352E+00 0.  1.
    10030    2    1    2    0    0  0.00000000000E+00  0.00000000000E+00 -0.12735860036E+04  0.23542692486E+04  0.19800410062E+04 0.  0.
        2    1    3    3  502    0  0.45174733704E+03 -0.42689429257E+03 -0.15530380152E+04  0.16727945092E+04  0.25500000920E-02 0.  1.
       -2    1    3    3    0  502 -0.45174733704E+03  0.42689429257E+03  0.27945201156E+03  0.68147473932E+03  0.25500000920E-02 0. -1.
</event>
<event>
 5   0  0.7843846E-05  0.2002615E+04  0.7818609E-02  0.8605399E-01
        2   -1    0    0  501    0  0.00000000000E+00  0.00000000000E+00  0.14467765954E+04  0.14467765954E+04  0.25500000920E-02 0.  1.
       -2   -1    0    0    0  501  0.00000000000E+00  0.00000000000E+00 -0.69300036735E+03  0.69300036736E+03  0.25500000920E-02 0. -1.
    10030    2    1    2    0    0  0.00000000000E+00  0.00000000000E+00  0.75377622807E+03  0.21397769628E+04  0.20026150026E+04 0.  0.
        2    1    3    3  502    0 -0.84316073508E+03 -0.92482248993E+02  0.94544576665E+03  0.12701734879E+04  0.25500000920E-02 0. -1.
       -2    1    3    3    0  502  0.84316073508E+03  0.92482248993E+02 -0.19166953859E+03  0.86960347492E+03  0.25500000920E-02 0.  1.
</event>
<event>
 5   0  0.8011197E-05  0.2010534E+04  0.7818609E-02  0.8601711E-01
       -2   -1    0    0    0  501  0.00000000000E+00  0.00000000000E+00  0.39955013216E+03  0.39955013217E+03  0.25500000920E-02 0. -1.
        2   -1    0    0  501    0  0.00000000000E+00  0.00000000000E+00 -0.25292495936E+04  0.25292495936E+04  0.25500000920E-02 0.  1.
    10030    2    1    2    0    0  0.00000000000E+00  0.00000000000E+00 -0.21296994615E+04  0.29287997258E+04  0.20105342667E+04 0.  0.
        5    1    3    3  502    0  0.64846650955E+03 -0.31102284303E+03 -0.20879823882E+04  0.22083787190E+04  0.46999998093E+01 0.  1.
       -5    1    3    3    0  502 -0.64846650955E+03  0.31102284303E+03 -0.41717073261E+02  0.72042100683E+03  0.46999998093E+01 0. -1.
</event>
<event>
 5   0  0.3787698E-05  0.2004866E+04  0.7818609E-02  0.8604349E-01
       -1   -1    0    0    0  501  0.00000000000E+00  0.00000000000E+00  0.76119744122E+03  0.76119744124E+03  0.50400001928E-02 0. -1.
        1   -1    0    0  501    0  0.00000000000E+00  0.00000000000E+00 -0.13201197388E+04  0.13201197388E+04  0.50400001928E-02 0.  1.
    10030    2    1    2    0    0  0.00000000000E+00  0.00000000000E+00 -0.55892229757E+03  0.20813171800E+04  0.20048658482E+04 0.  0.
        4    1    3    3  502    0 -0.20301454662E+03 -0.21916716396E+03 -0.12728306549E+04  0.13074206059E+04  0.12699999809E+01 0.  1.
       -4    1    3    3    0  502  0.20301454662E+03  0.21916716396E+03  0.71390835731E+03  0.77389657412E+03  0.12699999809E+01 0. -1.
</event>
<event>
 5   0  0.7857136E-05  0.1989281E+04  0.7818609E-02  0.8611648E-01
        2   -1    0    0  501    0  0.00000000000E+00  0.00000000000E+00  0.11671537996E+04  0.11671537996E+04  0.25500000920E-02 0. -1.
       -2   -1    0    0    0  501  0.00000000000E+00  0.00000000000E+00 -0.84762624622E+03  0.84762624622E+03  0.25500000920E-02 0.  1.
    10030    2    1    2    0    0  0.00000000000E+00  0.00000000000E+00  0.31952755336E+03  0.20147800458E+04  0.19892814722E+04 0.  0.
        4    1    3    3  502    0  0.63675709841E+02 -0.97817268183E+03 -0.11016045001E+02  0.98030574703E+03  0.12699999809E+01 0. -1.
       -4    1    3    3    0  502 -0.63675709841E+02  0.97817268183E+03  0.33054359836E+03  0.10344742988E+04  0.12699999809E+01 0.  1.
</event>
<event>
 5   0  0.3549426E-05  0.2030763E+04  0.7818609E-02  0.8592372E-01
        1   -1    0    0  501    0  0.00000000000E+00  0.00000000000E+00  0.65752917594E+03  0.65752917596E+03  0.50400001928E-02 0.  1.
       -1   -1    0    0    0  501  0.00000000000E+00  0.00000000000E+00 -0.15679901598E+04  0.15679901598E+04  0.50400001928E-02 0. -1.
    10030    2    1    2    0    0  0.00000000000E+00  0.00000000000E+00 -0.91046098389E+03  0.22255193358E+04  0.20307626919E+04 0.  0.
        5    1    3    3  502    0 -0.56645937099E+03 -0.81091646407E+03 -0.20409056104E+03  0.10100182067E+04  0.46999998093E+01 0.  1.
       -5    1    3    3    0  502  0.56645937099E+03  0.81091646407E+03 -0.70637042284E+03  0.12155011291E+04  0.46999998093E+01 0. -1.
</event>
<event>
 5   0  0.7843846E-05  0.2027393E+04  0.7818609E-02  0.8593919E-01
        2   -1    0    0  501    0  0.00000000000E+00  0.00000000000E+00  0.21761936421E+04  0.21761936421E+04  0.25500000920E-02 0. -1.
       -2   -1    0    0    0  501  0.00000000000E+00  0.00000000000E+00 -0.47219185158E+03  0.47219185158E+03  0.25500000920E-02 0.  1.
    10030    2    1    2    0    0  0.00000000000E+00  0.00000000000E+00  0.17040017906E+04  0.26483854937E+04  0.20273933070E+04 0.  0.
        2    1    3    3  502    0  0.16932673530E+03  0.50045404864E+02 -0.45194959425E+03  0.48521595356E+03  0.25500000920E-02 0.  1.
       -2    1    3    3    0  502 -0.16932673530E+03 -0.50045404864E+02  0.21559513848E+04  0.21631695402E+04  0.25500000920E-02 0. -1.
</event>
<event>
 5   0  0.7935008E-05  0.2048103E+04  0.7818609E-02  0.8584455E-01
       -2   -1    0    0    0  501  0.00000000000E+00  0.00000000000E+00  0.83771620293E+03  0.83771620294E+03  0.25500000920E-02 0. -1.
        2   -1    0    0  501    0  0.00000000000E+00  0.00000000000E+00 -0.12518339157E+04  0.12518339157E+04  0.25500000920E-02 0.  1.
    10030    2    1    2    0    0  0.00000000000E+00  0.00000000000E+00 -0.41411771280E+03  0.20895501187E+04  0.20481030781E+04 0.  0.
        3    1    3    3  502    0 -0.66384931614E+03 -0.72023626948E+03 -0.51184398375E+03  0.11051789323E+04  0.10100000352E+00 0.  1.
       -3    1    3    3    0  502  0.66384931614E+03  0.72023626948E+03  0.97726270951E+02  0.98437118641E+03  0.10100000352E+00 0. -1.
</event>
<event>
 5   0  0.3772949E-05  0.1994280E+04  0.7818609E-02  0.8609300E-01
        1   -1    0    0  501    0  0.00000000000E+00  0.00000000000E+00  0.14844460489E+04  0.14844460489E+04  0.50400001928E-02 0.  1.
       -1   -1    0    0    0  501  0.00000000000E+00  0.00000000000E+00 -0.66980399181E+03  0.66980399183E+03  0.50400001928E-02 0. -1.
    10030    2    1    2    0    0  0.00000000000E+00  0.00000000000E+00  0.81464205708E+03  0.21542500407E+04  0.19942797088E+04 0.  0.
        2    1    3    3  502    0 -0.77192104565E+03 -0.16679126916E+03 -0.25028613058E+03  0.82844708664E+03  0.25500000920E-02 0. -1.
       -2    1    3    3    0  502  0.77192104565E+03  0.16679126916E+03  0.10649281877E+04  0.13258029541E+04  0.25500000920E-02 0.  1.
</event>
<event>
 5   0  0.3549426E-05  0.2008786E+04  0.7818609E-02  0.8602524E-01
       -1   -1    0    0    0  501  0.00000000000E+00  0.00000000000E+00  0.98465852807E+03  0.98465852808E+03  0.50400001928E-02 0.  1.
        1   -1    0    0  501    0  0.00000000000E+00  0.00000000000E+00 -0.10245230392E+04  0.10245230393E+04  0.50400001928E-02 0. -1.
    10030    2    1    2    0    0  0.00000000000E+00  0.00000000000E+00 -0.39864511175E+02  0.20091815673E+04  0.20087860492E+04 0.  0.
        5    1    3    3  502    0 -0.73493568724E+03  0.13894836854E+03 -0.69039710103E+03  0.10178935900E+04  0.46999998093E+01 0. -1.
       -5    1    3    3    0  502  0.73493568724E+03 -0.13894836854E+03  0.65053258985E+03  0.99128797731E+03  0.46999998093E+01 0.  1.
</event>
<event>
 5   0  0.7935008E-05  0.2036812E+04  0.7818609E-02  0.8589601E-01
        2   -1    0    0  501    0  0.00000000000E+00  0.00000000000E+00  0.19218741613E+04  0.19218741613E+04  0.25500000920E-02 0.  1.
       -2   -1    0    0    0  501  0.00000000000E+00  0.00000000000E+00 -0.53965588527E+03  0.53965588528E+03  0.25500000920E-02 0. -1.
    10030    2    1    2    0    0  0.00000000000E+00  0.00000000000E+00  0.13822182760E+04  0.24615300466E+04  0.20368119225E+04 0.  0.
        3    1    3    3  502    0 -0.73491839189E+02  0.71312971429E+03 -0.18304149399E+03  0.73990488480E+03  0.10100000352E+00 0. -1.
       -3    1    3    3    0  502  0.73491839189E+02 -0.71312971429E+03  0.15652597700E+04  0.17216251618E+04  0.10100000352E+00 0.  1.
</event>
<event>
 5   0  0.7935008E-05  0.2014898E+04  0.7818609E-02  0.8599687E-01
       -2   -1    0    0    0  501  0.00000000000E+00  0.00000000000E+00  0.78565849380E+03  0.78565849380E+03  0.25500000920E-02 0.  1.
        2   -1    0    0  501    0  0.00000000000E+00  0.00000000000E+00 -0.12918506244E+04  0.12918506244E+04  0.25500000920E-02 0. -1.
    10030    2    1    2    0    0  0.00000000000E+00  0.00000000000E+00 -0.50619213060E+03  0.20775091182E+04  0.20148979287E+04 0.  0.
        3    1    3    3  502    0 -0.65147975497E+03 -0.42534640119E+03 -0.91298992789E+03  0.11995399330E+04  0.10100000352E+00 0. -1.
       -3    1    3    3    0  502  0.65147975497E+03  0.42534640119E+03  0.40679779729E+03  0.87796918523E+03  0.10100000352E+00 0.  1.
</event>
<event>
 5   0  0.7843846E-05  0.1986437E+04  0.7818609E-02  0.8612988E-01
        2   -1    0    0  501    0  0.00000000000E+00  0.00000000000E+00  0.77156049544E+03  0.77156049544E+03  0.25500000920E-02 0.  1.
       -2   -1    0    0    0  501  0.00000000000E+00  0.00000000000E+00 -0.12785559680E+04  0.12785559680E+04  0.25500000920E-02 0. -1.
    10030    2    1    2    0    0  0.00000000000E+00  0.00000000000E+00 -0.50699547254E+03  0.20501164634E+04  0.19864372893E+04 0.  0.
        2    1    3    3  502    0 -0.30237288168E+03 -0.23825558718E+03 -0.11984292833E+04  0.12587405735E+04  0.25500000920E-02 0. -1.
       -2    1    3    3    0  502  0.30237288168E+03  0.23825558718E+03  0.69143381077E+03  0.79137588988E+03  0.25500000920E-02 0.  1.
</event>
<event>
 5   0  0.3818907E-05  0.1989194E+04  0.7818609E-02  0.8611690E-01
       -1   -1    0    0    0  501  0.00000000000E+00  0.00000000000E+00  0.47283431421E+03  0.47283431424E+03  0.50400001928E-02 0.  1.
        1   -1    0    0  501    0  0.00000000000E+00  0.00000000000E+00 -0.20921130027E+04  0.20921130027E+04  0.50400001928E-02 0. -1.
    10030    2    1    2    0    0  0.00000000000E+00  0.00000000000E+00 -0.16192786885E+04  0.25649473170E+04  0.19891936225E+04 0.  0.
        1    1    3    3  502    0  0.74286473695E+03 -0.30812310813E+03 -0.15641935304E+04  0.17588317906E+04  0.50400001928E-02 0. -1.
       -1    1    3    3    0  502 -0.74286473695E+03  0.30812310813E+03 -0.55085158123E+02  0.80611552635E+03  0.50400001928E-02 0.  1.
</event>
<event>
 5   0  0.7857136E-05  0.2001159E+04  0.7818609E-02  0.8606079E-01
       -2   -1    0    0    0  501  0.00000000000E+00  0.00000000000E+00  0.49518916031E+03  0.49518916032E+03  0.25500000920E-02 0. -1.
        2   -1    0    0  501    0  0.00000000000E+00  0.00000000000E+00 -0.20217717642E+04  0.20217717642E+04  0.25500000920E-02 0.  1.
    10030    2    1    2    0    0  0.00000000000E+00  0.00000000000E+00 -0.15265826039E+04  0.25169609245E+04  0.20011591264E+04 0.  0.
        4    1    3    3  502    0 -0.59737715091E+03  0.22309106802E+03 -0.17330893040E+04  0.18466805987E+04  0.12699999809E+01 0.  1.
       -4    1    3    3    0  502  0.59737715091E+03 -0.22309106802E+03  0.20650670013E+03  0.67028032580E+03  0.12699999809E+01 0. -1.
</event>
<event>
 5   0  0.7935008E-05  0.1990698E+04  0.7818609E-02  0.8610982E-01
       -2   -1    0    0    0  501  0.00000000000E+00  0.00000000000E+00  0.55050711911E+03  0.55050711912E+03  0.25500000920E-02 0.  1.
        2   -1    0    0  501    0  0.00000000000E+00  0.00000000000E+00 -0.17996485657E+04  0.17996485657E+04  0.25500000920E-02 0. -1.
    10030    2    1    2    0    0  0.00000000000E+00  0.00000000000E+00 -0.12491414466E+04  0.23501556848E+04  0.19906977142E+04 0.  0.
        3    1    3    3  502    0 -0.10860523640E+03  0.79131035612E+03 -0.13257452918E+04  0.15477621801E+04  0.10100000352E+00 0. -1.
       -3    1    3    3    0  502  0.10860523640E+03 -0.79131035612E+03  0.76603845271E+02  0.80239350470E+03  0.10100000352E+00 0.  1.
</event>
<event>
 5   0  0.3772949E-05  0.1985223E+04  0.7818609E-02  0.8613561E-01
        1   -1    0    0  501    0  0.00000000000E+00  0.00000000000E+00  0.11417971735E+04  0.11417971735E+04  0.50400001928E-02 0.  1.
       -1   -1    0    0    0  501  0.00000000000E+00  0.00000000000E+00 -0.86291823699E+03  0.86291823700E+03  0.50400001928E-02 0. -1.
    10030    2    1    2    0    0  0.00000000000E+00  0.00000000000E+00  0.27887893653E+03  0.20047154105E+04  0.19852230142E+04 0.  0.
        2    1    3    3  502    0 -0.17971474119E+03  0.86330272687E+03 -0.32076388141E+03  0.93833813417E+03  0.25500000920E-02 0.  1.
       -2    1    3    3    0  502  0.17971474119E+03 -0.86330272687E+03  0.59964281794E+03  0.10663772764E+04  0.25500000920E-02 0. -1.
</event>
<event>
 5   0  0.3818907E-05  0.2001458E+04  0.7818609E-02  0.8605939E-01
       -1   -1    0    0    0  501  0.00000000000E+00  0.00000000000E+00  0.11653858625E+04  0.11653858625E+04  0.50400001928E-02 0.  1.
        1   -1    0    0  501    0  0.00000000000E+00  0.00000000000E+00 -0.85933619754E+03  0.85933619755E+03  0.50400001928E-02 0. -1.
    10030    2    1    2    0    0  0.00000000000E+00  0.00000000000E+00  0.30604966494E+03  0.20247220600E+04  0.20014577245E+04 0.  0.
        1    1    3    3  502    0  0.50450634897E+03 -0.18331345913E+03  0.10074293989E+04  0.11415097346E+04  0.50400001928E-02 0.  1.
       -1    1    3    3    0  502 -0.50450634897E+03  0.18331345913E+03 -0.70137973399E+03  0.88321232539E+03  0.50400001928E-02 0. -1.
</event>
<event>
 5   0  0.8022574E-05  0.1997797E+04  0.7818609E-02  0.8607651E-01
        2   -1    0    0  501    0  0.00000000000E+00  0.00000000000E+00  0.50666226883E+03  0.50666226884E+03  0.25500000920E-02 0.  1.
       -2   -1    0    0    0  501  0.00000000000E+00  0.00000000000E+00 -0.19693556989E+04  0.19693556989E+04  0.25500000920E-02 0. -1.
    10030    2    1    2    0    0  0.00000000000E+00  0.00000000000E+00 -0.14626934301E+04  0.24760179677E+04  0.19977970133E+04 0.  0.
        1    1    3    3  502    0  0.37619933071E+03  0.89011557189E+03 -0.41788902695E+03  0.10528356503E+04  0.50400001928E-02 0.  1.
       -1    1    3    3    0  502 -0.37619933071E+03 -0.89011557189E+03 -0.10448044031E+04  0.14231823174E+04  0.50400001928E-02 0. -1.
</event>
<event>
 5   0  0.3549426E-05  0.1991562E+04  0.7818609E-02  0.8610576E-01
       -1   -1    0    0    0  501  0.00000000000E+00  0.00000000000E+00  0.45163148367E+03  0.45163148370E+03  0.50400001928E-02 0. -1.
        1   -1    0    0  501    0  0.00000000000E+00  0.00000000000E+00 -0.21955500744E+04  0.21955500744E+04  0.50400001928E-02 0.  1.
    10030    2    1    2    0    0  0.00000000000E+00  0.00000000000E+00 -0.17439185907E+04  0.26471815581E+04  0.19915617365E+04 0.  0.
        5    1    3    3  502    0  0.65350047235E+03  0.75123331498E+03 -0.88785902017E+03  0.13340652498E+04  0.46999998093E+01 0.  1.
       -5    1    3    3    0  502 -0.65350047235E+03 -0.75123331498E+03 -0.85605957055E+03  0.13131163083E+04  0.46999998093E+01 0. -1.
</event>
<event>
 5   0  0.3787698E-05  0.1999187E+04  0.7818609E-02  0.8607001E-01
       -1   -1    0    0    0  501  0.00000000000E+00  0.00000000000E+00  0.11934034102E+04  0.11934034102E+04  0.50400001928E-02 0.  1.
        1   -1    0    0  501    0  0.00000000000E+00  0.00000000000E+00 -0.83725865388E+03  0.83725865390E+03  0.50400001928E-02 0. -1.
    10030    2    1    2    0    0  0.00000000000E+00  0.00000000000E+00  0.35614475628E+03  0.20306620641E+04  0.19991871676E+04 0.  0.
        4    1    3    3  502    0 -0.72980679287E+03 -0.56189897626E+03 -0.21641996921E+03  0.94614355698E+03  0.12699999809E+01 0.  1.
       -4    1    3    3    0  502  0.72980679287E+03  0.56189897626E+03  0.57256472549E+03  0.10845185071E+04  0.12699999809E+01 0. -1.
</event>
<event>
 5   0  0.7935008E-05  0.1968480E+04  0.7818609E-02  0.8621501E-01
       -2   -1    0    0    0  501  0.00000000000E+00  0.00000000000E+00  0.94758135817E+03  0.94758135818E+03  0.25500000920E-02 0.  1.
        2   -1    0    0  501    0  0.00000000000E+00  0.00000000000E+00 -0.10223166586E+04  0.10223166586E+04  0.25500000920E-02 0. -1.
    10030    2    1    2    0    0  0.00000000000E+00  0.00000000000E+00 -0.74735300446E+02  0.19698980168E+04  0.19684798275E+04 0.  0.
        3    1    3    3  502    0  0.61807442487E+02 -0.97292770494E+03 -0.17281551852E+03  0.99008771967E+03  0.10100000352E+00 0. -1.
       -3    1    3    3    0  502 -0.61807442487E+02  0.97292770494E+03  0.98080218070E+02  0.97981029714E+03  0.10100000352E+00 0.  1.
</event>
<event>
 5   0  0.3787698E-05  0.2014650E+04  0.7818609E-02  0.8599802E-01
       -1   -1    0    0    0  501  0.00000000000E+00  0.00000000000E+00  0.64541714416E+03  0.64541714418E+03  0.50400001928E-02 0. -1.
        1   -1    0    0  501    0  0.00000000000E+00  0.00000000000E+00 -0.15721671279E+04  0.15721671279E+04  0.50400001928E-02 0.  1.
    10030    2    1    2    0    0  0.00000000000E+00  0.00000000000E+00 -0.92674998370E+03  0.22175842721E+04  0.20146499625E+04 0.  0.
        4    1    3    3  502    0  0.16511263236E+03  0.20500012275E+03  0.60689099786E+03  0.66151759453E+03  0.12699999809E+01 0. -1.
       -4    1    3    3    0  502 -0.16511263236E+03 -0.20500012275E+03 -0.15336409816E+04  0.15560666775E+04  0.12699999809E+01 0.  1.
</event>
<event>
 5   0  0.3818907E-05  0.2000181E+04  0.7818609E-02  0.8606536E-01
       -1   -1    0    0    0  501  0.00000000000E+00  0.00000000000E+00  0.54431857933E+03  0.54431857935E+03  0.50400001928E-02 0.  1.
        1   -1    0    0  501    0  0.00000000000E+00  0.00000000000E+00 -0.18374927861E+04  0.18374927861E+04  0.50400001928E-02 0. -1.
    10030    2    1    2    0    0  0.00000000000E+00  0.00000000000E+00 -0.12931742068E+04  0.23818113655E+04  0.20001814547E+04 0.  0.
        1    1    3    3  502    0  0.28080926020E+03 -0.45153308148E+03 -0.16552183649E+04  0.17385292059E+04  0.50400001928E-02 0. -1.
       -1    1    3    3    0  502 -0.28080926020E+03  0.45153308148E+03  0.36204415815E+03  0.64328215952E+03  0.50400001928E-02 0.  1.
</event>
<event>
 5   0  0.3772949E-05  0.2025063E+04  0.7818609E-02  0.8594992E-01
        1   -1    0    0  501    0  0.00000000000E+00  0.00000000000E+00  0.88562248558E+03  0.88562248560E+03  0.50400001928E-02 0.  1.
       -1   -1    0    0    0  501  0.00000000000E+00  0.00000000000E+00 -0.11576260361E+04  0.11576260361E+04  0.50400001928E-02 0. -1.
    10030    2    1    2    0    0  0.00000000000E+00  0.00000000000E+00 -0.27200355052E+03  0.20432485217E+04  0.20250626138E+04 0.  0.
        2    1    3    3  502    0  0.65137537309E+02 -0.26822262228E+03  0.84693023822E+03  0.89077331700E+03  0.25500000920E-02 0.  1.
       -2    1    3    3    0  502 -0.65137537309E+02  0.26822262228E+03 -0.11189337887E+04  0.11524752047E+04  0.25500000920E-02 0. -1.
</event>
<event>
 5   0  0.8022574E-05  0.1998131E+04  0.7818609E-02  0.8607495E-01
        2   -1    0    0  501    0  0.00000000000E+00  0.00000000000E+00  0.16807034180E+04  0.16807034180E+04  0.25500000920E-02 0. -1.
       -2   -1    0    0    0  501  0.00000000000E+00  0.00000000000E+00 -0.59387746894E+03  0.59387746894E+03  0.25500000920E-02 0.  1.
    10030    2    1    2    0    0  0.00000000000E+00  0.00000000000E+00  0.10868259491E+04  0.22745808870E+04  0.19981310187E+04 0.  0.
        1    1    3    3  502    0  0.37313963690E+03  0.71774046263E+03 -0.12400375957E+03  0.81838957272E+03  0.50400001928E-02 0.  1.
       -1    1    3    3    0  502 -0.37313963690E+03 -0.71774046263E+03  0.12108297086E+04  0.14561913142E+04  0.50400001928E-02 0. -1.
</event>
<event>
 5   0  0.2859625E-05  0.1991728E+04  0.7818609E-02  0.8610498E-01
        3   -1    0    0  501    0  0.00000000000E+00  0.00000000000E+00  0.10276875076E+04  0.10276875125E+04  0.10100000352E+00 0. -1.
       -3   -1    0    0    0  501  0.00000000000E+00  0.00000000000E+00 -0.96502598830E+03  0.96502599359E+03  0.10100000352E+00 0.  1.
    10030    2    1    2    0    0  0.00000000000E+00  0.00000000000E+00  0.62661519274E+02  0.19927135061E+04  0.19917280566E+04 0.  0.
        2    1    3    3  502    0  0.76179095704E+03  0.55315143282E+03 -0.29355007899E+03  0.98614077025E+03  0.25500000920E-02 0.  1.
       -2    1    3    3    0  502 -0.76179095704E+03 -0.55315143282E+03  0.35621159826E+03  0.10065727359E+04  0.25500000920E-02 0. -1.
</event>
<event>
 5   0  0.7935008E-05  0.2118135E+04  0.7818609E-02  0.8553296E-01
       -2   -1    0    0    0  501  0.00000000000E+00  0.00000000000E+00  0.40555427507E+03  0.40555427508E+03  0.25500000920E-02 0.  1.
        2   -1    0    0  501    0  0.00000000000E+00  0.00000000000E+00 -0.27656580187E+04  0.27656580187E+04  0.25500000920E-02 0. -1.
    10030    2    1    2    0    0  0.00000000000E+00  0.00000000000E+00 -0.23601037437E+04  0.31712122938E+04  0.21181354375E+04 0.  0.
        3    1    3    3  502    0 -0.33665665725E+03 -0.99059078443E+03 -0.93396578395E+03  0.14024620861E+04  0.10100000352E+00 0. -1.
       -3    1    3    3    0  502  0.33665665725E+03  0.99059078443E+03 -0.14261379597E+04  0.17687502077E+04  0.10100000352E+00 0.  1.
</event>
<event>
 5   0  0.7843846E-05  0.2002163E+04  0.7818609E-02  0.8605610E-01
       -2   -1    0    0    0  501  0.00000000000E+00  0.00000000000E+00  0.64651256436E+03  0.64651256437E+03  0.25500000920E-02 0. -1.
        2   -1    0    0  501    0  0.00000000000E+00  0.00000000000E+00 -0.15501073786E+04  0.15501073786E+04  0.25500000920E-02 0.  1.
    10030    2    1    2    0    0  0.00000000000E+00  0.00000000000E+00 -0.90359481421E+03  0.21966199429E+04  0.20021627270E+04 0.  0.
        2    1    3    3  502    0  0.58079911220E+03  0.64953762253E+03  0.88960065061E+02  0.87586564324E+03  0.25500000920E-02 0. -1.
       -2    1    3    3    0  502 -0.58079911220E+03 -0.64953762253E+03 -0.99255487927E+03  0.13207542997E+04  0.25500000920E-02 0.  1.
</event>
<event>
 5   0  0.7857136E-05  0.1995023E+04  0.7818609E-02  0.8608951E-01
       -2   -1    0    0    0  501  0.00000000000E+00  0.00000000000E+00  0.97841150933E+03  0.97841150933E+03  0.25500000920E-02 0.  1.
        2   -1    0    0  501    0  0.00000000000E+00  0.00000000000E+00 -0.10169842064E+04  0.10169842064E+04  0.25500000920E-02 0. -1.
    10030    2    1    2    0    0  0.00000000000E+00  0.00000000000E+00 -0.38572697053E+02  0.19953957157E+04  0.19950228594E+04 0.  0.
        4    1    3    3  502    0 -0.58698654325E+03  0.60548318061E+03  0.51360244858E+03  0.98739666398E+03  0.12699999809E+01 0.  1.
       -4    1    3    3    0  502  0.58698654325E+03 -0.60548318061E+03 -0.55217514563E+03  0.10079990517E+04  0.12699999809E+01 0. -1.
</event>
<event>
 5   0  0.7935008E-05  0.2005338E+04  0.7818609E-02  0.8604129E-01
       -2   -1    0    0    0  501  0.00000000000E+00  0.00000000000E+00  0.76991867870E+03  0.76991867870E+03  0.25500000920E-02 0. -1.
        2   -1    0    0  501    0  0.00000000000E+00  0.00000000000E+00 -0.13057803964E+04  0.13057803964E+04  0.25500000920E-02 0.  1.
    10030    2    1    2    0    0  0.00000000000E+00  0.00000000000E+00 -0.53586171770E+03  0.20756990751E+04  0.20053375950E+04 0.  0.
        3    1    3    3  502    0  0.10305147399E+03 -0.12301846537E+03 -0.12924012543E+04  0.13023264419E+04  0.10100000352E+00 0.  1.
       -3    1    3    3    0  502 -0.10305147399E+03  0.12301846537E+03  0.75653953658E+03  0.77337263316E+03  0.10100000352E+00 0. -1.
</event>
<event>
 5   0  0.3818907E-05  0.2016871E+04  0.7818609E-02  0.8598773E-01
       -1   -1    0    0    0  501  0.00000000000E+00  0.00000000000E+00  0.45069262039E+03  0.45069262042E+03  0.50400001928E-02 0. -1.
        1   -1    0    0  501    0  0.00000000000E+00  0.00000000000E+00 -0.22563988402E+04  0.22563988403E+04  0.50400001928E-02 0.  1.
    10030    2    1    2    0    0  0.00000000000E+00  0.00000000000E+00 -0.18057062199E+04  0.27070914607E+04  0.20168711471E+04 0.  0.
        1    1    3    3  502    0  0.83313439256E+03 -0.11450724872E+03 -0.15587541424E+03  0.85529057686E+03  0.50400001928E-02 0. -1.
       -1    1    3    3    0  502 -0.83313439256E+03  0.11450724872E+03 -0.16498308056E+04  0.18518008838E+04  0.50400001928E-02 0.  1.
</event>
<event>
 5   0  0.3549426E-05  0.2007849E+04  0.7818609E-02  0.8602960E-01
        1   -1    0    0  501    0  0.00000000000E+00  0.00000000000E+00  0.12420266575E+04  0.12420266575E+04  0.50400001928E-02 0. -1.
       -1   -1    0    0    0  501  0.00000000000E+00  0.00000000000E+00 -0.81146745009E+03  0.81146745011E+03  0.50400001928E-02 0.  1.
    10030    2    1    2    0    0  0.00000000000E+00  0.00000000000E+00  0.43055920739E+03  0.20534941076E+04  0.20078488038E+04 0.  0.
        5    1    3    3  502    0 -0.14849994364E+03  0.17420722493E+02  0.12305641420E+04  0.12396232946E+04  0.46999998093E+01 0. -1.
       -5    1    3    3    0  502  0.14849994364E+03 -0.17420722493E+02 -0.80000493464E+03  0.81387081302E+03  0.46999998093E+01 0.  1.
</event>
<event>
 5   0  0.2859625E-05  0.2023007E+04  0.7818609E-02  0.8595939E-01
        3   -1    0    0  501    0  0.00000000000E+00  0.00000000000E+00  0.11094197915E+04  0.11094197961E+04  0.10100000352E+00 0. -1.
       -3   -1    0    0    0  501  0.00000000000E+00  0.00000000000E+00 -0.92222908421E+03  0.92222908974E+03  0.10100000352E+00 0.  1.
    10030    2    1    2    0    0  0.00000000000E+00  0.00000000000E+00  0.18719070729E+03  0.20316488858E+04  0.20230068795E+04 0.  0.
        1    1    3    3  502    0 -0.31843449454E+03  0.75619702529E+03 -0.50045903370E+03  0.96108985678E+03  0.50400001928E-02 0.  1.
       -1    1    3    3    0  502  0.31843449454E+03 -0.75619702529E+03  0.68764974099E+03  0.10705590290E+04  0.50400001928E-02 0. -1.
</event>
<event>
 5   0  0.7857136E-05  0.2005731E+04  0.7818609E-02  0.8603946E-01
       -2   -1    0    0    0  501  0.00000000000E+00  0.00000000000E+00  0.91977833691E+03  0.91977833691E+03  0.25500000920E-02 0. -1.
        2   -1    0    0  501    0  0.00000000000E+00  0.00000000000E+00 -0.10934582304E+04  0.10934582304E+04  0.25500000920E-02 0.  1.
    10030    2    1    2    0    0  0.00000000000E+00  0.00000000000E+00 -0.17367989351E+03  0.20132365673E+04  0.20057309816E+04 0.  0.
        4    1    3    3  502    0  0.19402096223E+03  0.37167904158E+03  0.82758402815E+03  0.92773184719E+03  0.12699999809E+01 0. -1.
       -4    1    3    3    0  502 -0.19402096223E+03 -0.37167904158E+03 -0.10012639217E+04  0.10855047201E+04  0.12699999809E+01 0.  1.
</event>
<event>
 5   0  0.7843846E-05  0.1821009E+04  0.7818609E-02  0.8695206E-01
       -2   -1    0    0    0  501  0.00000000000E+00  0.00000000000E+00  0.58874633779E+03  0.58874633779E+03  0.25500000920E-02 0. -1.
        2   -1    0    0  501    0  0.00000000000E+00  0.00000000000E+00 -0.14081087443E+04  0.14081087443E+04  0.25500000920E-02 0.  1.
    10030    2    1    2    0    0  0.00000000000E+00  0.00000000000E+00 -0.81936240651E+03  0.19968550821E+04  0.18210094634E+04 0.  0.
        2    1    3    3  502    0  0.24599413452E+03 -0.41038417287E+03  0.43977844005E+03  0.64987180267E+03  0.25500000920E-02 0. -1.
       -2    1    3    3    0  502 -0.24599413452E+03  0.41038417287E+03 -0.12591408466E+04  0.13469832794E+04  0.25500000920E-02 0.  1.
</event>
<event>
 5   0  0.3772949E-05  0.2000911E+04  0.7818609E-02  0.8606195E-01
       -1   -1    0    0    0  501  0.00000000000E+00  0.00000000000E+00  0.53273390465E+03  0.53273390468E+03  0.50400001928E-02 0. -1.
        1   -1    0    0  501    0  0.00000000000E+00  0.00000000000E+00 -0.18788207881E+04  0.18788207881E+04  0.50400001928E-02 0.  1.
    10030    2    1    2    0    0  0.00000000000E+00  0.00000000000E+00 -0.13460868834E+04  0.24115546928E+04  0.20009113270E+04 0.  0.
        2    1    3    3  502    0 -0.35786828128E+03  0.81162718102E+03 -0.12307179571E+04  0.15170613295E+04  0.25500000920E-02 0.  1.
       -2    1    3    3    0  502  0.35786828128E+03 -0.81162718102E+03 -0.11536892639E+03  0.89449336325E+03  0.25500000920E-02 0. -1.
</event>
<event>
 5   0  0.2859625E-05  0.2040589E+04  0.7818609E-02  0.8587875E-01
       -4   -1    0    0    0  501  0.00000000000E+00  0.00000000000E+00  0.84497007402E+03  0.84497102843E+03  0.12699999809E+01 0.  1.
        4   -1    0    0  501    0  0.00000000000E+00  0.00000000000E+00 -0.12319958963E+04  0.12319965509E+04  0.12699999809E+01 0. -1.
    10030    2    1    2    0    0  0.00000000000E+00  0.00000000000E+00 -0.38702582226E+03  0.20769675793E+04  0.20405894585E+04 0.  0.
        1    1    3    3  502    0 -0.73211152821E+03 -0.56542311204E+03  0.24463867129E+03  0.95683784671E+03  0.50400001928E-02 0.  1.
       -1    1    3    3    0  502  0.73211152821E+03  0.56542311204E+03 -0.63166449355E+03  0.11201297326E+04  0.50400001928E-02 0. -1.
</event>
<event>
 5   0  0.8022574E-05  0.2000739E+04  0.7818609E-02  0.8606275E-01
       -2   -1    0    0    0  501  0.00000000000E+00  0.00000000000E+00  0.11235522140E+04  0.11235522140E+04  0.25500000920E-02 0. -1.
        2   -1    0    0  501    0  0.00000000000E+00  0.00000000000E+00 -0.89069190508E+03  0.89069190509E+03  0.25500000920E-02 0.  1.
    10030    2    1    2    0    0  0.00000000000E+00  0.00000000000E+00  0.23286030889E+03  0.20142441191E+04  0.20007387255E+04 0.  0.
        1    1    3    3  502    0  0.23319659777E+03  0.95665078997E+02 -0.85819888948E+03  0.89444831851E+03  0.50400001928E-02 0.  1.
       -1    1    3    3    0  502 -0.23319659777E+03 -0.95665078997E+02  0.10910591984E+04  0.11197958006E+04  0.50400001928E-02 0. -1.
</event>
<event>
 5   0  0.3787698E-05  0.1975069E+04  0.7818609E-02  0.8618366E-01
        1   -1    0    0  501    0  0.00000000000E+00  0.00000000000E+00  0.42088455285E+03  0.42088455288E+03  0.50400001928E-02 0.  1.
       -1   -1    0    0    0  501  0.00000000000E+00  0.00000000000E+00 -0.23170830326E+04  0.23170830326E+04  0.50400001928E-02 0. -1.
    10030    2    1    2    0    0  0.00000000000E+00  0.00000000000E+00 -0.18961984797E+04  0.27379675855E+04  0.19750690683E+04 0.  0.
        4    1    3    3  502    0 -0.95724319025E+02 -0.11952276556E+03  0.40432496411E+03  0.43235301114E+03  0.12699999809E+01 0.  1.
       -4    1    3    3    0  502  0.95724319025E+02  0.11952276556E+03 -0.23005234439E+04  0.23056145743E+04  0.12699999809E+01 0. -1.
</event>
<event>
 5   0  0.3549426E-05  0.2009915E+04  0.7818609E-02  0.8601999E-01
       -1   -1    0    0    0  501  0.00000000000E+00  0.00000000000E+00  0.50948147354E+03  0.50948147357E+03  0.50400001928E-02 0. -1.
        1   -1    0    0  501    0  0.00000000000E+00  0.00000000000E+00 -0.19822883787E+04  0.19822883787E+04  0.50400001928E-02 0.  1.
    10030    2    1    2    0    0  0.00000000000E+00  0.00000000000E+00 -0.14728069051E+04  0.24917698522E+04  0.20099146292E+04 0.  0.
        5    1    3    3  502    0  0.53227440831E+03  0.22258491141E+03  0.28369700016E+03  0.64293558498E+03  0.46999998093E+01 0. -1.
       -5    1    3    3    0  502 -0.53227440831E+03 -0.22258491141E+03 -0.17565039053E+04  0.18488342673E+04  0.46999998093E+01 0.  1.
</event>
<event>
 5   0  0.3818907E-05  0.1991818E+04  0.7818609E-02  0.8610456E-01
        1   -1    0    0  501    0  0.00000000000E+00  0.00000000000E+00  0.61883122443E+03  0.61883122445E+03  0.50400001928E-02 0. -1.
       -1   -1    0    0    0  501  0.00000000000E+00  0.00000000000E+00 -0.16027548523E+04  0.16027548523E+04  0.50400001928E-02 0.  1.
    10030    2    1    2    0    0  0.00000000000E+00  0.00000000000E+00 -0.98392362782E+03  0.22215860767E+04  0.19918180115E+04 0.  0.
        1    1    3    3  502    0  0.15754396311E+03 -0.34939152930E+02  0.60415217239E+03  0.62533246529E+03  0.50400001928E-02 0. -1.
       -1    1    3    3    0  502 -0.15754396311E+03  0.34939152930E+02 -0.15880758002E+04  0.15962536114E+04  0.50400001928E-02 0.  1.
</event>
<event>
 5   0  0.3970042E-05  0.2009592E+04  0.7818609E-02  0.8602149E-01
       -1   -1    0    0    0  501  0.00000000000E+00  0.00000000000E+00  0.90137270312E+03  0.90137270314E+03  0.50400001928E-02 0.  1.
        1   -1    0    0  501    0  0.00000000000E+00  0.00000000000E+00 -0.11200860750E+04  0.11200860750E+04  0.50400001928E-02 0. -1.
    10030    2    1    2    0    0  0.00000000000E+00  0.00000000000E+00 -0.21871337189E+03  0.20214587782E+04  0.20095920115E+04 0.  0.
        3    1    3    3  502    0 -0.97946157185E+03 -0.18461282280E+03  0.18627243987E+02  0.99688206399E+03  0.10100000352E+00 0.  1.
       -3    1    3    3    0  502  0.97946157185E+03  0.18461282280E+03 -0.23734061587E+03  0.10245767142E+04  0.10100000352E+00 0. -1.
</event>
<event>
 5   0  0.8022574E-05  0.1974593E+04  0.7818609E-02  0.8618592E-01
        2   -1    0    0  501    0  0.00000000000E+00  0.00000000000E+00  0.88770004358E+03  0.88770004358E+03  0.25500000920E-02 0.  1.
       -2   -1    0    0    0  501  0.00000000000E+00  0.00000000000E+00 -0.10980675529E+04  0.10980675529E+04  0.25500000920E-02 0. -1.
    10030    2    1    2    0    0  0.00000000000E+00  0.00000000000E+00 -0.21036750933E+03  0.19857675965E+04  0.19745932387E+04 0.  0.
        1    1    3    3  502    0  0.54761790038E+03 -0.22099170941E+02  0.72067047473E+03  0.90539475995E+03  0.50400001928E-02 0.  1.
       -1    1    3    3    0  502 -0.54761790038E+03  0.22099170941E+02 -0.93103798406E+03  0.10803728366E+04  0.50400001928E-02 0. -1.
</event>
<event>
 5   0  0.8022574E-05  0.2001654E+04  0.7818609E-02  0.8605848E-01
       -2   -1    0    0    0  501  0.00000000000E+00  0.00000000000E+00  0.40177505245E+03  0.40177505246E+03  0.25500000920E-02 0.  1.
        2   -1    0    0  501    0  0.00000000000E+00  0.00000000000E+00 -0.24930729591E+04  0.24930729591E+04  0.25500000920E-02 0. -1.
    10030    2    1    2    0    0  0.00000000000E+00  0.00000000000E+00 -0.20912979067E+04  0.28948480116E+04  0.20016538351E+04 0.  0.
        1    1    3    3  502    0 -0.63692441660E+03 -0.10337222861E+03  0.60782638772E+02  0.64811500470E+03  0.50400001928E-02 0.  1.
       -1    1    3    3    0  502  0.63692441660E+03  0.10337222861E+03 -0.21520805454E+04  0.22467330069E+04  0.50400001928E-02 0. -1.
</event>
<event>
 5   0  0.2859625E-05  0.1999256E+04  0.7818609E-02  0.8606969E-01
       -3   -1    0    0    0  501  0.00000000000E+00  0.00000000000E+00  0.12814087515E+04  0.12814087555E+04  0.10100000352E+00 0. -1.
        3   -1    0    0  501    0  0.00000000000E+00  0.00000000000E+00 -0.77981031413E+03  0.77981032067E+03  0.10100000352E+00 0.  1.
    10030    2    1    2    0    0  0.00000000000E+00  0.00000000000E+00  0.50159843739E+03  0.20612190762E+04  0.19992556334E+04 0.  0.
        2    1    3    3  502    0 -0.85072542174E+02  0.82428659817E+03  0.82720655251E+03  0.11708784795E+04  0.25500000920E-02 0. -1.
       -2    1    3    3    0  502  0.85072542174E+02 -0.82428659817E+03 -0.32560811512E+03  0.89034059662E+03  0.25500000920E-02 0.  1.
</event>
<event>
 5   0  0.7857136E-05  0.1995653E+04  0.7818609E-02  0.8608656E-01
        2   -1    0    0  501    0  0.00000000000E+00  0.00000000000E+00  0.14804566539E+04  0.14804566539E+04  0.25500000920E-02 0. -1.
       -2   -1    0    0    0  501  0.00000000000E+00  0.00000000000E+00 -0.67253388644E+03  0.67253388644E+03  0.25500000920E-02 0.  1.
    10030    2    1    2    0    0  0.00000000000E+00  0.00000000000E+00  0.80792276747E+03  0.21529905404E+04  0.19956525421E+04 0.  0.
        4    1    3    3  502    0  0.76831576069E+02  0.38218688445E+02 -0.66854480992E+03  0.67403081161E+03  0.12699999809E+01 0.  1.
       -4    1    3    3    0  502 -0.76831576069E+02 -0.38218688445E+02  0.14764675774E+04  0.14789597287E+04  0.12699999809E+01 0. -1.
</event>
<event>
 5   0  0.3772949E-05  0.1907461E+04  0.7818609E-02  0.8651152E-01
       -1   -1    0    0    0  501  0.00000000000E+00  0.00000000000E+00  0.14380645422E+04  0.14380645422E+04  0.50400001928E-02 0.  1.
        1   -1    0    0  501    0  0.00000000000E+00  0.00000000000E+00 -0.63251791219E+03  0.63251791221E+03  0.50400001928E-02 0. -1.
    10030    2    1    2    0    0  0.00000000000E+00  0.00000000000E+00  0.80554663004E+03  0.20705824545E+04  0.19074607014E+04 0.  0.
        2    1    3    3  502    0 -0.35814507401E+03 -0.25266000146E+03  0.13222629916E+04  0.13930127025E+04  0.25500000920E-02 0.  1.
       -2    1    3    3    0  502  0.35814507401E+03  0.25266000146E+03 -0.51671636159E+03  0.67756975192E+03  0.25500000920E-02 0. -1.
</event>
<event>
 5   0  0.8011197E-05  0.2028756E+04  0.7818609E-02  0.8593293E-01
        2   -1    0    0  501    0  0.00000000000E+00  0.00000000000E+00  0.93567186965E+03  0.93567186965E+03  0.25500000920E-02 0. -1.
       -2   -1    0    0    0  501  0.00000000000E+00  0.00000000000E+00 -0.10997048486E+04  0.10997048486E+04  0.25500000920E-02 0.  1.
    10030    2    1    2    0    0  0.00000000000E+00  0.00000000000E+00 -0.16403297890E+03  0.20353767182E+04  0.20287561625E+04 0.  0.
        5    1    3    3  502    0 -0.34681442528E+03  0.86381450591E+03  0.32239330198E+03  0.98509658276E+03  0.46999998093E+01 0. -1.
       -5    1    3    3    0  502  0.34681442528E+03 -0.86381450591E+03 -0.48642628088E+03  0.10502801355E+04  0.46999998093E+01 0.  1.
</event>
<event>
 5   0  0.8011197E-05  0.2010493E+04  0.7818609E-02  0.8601731E-01
        2   -1    0    0  501    0  0.00000000000E+00  0.00000000000E+00  0.18077450667E+04  0.18077450667E+04  0.25500000920E-02 0.  1.
       -2   -1    0    0    0  501  0.00000000000E+00  0.00000000000E+00 -0.55899478773E+03  0.55899478773E+03  0.25500000920E-02 0. -1.
    10030    2    1    2    0    0  0.00000000000E+00  0.00000000000E+00  0.12487502790E+04  0.23667398545E+04  0.20104925465E+04 0.  0.
        5    1    3    3  502    0  0.91400535528E+02  0.90043624658E+03  0.10941700612E+03  0.91166532416E+03  0.46999998093E+01 0. -1.
       -5    1    3    3    0  502 -0.91400535528E+02 -0.90043624658E+03  0.11393332729E+04  0.14550745303E+04  0.46999998093E+01 0.  1.
</event>
<event>
 5   0  0.7935008E-05  0.2052374E+04  0.7818609E-02  0.8582518E-01
        2   -1    0    0  501    0  0.00000000000E+00  0.00000000000E+00  0.11948261432E+04  0.11948261432E+04  0.25500000920E-02 0. -1.
       -2   -1    0    0    0  501  0.00000000000E+00  0.00000000000E+00 -0.88134951296E+03  0.88134951296E+03  0.25500000920E-02 0.  1.
    10030    2    1    2    0    0  0.00000000000E+00  0.00000000000E+00  0.31347663025E+03  0.20761756562E+04  0.20523736886E+04 0.  0.
        3    1    3    3  502    0  0.73062648407E+03  0.65540668749E+03 -0.14621175578E+03  0.99234614574E+03  0.10100000352E+00 0.  1.
       -3    1    3    3    0  502 -0.73062648407E+03 -0.65540668749E+03  0.45968838603E+03  0.10838295104E+04  0.10100000352E+00 0. -1.
</event>
<event>
 5   0  0.8011197E-05  0.1990278E+04  0.7818609E-02  0.8611180E-01
        2   -1    0    0  501    0  0.00000000000E+00  0.00000000000E+00  0.16028288940E+04  0.16028288940E+04  0.25500000920E-02 0.  1.
       -2   -1    0    0    0  501  0.00000000000E+00  0.00000000000E+00 -0.61784613087E+03  0.61784613087E+03  0.25500000920E-02 0. -1.
    10030    2    1    2    0    0  0.00000000000E+00  0.00000000000E+00  0.98498276311E+03  0.22206750249E+04  0.19902780013E+04 0.  0.
        5    1    3    3  502    0  0.16228179340E+03  0.10039167882E+03  0.15822112644E+04  0.15936839225E+04  0.46999998093E+01 0.  1.
       -5    1    3    3    0  502 -0.16228179340E+03 -0.10039167882E+03 -0.59722850130E+03  0.62699110234E+03  0.46999998093E+01 0. -1.
</event>
<event>
 5   0  0.7843846E-05  0.1993192E+04  0.7818609E-02  0.8609810E-01
       -2   -1    0    0    0  501  0.00000000000E+00  0.00000000000E+00  0.47427133342E+03  0.47427133343E+03  0.25500000920E-02 0. -1.
        2   -1    0    0  501    0  0.00000000000E+00  0.00000000000E+00 -0.20941682472E+04  0.20941682472E+04  0.25500000920E-02 0.  1.
    10030    2    1    2    0    0  0.00000000000E+00  0.00000000000E+00 -0.16198969137E+04  0.25684395806E+04  0.19931923811E+04 0.  0.
        2    1    3    3  502    0 -0.25499216629E+03 -0.57494997323E+03 -0.18061129515E+04  0.19124937830E+04  0.25500000920E-02 0.  1.
       -2    1    3    3    0  502  0.25499216629E+03  0.57494997323E+03  0.18621603776E+03  0.65594579754E+03  0.25500000920E-02 0. -1.
</event>
<event>
 5   0  0.8011197E-05  0.2025931E+04  0.7818609E-02  0.8594592E-01
       -2   -1    0    0    0  501  0.00000000000E+00  0.00000000000E+00  0.60811500050E+03  0.60811500051E+03  0.25500000920E-02 0. -1.
        2   -1    0    0  501    0  0.00000000000E+00  0.00000000000E+00 -0.16873439722E+04  0.16873439722E+04  0.25500000920E-02 0.  1.
    10030    2    1    2    0    0  0.00000000000E+00  0.00000000000E+00 -0.10792289717E+04  0.22954589727E+04  0.20259310753E+04 0.  0.
        5    1    3    3  502    0  0.61297311990E+03 -0.78382908861E+03 -0.75445316032E+03  0.12487376614E+04  0.46999998093E+01 0. -1.
       -5    1    3    3    0  502 -0.61297311990E+03  0.78382908861E+03 -0.32477581137E+03  0.10467213113E+04  0.46999998093E+01 0.  1.
</event>
<event>
 5   0  0.7843846E-05  0.1967465E+04  0.7818609E-02  0.8621985E-01
        2   -1    0    0  501    0  0.00000000000E+00  0.00000000000E+00  0.57304764399E+03  0.57304764400E+03  0.25500000920E-02 0. -1.
       -2   -1    0    0    0  501  0.00000000000E+00  0.00000000000E+00 -0.16887420818E+04  0.16887420818E+04  0.25500000920E-02 0.  1.
    10030    2    1    2    0    0  0.00000000000E+00  0.00000000000E+00 -0.11156944379E+04  0.22617897258E+04  0.19674650404E+04 0.  0.
        2    1    3    3  502    0  0.64280904917E+03  0.72571153456E+03 -0.36593367193E+03  0.10362278501E+04  0.25500000920E-02 0.  1.
       -2    1    3    3    0  502 -0.64280904917E+03 -0.72571153456E+03 -0.74976076593E+03  0.12255618757E+04  0.25500000920E-02 0. -1.
</event>
<event>
 5   0  0.7857136E-05  0.2006395E+04  0.7818609E-02  0.8603637E-01
        2   -1    0    0  501    0  0.00000000000E+00  0.00000000000E+00  0.12686652178E+04  0.12686652178E+04  0.25500000920E-02 0.  1.
       -2   -1    0    0    0  501  0.00000000000E+00  0.00000000000E+00 -0.79327898501E+03  0.79327898502E+03  0.25500000920E-02 0. -1.
    10030    2    1    2    0    0  0.00000000000E+00  0.00000000000E+00  0.47538623282E+03  0.20619442029E+04  0.20063952316E+04 0.  0.
        4    1    3    3  502    0  0.49510869721E+03  0.75892177095E+03 -0.20470028382E+03  0.92897723092E+03  0.12699999809E+01 0. -1.
       -4    1    3    3    0  502 -0.49510869721E+03 -0.75892177095E+03  0.68008651665E+03  0.11329669719E+04  0.12699999809E+01 0.  1.
</event>
<event>
 5   0  0.8022574E-05  0.1856044E+04  0.7818609E-02  0.8677051E-01
        2   -1    0    0  501    0  0.00000000000E+00  0.00000000000E+00  0.12695201750E+04  0.12695201750E+04  0.25500000920E-02 0. -1.
       -2   -1    0    0    0  501  0.00000000000E+00  0.00000000000E+00 -0.67838584710E+03  0.67838584710E+03  0.25500000920E-02 0.  1.
    10030    2    1    2    0    0  0.00000000000E+00  0.00000000000E+00  0.59113432789E+03  0.19479060221E+04  0.18560436626E+04 0.  0.
        1    1    3    3  502    0  0.34552347583E+03 -0.46560682974E+03  0.10560325501E+04  0.12047327252E+04  0.50400001928E-02 0. -1.
       -1    1    3    3    0  502 -0.34552347583E+03  0.46560682974E+03 -0.46489822218E+03  0.74317329693E+03  0.50400001928E-02 0.  1.
</event>
<event>
 5   0  0.3818907E-05  0.1990026E+04  0.7818609E-02  0.8611298E-01
       -1   -1    0    0    0  501  0.00000000000E+00  0.00000000000E+00  0.42714626358E+03  0.42714626361E+03  0.50400001928E-02 0.  1.
        1   -1    0    0  501    0  0.00000000000E+00  0.00000000000E+00 -0.23178267174E+04  0.23178267174E+04  0.50400001928E-02 0. -1.
    10030    2    1    2    0    0  0.00000000000E+00  0.00000000000E+00 -0.18906804538E+04  0.27449729810E+04  0.19900261526E+04 0.  0.
        1    1    3    3  502    0 -0.85798806829E+03  0.24475070867E+03 -0.15528947936E+04  0.17909574743E+04  0.50400001928E-02 0. -1.
       -1    1    3    3    0  502  0.85798806829E+03 -0.24475070867E+03 -0.33778566019E+03  0.95401550668E+03  0.50400001928E-02 0.  1.
</event>
<event>
 5   0  0.3549426E-05  0.2010477E+04  0.7818609E-02  0.8601738E-01
       -1   -1    0    0    0  501  0.00000000000E+00  0.00000000000E+00  0.13255447052E+04  0.13255447052E+04  0.50400001928E-02 0.  1.
        1   -1    0    0  501    0  0.00000000000E+00  0.00000000000E+00 -0.76233110233E+03  0.76233110235E+03  0.50400001928E-02 0. -1.
    10030    2    1    2    0    0  0.00000000000E+00  0.00000000000E+00  0.56321360285E+03  0.20878758075E+04  0.20104765170E+04 0.  0.
        5    1    3    3  502    0 -0.72253968146E+03  0.65341573322E+02  0.10042019917E+04  0.12388611071E+04  0.46999998093E+01 0.  1.
       -5    1    3    3    0  502  0.72253968146E+03 -0.65341573322E+02 -0.44098838886E+03  0.84901470046E+03  0.46999998093E+01 0. -1.
</event>
<event>
 5   0  0.3772949E-05  0.2049611E+04  0.7818609E-02  0.8583771E-01
        1   -1    0    0  501    0  0.00000000000E+00  0.00000000000E+00  0.86963032067E+03  0.86963032068E+03  0.50400001928E-02 0. -1.
       -1   -1    0    0    0  501  0.00000000000E+00  0.00000000000E+00 -0.12076701786E+04  0.12076701786E+04  0.50400001928E-02 0.  1.
    10030    2    1    2    0    0  0.00000000000E+00  0.00000000000E+00 -0.33803985796E+03  0.20773004993E+04  0.20496112848E+04 0.  0.
        2    1    3    3  502    0  0.30680444810E+03  0.20075018961E+03  0.80088112085E+03  0.88081790271E+03  0.25500000920E-02 0. -1.
       -2    1    3    3    0  502 -0.30680444810E+03 -0.20075018961E+03 -0.11389209788E+04  0.11964825966E+04  0.25500000920E-02 0.  1.
</event>
<event>
 5   0  0.3549426E-05  0.1976402E+04  0.7818609E-02  0.8617734E-01
       -1   -1    0    0    0  501  0.00000000000E+00  0.00000000000E+00  0.40821814702E+03  0.40821814705E+03  0.50400001928E-02 0.  1.
        1   -1    0    0  501    0  0.00000000000E+00  0.00000000000E+00 -0.23922038697E+04  0.23922038698E+04  0.50400001928E-02 0. -1.
    10030    2    1    2    0    0  0.00000000000E+00  0.00000000000E+00 -0.19839857227E+04  0.28004220168E+04  0.19764018124E+04 0.  0.
        5    1    3    3  502    0  0.51971266805E+03 -0.68818579275E+03 -0.16756785916E+04  0.18845746934E+04  0.46999998093E+01 0. -1.
       -5    1    3    3    0  502 -0.51971266805E+03  0.68818579275E+03 -0.30830713111E+03  0.91584732339E+03  0.46999998093E+01 0.  1.
</event>
<event>
 5   0  0.8022574E-05  0.2012210E+04  0.7818609E-02  0.8600933E-01
        2   -1    0    0  501    0  0.00000000000E+00  0.00000000000E+00  0.10158216281E+04  0.10158216281E+04  0.25500000920E-02 0.  1.
       -2   -1    0    0    0  501  0.00000000000E+00  0.00000000000E+00 -0.99648108129E+03  0.99648108129E+03  0.25500000920E-02 0. -1.
    10030    2    1    2    0    0  0.00000000000E+00  0.00000000000E+00  0.19340546824E+02  0.20123027094E+04  0.20122097648E+04 0.  0.
        1    1    3    3  502    0  0.66023885930E+02  0.75986981928E+03 -0.64647415281E+03  0.99984505102E+03  0.50400001928E-02 0. -1.
       -1    1    3    3    0  502 -0.66023885930E+02 -0.75986981928E+03  0.66581469963E+03  0.10124576584E+04  0.50400001928E-02 0.  1.
</event>
<event>
 5   0  0.7857136E-05  0.1989957E+04  0.7818609E-02  0.8611330E-01
       -2   -1    0    0    0  501  0.00000000000E+00  0.00000000000E+00  0.69221094522E+03  0.69221094523E+03  0.25500000920E-02 0. -1.
        2   -1    0    0  501    0  0.00000000000E+00  0.00000000000E+00 -0.14301744324E+04  0.14301744324E+04  0.25500000920E-02 0.  1.
    10030    2    1    2    0    0  0.00000000000E+00  0.00000000000E+00 -0.73796348718E+03  0.21223853776E+04  0.19899571811E+04 0.  0.
        4    1    3    3  502    0  0.56817728444E+03  0.70433534574E+03  0.72145348047E+02  0.90781070161E+03  0.12699999809E+01 0. -1.
       -4    1    3    3    0  502 -0.56817728444E+03 -0.70433534574E+03 -0.81010883523E+03  0.12145746760E+04  0.12699999809E+01 0.  1.
</event>
<event>
 5   0  0.3787698E-05  0.1997722E+04  0.7818609E-02  0.8607687E-01
       -1   -1    0    0    0  501  0.00000000000E+00  0.00000000000E+00  0.69006671125E+03  0.69006671127E+03  0.50400001928E-02 0.  1.
        1   -1    0    0  501    0  0.00000000000E+00  0.00000000000E+00 -0.14458354553E+04  0.14458354553E+04  0.50400001928E-02 0. -1.
    10030    2    1    2    0    0  0.00000000000E+00  0.00000000000E+00 -0.75576874403E+03  0.21359021666E+04  0.19977216199E+04 0.  0.
        4    1    3    3  502    0 -0.53535373317E+03  0.56293200404E+03 -0.10491873934E+04  0.13054852968E+04  0.12699999809E+01 0. -1.
       -4    1    3    3    0  502  0.53535373317E+03 -0.56293200404E+03  0.29341864941E+03  0.83041686972E+03  0.12699999809E+01 0.  1.
</event>
<event>
 5   0  0.3772949E-05  0.2012693E+04  0.7818609E-02  0.8600709E-01
       -1   -1    0    0    0  501  0.00000000000E+00  0.00000000000E+00  0.18307454824E+04  0.18307454824E+04  0.50400001928E-02 0. -1.
        1   -1    0    0  501    0  0.00000000000E+00  0.00000000000E+00 -0.55318087991E+03  0.55318087993E+03  0.50400001928E-02 0.  1.
    10030    2    1    2    0    0  0.00000000000E+00  0.00000000000E+00  0.12775646025E+04  0.23839263623E+04  0.20126931181E+04 0.  0.
        2    1    3    3  502    0 -0.17730363925E+03  0.28508902331E+03 -0.48489500971E+03  0.58977580669E+03  0.25500000920E-02 0.  1.
       -2    1    3    3    0  502  0.17730363925E+03 -0.28508902331E+03  0.17624596122E+04  0.17941505557E+04  0.25500000920E-02 0. -1.
</event>
<event>
 5   0  0.3772949E-05  0.1971817E+04  0.7818609E-02  0.8619912E-01
       -1   -1    0    0    0  501  0.00000000000E+00  0.00000000000E+00  0.51290950025E+03  0.51290950028E+03  0.50400001928E-02 0. -1.
        1   -1    0    0  501    0  0.00000000000E+00  0.00000000000E+00 -0.18951005829E+04  0.18951005829E+04  0.50400001928E-02 0.  1.
    10030    2    1    2    0    0  0.00000000000E+00  0.00000000000E+00 -0.13821910826E+04  0.24080100832E+04  0.19718165157E+04 0.  0.
        2    1    3    3  502    0  0.74449840670E+03  0.69501737603E+02  0.93629982750E+02  0.75357477584E+03  0.25500000920E-02 0. -1.
       -2    1    3    3    0  502 -0.74449840670E+03 -0.69501737603E+02 -0.14758210654E+04  0.16544353073E+04  0.25500000920E-02 0.  1.
</event>
<event>
 5   0  0.7843846E-05  0.2031838E+04  0.7818609E-02  0.8591878E-01
       -2   -1    0    0    0  501  0.00000000000E+00  0.00000000000E+00  0.55047860552E+03  0.55047860553E+03  0.25500000920E-02 0.  1.
        2   -1    0    0  501    0  0.00000000000E+00  0.00000000000E+00 -0.18748988312E+04  0.18748988312E+04  0.25500000920E-02 0. -1.
    10030    2    1    2    0    0  0.00000000000E+00  0.00000000000E+00 -0.13244202257E+04  0.24253774367E+04  0.20318382752E+04 0.  0.
        2    1    3    3  502    0  0.64278714622E+03 -0.11561197644E+02  0.27677624699E+03  0.69993861698E+03  0.25500000920E-02 0.  1.
       -2    1    3    3    0  502 -0.64278714622E+03  0.11561197644E+02 -0.16011964727E+04  0.17254388197E+04  0.25500000920E-02 0. -1.
</event>
<event>
 5   0  0.3818907E-05  0.2008861E+04  0.7818609E-02  0.8602489E-01
        1   -1    0    0  501    0  0.00000000000E+00  0.00000000000E+00  0.53715475728E+03  0.53715475731E+03  0.50400001928E-02 0.  1.
       -1   -1    0    0    0  501  0.00000000000E+00  0.00000000000E+00 -0.18781940924E+04  0.18781940925E+04  0.50400001928E-02 0. -1.
    10030    2    1    2    0    0  0.00000000000E+00  0.00000000000E+00 -0.13410393352E+04  0.24153488498E+04  0.20088612614E+04 0.  0.
        1    1    3    3  502    0  0.38635215601E+02  0.72883336578E+03  0.15917847698E+03  0.74701308055E+03  0.50400001928E-02 0.  1.
       -1    1    3    3    0  502 -0.38635215601E+02 -0.72883336578E+03 -0.15002178121E+04  0.16683357692E+04  0.50400001928E-02 0. -1.
</event>
<event>
 5   0  0.3772949E-05  0.2008867E+04  0.7818609E-02  0.8602486E-01
        1   -1    0    0  501    0  0.00000000000E+00  0.00000000000E+00  0.98544460578E+03  0.98544460579E+03  0.50400001928E-02 0.  1.
       -1   -1    0    0    0  501  0.00000000000E+00  0.00000000000E+00 -0.10237880085E+04  0.10237880085E+04  0.50400001928E-02 0. -1.
    10030    2    1    2    0    0  0.00000000000E+00  0.00000000000E+00 -0.38343402736E+02  0.20092326143E+04  0.20088667158E+04 0.  0.
        2    1    3    3  502    0 -0.67927037341E+03  0.67043151617E+03  0.29393437544E+03  0.99864111428E+03  0.25500000920E-02 0. -1.
       -2    1    3    3    0  502  0.67927037341E+03 -0.67043151617E+03 -0.33227777817E+03  0.10105915000E+04  0.25500000920E-02 0.  1.
</event>
<event>
 5   0  0.3970042E-05  0.1835577E+04  0.7818609E-02  0.8687605E-01
       -1   -1    0    0    0  501  0.00000000000E+00  0.00000000000E+00  0.61892067308E+03  0.61892067310E+03  0.50400001928E-02 0.  1.
        1   -1    0    0  501    0  0.00000000000E+00  0.00000000000E+00 -0.13609755124E+04  0.13609755124E+04  0.50400001928E-02 0. -1.
    10030    2    1    2    0    0  0.00000000000E+00  0.00000000000E+00 -0.74205483934E+03  0.19798961855E+04  0.18355771629E+04 0.  0.
        3    1    3    3  502    0  0.75162620726E+02 -0.10892971754E+03 -0.13506292019E+04  0.13570977688E+04  0.10100000352E+00 0. -1.
       -3    1    3    3    0  502 -0.75162620726E+02  0.10892971754E+03  0.60857436255E+03  0.62279841672E+03  0.10100000352E+00 0.  1.
</event>
<event>
 5   0  0.3787698E-05  0.2004212E+04  0.7818609E-02  0.8604654E-01
       -1   -1    0    0    0  501  0.00000000000E+00  0.00000000000E+00  0.85635306744E+03  0.85635306746E+03  0.50400001928E-02 0.  1.
        1   -1    0    0  501    0  0.00000000000E+00  0.00000000000E+00 -0.11726657940E+04  0.11726657940E+04  0.50400001928E-02 0. -1.
    10030    2    1    2    0    0  0.00000000000E+00  0.00000000000E+00 -0.31631272656E+03  0.20290188615E+04  0.20042115156E+04 0.  0.
        4    1    3    3  502    0  0.59743300135E+03 -0.28477581949E+03  0.60361381211E+03  0.89575370808E+03  0.12699999809E+01 0.  1.
       -4    1    3    3    0  502 -0.59743300135E+03  0.28477581949E+03 -0.91992653866E+03  0.11332651534E+04  0.12699999809E+01 0. -1.
</event>
<event>
 5   0  0.7857136E-05  0.1988258E+04  0.7818609E-02  0.8612130E-01
        2   -1    0    0  501    0  0.00000000000E+00  0.00000000000E+00  0.11226334839E+04  0.11226334839E+04  0.25500000920E-02 0. -1.
       -2   -1    0    0    0  501  0.00000000000E+00  0.00000000000E+00 -0.88033379980E+03  0.88033379980E+03  0.25500000920E-02 0.  1.
    10030    2    1    2    0    0  0.00000000000E+00  0.00000000000E+00  0.24229968412E+03  0.20029672837E+04  0.19882577305E+04 0.  0.
        4    1    3    3  502    0 -0.52575703247E+03  0.13336310675E+03  0.96043070687E+03  0.11030117547E+04  0.12699999809E+01 0. -1.
       -4    1    3    3    0  502  0.52575703247E+03 -0.13336310675E+03 -0.71813102276E+03  0.89995552900E+03  0.12699999809E+01 0.  1.
</event>
<event>
 5   0  0.7843846E-05  0.2008254E+04  0.7818609E-02  0.8602771E-01
       -2   -1    0    0    0  501  0.00000000000E+00  0.00000000000E+00  0.55678233731E+03  0.55678233731E+03  0.25500000920E-02 0.  1.
        2   -1    0    0  501    0  0.00000000000E+00  0.00000000000E+00 -0.18108895808E+04  0.18108895808E+04  0.25500000920E-02 0. -1.
    10030    2    1    2    0    0  0.00000000000E+00  0.00000000000E+00 -0.12541072435E+04  0.23676719182E+04  0.20082543001E+04 0.  0.
        2    1    3    3  502    0 -0.22325134918E+03 -0.92402436827E+03 -0.24573534308E+03  0.98185948940E+03  0.25500000920E-02 0.  1.
       -2    1    3    3    0  502  0.22325134918E+03  0.92402436827E+03 -0.10083719005E+04  0.13858124288E+04  0.25500000920E-02 0. -1.
</event>
<event>
 5   0  0.8011197E-05  0.2001600E+04  0.7818609E-02  0.8605873E-01
       -2   -1    0    0    0  501  0.00000000000E+00  0.00000000000E+00  0.54894984458E+03  0.54894984458E+03  0.25500000920E-02 0.  1.
        2   -1    0    0  501    0  0.00000000000E+00  0.00000000000E+00 -0.18245750477E+04  0.18245750477E+04  0.25500000920E-02 0. -1.
    10030    2    1    2    0    0  0.00000000000E+00  0.00000000000E+00 -0.12756252031E+04  0.23735248923E+04  0.20015995492E+04 0.  0.
        5    1    3    3  502    0 -0.33382282911E+03  0.55880883718E+03 -0.15392443210E+04  0.16712271442E+04  0.46999998093E+01 0. -1.
       -5    1    3    3    0  502  0.33382282911E+03 -0.55880883718E+03  0.26361911784E+03  0.70229774814E+03  0.46999998093E+01 0.  1.
</event>
<event>
 5   0  0.7935008E-05  0.2001077E+04  0.7818609E-02  0.8606117E-01
       -2   -1    0    0    0  501  0.00000000000E+00  0.00000000000E+00  0.51925626616E+03  0.51925626617E+03  0.25500000920E-02 0. -1.
        2   -1    0    0  501    0  0.00000000000E+00  0.00000000000E+00 -0.19279065284E+04  0.19279065284E+04  0.25500000920E-02 0.  1.
    10030    2    1    2    0    0  0.00000000000E+00  0.00000000000E+00 -0.14086502623E+04  0.24471627946E+04  0.20010772554E+04 0.  0.
        3    1    3    3  502    0  0.44026203221E+03  0.21914090849E+03 -0.17699000994E+04  0.18369539371E+04  0.10100000352E+00 0.  1.
       -3    1    3    3    0  502 -0.44026203221E+03 -0.21914090849E+03  0.36124983714E+03  0.61020885754E+03  0.10100000352E+00 0. -1.
</event>
<event>
 5   0  0.8022574E-05  0.1980669E+04  0.7818609E-02  0.8615712E-01
        2   -1    0    0  501    0  0.00000000000E+00  0.00000000000E+00  0.15836242295E+04  0.15836242295E+04  0.25500000920E-02 0.  1.
       -2   -1    0    0    0  501  0.00000000000E+00  0.00000000000E+00 -0.61931495528E+03  0.61931495528E+03  0.25500000920E-02 0. -1.
    10030    2    1    2    0    0  0.00000000000E+00  0.00000000000E+00  0.96430927427E+03  0.22029391848E+04  0.19806687445E+04 0.  0.
        1    1    3    3  502    0  0.52910302047E+03 -0.14095049507E+03  0.13999518104E+04  0.15032239087E+04  0.50400001928E-02 0.  1.
       -1    1    3    3    0  502 -0.52910302047E+03  0.14095049507E+03 -0.43564253611E+03  0.69971527611E+03  0.50400001928E-02 0. -1.
</event>
<event>
 5   0  0.3970042E-05  0.2005804E+04  0.7818609E-02  0.8603912E-01
       -1   -1    0    0    0  501  0.00000000000E+00  0.00000000000E+00  0.85770277546E+03  0.85770277547E+03  0.50400001928E-02 0.  1.
        1   -1    0    0  501    0  0.00000000000E+00  0.00000000000E+00 -0.11726813946E+04  0.11726813946E+04  0.50400001928E-02 0. -1.
    10030    2    1    2    0    0  0.00000000000E+00  0.00000000000E+00 -0.31497861916E+03  0.20303841701E+04  0.20058036663E+04 0.  0.
        3    1    3    3  502    0 -0.28294343660E+03  0.86279574967E+03  0.27356789342E+03  0.94832109355E+03  0.10100000352E+00 0.  1.
       -3    1    3    3    0  502  0.28294343660E+03 -0.86279574967E+03 -0.58854651257E+03  0.10820630765E+04  0.10100000352E+00 0. -1.
</event>
<event>
 5   0  0.3970042E-05  0.1997483E+04  0.7818609E-02  0.8607798E-01
       -1   -1    0    0    0  501  0.00000000000E+00  0.00000000000E+00  0.47711991975E+03  0.47711991978E+03  0.50400001928E-02 0. -1.
        1   -1    0    0  501    0  0.00000000000E+00  0.00000000000E+00 -0.20906376048E+04  0.20906376048E+04  0.50400001928E-02 0.  1.
    10030    2    1    2    0    0  0.00000000000E+00  0.00000000000E+00 -0.16135176850E+04  0.25677575246E+04  0.19974832628E+04 0.  0.
        3    1    3    3  502    0 -0.99609491134E+03 -0.24961758654E+02 -0.71903678855E+03  0.12287563124E+04  0.10100000352E+00 0. -1.
       -3    1    3    3    0  502  0.99609491134E+03  0.24961758654E+02 -0.89448089649E+03  0.13390012122E+04  0.10100000352E+00 0.  1.
</event>
<event>
 5   0  0.8011197E-05  0.1960707E+04  0.7818609E-02  0.8625215E-01
       -2   -1    0    0    0  501  0.00000000000E+00  0.00000000000E+00  0.15535955960E+04  0.15535955960E+04  0.25500000920E-02 0. -1.
        2   -1    0    0  501    0  0.00000000000E+00  0.00000000000E+00 -0.61862480323E+03  0.61862480323E+03  0.25500000920E-02 0.  1.
    10030    2    1    2    0    0  0.00000000000E+00  0.00000000000E+00  0.93497079277E+03  0.21722203992E+04  0.19607067806E+04 0.  0.
        5    1    3    3  502    0 -0.33059928712E+03  0.69857322480E+03 -0.20071206430E+03  0.79850351396E+03  0.46999998093E+01 0.  1.
       -5    1    3    3    0  502  0.33059928712E+03 -0.69857322480E+03  0.11356828571E+04  0.13737168853E+04  0.46999998093E+01 0. -1.
</event>
<event>
 5   0  0.3787698E-05  0.1995125E+04  0.7818609E-02  0.8608903E-01
        1   -1    0    0  501    0  0.00000000000E+00  0.00000000000E+00  0.15958899880E+04  0.15958899880E+04  0.50400001928E-02 0. -1.
       -1   -1    0    0    0  501  0.00000000000E+00  0.00000000000E+00 -0.62355852481E+03  0.62355852484E+03  0.50400001928E-02 0.  1.
    10030    2    1    2    0    0  0.00000000000E+00  0.00000000000E+00  0.97233146316E+03  0.22194485128E+04  0.19951248650E+04 0.  0.
        4    1    3    3  502    0 -0.76108940357E+03  0.10323257796E+03  0.11943036168E+04  0.14199566146E+04  0.12699999809E+01 0. -1.
       -4    1    3    3    0  502  0.76108940357E+03 -0.10323257796E+03 -0.22197215366E+03  0.79949189819E+03  0.12699999809E+01 0.  1.
</event>
<event>
 5   0  0.8022574E-05  0.2005715E+04  0.7818609E-02  0.8603953E-01
       -2   -1    0    0    0  501  0.00000000000E+00  0.00000000000E+00  0.85664940581E+03  0.85664940581E+03  0.25500000920E-02 0.  1.
        2   -1    0    0  501    0  0.00000000000E+00  0.00000000000E+00 -0.11740195390E+04  0.11740195390E+04  0.25500000920E-02 0. -1.
    10030    2    1    2    0    0  0.00000000000E+00  0.00000000000E+00 -0.31737013324E+03  0.20306689449E+04  0.20057149753E+04 0.  0.
        1    1    3    3  502    0  0.26001716913E+03 -0.59281370324E+03 -0.93416902591E+03  0.11365336704E+04  0.50400001928E-02 0. -1.
       -1    1    3    3    0  502 -0.26001716913E+03  0.59281370324E+03  0.61679889267E+03  0.89413527445E+03  0.50400001928E-02 0.  1.
</event>
<event>
 5   0  0.7935008E-05  0.1996769E+04  0.7818609E-02  0.8608133E-01
        2   -1    0    0  501    0  0.00000000000E+00  0.00000000000E+00  0.86853259675E+03  0.86853259675E+03  0.25500000920E-02 0. -1.
       -2   -1    0    0    0  501  0.00000000000E+00  0.00000000000E+00 -0.11476502910E+04  0.11476502910E+04  0.25500000920E-02 0.  1.
    10030    2    1    2    0    0  0.00000000000E+00  0.00000000000E+00 -0.27911769421E+03  0.20161828877E+04  0.19967690776E+04 0.  0.
        3    1    3    3  502    0  0.22828939733E+02  0.17423243949E+03 -0.11319130655E+04  0.11454716503E+04  0.10100000352E+00 0.  1.
       -3    1    3    3    0  502 -0.22828939733E+02 -0.17423243949E+03  0.85279537132E+03  0.87071123744E+03  0.10100000352E+00 0. -1.
</event>
<event>
 5   0  0.3818907E-05  0.1982935E+04  0.7818609E-02  0.8614641E-01
        1   -1    0    0  501    0  0.00000000000E+00  0.00000000000E+00  0.18007945171E+04  0.18007945171E+04  0.50400001928E-02 0. -1.
       -1   -1    0    0    0  501  0.00000000000E+00  0.00000000000E+00 -0.54587473197E+03  0.54587473200E+03  0.50400001928E-02 0.  1.
    10030    2    1    2    0    0  0.00000000000E+00  0.00000000000E+00  0.12549197852E+04  0.23466692491E+04  0.19829354245E+04 0.  0.
        1    1    3    3  502    0 -0.53973119317E+02 -0.97534850229E+03  0.42665820638E+03  0.10659526367E+04  0.50400001928E-02 0.  1.
       -1    1    3    3    0  502  0.53973119317E+02  0.97534850229E+03  0.82826157878E+03  0.12807166125E+04  0.50400001928E-02 0. -1.
</event>
<event>
 5   0  0.7935008E-05  0.1988504E+04  0.7818609E-02  0.8612014E-01
        2   -1    0    0  501    0  0.00000000000E+00  0.00000000000E+00  0.15840270996E+04  0.15840270996E+04  0.25500000920E-02 0. -1.
       -2   -1    0    0    0  501  0.00000000000E+00  0.00000000000E+00 -0.62406580813E+03  0.62406580813E+03  0.25500000920E-02 0.  1.
    10030    2    1    2    0    0  0.00000000000E+00  0.00000000000E+00  0.95996129151E+03  0.22080929078E+04  0.19885041132E+04 0.  0.
        3    1    3    3  502    0 -0.84166311724E+03  0.52191137285E+01 -0.10772188238E+03  0.84854466954E+03  0.10100000352E+00 0.  1.
       -3    1    3    3    0  502  0.84166311724E+03 -0.52191137285E+01  0.10676831739E+04  0.13595482382E+04  0.10100000352E+00 0. -1.
</event>
<event>
 5   0  0.8022574E-05  0.1996067E+04  0.7818609E-02  0.8608462E-01
        2   -1    0    0  501    0  0.00000000000E+00  0.00000000000E+00  0.14074697234E+04  0.14074697234E+04  0.25500000920E-02 0. -1.
       -2   -1    0    0    0  501  0.00000000000E+00  0.00000000000E+00 -0.70770324093E+03  0.70770324094E+03  0.25500000920E-02 0.  1.
    10030    2    1    2    0    0  0.00000000000E+00  0.00000000000E+00  0.69976648244E+03  0.21151729643E+04  0.19960670177E+04 0.  0.
        1    1    3    3  502    0  0.80263340575E+03  0.57801712794E+03  0.49104906876E+03  0.11042886272E+04  0.50400001928E-02 0. -1.
       -1    1    3    3    0  502 -0.80263340575E+03 -0.57801712794E+03  0.20871741368E+03  0.10108843371E+04  0.50400001928E-02 0.  1.
</event>
<event>
 5   0  0.3772949E-05  0.2008890E+04  0.7818609E-02  0.8602476E-01
       -1   -1    0    0    0  501  0.00000000000E+00  0.00000000000E+00  0.82538652281E+03  0.82538652282E+03  0.50400001928E-02 0. -1.
        1   -1    0    0  501    0  0.00000000000E+00  0.00000000000E+00 -0.12223480130E+04  0.12223480130E+04  0.50400001928E-02 0.  1.
    10030    2    1    2    0    0  0.00000000000E+00  0.00000000000E+00 -0.39696149016E+03  0.20477345358E+04  0.20088898189E+04 0.  0.
        2    1    3    3  502    0 -0.76029981574E+03  0.48146260943E+02 -0.86576525409E+03  0.11532230259E+04  0.25500000920E-02 0.  1.
       -2    1    3    3    0  502  0.76029981574E+03 -0.48146260943E+02  0.46880376394E+03  0.89451150990E+03  0.25500000920E-02 0. -1.
</event>
<event>
 5   0  0.7857136E-05  0.2006836E+04  0.7818609E-02  0.8603431E-01
        2   -1    0    0  501    0  0.00000000000E+00  0.00000000000E+00  0.51508534002E+03  0.51508534003E+03  0.25500000920E-02 0. -1.
       -2   -1    0    0    0  501  0.00000000000E+00  0.00000000000E+00 -0.19547195089E+04  0.19547195090E+04  0.25500000920E-02 0.  1.
    10030    2    1    2    0    0  0.00000000000E+00  0.00000000000E+00 -0.14396341689E+04  0.24698048490E+04  0.20068356813E+04 0.  0.
        4    1    3    3  502    0  0.53390438538E+03 -0.61696924920E+03 -0.14386329570E+04  0.16538958084E+04  0.12699999809E+01 0.  1.
       -4    1    3    3    0  502 -0.53390438538E+03  0.61696924920E+03 -0.10012119458E+01  0.81590904059E+03  0.12699999809E+01 0. -1.
</event>
<event>
 5   0  0.7843846E-05  0.1988913E+04  0.7818609E-02  0.8611822E-01
        2   -1    0    0  501    0  0.00000000000E+00  0.00000000000E+00  0.10285738175E+04  0.10285738175E+04  0.25500000920E-02 0.  1.
       -2   -1    0    0    0  501  0.00000000000E+00  0.00000000000E+00 -0.96147072598E+03  0.96147072598E+03  0.25500000920E-02 0. -1.
    10030    2    1    2    0    0  0.00000000000E+00  0.00000000000E+00  0.67103091534E+02  0.19900445435E+04  0.19889128840E+04 0.  0.
        2    1    3    3  502    0  0.23451282589E+03  0.55668150720E+03 -0.75686821830E+03  0.96836979809E+03  0.25500000920E-02 0. -1.
       -2    1    3    3    0  502 -0.23451282589E+03 -0.55668150720E+03  0.82397130984E+03  0.10216747454E+04  0.25500000920E-02 0.  1.
</event>
<event>
 5   0  0.3970042E-05  0.1999215E+04  0.7818609E-02  0.8606988E-01
        1   -1    0    0  501    0  0.00000000000E+00  0.00000000000E+00  0.13212519765E+04  0.13212519765E+04  0.50400001928E-02 0. -1.
       -1   -1    0    0    0  501  0.00000000000E+00  0.00000000000E+00 -0.75626411592E+03  0.75626411593E+03  0.50400001928E-02 0.  1.
    10030    2    1    2    0    0  0.00000000000E+00  0.00000000000E+00  0.56498786055E+03  0.20775160924E+04  0.19992153040E+04 0.  0.
        3    1    3    3  502    0  0.67652292976E+03  0.48870909920E+03 -0.28923198104E+03  0.88327515939E+03  0.10100000352E+00 0.  1.
       -3    1    3    3    0  502 -0.67652292976E+03 -0.48870909920E+03  0.85421984160E+03  0.11942409330E+04  0.10100000352E+00 0. -1.
</event>
<event>
 5   0  0.3787698E-05  0.1989703E+04  0.7818609E-02  0.8611450E-01
       -1   -1    0    0    0  501  0.00000000000E+00  0.00000000000E+00  0.97478456223E+03  0.97478456224E+03  0.50400001928E-02 0.  1.
        1   -1    0    0  501    0  0.00000000000E+00  0.00000000000E+00 -0.10153315727E+04  0.10153315727E+04  0.50400001928E-02 0. -1.
    10030    2    1    2    0    0  0.00000000000E+00  0.00000000000E+00 -0.40547010428E+02  0.19901161349E+04  0.19897030357E+04 0.  0.
        4    1    3    3  502    0 -0.53266112058E+02 -0.98728270413E+03 -0.13058472123E+03  0.99730556947E+03  0.12699999809E+01 0. -1.
       -4    1    3    3    0  502  0.53266112058E+02  0.98728270413E+03  0.90037710804E+02  0.99281056544E+03  0.12699999809E+01 0.  1.
</event>
<event>
 5   0  0.3549426E-05  0.2003285E+04  0.7818609E-02  0.8605087E-01
       -1   -1    0    0    0  501  0.00000000000E+00  0.00000000000E+00  0.97894024193E+03  0.97894024194E+03  0.50400001928E-02 0. -1.
        1   -1    0    0  501    0  0.00000000000E+00  0.00000000000E+00 -0.10248707480E+04  0.10248707480E+04  0.50400001928E-02 0.  1.
    10030    2    1    2    0    0  0.00000000000E+00  0.00000000000E+00 -0.45930506046E+02  0.20038109899E+04  0.20032845210E+04 0.  0.
        5    1    3    3  502    0  0.30571036532E+02 -0.60749209852E+03  0.77303524406E+03  0.98365990901E+03  0.46999998093E+01 0. -1.
       -5    1    3    3    0  502 -0.30571036532E+02  0.60749209852E+03 -0.81896575011E+03  0.10201510809E+04  0.46999998093E+01 0.  1.
</event>
<event>
 5   0  0.3787698E-05  0.2237485E+04  0.7818609E-02  0.8502986E-01
        1   -1    0    0  501    0  0.00000000000E+00  0.00000000000E+00  0.24921022673E+04  0.24921022673E+04  0.50400001928E-02 0.  1.
       -1   -1    0    0    0  501  0.00000000000E+00  0.00000000000E+00 -0.50222054632E+03  0.50222054634E+03  0.50400001928E-02 0. -1.
    10030    2    1    2    0    0  0.00000000000E+00  0.00000000000E+00  0.19898817210E+04  0.29943228137E+04  0.22374851617E+04 0.  0.
        4    1    3    3  502    0  0.70485380623E+02 -0.21416099263E+03 -0.47150081481E+03  0.52263539003E+03  0.12699999809E+01 0. -1.
       -4    1    3    3    0  502 -0.70485380623E+02  0.21416099263E+03  0.24613825358E+04  0.24716874236E+04  0.12699999809E+01 0.  1.
</event>
<event>
 5   0  0.3818907E-05  0.1990781E+04  0.7818609E-02  0.8610943E-01
        1   -1    0    0  501    0  0.00000000000E+00  0.00000000000E+00  0.35111950563E+03  0.35111950567E+03  0.50400001928E-02 0.  1.
       -1   -1    0    0    0  501  0.00000000000E+00  0.00000000000E+00 -0.28218385408E+04  0.28218385408E+04  0.50400001928E-02 0. -1.
    10030    2    1    2    0    0  0.00000000000E+00  0.00000000000E+00 -0.24707190351E+04  0.31729580465E+04  0.19907813074E+04 0.  0.
        1    1    3    3  502    0 -0.52743511784E+02 -0.26017873204E+03  0.29365645784E+03  0.39586483287E+03  0.50400001928E-02 0.  1.
       -1    1    3    3    0  502  0.52743511784E+02  0.26017873204E+03 -0.27643754930E+04  0.27770932136E+04  0.50400001928E-02 0. -1.
</event>
<event>
 5   0  0.8011197E-05  0.1992792E+04  0.7818609E-02  0.8609998E-01
        2   -1    0    0  501    0  0.00000000000E+00  0.00000000000E+00  0.17469310059E+04  0.17469310059E+04  0.25500000920E-02 0.  1.
       -2   -1    0    0    0  501  0.00000000000E+00  0.00000000000E+00 -0.56831373585E+03  0.56831373585E+03  0.25500000920E-02 0. -1.
    10030    2    1    2    0    0  0.00000000000E+00  0.00000000000E+00  0.11786172700E+04  0.23152447417E+04  0.19927918970E+04 0.  0.
        5    1    3    3  502    0 -0.86498254116E+03 -0.24821002375E+03  0.92331380012E+02  0.90462709784E+03  0.46999998093E+01 0. -1.
       -5    1    3    3    0  502  0.86498254116E+03  0.24821002375E+03  0.10862858900E+04  0.14106176439E+04  0.46999998093E+01 0.  1.
</event>
<event>
 5   0  0.3787698E-05  0.1994455E+04  0.7818609E-02  0.8609218E-01
       -1   -1    0    0    0  501  0.00000000000E+00  0.00000000000E+00  0.13659071550E+04  0.13659071551E+04  0.50400001928E-02 0. -1.
        1   -1    0    0  501    0  0.00000000000E+00  0.00000000000E+00 -0.72806023252E+03  0.72806023253E+03  0.50400001928E-02 0.  1.
    10030    2    1    2    0    0  0.00000000000E+00  0.00000000000E+00  0.63784692253E+03  0.20939673876E+04  0.19944549942E+04 0.  0.
        4    1    3    3  502    0  0.31789306526E+03 -0.62733289924E+03  0.10612059478E+04  0.12730916086E+04  0.12699999809E+01 0. -1.
       -4    1    3    3    0  502 -0.31789306526E+03  0.62733289924E+03 -0.42335902523E+03  0.82087577900E+03  0.12699999809E+01 0.  1.
</event>
<event>
 5   0  0.8011197E-05  0.1984920E+04  0.7818609E-02  0.8613704E-01
       -2   -1    0    0    0  501  0.00000000000E+00  0.00000000000E+00  0.55382557909E+03  0.55382557909E+03  0.25500000920E-02 0.  1.
        2   -1    0    0  501    0  0.00000000000E+00  0.00000000000E+00 -0.17784965400E+04  0.17784965400E+04  0.25500000920E-02 0. -1.
    10030    2    1    2    0    0  0.00000000000E+00  0.00000000000E+00 -0.12246709609E+04  0.23323221191E+04  0.19849200247E+04 0.  0.
        5    1    3    3  502    0  0.81946256434E+03  0.52044428724E+02  0.42655322825E+02  0.82223420233E+03  0.46999998093E+01 0.  1.
       -5    1    3    3    0  502 -0.81946256434E+03 -0.52044428724E+02 -0.12673262837E+04  0.15100879167E+04  0.46999998093E+01 0. -1.
</event>
<event>
 5   0  0.7935008E-05  0.2004699E+04  0.7818609E-02  0.8604427E-01
       -2   -1    0    0    0  501  0.00000000000E+00  0.00000000000E+00  0.69415706997E+03  0.69415706998E+03  0.25500000920E-02 0. -1.
        2   -1    0    0  501    0  0.00000000000E+00  0.00000000000E+00 -0.14473738557E+04  0.14473738557E+04  0.25500000920E-02 0.  1.
    10030    2    1    2    0    0  0.00000000000E+00  0.00000000000E+00 -0.75321678568E+03  0.21415309256E+04  0.20046992740E+04 0.  0.
        3    1    3    3  502    0  0.11255578850E+03  0.82706035929E-01  0.68738474615E+03  0.69653902389E+03  0.10100000352E+00 0. -1.
       -3    1    3    3    0  502 -0.11255578850E+03 -0.82706035929E-01 -0.14406015318E+04  0.14449919017E+04  0.10100000352E+00 0.  1.
</event>
<event>
 5   0  0.7935008E-05  0.2002321E+04  0.7818609E-02  0.8605536E-01
       -2   -1    0    0    0  501  0.00000000000E+00  0.00000000000E+00  0.10851695626E+04  0.10851695626E+04  0.25500000920E-02 0.  1.
        2   -1    0    0  501    0  0.00000000000E+00  0.00000000000E+00 -0.92365546208E+03  0.92365546208E+03  0.25500000920E-02 0. -1.
    10030    2    1    2    0    0  0.00000000000E+00  0.00000000000E+00  0.16151410052E+03  0.20088250247E+04  0.20023214465E+04 0.  0.
        3    1    3    3  502    0  0.56430395211E+03  0.24443192629E+03  0.87334639405E+03  0.10681384981E+04  0.10100000352E+00 0.  1.
       -3    1    3    3    0  502 -0.56430395211E+03 -0.24443192629E+03 -0.71183229353E+03  0.94068652657E+03  0.10100000352E+00 0. -1.
</event>
<event>
 5   0  0.3549426E-05  0.1996222E+04  0.7818609E-02  0.8608389E-01
       -1   -1    0    0    0  501  0.00000000000E+00  0.00000000000E+00  0.46219147634E+03  0.46219147637E+03  0.50400001928E-02 0.  1.
        1   -1    0    0  501    0  0.00000000000E+00  0.00000000000E+00 -0.21554395190E+04  0.21554395190E+04  0.50400001928E-02 0. -1.
    10030    2    1    2    0    0  0.00000000000E+00  0.00000000000E+00 -0.16932480427E+04  0.26176309954E+04  0.19962222056E+04 0.  0.
        5    1    3    3  502    0  0.82404072033E+03  0.11572184256E+03 -0.12390199755E+03  0.84131352574E+03  0.46999998093E+01 0.  1.
       -5    1    3    3    0  502 -0.82404072033E+03 -0.11572184256E+03 -0.15693460451E+04  0.17763174696E+04  0.46999998093E+01 0. -1.
</event>
<event>
 5   0  0.8011197E-05  0.1994168E+04  0.7818609E-02  0.8609352E-01
        2   -1    0    0  501    0  0.00000000000E+00  0.00000000000E+00  0.12209042176E+04  0.12209042176E+04  0.25500000920E-02 0. -1.
       -2   -1    0    0    0  501  0.00000000000E+00  0.00000000000E+00 -0.81429523017E+03  0.81429523018E+03  0.25500000920E-02 0.  1.
    10030    2    1    2    0    0  0.00000000000E+00  0.00000000000E+00  0.40660898745E+03  0.20351994478E+04  0.19941679778E+04 0.  0.
        5    1    3    3  502    0  0.57546283225E+03  0.37766857782E+03  0.93950920904E+03  0.11646847942E+04  0.46999998093E+01 0. -1.
       -5    1    3    3    0  502 -0.57546283225E+03 -0.37766857782E+03 -0.53290022159E+03  0.87051465360E+03  0.46999998093E+01 0.  1.
</event>
<event>
 5   0  0.7935008E-05  0.1997995E+04  0.7818609E-02  0.8607558E-01
        2   -1    0    0  501    0  0.00000000000E+00  0.00000000000E+00  0.17994048846E+04  0.17994048847E+04  0.25500000920E-02 0. -1.
       -2   -1    0    0    0  501  0.00000000000E+00  0.00000000000E+00 -0.55462577879E+03  0.55462577880E+03  0.25500000920E-02 0.  1.
    10030    2    1    2    0    0  0.00000000000E+00  0.00000000000E+00  0.12447791059E+04  0.23540306634E+04  0.19979953308E+04 0.  0.
        3    1    3    3  502    0 -0.31771912975E+03  0.21010638927E+03  0.17104882207E+04  0.17523869731E+04  0.10100000352E+00 0. -1.
       -3    1    3    3    0  502  0.31771912975E+03 -0.21010638927E+03 -0.46570911486E+03  0.60164369031E+03  0.10100000352E+00 0.  1.
</event>
<event>
 5   0  0.3970042E-05  0.2163897E+04  0.7818609E-02  0.8533607E-01
       -1   -1    0    0    0  501  0.00000000000E+00  0.00000000000E+00  0.45319122079E+03  0.45319122081E+03  0.50400001928E-02 0. -1.
        1   -1    0    0  501    0  0.00000000000E+00  0.00000000000E+00 -0.25830441412E+04  0.25830441412E+04  0.50400001928E-02 0.  1.
    10030    2    1    2    0    0  0.00000000000E+00  0.00000000000E+00 -0.21298529204E+04  0.30362353620E+04  0.21638973430E+04 0.  0.
        3    1    3    3  502    0  0.16923770829E+03 -0.10180041874E+04 -0.15209748226E+04  0.18380256659E+04  0.10100000352E+00 0.  1.
       -3    1    3    3    0  502 -0.16923770829E+03  0.10180041874E+04 -0.60887809786E+03  0.11982096961E+04  0.10100000352E+00 0. -1.
</event>
<event>
 5   0  0.3970042E-05  0.1998778E+04  0.7818609E-02  0.8607192E-01
        1   -1    0    0  501    0  0.00000000000E+00  0.00000000000E+00  0.99124762044E+03  0.99124762046E+03  0.50400001928E-02 0. -1.
       -1   -1    0    0    0  501  0.00000000000E+00  0.00000000000E+00 -0.10075971733E+04  0.10075971733E+04  0.50400001928E-02 0.  1.
    10030    2    1    2    0    0  0.00000000000E+00  0.00000000000E+00 -0.16349552839E+02  0.19988447938E+04  0.19987779270E+04 0.  0.
        3    1    3    3  502    0  0.49823867085E+03  0.78219531288E+03 -0.38062113536E+03  0.10024688222E+04  0.10100000352E+00 0.  1.
       -3    1    3    3    0  502 -0.49823867085E+03 -0.78219531288E+03  0.36427158252E+03  0.99637597154E+03  0.10100000352E+00 0. -1.
</event>
<event>
 5   0  0.3787698E-05  0.2024412E+04  0.7818609E-02  0.8595291E-01
        1   -1    0    0  501    0  0.00000000000E+00  0.00000000000E+00  0.10598858843E+04  0.10598858843E+04  0.50400001928E-02 0. -1.
       -1   -1    0    0    0  501  0.00000000000E+00  0.00000000000E+00 -0.96667125407E+03  0.96667125408E+03  0.50400001928E-02 0.  1.
    10030    2    1    2    0    0  0.00000000000E+00  0.00000000000E+00  0.93214630185E+02  0.20265571383E+04  0.20244122277E+04 0.  0.
        4    1    3    3  502    0 -0.92549141285E+03 -0.40990466440E+03  0.48457208238E+02  0.10133636579E+04  0.12699999809E+01 0.  1.
       -4    1    3    3    0  502  0.92549141285E+03  0.40990466440E+03  0.44757421946E+02  0.10131934805E+04  0.12699999809E+01 0. -1.
</event>
<event>
 5   0  0.8022574E-05  0.2072912E+04  0.7818609E-02  0.8573270E-01
        2   -1    0    0  501    0  0.00000000000E+00  0.00000000000E+00  0.12042070628E+04  0.12042070628E+04  0.25500000920E-02 0. -1.
       -2   -1    0    0    0  501  0.00000000000E+00  0.00000000000E+00 -0.89207370052E+03  0.89207370053E+03  0.25500000920E-02 0.  1.
    10030    2    1    2    0    0  0.00000000000E+00  0.00000000000E+00  0.31213336223E+03  0.20962807633E+04  0.20729123963E+04 0.  0.
        1    1    3    3  502    0  0.33138030029E+03  0.63766367431E+03 -0.59922211773E+03  0.93567890398E+03  0.50400001928E-02 0.  1.
       -1    1    3    3    0  502 -0.33138030029E+03 -0.63766367431E+03  0.91135547996E+03  0.11606018593E+04  0.50400001928E-02 0. -1.
</event>
<event>
 5   0  0.8011197E-05  0.2012887E+04  0.7818609E-02  0.8600619E-01
       -2   -1    0    0    0  501  0.00000000000E+00  0.00000000000E+00  0.85160159136E+03  0.85160159136E+03  0.25500000920E-02 0. -1.
        2   -1    0    0  501    0  0.00000000000E+00  0.00000000000E+00 -0.11894392349E+04  0.11894392349E+04  0.25500000920E-02 0.  1.
    10030    2    1    2    0    0  0.00000000000E+00  0.00000000000E+00 -0.33783764351E+03  0.20410408262E+04  0.20128868277E+04 0.  0.
        5    1    3    3  502    0  0.66154576593E+02 -0.92716485238E+03 -0.56018528966E+03  0.10852837142E+04  0.46999998093E+01 0.  1.
       -5    1    3    3    0  502 -0.66154576593E+02  0.92716485238E+03  0.22234764616E+03  0.95575711206E+03  0.46999998093E+01 0. -1.
</event>
<event>
 5   0  0.7843846E-05  0.2026615E+04  0.7818609E-02  0.8594278E-01
        2   -1    0    0  501    0  0.00000000000E+00  0.00000000000E+00  0.16723235473E+04  0.16723235473E+04  0.25500000920E-02 0.  1.
       -2   -1    0    0    0  501  0.00000000000E+00  0.00000000000E+00 -0.61399107914E+03  0.61399107915E+03  0.25500000920E-02 0. -1.
    10030    2    1    2    0    0  0.00000000000E+00  0.00000000000E+00  0.10583324681E+04  0.22863146264E+04  0.20266146545E+04 0.  0.
        2    1    3    3  502    0  0.37799683727E+03 -0.61517423641E+03  0.13312372959E+04  0.15144351053E+04  0.25500000920E-02 0.  1.
       -2    1    3    3    0  502 -0.37799683727E+03  0.61517423641E+03 -0.27290482776E+03  0.77187952114E+03  0.25500000920E-02 0. -1.
</event>
<event>
 5   0  0.7935008E-05  0.1977386E+04  0.7818609E-02  0.8617267E-01
       -2   -1    0    0    0  501  0.00000000000E+00  0.00000000000E+00  0.15247089337E+04  0.15247089337E+04  0.25500000920E-02 0.  1.
        2   -1    0    0  501    0  0.00000000000E+00  0.00000000000E+00 -0.64111500330E+03  0.64111500331E+03  0.25500000920E-02 0. -1.
    10030    2    1    2    0    0  0.00000000000E+00  0.00000000000E+00  0.88359393035E+03  0.21658239370E+04  0.19773859239E+04 0.  0.
        3    1    3    3  502    0 -0.64683738374E+03  0.37316613580E+03 -0.26791985479E+03  0.79336789997E+03  0.10100000352E+00 0. -1.
       -3    1    3    3    0  502  0.64683738374E+03 -0.37316613580E+03  0.11515137851E+04  0.13724560370E+04  0.10100000352E+00 0.  1.
</event>
<event>
 5   0  0.3772949E-05  0.2084045E+04  0.7818609E-02  0.8568305E-01
        1   -1    0    0  501    0  0.00000000000E+00  0.00000000000E+00  0.12268433265E+04  0.12268433265E+04  0.50400001928E-02 0. -1.
       -1   -1    0    0    0  501  0.00000000000E+00  0.00000000000E+00 -0.88504414243E+03  0.88504414245E+03  0.50400001928E-02 0.  1.
    10030    2    1    2    0    0  0.00000000000E+00  0.00000000000E+00  0.34179918402E+03  0.21118874689E+04  0.20840446250E+04 0.  0.
        2    1    3    3  502    0  0.16383480452E+03  0.49466660954E+03  0.10853263732E+04  0.12039394645E+04  0.25500000920E-02 0. -1.
       -2    1    3    3    0  502 -0.16383480452E+03 -0.49466660954E+03 -0.74352718916E+03  0.90794800445E+03  0.25500000920E-02 0.  1.
</event>
<event>
 5   0  0.3818907E-05  0.2082096E+04  0.7818609E-02  0.8569171E-01
        1   -1    0    0  501    0  0.00000000000E+00  0.00000000000E+00  0.12990519392E+04  0.12990519392E+04  0.50400001928E-02 0. -1.
       -1   -1    0    0    0  501  0.00000000000E+00  0.00000000000E+00 -0.83428644054E+03  0.83428644056E+03  0.50400001928E-02 0.  1.
    10030    2    1    2    0    0  0.00000000000E+00  0.00000000000E+00  0.46476549868E+03  0.21333383798E+04  0.20820964612E+04 0.  0.
        1    1    3    3  502    0 -0.55204087194E+03  0.23353569501E+03  0.11045024746E+04  0.12566677212E+04  0.50400001928E-02 0. -1.
       -1    1    3    3    0  502  0.55204087194E+03 -0.23353569501E+03 -0.63973697594E+03  0.87667065855E+03  0.50400001928E-02 0.  1.
</event>
<event>
 5   0  0.7935008E-05  0.2003223E+04  0.7818609E-02  0.8605115E-01
        2   -1    0    0  501    0  0.00000000000E+00  0.00000000000E+00  0.23514587916E+04  0.23514587916E+04  0.25500000920E-02 0. -1.
       -2   -1    0    0    0  501  0.00000000000E+00  0.00000000000E+00 -0.42663974418E+03  0.42663974419E+03  0.25500000920E-02 0.  1.
    10030    2    1    2    0    0  0.00000000000E+00  0.00000000000E+00  0.19248190475E+04  0.27780985358E+04  0.20032231801E+04 0.  0.
        3    1    3    3  502    0  0.85220068912E+02  0.10183858930E+03 -0.41437805590E+03  0.43513531439E+03  0.10100000352E+00 0.  1.
       -3    1    3    3    0  502 -0.85220068912E+02 -0.10183858930E+03  0.23391971034E+04  0.23429632214E+04  0.10100000352E+00 0. -1.
</event>
<event>
 5   0  0.8011197E-05  0.1997072E+04  0.7818609E-02  0.8607991E-01
        2   -1    0    0  501    0  0.00000000000E+00  0.00000000000E+00  0.25906980573E+04  0.25906980573E+04  0.25500000920E-02 0. -1.
       -2   -1    0    0    0  501  0.00000000000E+00  0.00000000000E+00 -0.38486682404E+03  0.38486682405E+03  0.25500000920E-02 0.  1.
    10030    2    1    2    0    0  0.00000000000E+00  0.00000000000E+00  0.22058312333E+04  0.29755648814E+04  0.19970715895E+04 0.  0.
        5    1    3    3  502    0  0.49616117084E+02  0.46461162634E+03 -0.21190984763E+03  0.51308244554E+03  0.46999998093E+01 0.  1.
       -5    1    3    3    0  502 -0.49616117084E+02 -0.46461162634E+03  0.24177410809E+04  0.24624824358E+04  0.46999998093E+01 0. -1.
</event>
<event>
 5   0  0.3970042E-05  0.1998001E+04  0.7818609E-02  0.8607556E-01
       -1   -1    0    0    0  501  0.00000000000E+00  0.00000000000E+00  0.10670652066E+04  0.10670652066E+04  0.50400001928E-02 0.  1.
        1   -1    0    0  501    0  0.00000000000E+00  0.00000000000E+00 -0.93527703179E+03  0.93527703180E+03  0.50400001928E-02 0. -1.
    10030    2    1    2    0    0  0.00000000000E+00  0.00000000000E+00  0.13178817476E+03  0.20023422384E+04  0.19980005797E+04 0.  0.
        3    1    3    3  502    0 -0.66391543662E+02  0.21534611867E+03 -0.90947295847E+03  0.93697537870E+03  0.10100000352E+00 0. -1.
       -3    1    3    3    0  502  0.66391543662E+02 -0.21534611867E+03  0.10412611332E+04  0.10653668597E+04  0.10100000352E+00 0.  1.
</event>
<event>
 5   0  0.3772949E-05  0.1993487E+04  0.7818609E-02  0.8609672E-01
        1   -1    0    0  501    0  0.00000000000E+00  0.00000000000E+00  0.54568781033E+03  0.54568781035E+03  0.50400001928E-02 0. -1.
       -1   -1    0    0    0  501  0.00000000000E+00  0.00000000000E+00 -0.18206336179E+04  0.18206336179E+04  0.50400001928E-02 0.  1.
    10030    2    1    2    0    0  0.00000000000E+00  0.00000000000E+00 -0.12749458076E+04  0.23663214282E+04  0.19934869675E+04 0.  0.
        2    1    3    3  502    0 -0.66696657016E+02  0.94256692642E+02  0.53772196791E+03  0.54997971139E+03  0.25500000920E-02 0. -1.
       -2    1    3    3    0  502  0.66696657016E+02 -0.94256692642E+02 -0.18126677755E+04  0.18163417169E+04  0.25500000920E-02 0.  1.
</event>
<event>
 5   0  0.3772949E-05  0.2005297E+04  0.7818609E-02  0.8604148E-01
        1   -1    0    0  501    0  0.00000000000E+00  0.00000000000E+00  0.16963946764E+04  0.16963946764E+04  0.50400001928E-02 0. -1.
       -1   -1    0    0    0  501  0.00000000000E+00  0.00000000000E+00 -0.59261201537E+03  0.59261201539E+03  0.50400001928E-02 0.  1.
    10030    2    1    2    0    0  0.00000000000E+00  0.00000000000E+00  0.11037826611E+04  0.22890066918E+04  0.20052968539E+04 0.  0.
        2    1    3    3  502    0 -0.92160029192E+03 -0.15872637842E+03  0.13911922484E+03  0.94546037463E+03  0.25500000920E-02 0.  1.
       -2    1    3    3    0  502  0.92160029192E+03  0.15872637842E+03  0.96466343623E+03  0.13435463172E+04  0.25500000920E-02 0. -1.
</event>
<event>
 5   0  0.7857136E-05  0.2011245E+04  0.7818609E-02  0.8601381E-01
        2   -1    0    0  501    0  0.00000000000E+00  0.00000000000E+00  0.18127639136E+04  0.18127639136E+04  0.25500000920E-02 0. -1.
       -2   -1    0    0    0  501  0.00000000000E+00  0.00000000000E+00 -0.55786467930E+03  0.55786467931E+03  0.25500000920E-02 0.  1.
    10030    2    1    2    0    0  0.00000000000E+00  0.00000000000E+00  0.12548992343E+04  0.23706285929E+04  0.20112453449E+04 0.  0.
        4    1    3    3  502    0  0.59841691977E+03  0.20038620690E+03  0.15503079671E+04  0.16738320846E+04  0.12699999809E+01 0. -1.
       -4    1    3    3    0  502 -0.59841691977E+03 -0.20038620690E+03 -0.29540873273E+03  0.69679650835E+03  0.12699999809E+01 0.  1.
</event>
<event>
 5   0  0.3549426E-05  0.2000506E+04  0.7818609E-02  0.8606384E-01
       -1   -1    0    0    0  501  0.00000000000E+00  0.00000000000E+00  0.13978224662E+04  0.13978224662E+04  0.50400001928E-02 0.  1.
        1   -1    0    0  501    0  0.00000000000E+00  0.00000000000E+00 -0.71576073677E+03  0.71576073679E+03  0.50400001928E-02 0. -1.
    10030    2    1    2    0    0  0.00000000000E+00  0.00000000000E+00  0.68206172939E+03  0.21135832030E+04  0.20005063742E+04 0.  0.
        5    1    3    3  502    0  0.70008278926E+03 -0.70047956981E+03  0.48930907764E+03  0.11046415722E+04  0.46999998093E+01 0. -1.
       -5    1    3    3    0  502 -0.70008278926E+03  0.70047956981E+03  0.19275265174E+03  0.10089416308E+04  0.46999998093E+01 0.  1.
</event>
<event>
 5   0  0.8011197E-05  0.1996077E+04  0.7818609E-02  0.8608457E-01
        2   -1    0    0  501    0  0.00000000000E+00  0.00000000000E+00  0.15377945551E+04  0.15377945551E+04  0.25500000920E-02 0.  1.
       -2   -1    0    0    0  501  0.00000000000E+00  0.00000000000E+00 -0.64773333629E+03  0.64773333629E+03  0.25500000920E-02 0. -1.
    10030    2    1    2    0    0  0.00000000000E+00  0.00000000000E+00  0.89006121885E+03  0.21855278914E+04  0.19960769502E+04 0.  0.
        5    1    3    3  502    0  0.83060181497E+03 -0.28155805864E+03 -0.76501898980E+02  0.88036864208E+03  0.46999998093E+01 0. -1.
       -5    1    3    3    0  502 -0.83060181497E+03  0.28155805864E+03  0.96656311783E+03  0.13051592493E+04  0.46999998093E+01 0.  1.
</event>
<event>
 5   0  0.3772949E-05  0.2013155E+04  0.7818609E-02  0.8600495E-01
       -1   -1    0    0    0  501  0.00000000000E+00  0.00000000000E+00  0.67602727128E+03  0.67602727130E+03  0.50400001928E-02 0. -1.
        1   -1    0    0  501    0  0.00000000000E+00  0.00000000000E+00 -0.14987528126E+04  0.14987528126E+04  0.50400001928E-02 0.  1.
    10030    2    1    2    0    0  0.00000000000E+00  0.00000000000E+00 -0.82272554133E+03  0.21747800839E+04  0.20131545140E+04 0.  0.
        2    1    3    3  502    0 -0.64959450427E+03  0.48018165064E+03 -0.10601188028E+04  0.13328163091E+04  0.25500000920E-02 0.  1.
       -2    1    3    3    0  502  0.64959450427E+03 -0.48018165064E+03  0.23739326148E+03  0.84196377487E+03  0.25500000920E-02 0. -1.
</event>
<event>
 5   0  0.8022574E-05  0.1990653E+04  0.7818609E-02  0.8611003E-01
       -2   -1    0    0    0  501  0.00000000000E+00  0.00000000000E+00  0.10920561330E+04  0.10920561330E+04  0.25500000920E-02 0.  1.
        2   -1    0    0  501    0  0.00000000000E+00  0.00000000000E+00 -0.90716507000E+03  0.90716507000E+03  0.25500000920E-02 0. -1.
    10030    2    1    2    0    0  0.00000000000E+00  0.00000000000E+00  0.18489106299E+03  0.19992212030E+04  0.19906533383E+04 0.  0.
        1    1    3    3  502    0  0.76808394021E+03  0.31502370386E+02 -0.54251758270E+03  0.94088823252E+03  0.50400001928E-02 0. -1.
       -1    1    3    3    0  502 -0.76808394021E+03 -0.31502370386E+02  0.72740864568E+03  0.10583329705E+04  0.50400001928E-02 0.  1.
</event>
<event>
 5   0  0.3549426E-05  0.2006591E+04  0.7818609E-02  0.8603545E-01
       -1   -1    0    0    0  501  0.00000000000E+00  0.00000000000E+00  0.57293673127E+03  0.57293673130E+03  0.50400001928E-02 0. -1.
        1   -1    0    0  501    0  0.00000000000E+00  0.00000000000E+00 -0.17569168718E+04  0.17569168718E+04  0.50400001928E-02 0.  1.
    10030    2    1    2    0    0  0.00000000000E+00  0.00000000000E+00 -0.11839801405E+04  0.23298536031E+04  0.20065913482E+04 0.  0.
        5    1    3    3  502    0  0.70784454058E+03 -0.64291117027E+03 -0.23942557039E+03  0.98576130997E+03  0.46999998093E+01 0. -1.
       -5    1    3    3    0  502 -0.70784454058E+03  0.64291117027E+03 -0.94455457012E+03  0.13440922931E+04  0.46999998093E+01 0.  1.
</event>
<event>
 5   0  0.2859625E-05  0.2001292E+04  0.7818609E-02  0.8606017E-01
       -4   -1    0    0    0  501  0.00000000000E+00  0.00000000000E+00  0.10000553921E+04  0.10000561985E+04  0.12699999809E+01 0.  1.
        4   -1    0    0  501    0  0.00000000000E+00  0.00000000000E+00 -0.10012351063E+04  0.10012359117E+04  0.12699999809E+01 0. -1.
    10030    2    1    2    0    0  0.00000000000E+00  0.00000000000E+00 -0.11797141339E+01  0.20012921102E+04  0.20012917625E+04 0.  0.
        5    1    3    3  502    0  0.68973887592E+02 -0.37302681675E+03  0.92534965739E+03  0.10001002358E+04  0.46999998093E+01 0.  1.
       -5    1    3    3    0  502 -0.68973887592E+02  0.37302681675E+03 -0.92652937153E+03  0.10011918745E+04  0.46999998093E+01 0. -1.
</event>
<event>
 5   0  0.7843846E-05  0.1997175E+04  0.7818609E-02  0.8607943E-01
       -2   -1    0    0    0  501  0.00000000000E+00  0.00000000000E+00  0.17525097107E+04  0.17525097107E+04  0.25500000920E-02 0. -1.
        2   -1    0    0  501    0  0.00000000000E+00  0.00000000000E+00 -0.56899943488E+03  0.56899943488E+03  0.25500000920E-02 0.  1.
    10030    2    1    2    0    0  0.00000000000E+00  0.00000000000E+00  0.11835102758E+04  0.23215091455E+04  0.19971750399E+04 0.  0.
        2    1    3    3  502    0  0.29262733328E+03 -0.36864918259E+03  0.16154853125E+04  0.16826543824E+04  0.25500000920E-02 0. -1.
       -2    1    3    3    0  502 -0.29262733328E+03  0.36864918259E+03 -0.43197503668E+03  0.63885476309E+03  0.25500000920E-02 0.  1.
</event>
<event>
 5   0  0.7843846E-05  0.2030791E+04  0.7818609E-02  0.8592359E-01
        2   -1    0    0  501    0  0.00000000000E+00  0.00000000000E+00  0.12948481132E+04  0.12948481132E+04  0.25500000920E-02 0.  1.
       -2   -1    0    0    0  501  0.00000000000E+00  0.00000000000E+00 -0.79625374255E+03  0.79625374256E+03  0.25500000920E-02 0. -1.
    10030    2    1    2    0    0  0.00000000000E+00  0.00000000000E+00  0.49859437061E+03  0.20911018557E+04  0.20307906403E+04 0.  0.
        2    1    3    3  502    0 -0.91607383320E+02 -0.99769765839E+03  0.41922901280E+03  0.10860688263E+04  0.25500000920E-02 0.  1.
       -2    1    3    3    0  502  0.91607383320E+02  0.99769765839E+03  0.79365357810E+02  0.10050330294E+04  0.25500000920E-02 0. -1.
</event>
<event>
 5   0  0.7857136E-05  0.2006915E+04  0.7818609E-02  0.8603394E-01
        2   -1    0    0  501    0  0.00000000000E+00  0.00000000000E+00  0.22463151745E+04  0.22463151745E+04  0.25500000920E-02 0.  1.
       -2   -1    0    0    0  501  0.00000000000E+00  0.00000000000E+00 -0.44825719594E+03  0.44825719595E+03  0.25500000920E-02 0. -1.
    10030    2    1    2    0    0  0.00000000000E+00  0.00000000000E+00  0.17980579786E+04  0.26945723705E+04  0.20069149871E+04 0.  0.
        4    1    3    3  502    0  0.33412225480E+03 -0.63873267424E+03 -0.38236753794E+02  0.72185924704E+03  0.12699999809E+01 0. -1.
       -4    1    3    3    0  502 -0.33412225480E+03  0.63873267424E+03  0.18362947324E+04  0.19727131234E+04  0.12699999809E+01 0.  1.
</event>
<event>
 5   0  0.7843846E-05  0.1999262E+04  0.7818609E-02  0.8606966E-01
        2   -1    0    0  501    0  0.00000000000E+00  0.00000000000E+00  0.84650674142E+03  0.84650674142E+03  0.25500000920E-02 0.  1.
       -2   -1    0    0    0  501  0.00000000000E+00  0.00000000000E+00 -0.11804537252E+04  0.11804537252E+04  0.25500000920E-02 0. -1.
    10030    2    1    2    0    0  0.00000000000E+00  0.00000000000E+00 -0.33394698382E+03  0.20269604667E+04  0.19992619001E+04 0.  0.
        2    1    3    3  502    0  0.31521429351E+03  0.36032534458E+03  0.72271919988E+03  0.86690105932E+03  0.25500000920E-02 0.  1.
       -2    1    3    3    0  502 -0.31521429351E+03 -0.36032534458E+03 -0.10566661837E+04  0.11600594073E+04  0.25500000920E-02 0. -1.
</event>
<event>
 5   0  0.7843846E-05  0.2015909E+04  0.7818609E-02  0.8599218E-01
        2   -1    0    0  501    0  0.00000000000E+00  0.00000000000E+00  0.13368113331E+04  0.13368113331E+04  0.25500000920E-02 0. -1.
       -2   -1    0    0    0  501  0.00000000000E+00  0.00000000000E+00 -0.75999709711E+03  0.75999709711E+03  0.25500000920E-02 0.  1.
    10030    2    1    2    0    0  0.00000000000E+00  0.00000000000E+00  0.57681423596E+03  0.20968084302E+04  0.20159094548E+04 0.  0.
        2    1    3    3  502    0  0.43371559642E+03 -0.60818271907E+03 -0.41549084062E+03  0.85476784977E+03  0.25500000920E-02 0.  1.
       -2    1    3    3    0  502 -0.43371559642E+03  0.60818271907E+03  0.99230507658E+03  0.12420405804E+04  0.25500000920E-02 0. -1.
</event>
<event>
 5   0  0.7935008E-05  0.1954940E+04  0.7818609E-02  0.8627982E-01
       -2   -1    0    0    0  501  0.00000000000E+00  0.00000000000E+00  0.56723773912E+03  0.56723773912E+03  0.25500000920E-02 0. -1.
        2   -1    0    0  501    0  0.00000000000E+00  0.00000000000E+00 -0.16843872509E+04  0.16843872509E+04  0.25500000920E-02 0.  1.
    10030    2    1    2    0    0  0.00000000000E+00  0.00000000000E+00 -0.11171495117E+04  0.22516249900E+04  0.19549404247E+04 0.  0.
        3    1    3    3  502    0  0.64974444410E+02  0.14862369574E+03 -0.16687779851E+04  0.16766426736E+04  0.10100000352E+00 0.  1.
       -3    1    3    3    0  502 -0.64974444410E+02 -0.14862369574E+03  0.55162847332E+03  0.57498231637E+03  0.10100000352E+00 0. -1.
</event>
<event>
 5   0  0.3787698E-05  0.2000171E+04  0.7818609E-02  0.8606541E-01
       -1   -1    0    0    0  501  0.00000000000E+00  0.00000000000E+00  0.83262541389E+03  0.83262541391E+03  0.50400001928E-02 0. -1.
        1   -1    0    0  501    0  0.00000000000E+00  0.00000000000E+00 -0.12012255096E+04  0.12012255096E+04  0.50400001928E-02 0.  1.
    10030    2    1    2    0    0  0.00000000000E+00  0.00000000000E+00 -0.36860009567E+03  0.20338509235E+04  0.20001708798E+04 0.  0.
        4    1    3    3  502    0 -0.33721338770E+03 -0.87948325237E+03 -0.52606313237E+03  0.10788640749E+04  0.12699999809E+01 0.  1.
       -4    1    3    3    0  502  0.33721338770E+03  0.87948325237E+03  0.15746303671E+03  0.95498684854E+03  0.12699999809E+01 0. -1.
</event>
<event>
 5   0  0.3818907E-05  0.2003557E+04  0.7818609E-02  0.8604960E-01
       -1   -1    0    0    0  501  0.00000000000E+00  0.00000000000E+00  0.71781720662E+03  0.71781720664E+03  0.50400001928E-02 0.  1.
        1   -1    0    0  501    0  0.00000000000E+00  0.00000000000E+00 -0.13980715640E+04  0.13980715640E+04  0.50400001928E-02 0. -1.
    10030    2    1    2    0    0  0.00000000000E+00  0.00000000000E+00 -0.68025435742E+03  0.21158887707E+04  0.20035566623E+04 0.  0.
        1    1    3    3  502    0  0.78690899013E+02  0.52760601009E+03  0.55535199168E+03  0.77004947514E+03  0.50400001928E-02 0.  1.
       -1    1    3    3    0  502 -0.78690899013E+02 -0.52760601009E+03 -0.12356063491E+04  0.13458392955E+04  0.50400001928E-02 0. -1.
</event>
<event>
 5   0  0.3970042E-05  0.2002598E+04  0.7818609E-02  0.8605407E-01
       -1   -1    0    0    0  501  0.00000000000E+00  0.00000000000E+00  0.93651497557E+03  0.93651497559E+03  0.50400001928E-02 0.  1.
        1   -1    0    0  501    0  0.00000000000E+00  0.00000000000E+00 -0.10705641778E+04  0.10705641778E+04  0.50400001928E-02 0. -1.
    10030    2    1    2    0    0  0.00000000000E+00  0.00000000000E+00 -0.13404920225E+03  0.20070791534E+04  0.20025976979E+04 0.  0.
        3    1    3    3  502    0 -0.83919365216E+03  0.16565593370E+03 -0.58868096325E+03  0.10383800657E+04  0.10100000352E+00 0. -1.
       -3    1    3    3    0  502  0.83919365216E+03 -0.16565593370E+03  0.45463176100E+03  0.96869908770E+03  0.10100000352E+00 0.  1.
</event>
<event>
 5   0  0.3772949E-05  0.1977519E+04  0.7818609E-02  0.8617204E-01
        1   -1    0    0  501    0  0.00000000000E+00  0.00000000000E+00  0.10350917446E+04  0.10350917446E+04  0.50400001928E-02 0. -1.
       -1   -1    0    0    0  501  0.00000000000E+00  0.00000000000E+00 -0.94450073001E+03  0.94450073003E+03  0.50400001928E-02 0.  1.
    10030    2    1    2    0    0  0.00000000000E+00  0.00000000000E+00  0.90591014540E+02  0.19795924746E+04  0.19775185545E+04 0.  0.
        2    1    3    3  502    0 -0.16389941178E+00 -0.46624781063E+03  0.91813760966E+03  0.10297396361E+04  0.25500000920E-02 0. -1.
       -2    1    3    3    0  502  0.16389941178E+00  0.46624781063E+03 -0.82754659512E+03  0.94985283854E+03  0.25500000920E-02 0.  1.
</event>
<event>
 5   0  0.3818907E-05  0.1972672E+04  0.7818609E-02  0.8619505E-01
        1   -1    0    0  501    0  0.00000000000E+00  0.00000000000E+00  0.13244937188E+04  0.13244937188E+04  0.50400001928E-02 0. -1.
       -1   -1    0    0    0  501  0.00000000000E+00  0.00000000000E+00 -0.73451349235E+03  0.73451349237E+03  0.50400001928E-02 0.  1.
    10030    2    1    2    0    0  0.00000000000E+00  0.00000000000E+00  0.58998022640E+03  0.20590072111E+04  0.19726717994E+04 0.  0.
        1    1    3    3  502    0  0.12665378590E+02  0.45739068747E+03 -0.61703172058E+03  0.76817627992E+03  0.50400001928E-02 0.  1.
       -1    1    3    3    0  502 -0.12665378590E+02 -0.45739068747E+03  0.12070119470E+04  0.12908309312E+04  0.50400001928E-02 0. -1.
</event>
<event>
 5   0  0.7857136E-05  0.2006479E+04  0.7818609E-02  0.8603598E-01
       -2   -1    0    0    0  501  0.00000000000E+00  0.00000000000E+00  0.66004922657E+03  0.66004922658E+03  0.25500000920E-02 0.  1.
        2   -1    0    0  501    0  0.00000000000E+00  0.00000000000E+00 -0.15248702396E+04  0.15248702396E+04  0.25500000920E-02 0. -1.
    10030    2    1    2    0    0  0.00000000000E+00  0.00000000000E+00 -0.86482101305E+03  0.21849194662E+04  0.20064789282E+04 0.  0.
        4    1    3    3  502    0 -0.39141324460E+03  0.31046151356E+03 -0.13797797039E+04  0.14674414208E+04  0.12699999809E+01 0. -1.
       -4    1    3    3    0  502  0.39141324460E+03 -0.31046151356E+03  0.51495869082E+03  0.71747804538E+03  0.12699999809E+01 0.  1.
</event>
<event>
 5   0  0.7857136E-05  0.1994667E+04  0.7818609E-02  0.8609118E-01
       -2   -1    0    0    0  501  0.00000000000E+00  0.00000000000E+00  0.53888268287E+03  0.53888268288E+03  0.25500000920E-02 0. -1.
        2   -1    0    0  501    0  0.00000000000E+00  0.00000000000E+00 -0.18458089699E+04  0.18458089699E+04  0.25500000920E-02 0.  1.
    10030    2    1    2    0    0  0.00000000000E+00  0.00000000000E+00 -0.13069262870E+04  0.23846916528E+04  0.19946673806E+04 0.  0.
        4    1    3    3  502    0 -0.79909832640E+03  0.59247443642E+03 -0.73874737615E+03  0.12390857080E+04  0.12699999809E+01 0. -1.
       -4    1    3    3    0  502  0.79909832640E+03 -0.59247443642E+03 -0.56817891085E+03  0.11456059448E+04  0.12699999809E+01 0.  1.
</event>
<event>
 5   0  0.7843846E-05  0.2004194E+04  0.7818609E-02  0.8604662E-01
       -2   -1    0    0    0  501  0.00000000000E+00  0.00000000000E+00  0.81780768404E+03  0.81780768405E+03  0.25500000920E-02 0.  1.
        2   -1    0    0  501    0  0.00000000000E+00  0.00000000000E+00 -0.12279154925E+04  0.12279154925E+04  0.25500000920E-02 0. -1.
    10030    2    1    2    0    0  0.00000000000E+00  0.00000000000E+00 -0.41010780845E+03  0.20457231765E+04  0.20041943270E+04 0.  0.
        2    1    3    3  502    0 -0.26183694372E+03 -0.51517037189E+03 -0.10406994217E+04  0.11903841327E+04  0.25500000920E-02 0. -1.
       -2    1    3    3    0  502  0.26183694372E+03  0.51517037189E+03  0.63059161323E+03  0.85533904381E+03  0.25500000920E-02 0.  1.
</event>
<event>
 5   0  0.3549426E-05  0.1857186E+04  0.7818609E-02  0.8676466E-01
        1   -1    0    0  501    0  0.00000000000E+00  0.00000000000E+00  0.18173626241E+04  0.18173626242E+04  0.50400001928E-02 0.  1.
       -1   -1    0    0    0  501  0.00000000000E+00  0.00000000000E+00 -0.47447042067E+03  0.47447042070E+03  0.50400001928E-02 0. -1.
    10030    2    1    2    0    0  0.00000000000E+00  0.00000000000E+00  0.13428922035E+04  0.22918330449E+04  0.18571858376E+04 0.  0.
        5    1    3    3  502    0  0.36171004653E+03 -0.72810794152E+03  0.11779534936E+03  0.82150664428E+03  0.46999998093E+01 0. -1.
       -5    1    3    3    0  502 -0.36171004653E+03  0.72810794152E+03  0.12250968541E+04  0.14703264006E+04  0.46999998093E+01 0.  1.
</event>
<event>
 5   0  0.3787698E-05  0.1990018E+04  0.7818609E-02  0.8611302E-01
       -1   -1    0    0    0  501  0.00000000000E+00  0.00000000000E+00  0.95140113623E+03  0.95140113624E+03  0.50400001928E-02 0.  1.
        1   -1    0    0  501    0  0.00000000000E+00  0.00000000000E+00 -0.10406158317E+04  0.10406158317E+04  0.50400001928E-02 0. -1.
    10030    2    1    2    0    0  0.00000000000E+00  0.00000000000E+00 -0.89214695439E+02  0.19920169679E+04  0.19900181754E+04 0.  0.
        4    1    3    3  502    0  0.14405149970E+03  0.88327646289E+03 -0.47991575837E+03  0.10155042553E+04  0.12699999809E+01 0. -1.
       -4    1    3    3    0  502 -0.14405149970E+03 -0.88327646289E+03  0.39070106293E+03  0.97651271264E+03  0.12699999809E+01 0.  1.
</event>
<event>
 5   0  0.3970042E-05  0.2003377E+04  0.7818609E-02  0.8605044E-01
        1   -1    0    0  501    0  0.00000000000E+00  0.00000000000E+00  0.11765642481E+04  0.11765642481E+04  0.50400001928E-02 0.  1.
       -1   -1    0    0    0  501  0.00000000000E+00  0.00000000000E+00 -0.85280457534E+03  0.85280457535E+03  0.50400001928E-02 0. -1.
    10030    2    1    2    0    0  0.00000000000E+00  0.00000000000E+00  0.32375967273E+03  0.20293688234E+04  0.20033765237E+04 0.  0.
        3    1    3    3  502    0 -0.48185177321E+03 -0.98804346999E+02 -0.72204449346E+03  0.87366566321E+03  0.10100000352E+00 0. -1.
       -3    1    3    3    0  502  0.48185177321E+03  0.98804346999E+02  0.10458041662E+04  0.11557031602E+04  0.10100000352E+00 0.  1.
</event>
<event>
 5   0  0.3787698E-05  0.2007925E+04  0.7818609E-02  0.8602924E-01
        1   -1    0    0  501    0  0.00000000000E+00  0.00000000000E+00  0.10755898522E+04  0.10755898522E+04  0.50400001928E-02 0. -1.
       -1   -1    0    0    0  501  0.00000000000E+00  0.00000000000E+00 -0.93710490416E+03  0.93710490417E+03  0.50400001928E-02 0.  1.
    10030    2    1    2    0    0  0.00000000000E+00  0.00000000000E+00  0.13848494808E+03  0.20126947564E+04  0.20079248247E+04 0.  0.
        4    1    3    3  502    0 -0.87154358260E+03  0.37435791964E+03 -0.26048704687E+03  0.98366009519E+03  0.12699999809E+01 0. -1.
       -4    1    3    3    0  502  0.87154358260E+03 -0.37435791964E+03  0.39897199495E+03  0.10290346612E+04  0.12699999809E+01 0.  1.
</event>
<event>
 5   0  0.3787698E-05  0.2031458E+04  0.7818609E-02  0.8592052E-01
       -1   -1    0    0    0  501  0.00000000000E+00  0.00000000000E+00  0.18912292605E+04  0.18912292605E+04  0.50400001928E-02 0.  1.
        1   -1    0    0  501    0  0.00000000000E+00  0.00000000000E+00 -0.54552128467E+03  0.54552128470E+03  0.50400001928E-02 0. -1.
    10030    2    1    2    0    0  0.00000000000E+00  0.00000000000E+00  0.13457079758E+04  0.24367505452E+04  0.20314584080E+04 0.  0.
        4    1    3    3  502    0 -0.11185449922E+03  0.97534096274E+03  0.98542371643E+03  0.13909935070E+04  0.12699999809E+01 0.  1.
       -4    1    3    3    0  502  0.11185449922E+03 -0.97534096274E+03  0.36028425941E+03  0.10457570383E+04  0.12699999809E+01 0. -1.
</event>
<event>
 5   0  0.8022574E-05  0.2017681E+04  0.7818609E-02  0.8598399E-01
        2   -1    0    0  501    0  0.00000000000E+00  0.00000000000E+00  0.14925910907E+04  0.14925910907E+04  0.25500000920E-02 0. -1.
       -2   -1    0    0    0  501  0.00000000000E+00  0.00000000000E+00 -0.68187375897E+03  0.68187375898E+03  0.25500000920E-02 0.  1.
    10030    2    1    2    0    0  0.00000000000E+00  0.00000000000E+00  0.81071733172E+03  0.21744648497E+04  0.20176805472E+04 0.  0.
        1    1    3    3  502    0  0.58697118435E+03 -0.72718826718E+03  0.81491607162E+03  0.12399298976E+04  0.50400001928E-02 0. -1.
       -1    1    3    3    0  502 -0.58697118435E+03  0.72718826718E+03 -0.41987398978E+01  0.93453495206E+03  0.50400001928E-02 0.  1.
</event>
<event>
 5   0  0.7843846E-05  0.2003166E+04  0.7818609E-02  0.8605142E-01
       -2   -1    0    0    0  501  0.00000000000E+00  0.00000000000E+00  0.61411838275E+03  0.61411838276E+03  0.25500000920E-02 0. -1.
        2   -1    0    0  501    0  0.00000000000E+00  0.00000000000E+00 -0.16335104479E+04  0.16335104479E+04  0.25500000920E-02 0.  1.
    10030    2    1    2    0    0  0.00000000000E+00  0.00000000000E+00 -0.10193920652E+04  0.22476288307E+04  0.20031662881E+04 0.  0.
        2    1    3    3  502    0 -0.34571243618E+03  0.12903290607E+03  0.53506675390E+03  0.64997154592E+03  0.25500000920E-02 0. -1.
       -2    1    3    3    0  502  0.34571243618E+03 -0.12903290607E+03 -0.15544588191E+04  0.15976572848E+04  0.25500000920E-02 0.  1.
</event>
<event>
 5   0  0.7935008E-05  0.2000728E+04  0.7818609E-02  0.8606280E-01
        2   -1    0    0  501    0  0.00000000000E+00  0.00000000000E+00  0.10686012958E+04  0.10686012958E+04  0.25500000920E-02 0. -1.
       -2   -1    0    0    0  501  0.00000000000E+00  0.00000000000E+00 -0.93648419383E+03  0.93648419383E+03  0.25500000920E-02 0.  1.
    10030    2    1    2    0    0  0.00000000000E+00  0.00000000000E+00  0.13211710197E+03  0.20050854896E+04  0.20007280905E+04 0.  0.
        3    1    3    3  502    0 -0.11442145766E+03  0.83437090857E+03 -0.47498863972E+03  0.96689260060E+03  0.10100000352E+00 0.  1.
       -3    1    3    3    0  502  0.11442145766E+03 -0.83437090857E+03  0.60710574169E+03  0.10381928890E+04  0.10100000352E+00 0. -1.
</event>
<event>
 5   0  0.8011197E-05  0.2004232E+04  0.7818609E-02  0.8604645E-01
        2   -1    0    0  501    0  0.00000000000E+00  0.00000000000E+00  0.14765845149E+04  0.14765845149E+04  0.25500000920E-02 0. -1.
       -2   -1    0    0    0  501  0.00000000000E+00  0.00000000000E+00 -0.68010778398E+03  0.68010778398E+03  0.25500000920E-02 0.  1.
    10030    2    1    2    0    0  0.00000000000E+00  0.00000000000E+00  0.79647673088E+03  0.21566922988E+04  0.20042321445E+04 0.  0.
        5    1    3    3  502    0  0.25573343300E+03  0.96688061084E+03  0.46592668689E+03  0.11033437687E+04  0.46999998093E+01 0.  1.
       -5    1    3    3    0  502 -0.25573343300E+03 -0.96688061084E+03  0.33055004399E+03  0.10533485301E+04  0.46999998093E+01 0. -1.
</event>
<event>
 5   0  0.3549426E-05  0.1999923E+04  0.7818609E-02  0.8606657E-01
       -1   -1    0    0    0  501  0.00000000000E+00  0.00000000000E+00  0.13832840999E+04  0.13832840999E+04  0.50400001928E-02 0. -1.
        1   -1    0    0  501    0  0.00000000000E+00  0.00000000000E+00 -0.72286161323E+03  0.72286161325E+03  0.50400001928E-02 0.  1.
    10030    2    1    2    0    0  0.00000000000E+00  0.00000000000E+00  0.66042248671E+03  0.21061457132E+04  0.19999229746E+04 0.  0.
        5    1    3    3  502    0 -0.44169104116E+02 -0.38031386274E+03 -0.64260072294E+03  0.74802895871E+03  0.46999998093E+01 0.  1.
       -5    1    3    3    0  502  0.44169104116E+02  0.38031386274E+03  0.13030232096E+04  0.13581167545E+04  0.46999998093E+01 0. -1.
</event>
<event>
 5   0  0.3772949E-05  0.2004599E+04  0.7818609E-02  0.8604474E-01
       -1   -1    0    0    0  501  0.00000000000E+00  0.00000000000E+00  0.51739381106E+03  0.51739381108E+03  0.50400001928E-02 0.  1.
        1   -1    0    0  501    0  0.00000000000E+00  0.00000000000E+00 -0.19416624615E+04  0.19416624615E+04  0.50400001928E-02 0. -1.
    10030    2    1    2    0    0  0.00000000000E+00  0.00000000000E+00 -0.14242686505E+04  0.24590562726E+04  0.20045988534E+04 0.  0.
        2    1    3    3  502    0  0.83105214535E+03  0.54496277636E+03 -0.87194584267E+03  0.13220898791E+04  0.25500000920E-02 0.  1.
       -2    1    3    3    0  502 -0.83105214535E+03 -0.54496277636E+03 -0.55232280778E+03  0.11369663935E+04  0.25500000920E-02 0. -1.
</event>
<event>
 5   0  0.3549426E-05  0.2003149E+04  0.7818609E-02  0.8605150E-01
        1   -1    0    0  501    0  0.00000000000E+00  0.00000000000E+00  0.12897140902E+04  0.12897140902E+04  0.50400001928E-02 0.  1.
       -1   -1    0    0    0  501  0.00000000000E+00  0.00000000000E+00 -0.77780909449E+03  0.77780909451E+03  0.50400001928E-02 0. -1.
    10030    2    1    2    0    0  0.00000000000E+00  0.00000000000E+00  0.51190499568E+03  0.20675231847E+04  0.20031488698E+04 0.  0.
        5    1    3    3  502    0 -0.74287222154E+03  0.35406850414E+03  0.84518010105E+03  0.11796504297E+04  0.46999998093E+01 0.  1.
       -5    1    3    3    0  502  0.74287222154E+03 -0.35406850414E+03 -0.33327510536E+03  0.88787275497E+03  0.46999998093E+01 0. -1.
</event>
<event>
 5   0  0.7843846E-05  0.1988132E+04  0.7818609E-02  0.8612190E-01
       -2   -1    0    0    0  501  0.00000000000E+00  0.00000000000E+00  0.71805093887E+03  0.71805093888E+03  0.25500000920E-02 0. -1.
        2   -1    0    0  501    0  0.00000000000E+00  0.00000000000E+00 -0.13761798307E+04  0.13761798307E+04  0.25500000920E-02 0.  1.
    10030    2    1    2    0    0  0.00000000000E+00  0.00000000000E+00 -0.65812889183E+03  0.20942307696E+04  0.19881320072E+04 0.  0.
        2    1    3    3  502    0  0.79607287948E+03 -0.28031760604E+03  0.22418565827E+03  0.87325208221E+03  0.25500000920E-02 0. -1.
       -2    1    3    3    0  502 -0.79607287948E+03  0.28031760604E+03 -0.88231455010E+03  0.12209786874E+04  0.25500000920E-02 0.  1.
</event>
<event>
 5   0  0.8022574E-05  0.1987364E+04  0.7818609E-02  0.8612551E-01
        2   -1    0    0  501    0  0.00000000000E+00  0.00000000000E+00  0.78573121972E+03  0.78573121972E+03  0.25500000920E-02 0. -1.
       -2   -1    0    0    0  501  0.00000000000E+00  0.00000000000E+00 -0.12566691839E+04  0.12566691839E+04  0.25500000920E-02 0.  1.
    10030    2    1    2    0    0  0.00000000000E+00  0.00000000000E+00 -0.47093796423E+03  0.20424004037E+04  0.19873642954E+04 0.  0.
        1    1    3    3  502    0 -0.87397909562E+03  0.39503729868E+03 -0.50249179782E+03  0.10827704899E+04  0.50400001928E-02 0.  1.
       -1    1    3    3    0  502  0.87397909562E+03 -0.39503729868E+03  0.31553833594E+02  0.95962991375E+03  0.50400001928E-02 0. -1.
</event>
<event>
 5   0  0.8022574E-05  0.2004982E+04  0.7818609E-02  0.8604295E-01
       -2   -1    0    0    0  501  0.00000000000E+00  0.00000000000E+00  0.46296486901E+03  0.46296486902E+03  0.25500000920E-02 0.  1.
        2   -1    0    0  501    0  0.00000000000E+00  0.00000000000E+00 -0.21707661893E+04  0.21707661893E+04  0.25500000920E-02 0. -1.
    10030    2    1    2    0    0  0.00000000000E+00  0.00000000000E+00 -0.17078013203E+04  0.26337310583E+04  0.20049822787E+04 0.  0.
        1    1    3    3  502    0  0.46819302754E+03  0.49132493790E+03 -0.18231006367E+04  0.19453279511E+04  0.50400001928E-02 0. -1.
       -1    1    3    3    0  502 -0.46819302754E+03 -0.49132493790E+03  0.11529931645E+03  0.68840310722E+03  0.50400001928E-02 0.  1.
</event>
<event>
 5   0  0.7935008E-05  0.1824974E+04  0.7818609E-02  0.8693130E-01
        2   -1    0    0  501    0  0.00000000000E+00  0.00000000000E+00  0.71266777074E+03  0.71266777075E+03  0.25500000920E-02 0. -1.
       -2   -1    0    0    0  501  0.00000000000E+00  0.00000000000E+00 -0.11683323939E+04  0.11683323939E+04  0.25500000920E-02 0.  1.
    10030    2    1    2    0    0  0.00000000000E+00  0.00000000000E+00 -0.45566462311E+03  0.18810001646E+04  0.18249743479E+04 0.  0.
        3    1    3    3  502    0  0.40528937223E+03  0.44949948675E+03 -0.93167524089E+03  0.11110031631E+04  0.10100000352E+00 0.  1.
       -3    1    3    3    0  502 -0.40528937223E+03 -0.44949948675E+03  0.47601061778E+03  0.76999700146E+03  0.10100000352E+00 0. -1.
</event>
<event>
 5   0  0.3787698E-05  0.2006428E+04  0.7818609E-02  0.8603621E-01
       -1   -1    0    0    0  501  0.00000000000E+00  0.00000000000E+00  0.84551979742E+03  0.84551979744E+03  0.50400001928E-02 0. -1.
        1   -1    0    0  501    0  0.00000000000E+00  0.00000000000E+00 -0.11903194503E+04  0.11903194504E+04  0.50400001928E-02 0.  1.
    10030    2    1    2    0    0  0.00000000000E+00  0.00000000000E+00 -0.34479965292E+03  0.20358392478E+04  0.20064283297E+04 0.  0.
        4    1    3    3  502    0 -0.13821649066E+03  0.36783155948E+03  0.76418709401E+03  0.85929470032E+03  0.12699999809E+01 0. -1.
       -4    1    3    3    0  502  0.13821649066E+03 -0.36783155948E+03 -0.11089867469E+04  0.11765445475E+04  0.12699999809E+01 0.  1.
</event>
<event>
 5   0  0.7935008E-05  0.1984727E+04  0.7818609E-02  0.8613795E-01
       -2   -1    0    0    0  501  0.00000000000E+00  0.00000000000E+00  0.96035279784E+03  0.96035279784E+03  0.25500000920E-02 0.  1.
        2   -1    0    0  501    0  0.00000000000E+00  0.00000000000E+00 -0.10254413285E+04  0.10254413285E+04  0.25500000920E-02 0. -1.
    10030    2    1    2    0    0  0.00000000000E+00  0.00000000000E+00 -0.65088530614E+02  0.19857941263E+04  0.19847271337E+04 0.  0.
        3    1    3    3  502    0  0.72257054101E+03 -0.11454154508E+03 -0.70339520400E+03  0.10148855972E+04  0.10100000352E+00 0. -1.
       -3    1    3    3    0  502 -0.72257054101E+03  0.11454154508E+03  0.63830667339E+03  0.97090852905E+03  0.10100000352E+00 0.  1.
</event>
<event>
 5   0  0.3772949E-05  0.1820482E+04  0.7818609E-02  0.8695483E-01
       -1   -1    0    0    0  501  0.00000000000E+00  0.00000000000E+00  0.67592927288E+03  0.67592927290E+03  0.50400001928E-02 0. -1.
        1   -1    0    0  501    0  0.00000000000E+00  0.00000000000E+00 -0.12257769952E+04  0.12257769952E+04  0.50400001928E-02 0.  1.
    10030    2    1    2    0    0  0.00000000000E+00  0.00000000000E+00 -0.54984772234E+03  0.19017062681E+04  0.18204818627E+04 0.  0.
        2    1    3    3  502    0 -0.13847938531E+03 -0.75436525921E+03  0.23714634813E+03  0.80279628481E+03  0.25500000920E-02 0. -1.
       -2    1    3    3    0  502  0.13847938531E+03  0.75436525921E+03 -0.78699407047E+03  0.10989099833E+04  0.25500000920E-02 0.  1.
</event>
<event>
 5   0  0.8011197E-05  0.1972982E+04  0.7818609E-02  0.8619358E-01
       -2   -1    0    0    0  501  0.00000000000E+00  0.00000000000E+00  0.91356967528E+03  0.91356967528E+03  0.25500000920E-02 0. -1.
        2   -1    0    0  501    0  0.00000000000E+00  0.00000000000E+00 -0.10652327309E+04  0.10652327309E+04  0.25500000920E-02 0.  1.
    10030    2    1    2    0    0  0.00000000000E+00  0.00000000000E+00 -0.15166305558E+03  0.19788024061E+04  0.19729818246E+04 0.  0.
        5    1    3    3  502    0 -0.75583478496E+03  0.22730983453E+03  0.51767963040E+03  0.94391221666E+03  0.46999998093E+01 0.  1.
       -5    1    3    3    0  502  0.75583478496E+03 -0.22730983453E+03 -0.66934268598E+03  0.10348901895E+04  0.46999998093E+01 0. -1.
</event>
<event>
 5   0  0.7935008E-05  0.1989094E+04  0.7818609E-02  0.8611737E-01
        2   -1    0    0  501    0  0.00000000000E+00  0.00000000000E+00  0.18090708661E+04  0.18090708661E+04  0.25500000920E-02 0. -1.
       -2   -1    0    0    0  501  0.00000000000E+00  0.00000000000E+00 -0.54675793041E+03  0.54675793041E+03  0.25500000920E-02 0.  1.
    10030    2    1    2    0    0  0.00000000000E+00  0.00000000000E+00  0.12623129357E+04  0.23558287965E+04  0.19890941081E+04 0.  0.
        3    1    3    3  502    0  0.69853320201E+03 -0.69260198430E+03  0.45758346569E+03  0.10849095728E+04  0.10100000352E+00 0.  1.
       -3    1    3    3    0  502 -0.69853320201E+03  0.69260198430E+03  0.80472946996E+03  0.12709192236E+04  0.10100000352E+00 0. -1.
</event>
<event>
 5   0  0.3772949E-05  0.2018214E+04  0.7818609E-02  0.8598152E-01
        1   -1    0    0  501    0  0.00000000000E+00  0.00000000000E+00  0.65858929672E+03  0.65858929674E+03  0.50400001928E-02 0.  1.
       -1   -1    0    0    0  501  0.00000000000E+00  0.00000000000E+00 -0.15461787970E+04  0.15461787970E+04  0.50400001928E-02 0. -1.
    10030    2    1    2    0    0  0.00000000000E+00  0.00000000000E+00 -0.88758950028E+03  0.22047680937E+04  0.20182138703E+04 0.  0.
        2    1    3    3  502    0 -0.69526104754E+03  0.64600280998E+03 -0.69184598367E+02  0.95157451804E+03  0.25500000920E-02 0.  1.
       -2    1    3    3    0  502  0.69526104754E+03 -0.64600280998E+03 -0.81840490191E+03  0.12531935757E+04  0.25500000920E-02 0. -1.
</event>
<event>
 5   0  0.3772949E-05  0.1999194E+04  0.7818609E-02  0.8606997E-01
        1   -1    0    0  501    0  0.00000000000E+00  0.00000000000E+00  0.12558790095E+04  0.12558790095E+04  0.50400001928E-02 0. -1.
       -1   -1    0    0    0  501  0.00000000000E+00  0.00000000000E+00 -0.79561368621E+03  0.79561368622E+03  0.50400001928E-02 0.  1.
    10030    2    1    2    0    0  0.00000000000E+00  0.00000000000E+00  0.46026532329E+03  0.20514926957E+04  0.19991943659E+04 0.  0.
        2    1    3    3  502    0  0.43225622709E+03 -0.19045124173E+03  0.11341306749E+04  0.12285640029E+04  0.25500000920E-02 0. -1.
       -2    1    3    3    0  502 -0.43225622709E+03  0.19045124173E+03 -0.67386535165E+03  0.82292869284E+03  0.25500000920E-02 0.  1.
</event>
<event>
 5   0  0.3549426E-05  0.2032642E+04  0.7818609E-02  0.8591510E-01
        1   -1    0    0  501    0  0.00000000000E+00  0.00000000000E+00  0.10577817468E+04  0.10577817468E+04  0.50400001928E-02 0. -1.
       -1   -1    0    0    0  501  0.00000000000E+00  0.00000000000E+00 -0.97648505425E+03  0.97648505426E+03  0.50400001928E-02 0.  1.
    10030    2    1    2    0    0  0.00000000000E+00  0.00000000000E+00  0.81296692506E+02  0.20342668010E+04  0.20326416963E+04 0.  0.
        5    1    3    3  502    0  0.66346303939E+03  0.72447394591E+03  0.30131824082E+03  0.10275507166E+04  0.46999998093E+01 0. -1.
       -5    1    3    3    0  502 -0.66346303939E+03 -0.72447394591E+03 -0.22002154832E+03  0.10067160844E+04  0.46999998093E+01 0.  1.
</event>
<event>
 5   0  0.7843846E-05  0.1991761E+04  0.7818609E-02  0.8610482E-01
       -2   -1    0    0    0  501  0.00000000000E+00  0.00000000000E+00  0.35977956207E+03  0.35977956208E+03  0.25500000920E-02 0.  1.
        2   -1    0    0  501    0  0.00000000000E+00  0.00000000000E+00 -0.27566276031E+04  0.27566276031E+04  0.25500000920E-02 0. -1.
    10030    2    1    2    0    0  0.00000000000E+00  0.00000000000E+00 -0.23968480410E+04  0.31164071652E+04  0.19917613028E+04 0.  0.
        2    1    3    3  502    0  0.78648796886E+03 -0.12827950356E+02 -0.24277008369E+03  0.82320422437E+03  0.25500000920E-02 0.  1.
       -2    1    3    3    0  502 -0.78648796886E+03  0.12827950356E+02 -0.21540779573E+04  0.22932029408E+04  0.25500000920E-02 0. -1.
</event>
<event>
 5   0  0.7843846E-05  0.2004738E+04  0.7818609E-02  0.8604409E-01
        2   -1    0    0  501    0  0.00000000000E+00  0.00000000000E+00  0.91858055531E+03  0.91858055531E+03  0.25500000920E-02 0. -1.
       -2   -1    0    0    0  501  0.00000000000E+00  0.00000000000E+00 -0.10938006532E+04  0.10938006532E+04  0.25500000920E-02 0.  1.
    10030    2    1    2    0    0  0.00000000000E+00  0.00000000000E+00 -0.17522009786E+03  0.20123812085E+04  0.20047383983E+04 0.  0.
        2    1    3    3  502    0 -0.87473213743E+03  0.41554334653E+03  0.17204853730E+03  0.98358186455E+03  0.25500000920E-02 0. -1.
       -2    1    3    3    0  502  0.87473213743E+03 -0.41554334653E+03 -0.34726863515E+03  0.10287993439E+04  0.25500000920E-02 0.  1.
</event>
<event>
 5   0  0.3970042E-05  0.2006788E+04  0.7818609E-02  0.8603454E-01
       -1   -1    0    0    0  501  0.00000000000E+00  0.00000000000E+00  0.83100554467E+03  0.83100554468E+03  0.50400001928E-02 0. -1.
        1   -1    0    0  501    0  0.00000000000E+00  0.00000000000E+00 -0.12115439513E+04  0.12115439514E+04  0.50400001928E-02 0.  1.
    10030    2    1    2    0    0  0.00000000000E+00  0.00000000000E+00 -0.38053840667E+03  0.20425494960E+04  0.20067882212E+04 0.  0.
        3    1    3    3  502    0 -0.14677385238E+03 -0.72937497264E+03  0.49498105292E+03  0.89360878879E+03  0.10100000352E+00 0. -1.
       -3    1    3    3    0  502  0.14677385238E+03  0.72937497264E+03 -0.87551945959E+03  0.11489407072E+04  0.10100000352E+00 0.  1.
</event>
<event>
 5   0  0.7857136E-05  0.1999763E+04  0.7818609E-02  0.8606731E-01
       -2   -1    0    0    0  501  0.00000000000E+00  0.00000000000E+00  0.47202533145E+03  0.47202533145E+03  0.25500000920E-02 0. -1.
        2   -1    0    0  501    0  0.00000000000E+00  0.00000000000E+00 -0.21180282179E+04  0.21180282179E+04  0.25500000920E-02 0.  1.
    10030    2    1    2    0    0  0.00000000000E+00  0.00000000000E+00 -0.16460028864E+04  0.25900535493E+04  0.19997629575E+04 0.  0.
        4    1    3    3  502    0 -0.72716995936E+02 -0.37704924173E+03  0.37271546425E+03  0.53513766675E+03  0.12699999809E+01 0. -1.
       -4    1    3    3    0  502  0.72716995936E+02  0.37704924173E+03 -0.20187183507E+04  0.20549158826E+04  0.12699999809E+01 0.  1.
</event>
<event>
 5   0  0.3818907E-05  0.2019056E+04  0.7818609E-02  0.8597763E-01
       -1   -1    0    0    0  501  0.00000000000E+00  0.00000000000E+00  0.77721307974E+03  0.77721307976E+03  0.50400001928E-02 0.  1.
        1   -1    0    0  501    0  0.00000000000E+00  0.00000000000E+00 -0.13112833828E+04  0.13112833828E+04  0.50400001928E-02 0. -1.
    10030    2    1    2    0    0  0.00000000000E+00  0.00000000000E+00 -0.53407030310E+03  0.20884964626E+04  0.20190558154E+04 0.  0.
        1    1    3    3  502    0 -0.81536820364E+03 -0.43145798650E+03  0.15714818668E+03  0.93577607055E+03  0.50400001928E-02 0.  1.
       -1    1    3    3    0  502  0.81536820364E+03  0.43145798650E+03 -0.69121848978E+03  0.11527203921E+04  0.50400001928E-02 0. -1.
</event>
<event>
 5   0  0.7843846E-05  0.2000920E+04  0.7818609E-02  0.8606191E-01
       -2   -1    0    0    0  501  0.00000000000E+00  0.00000000000E+00  0.11896621325E+04  0.11896621325E+04  0.25500000920E-02 0. -1.
        2   -1    0    0  501    0  0.00000000000E+00  0.00000000000E+00 -0.84134849997E+03  0.84134849997E+03  0.25500000920E-02 0.  1.
    10030    2    1    2    0    0  0.00000000000E+00  0.00000000000E+00  0.34831363257E+03  0.20310106325E+04  0.20009202390E+04 0.  0.
        2    1    3    3  502    0  0.40960495176E+03 -0.25092239120E+03 -0.71664102331E+03  0.86273554419E+03  0.25500000920E-02 0.  1.
       -2    1    3    3    0  502 -0.40960495176E+03  0.25092239120E+03  0.10649546559E+04  0.11682750883E+04  0.25500000920E-02 0. -1.
</event>
<event>
 5   0  0.3970042E-05  0.1965951E+04  0.7818609E-02  0.8622707E-01
       -1   -1    0    0    0  501  0.00000000000E+00  0.00000000000E+00  0.14529140338E+04  0.14529140338E+04  0.50400001928E-02 0.  1.
        1   -1    0    0  501    0  0.00000000000E+00  0.00000000000E+00 -0.66503648536E+03  0.66503648537E+03  0.50400001928E-02 0. -1.
    10030    2    1    2    0    0  0.00000000000E+00  0.00000000000E+00  0.78787754841E+03  0.21179505191E+04  0.19659510091E+04 0.  0.
        3    1    3    3  502    0  0.14594311733E+03  0.60806505563E+03  0.12109949662E+04  0.13629201457E+04  0.10100000352E+00 0.  1.
       -3    1    3    3    0  502 -0.14594311733E+03 -0.60806505563E+03 -0.42311741775E+03  0.75503037342E+03  0.10100000352E+00 0. -1.
</event>
<event>
 5   0  0.8022574E-05  0.2010899E+04  0.7818609E-02  0.8601542E-01
        2   -1    0    0  501    0  0.00000000000E+00  0.00000000000E+00  0.11249683086E+04  0.11249683086E+04  0.25500000920E-02 0.  1.
       -2   -1    0    0    0  501  0.00000000000E+00  0.00000000000E+00 -0.89862878197E+03  0.89862878197E+03  0.25500000920E-02 0. -1.
    10030    2    1    2    0    0  0.00000000000E+00  0.00000000000E+00  0.22633952665E+03  0.20235970906E+04  0.20108992028E+04 0.  0.
        1    1    3    3  502    0 -0.80995810434E+03 -0.46178573787E+03  0.49191145149E+03  0.10541608391E+04  0.50400001928E-02 0.  1.
       -1    1    3    3    0  502  0.80995810434E+03  0.46178573787E+03 -0.26557192484E+03  0.96943625153E+03  0.50400001928E-02 0. -1.
</event>
<event>
 5   0  0.8011197E-05  0.2049450E+04  0.7818609E-02  0.8583844E-01
       -2   -1    0    0    0  501  0.00000000000E+00  0.00000000000E+00  0.48081823163E+03  0.48081823164E+03  0.25500000920E-02 0. -1.
        2   -1    0    0  501    0  0.00000000000E+00  0.00000000000E+00 -0.21839056635E+04  0.21839056636E+04  0.25500000920E-02 0.  1.
    10030    2    1    2    0    0  0.00000000000E+00  0.00000000000E+00 -0.17030874319E+04  0.26647238952E+04  0.20494503255E+04 0.  0.
        5    1    3    3  502    0  0.77730514272E+03  0.30799873843E+03 -0.16218291969E+04  0.18246694335E+04  0.46999998093E+01 0.  1.
       -5    1    3    3    0  502 -0.77730514272E+03 -0.30799873843E+03 -0.81258235016E+02  0.84005446165E+03  0.46999998093E+01 0. -1.
</event>
<event>
 5   0  0.3818907E-05  0.1990881E+04  0.7818609E-02  0.8610896E-01
       -1   -1    0    0    0  501  0.00000000000E+00  0.00000000000E+00  0.91785526865E+03  0.91785526867E+03  0.50400001928E-02 0.  1.
        1   -1    0    0  501    0  0.00000000000E+00  0.00000000000E+00 -0.10795838290E+04  0.10795838290E+04  0.50400001928E-02 0. -1.
    10030    2    1    2    0    0  0.00000000000E+00  0.00000000000E+00 -0.16172856035E+03  0.19974390977E+04  0.19908809160E+04 0.  0.
        1    1    3    3  502    0 -0.85215022579E+02  0.25718842611E+03 -0.10418787594E+04  0.10765309266E+04  0.50400001928E-02 0. -1.
       -1    1    3    3    0  502  0.85215022579E+02 -0.25718842611E+03  0.88015019907E+03  0.92090817107E+03  0.50400001928E-02 0.  1.
</event>
<event>
 5   0  0.3787698E-05  0.2021573E+04  0.7818609E-02  0.8596601E-01
       -1   -1    0    0    0  501  0.00000000000E+00  0.00000000000E+00  0.11714958183E+04  0.11714958183E+04  0.50400001928E-02 0. -1.
        1   -1    0    0  501    0  0.00000000000E+00  0.00000000000E+00 -0.87212343593E+03  0.87212343595E+03  0.50400001928E-02 0.  1.
    10030    2    1    2    0    0  0.00000000000E+00  0.00000000000E+00  0.29937238238E+03  0.20436192543E+04  0.20215726139E+04 0.  0.
        4    1    3    3  502    0 -0.36981864652E+03 -0.52034280701E+03 -0.64254717314E+03  0.90575435452E+03  0.12699999809E+01 0.  1.
       -4    1    3    3    0  502  0.36981864652E+03  0.52034280701E+03  0.94191955552E+03  0.11378648998E+04  0.12699999809E+01 0. -1.
</event>
<event>
 5   0  0.3787698E-05  0.1994214E+04  0.7818609E-02  0.8609331E-01
        1   -1    0    0  501    0  0.00000000000E+00  0.00000000000E+00  0.11428703149E+04  0.11428703149E+04  0.50400001928E-02 0. -1.
       -1   -1    0    0    0  501  0.00000000000E+00  0.00000000000E+00 -0.86993453527E+03  0.86993453528E+03  0.50400001928E-02 0.  1.
    10030    2    1    2    0    0  0.00000000000E+00  0.00000000000E+00  0.27293577967E+03  0.20128048502E+04  0.19942139868E+04 0.  0.
        4    1    3    3  502    0 -0.49377807820E+03 -0.16425510598E+01 -0.73786474349E+03  0.88784316243E+03  0.12699999809E+01 0.  1.
       -4    1    3    3    0  502  0.49377807820E+03  0.16425510598E+01  0.10108005232E+04  0.11249616878E+04  0.12699999809E+01 0. -1.
</event>
<event>
 5   0  0.7843846E-05  0.2009202E+04  0.7818609E-02  0.8602331E-01
        2   -1    0    0  501    0  0.00000000000E+00  0.00000000000E+00  0.62205467613E+03  0.62205467614E+03  0.25500000920E-02 0.  1.
       -2   -1    0    0    0  501  0.00000000000E+00  0.00000000000E+00 -0.16224024522E+04  0.16224024523E+04  0.25500000920E-02 0. -1.
    10030    2    1    2    0    0  0.00000000000E+00  0.00000000000E+00 -0.10003477761E+04  0.22444571284E+04  0.20092018634E+04 0.  0.
        2    1    3    3  502    0 -0.71761212286E+03 -0.37399484151E+03  0.16483068295E+03  0.82583803158E+03  0.25500000920E-02 0.  1.
       -2    1    3    3    0  502  0.71761212286E+03  0.37399484151E+03 -0.11651784591E+04  0.14186190968E+04  0.25500000920E-02 0. -1.
</event>
<event>
 5   0  0.7843846E-05  0.1977130E+04  0.7818609E-02  0.8617388E-01
       -2   -1    0    0    0  501  0.00000000000E+00  0.00000000000E+00  0.58109224860E+03  0.58109224861E+03  0.25500000920E-02 0.  1.
        2   -1    0    0  501    0  0.00000000000E+00  0.00000000000E+00 -0.16817653739E+04  0.16817653739E+04  0.25500000920E-02 0. -1.
    10030    2    1    2    0    0  0.00000000000E+00  0.00000000000E+00 -0.11006731253E+04  0.22628576225E+04  0.19771300643E+04 0.  0.
        2    1    3    3  502    0  0.56182318016E+03 -0.80902804564E+03 -0.45397156212E+03  0.10845560583E+04  0.25500000920E-02 0.  1.
       -2    1    3    3    0  502 -0.56182318016E+03  0.80902804564E+03 -0.64670156317E+03  0.11783015642E+04  0.25500000920E-02 0. -1.
</event>
<event>
 5   0  0.7857136E-05  0.2060847E+04  0.7818609E-02  0.8578690E-01
        2   -1    0    0  501    0  0.00000000000E+00  0.00000000000E+00  0.14084190217E+04  0.14084190217E+04  0.25500000920E-02 0. -1.
       -2   -1    0    0    0  501  0.00000000000E+00  0.00000000000E+00 -0.75387518525E+03  0.75387518525E+03  0.25500000920E-02 0.  1.
    10030    2    1    2    0    0  0.00000000000E+00  0.00000000000E+00  0.65454383640E+03  0.21622942069E+04  0.20608465745E+04 0.  0.
        4    1    3    3  502    0  0.86696766062E+03  0.26399298328E+03  0.84176233134E+03  0.12368874869E+04  0.12699999809E+01 0. -1.
       -4    1    3    3    0  502 -0.86696766062E+03 -0.26399298328E+03 -0.18721849494E+03  0.92540672005E+03  0.12699999809E+01 0.  1.
</event>
<event>
 5   0  0.8011197E-05  0.2005451E+04  0.7818609E-02  0.8604076E-01
       -2   -1    0    0    0  501  0.00000000000E+00  0.00000000000E+00  0.75247558114E+03  0.75247558114E+03  0.25500000920E-02 0. -1.
        2   -1    0    0  501    0  0.00000000000E+00  0.00000000000E+00 -0.13362004803E+04  0.13362004803E+04  0.25500000920E-02 0.  1.
    10030    2    1    2    0    0  0.00000000000E+00  0.00000000000E+00 -0.58372489914E+03  0.20886760614E+04  0.20054508051E+04 0.  0.
        5    1    3    3  502    0  0.69716945934E+03  0.69711873640E+03 -0.10147486854E+03  0.99113017642E+03  0.46999998093E+01 0.  1.
       -5    1    3    3    0  502 -0.69716945934E+03 -0.69711873640E+03 -0.48225003059E+03  0.10975458850E+04  0.46999998093E+01 0. -1.
</event>
<event>
 5   0  0.7843846E-05  0.2028778E+04  0.7818609E-02  0.8593283E-01
       -2   -1    0    0    0  501  0.00000000000E+00  0.00000000000E+00  0.11566457481E+04  0.11566457481E+04  0.25500000920E-02 0. -1.
        2   -1    0    0  501    0  0.00000000000E+00  0.00000000000E+00 -0.88962877311E+03  0.88962877311E+03  0.25500000920E-02 0.  1.
    10030    2    1    2    0    0  0.00000000000E+00  0.00000000000E+00  0.26701697495E+03  0.20462745212E+04  0.20287782903E+04 0.  0.
        2    1    3    3  502    0 -0.43628556542E+02 -0.38353376346E+03  0.10796729484E+04  0.11466016196E+04  0.25500000920E-02 0. -1.
       -2    1    3    3    0  502  0.43628556542E+02  0.38353376346E+03 -0.81265597342E+03  0.89967290156E+03  0.25500000920E-02 0.  1.
</event>
<event>
 5   0  0.8022574E-05  0.1996301E+04  0.7818609E-02  0.8608352E-01
        2   -1    0    0  501    0  0.00000000000E+00  0.00000000000E+00  0.21950224935E+04  0.21950224935E+04  0.25500000920E-02 0.  1.
       -2   -1    0    0    0  501  0.00000000000E+00  0.00000000000E+00 -0.45389275821E+03  0.45389275822E+03  0.25500000920E-02 0. -1.
    10030    2    1    2    0    0  0.00000000000E+00  0.00000000000E+00  0.17411297353E+04  0.26489152517E+04  0.19963013940E+04 0.  0.
        1    1    3    3  502    0  0.13909213382E+03 -0.37615283361E+03  0.20834136762E+04  0.21216621131E+04  0.50400001928E-02 0.  1.
       -1    1    3    3    0  502 -0.13909213382E+03  0.37615283361E+03 -0.34228394093E+03  0.52725313861E+03  0.50400001928E-02 0. -1.
</event>
<event>
 5   0  0.7857136E-05  0.2000887E+04  0.7818609E-02  0.8606206E-01
       -2   -1    0    0    0  501  0.00000000000E+00  0.00000000000E+00  0.68395171210E+03  0.68395171211E+03  0.25500000920E-02 0.  1.
        2   -1    0    0  501    0  0.00000000000E+00  0.00000000000E+00 -0.14633884692E+04  0.14633884692E+04  0.25500000920E-02 0. -1.
    10030    2    1    2    0    0  0.00000000000E+00  0.00000000000E+00 -0.77943675708E+03  0.21473401813E+04  0.20008868523E+04 0.  0.
        4    1    3    3  502    0  0.88418581968E+03  0.41649703607E+03 -0.61896806368E+03  0.11568826308E+04  0.12699999809E+01 0.  1.
       -4    1    3    3    0  502 -0.88418581968E+03 -0.41649703607E+03 -0.16046869340E+03  0.99045755045E+03  0.12699999809E+01 0. -1.
</event>
<event>
 5   0  0.7857136E-05  0.2021487E+04  0.7818609E-02  0.8596640E-01
       -2   -1    0    0    0  501  0.00000000000E+00  0.00000000000E+00  0.71707389024E+03  0.71707389024E+03  0.25500000920E-02 0. -1.
        2   -1    0    0  501    0  0.00000000000E+00  0.00000000000E+00 -0.14246817723E+04  0.14246817723E+04  0.25500000920E-02 0.  1.
    10030    2    1    2    0    0  0.00000000000E+00  0.00000000000E+00 -0.70760788210E+03  0.21417556626E+04  0.20214866815E+04 0.  0.
        4    1    3    3  502    0  0.98572389137E+03 -0.15293641285E+03 -0.18113756528E+03  0.10138311333E+04  0.12699999809E+01 0. -1.
       -4    1    3    3    0  502 -0.98572389137E+03  0.15293641285E+03 -0.52647031681E+03  0.11279245293E+04  0.12699999809E+01 0.  1.
</event>
<event>
 5   0  0.8011197E-05  0.2011444E+04  0.7818609E-02  0.8601289E-01
       -2   -1    0    0    0  501  0.00000000000E+00  0.00000000000E+00  0.45550081690E+03  0.45550081691E+03  0.25500000920E-02 0. -1.
        2   -1    0    0  501    0  0.00000000000E+00  0.00000000000E+00 -0.22205826103E+04  0.22205826103E+04  0.25500000920E-02 0.  1.
    10030    2    1    2    0    0  0.00000000000E+00  0.00000000000E+00 -0.17650817934E+04  0.26760834272E+04  0.20114444491E+04 0.  0.
        5    1    3    3  502    0  0.17910526059E+03 -0.42102494653E+03 -0.20740840153E+04  0.21239555769E+04  0.46999998093E+01 0.  1.
       -5    1    3    3    0  502 -0.17910526059E+03  0.42102494653E+03  0.30900222192E+03  0.55212785034E+03  0.46999998093E+01 0. -1.
</event>
<event>
 5   0  0.3787698E-05  0.1999140E+04  0.7818609E-02  0.8607023E-01
       -1   -1    0    0    0  501  0.00000000000E+00  0.00000000000E+00  0.42059105514E+03  0.42059105517E+03  0.50400001928E-02 0. -1.
        1   -1    0    0  501    0  0.00000000000E+00  0.00000000000E+00 -0.23755624517E+04  0.23755624517E+04  0.50400001928E-02 0.  1.
    10030    2    1    2    0    0  0.00000000000E+00  0.00000000000E+00 -0.19549713966E+04  0.27961535069E+04  0.19991401333E+04 0.  0.
        4    1    3    3  502    0 -0.46049400036E+03 -0.54336575570E+03 -0.19583945458E+04  0.20838934423E+04  0.12699999809E+01 0.  1.
       -4    1    3    3    0  502  0.46049400036E+03  0.54336575570E+03  0.34231491806E+01  0.71226006465E+03  0.12699999809E+01 0. -1.
</event>
<event>
 5   0  0.8011197E-05  0.2017864E+04  0.7818609E-02  0.8598314E-01
       -2   -1    0    0    0  501  0.00000000000E+00  0.00000000000E+00  0.70558217759E+03  0.70558217759E+03  0.25500000920E-02 0. -1.
        2   -1    0    0  501    0  0.00000000000E+00  0.00000000000E+00 -0.14427008333E+04  0.14427008333E+04  0.25500000920E-02 0.  1.
    10030    2    1    2    0    0  0.00000000000E+00  0.00000000000E+00 -0.73711865573E+03  0.21482830109E+04  0.20178642131E+04 0.  0.
        5    1    3    3  502    0 -0.95452177463E+03 -0.29640109304E+03 -0.22197808583E+03  0.10238465641E+04  0.46999998093E+01 0.  1.
       -5    1    3    3    0  502  0.95452177463E+03  0.29640109304E+03 -0.51514056990E+03  0.11244364468E+04  0.46999998093E+01 0. -1.
</event>
<event>
 5   0  0.7935008E-05  0.1980833E+04  0.7818609E-02  0.8615635E-01
        2   -1    0    0  501    0  0.00000000000E+00  0.00000000000E+00  0.97586459234E+03  0.97586459234E+03  0.25500000920E-02 0.  1.
       -2   -1    0    0    0  501  0.00000000000E+00  0.00000000000E+00 -0.10051850427E+04  0.10051850427E+04  0.25500000920E-02 0. -1.
    10030    2    1    2    0    0  0.00000000000E+00  0.00000000000E+00 -0.29320450362E+02  0.19810496350E+04  0.19808326450E+04 0.  0.
        3    1    3    3  502    0  0.53471321777E+03  0.12596598605E+03 -0.83884929771E+03  0.10027231968E+04  0.10100000352E+00 0. -1.
       -3    1    3    3    0  502 -0.53471321777E+03 -0.12596598605E+03  0.80952884735E+03  0.97832643826E+03  0.10100000352E+00 0.  1.
</event>
<event>
 5   0  0.8011197E-05  0.1983385E+04  0.7818609E-02  0.8614428E-01
       -2   -1    0    0    0  501  0.00000000000E+00  0.00000000000E+00  0.64734487157E+03  0.64734487158E+03  0.25500000920E-02 0.  1.
        2   -1    0    0  501    0  0.00000000000E+00  0.00000000000E+00 -0.15192120580E+04  0.15192120580E+04  0.25500000920E-02 0. -1.
    10030    2    1    2    0    0  0.00000000000E+00  0.00000000000E+00 -0.87186718644E+03  0.21665569296E+04  0.19833851210E+04 0.  0.
        5    1    3    3  502    0 -0.16174981016E+03 -0.83456143072E+03 -0.99375744754E+03  0.13077582870E+04  0.46999998093E+01 0. -1.
       -5    1    3    3    0  502  0.16174981016E+03  0.83456143072E+03  0.12189026110E+03  0.85879864257E+03  0.46999998093E+01 0.  1.
</event>
<event>
 5   0  0.3818907E-05  0.1990124E+04  0.7818609E-02  0.8611252E-01
        1   -1    0    0  501    0  0.00000000000E+00  0.00000000000E+00  0.10235799798E+04  0.10235799798E+04  0.50400001928E-02 0. -1.
       -1   -1    0    0    0  501  0.00000000000E+00  0.00000000000E+00 -0.96733880653E+03  0.96733880654E+03  0.50400001928E-02 0.  1.
    10030    2    1    2    0    0  0.00000000000E+00  0.00000000000E+00  0.56241173284E+02  0.19909187864E+04  0.19901242535E+04 0.  0.
        1    1    3    3  502    0  0.34551900776E+03 -0.52180016838E+03  0.80205069367E+03  0.10173220315E+04  0.50400001928E-02 0. -1.
       -1    1    3    3    0  502 -0.34551900776E+03  0.52180016838E+03 -0.74580952039E+03  0.97359675491E+03  0.50400001928E-02 0.  1.
</event>
<event>
 5   0  0.3549426E-05  0.2038036E+04  0.7818609E-02  0.8589041E-01
       -1   -1    0    0    0  501  0.00000000000E+00  0.00000000000E+00  0.85569742722E+03  0.85569742723E+03  0.50400001928E-02 0.  1.
        1   -1    0    0  501    0  0.00000000000E+00  0.00000000000E+00 -0.12135102677E+04  0.12135102678E+04  0.50400001928E-02 0. -1.
    10030    2    1    2    0    0  0.00000000000E+00  0.00000000000E+00 -0.35781284053E+03  0.20692076950E+04  0.20380359310E+04 0.  0.
        5    1    3    3  502    0  0.12563475420E+03  0.38451754646E+03 -0.11284855651E+04  0.11988075724E+04  0.46999998093E+01 0. -1.
       -5    1    3    3    0  502 -0.12563475420E+03 -0.38451754646E+03  0.77067272458E+03  0.87040012259E+03  0.46999998093E+01 0.  1.
</event>
<event>
 5   0  0.3549426E-05  0.2007595E+04  0.7818609E-02  0.8603078E-01
        1   -1    0    0  501    0  0.00000000000E+00  0.00000000000E+00  0.30970419331E+03  0.30970419335E+03  0.50400001928E-02 0.  1.
       -1   -1    0    0    0  501  0.00000000000E+00  0.00000000000E+00 -0.32534589792E+04  0.32534589792E+04  0.50400001928E-02 0. -1.
    10030    2    1    2    0    0  0.00000000000E+00  0.00000000000E+00 -0.29437547859E+04  0.35631631725E+04  0.20075954659E+04 0.  0.
        5    1    3    3  502    0  0.79248303058E+03  0.85268020569E+02 -0.25548037217E+04  0.26762556185E+04  0.46999998093E+01 0.  1.
       -5    1    3    3    0  502 -0.79248303058E+03 -0.85268020569E+02 -0.38895106417E+03  0.88690755404E+03  0.46999998093E+01 0. -1.
</event>
<event>
 5   0  0.8022574E-05  0.1991127E+04  0.7818609E-02  0.8610780E-01
        2   -1    0    0  501    0  0.00000000000E+00  0.00000000000E+00  0.13224655564E+04  0.13224655564E+04  0.25500000920E-02 0.  1.
       -2   -1    0    0    0  501  0.00000000000E+00  0.00000000000E+00 -0.74946901657E+03  0.74946901657E+03  0.25500000920E-02 0. -1.
    10030    2    1    2    0    0  0.00000000000E+00  0.00000000000E+00  0.57299653979E+03  0.20719345729E+04  0.19911272787E+04 0.  0.
        1    1    3    3  502    0 -0.89205656415E+03 -0.27996399401E+03 -0.69439474881E+02  0.93753218200E+03  0.50400001928E-02 0. -1.
       -1    1    3    3    0  502  0.89205656415E+03  0.27996399401E+03  0.64243601467E+03  0.11344023909E+04  0.50400001928E-02 0.  1.
</event>
<event>
 5   0  0.8022574E-05  0.2003295E+04  0.7818609E-02  0.8605082E-01
        2   -1    0    0  501    0  0.00000000000E+00  0.00000000000E+00  0.13140902554E+04  0.13140902554E+04  0.25500000920E-02 0. -1.
       -2   -1    0    0    0  501  0.00000000000E+00  0.00000000000E+00 -0.76349212479E+03  0.76349212480E+03  0.25500000920E-02 0.  1.
    10030    2    1    2    0    0  0.00000000000E+00  0.00000000000E+00  0.55059813066E+03  0.20775823802E+04  0.20032948473E+04 0.  0.
        1    1    3    3  502    0 -0.35310710960E+03 -0.16756664301E+03 -0.68114440937E+03  0.78531580727E+03  0.50400001928E-02 0.  1.
       -1    1    3    3    0  502  0.35310710960E+03  0.16756664301E+03  0.12317425400E+04  0.12922665730E+04  0.50400001928E-02 0. -1.
</event>
<event>
 5   0  0.3787698E-05  0.1937850E+04  0.7818609E-02  0.8636242E-01
       -1   -1    0    0    0  501  0.00000000000E+00  0.00000000000E+00  0.57303896249E+03  0.57303896252E+03  0.50400001928E-02 0. -1.
        1   -1    0    0  501    0  0.00000000000E+00  0.00000000000E+00 -0.16383111764E+04  0.16383111764E+04  0.50400001928E-02 0.  1.
    10030    2    1    2    0    0  0.00000000000E+00  0.00000000000E+00 -0.10652722139E+04  0.22113501389E+04  0.19378504966E+04 0.  0.
        4    1    3    3  502    0 -0.73473718845E+03  0.37876679194E+03  0.44186767648E+02  0.82780257435E+03  0.12699999809E+01 0. -1.
       -4    1    3    3    0  502  0.73473718845E+03 -0.37876679194E+03 -0.11094589815E+04  0.13835475645E+04  0.12699999809E+01 0.  1.
</event>
<event>
 5   0  0.7843846E-05  0.1990370E+04  0.7818609E-02  0.8611136E-01
        2   -1    0    0  501    0  0.00000000000E+00  0.00000000000E+00  0.14031962687E+04  0.14031962687E+04  0.25500000920E-02 0. -1.
       -2   -1    0    0    0  501  0.00000000000E+00  0.00000000000E+00 -0.70581254559E+03  0.70581254559E+03  0.25500000920E-02 0.  1.
    10030    2    1    2    0    0  0.00000000000E+00  0.00000000000E+00  0.69738372310E+03  0.21090088143E+04  0.19903703478E+04 0.  0.
        2    1    3    3  502    0  0.73169033159E+03  0.24256878717E+02 -0.36560723048E+03  0.81830787879E+03  0.25500000920E-02 0.  1.
       -2    1    3    3    0  502 -0.73169033159E+03 -0.24256878717E+02  0.10629909536E+04  0.12907009355E+04  0.25500000920E-02 0. -1.
</event>
<event>
 5   0  0.2859625E-05  0.2003846E+04  0.7818609E-02  0.8604825E-01
        3   -1    0    0  501    0  0.00000000000E+00  0.00000000000E+00  0.24299265705E+04  0.24299265726E+04  0.10100000352E+00 0.  1.
       -3   -1    0    0    0  501  0.00000000000E+00  0.00000000000E+00 -0.41311938219E+03  0.41311939454E+03  0.10100000352E+00 0. -1.
    10030    2    1    2    0    0  0.00000000000E+00  0.00000000000E+00  0.20168071883E+04  0.28430459671E+04  0.20038460860E+04 0.  0.
        4    1    3    3  502    0 -0.68834041912E+03 -0.38160153102E+03  0.12873275018E+03  0.79749984009E+03  0.12699999809E+01 0. -1.
       -4    1    3    3    0  502  0.68834041912E+03  0.38160153102E+03  0.18880744381E+04  0.20455461271E+04  0.12699999809E+01 0.  1.
</event>
<event>
 5   0  0.8011197E-05  0.1966848E+04  0.7818609E-02  0.8622279E-01
       -2   -1    0    0    0  501  0.00000000000E+00  0.00000000000E+00  0.80209111667E+03  0.80209111667E+03  0.25500000920E-02 0. -1.
        2   -1    0    0  501    0  0.00000000000E+00  0.00000000000E+00 -0.12057518239E+04  0.12057518239E+04  0.25500000920E-02 0.  1.
    10030    2    1    2    0    0  0.00000000000E+00  0.00000000000E+00 -0.40366070726E+03  0.20078429406E+04  0.19668480642E+04 0.  0.
        5    1    3    3  502    0  0.17294080516E+03  0.56429843163E+03 -0.10048383379E+04  0.11653597802E+04  0.46999998093E+01 0.  1.
       -5    1    3    3    0  502 -0.17294080516E+03 -0.56429843163E+03  0.60117763061E+03  0.84248316041E+03  0.46999998093E+01 0. -1.
</event>
<event>
 5   0  0.8011197E-05  0.2008966E+04  0.7818609E-02  0.8602440E-01
        2   -1    0    0  501    0  0.00000000000E+00  0.00000000000E+00  0.13475687869E+04  0.13475687869E+04  0.25500000920E-02 0.  1.
       -2   -1    0    0    0  501  0.00000000000E+00  0.00000000000E+00 -0.74874520605E+03  0.74874520605E+03  0.25500000920E-02 0. -1.
    10030    2    1    2    0    0  0.00000000000E+00  0.00000000000E+00  0.59882358086E+03  0.20963139930E+04  0.20089655736E+04 0.  0.
        5    1    3    3  502    0  0.71795494051E+03  0.51794896580E+03 -0.19581028422E+03  0.90669409681E+03  0.46999998093E+01 0. -1.
       -5    1    3    3    0  502 -0.71795494051E+03 -0.51794896580E+03  0.79463386508E+03  0.11896198962E+04  0.46999998093E+01 0.  1.
</event>
<event>
 5   0  0.3818907E-05  0.1987836E+04  0.7818609E-02  0.8612329E-01
       -1   -1    0    0    0  501  0.00000000000E+00  0.00000000000E+00  0.14121554705E+04  0.14121554705E+04  0.50400001928E-02 0.  1.
        1   -1    0    0  501    0  0.00000000000E+00  0.00000000000E+00 -0.69954977918E+03  0.69954977920E+03  0.50400001928E-02 0. -1.
    10030    2    1    2    0    0  0.00000000000E+00  0.00000000000E+00  0.71260569132E+03  0.21117052497E+04  0.19878360572E+04 0.  0.
        1    1    3    3  502    0  0.53888390809E+03 -0.80276919818E+03  0.60095529185E+03  0.11384118388E+04  0.50400001928E-02 0.  1.
       -1    1    3    3    0  502 -0.53888390809E+03  0.80276919818E+03  0.11165039947E+03  0.97329341088E+03  0.50400001928E-02 0. -1.
</event>
<event>
 5   0  0.3787698E-05  0.1999485E+04  0.7818609E-02  0.8606861E-01
       -1   -1    0    0    0  501  0.00000000000E+00  0.00000000000E+00  0.16041242467E+04  0.16041242467E+04  0.50400001928E-02 0. -1.
        1   -1    0    0  501    0  0.00000000000E+00  0.00000000000E+00 -0.62307235958E+03  0.62307235960E+03  0.50400001928E-02 0.  1.
    10030    2    1    2    0    0  0.00000000000E+00  0.00000000000E+00  0.98105188712E+03  0.22271966063E+04  0.19994854133E+04 0.  0.
        4    1    3    3  502    0 -0.23057336680E+03 -0.88857386526E+03  0.49511530156E+02  0.91933704158E+03  0.12699999809E+01 0. -1.
       -4    1    3    3    0  502  0.23057336680E+03  0.88857386526E+03  0.93154035697E+03  0.13078595647E+04  0.12699999809E+01 0.  1.
</event>
<event>
 5   0  0.7935008E-05  0.2001173E+04  0.7818609E-02  0.8606073E-01
       -2   -1    0    0    0  501  0.00000000000E+00  0.00000000000E+00  0.96676081521E+03  0.96676081521E+03  0.25500000920E-02 0.  1.
        2   -1    0    0  501    0  0.00000000000E+00  0.00000000000E+00 -0.10355954834E+04  0.10355954835E+04  0.25500000920E-02 0. -1.
    10030    2    1    2    0    0  0.00000000000E+00  0.00000000000E+00 -0.68834668242E+02  0.20023562987E+04  0.20011727900E+04 0.  0.
        3    1    3    3  502    0  0.59591295055E+03 -0.23102998168E+03  0.73589901118E+03  0.97469711291E+03  0.10100000352E+00 0.  1.
       -3    1    3    3    0  502 -0.59591295055E+03  0.23102998168E+03 -0.80473367942E+03  0.10276591858E+04  0.10100000352E+00 0. -1.
</event>
<event>
 5   0  0.8022574E-05  0.2000033E+04  0.7818609E-02  0.8606605E-01
        2   -1    0    0  501    0  0.00000000000E+00  0.00000000000E+00  0.11993459190E+04  0.11993459190E+04  0.25500000920E-02 0.  1.
       -2   -1    0    0    0  501  0.00000000000E+00  0.00000000000E+00 -0.83381508265E+03  0.83381508265E+03  0.25500000920E-02 0. -1.
    10030    2    1    2    0    0  0.00000000000E+00  0.00000000000E+00  0.36553083635E+03  0.20331610016E+04  0.20000327163E+04 0.  0.
        1    1    3    3  502    0  0.75274876545E+03 -0.10409654059E+03  0.84358348266E+03  0.11353853469E+04  0.50400001928E-02 0.  1.
       -1    1    3    3    0  502 -0.75274876545E+03  0.10409654059E+03 -0.47805264631E+03  0.89777565478E+03  0.50400001928E-02 0. -1.
</event>
<event>
 5   0  0.8011197E-05  0.2089017E+04  0.7818609E-02  0.8566097E-01
        2   -1    0    0  501    0  0.00000000000E+00  0.00000000000E+00  0.15737530713E+04  0.15737530713E+04  0.25500000920E-02 0. -1.
       -2   -1    0    0    0  501  0.00000000000E+00  0.00000000000E+00 -0.69324572379E+03  0.69324572379E+03  0.25500000920E-02 0.  1.
    10030    2    1    2    0    0  0.00000000000E+00  0.00000000000E+00  0.88050734756E+03  0.22669987951E+04  0.20890165983E+04 0.  0.
        5    1    3    3  502    0 -0.77518684778E+03 -0.31041973812E+03 -0.24066045462E+03  0.86903084364E+03  0.46999998093E+01 0.  1.
       -5    1    3    3    0  502  0.77518684778E+03  0.31041973812E+03  0.11211678022E+04  0.13979679515E+04  0.46999998093E+01 0. -1.
</event>
<event>
 5   0  0.2859625E-05  0.2050073E+04  0.7818609E-02  0.8583561E-01
        4   -1    0    0  501    0  0.00000000000E+00  0.00000000000E+00  0.58608949359E+03  0.58609086957E+03  0.12699999809E+01 0. -1.
       -4   -1    0    0    0  501  0.00000000000E+00  0.00000000000E+00 -0.17927253188E+04  0.17927257687E+04  0.12699999809E+01 0.  1.
    10030    2    1    2    0    0  0.00000000000E+00  0.00000000000E+00 -0.12066358252E+04  0.23788166382E+04  0.20500728240E+04 0.  0.
        4    1    3    3  502    0 -0.64565471015E+03 -0.10035724445E+03 -0.15197477153E+04  0.16542600498E+04  0.12699999809E+01 0.  1.
       -4    1    3    3    0  502  0.64565471015E+03  0.10035724445E+03  0.31311189007E+03  0.72455658844E+03  0.12699999809E+01 0. -1.
</event>
<event>
 5   0  0.7935008E-05  0.2022064E+04  0.7818609E-02  0.8596374E-01
       -2   -1    0    0    0  501  0.00000000000E+00  0.00000000000E+00  0.95858836499E+03  0.95858836499E+03  0.25500000920E-02 0.  1.
        2   -1    0    0  501    0  0.00000000000E+00  0.00000000000E+00 -0.10663445410E+04  0.10663445410E+04  0.25500000920E-02 0. -1.
    10030    2    1    2    0    0  0.00000000000E+00  0.00000000000E+00 -0.10775617600E+03  0.20249329060E+04  0.20220637676E+04 0.  0.
        3    1    3    3  502    0  0.68815475905E+03 -0.25409790137E+03  0.64285529514E+03  0.97539000229E+03  0.10100000352E+00 0.  1.
       -3    1    3    3    0  502 -0.68815475905E+03  0.25409790137E+03 -0.75061147113E+03  0.10495429037E+04  0.10100000352E+00 0. -1.
</event>
<event>
 5   0  0.7857136E-05  0.1996542E+04  0.7818609E-02  0.8608239E-01
        2   -1    0    0  501    0  0.00000000000E+00  0.00000000000E+00  0.22494783198E+04  0.22494783198E+04  0.25500000920E-02 0.  1.
       -2   -1    0    0    0  501  0.00000000000E+00  0.00000000000E+00 -0.44301140791E+03  0.44301140792E+03  0.25500000920E-02 0. -1.
    10030    2    1    2    0    0  0.00000000000E+00  0.00000000000E+00  0.18064669119E+04  0.26924897278E+04  0.19965415674E+04 0.  0.
        4    1    3    3  502    0 -0.37234757690E+03 -0.82907283747E+03  0.34632108788E+03  0.97259672869E+03  0.12699999809E+01 0. -1.
       -4    1    3    3    0  502  0.37234757690E+03  0.82907283747E+03  0.14601458240E+04  0.17198929991E+04  0.12699999809E+01 0.  1.
</event>
<event>
 5   0  0.3549426E-05  0.2002505E+04  0.7818609E-02  0.8605450E-01
       -1   -1    0    0    0  501  0.00000000000E+00  0.00000000000E+00  0.71698733163E+03  0.71698733164E+03  0.50400001928E-02 0.  1.
        1   -1    0    0  501    0  0.00000000000E+00  0.00000000000E+00 -0.13982213716E+04  0.13982213716E+04  0.50400001928E-02 0. -1.
    10030    2    1    2    0    0  0.00000000000E+00  0.00000000000E+00 -0.68123404000E+03  0.21152087033E+04  0.20025054410E+04 0.  0.
        5    1    3    3  502    0  0.57284008966E+03 -0.34787508659E+03  0.44510426616E+03  0.80455126744E+03  0.46999998093E+01 0.  1.
       -5    1    3    3    0  502 -0.57284008966E+03  0.34787508659E+03 -0.11263383062E+04  0.13106574358E+04  0.46999998093E+01 0. -1.
</event>
<event>
 5   0  0.7935008E-05  0.1999686E+04  0.7818609E-02  0.8606768E-01
        2   -1    0    0  501    0  0.00000000000E+00  0.00000000000E+00  0.24140307182E+04  0.24140307182E+04  0.25500000920E-02 0.  1.
       -2   -1    0    0    0  501  0.00000000000E+00  0.00000000000E+00 -0.41411467165E+03  0.41411467166E+03  0.25500000920E-02 0. -1.
    10030    2    1    2    0    0  0.00000000000E+00  0.00000000000E+00  0.19999160465E+04  0.28281453898E+04  0.19996855135E+04 0.  0.
        3    1    3    3  502    0 -0.28487247586E+03 -0.95568166463E+03  0.89791532050E+03  0.13419134490E+04  0.10100000352E+00 0.  1.
       -3    1    3    3    0  502  0.28487247586E+03  0.95568166463E+03  0.11020007260E+04  0.14862319408E+04  0.10100000352E+00 0. -1.
</event>
<event>
 5   0  0.7857136E-05  0.1998323E+04  0.7818609E-02  0.8607405E-01
        2   -1    0    0  501    0  0.00000000000E+00  0.00000000000E+00  0.98341654348E+03  0.98341654348E+03  0.25500000920E-02 0.  1.
       -2   -1    0    0    0  501  0.00000000000E+00  0.00000000000E+00 -0.10151587954E+04  0.10151587954E+04  0.25500000920E-02 0. -1.
    10030    2    1    2    0    0  0.00000000000E+00  0.00000000000E+00 -0.31742251900E+02  0.19985753389E+04  0.19983232508E+04 0.  0.
        4    1    3    3  502    0 -0.25353944221E+03 -0.74642693856E+03  0.59811748289E+03  0.98953603250E+03  0.12699999809E+01 0. -1.
       -4    1    3    3    0  502  0.25353944221E+03  0.74642693856E+03 -0.62985973479E+03  0.10090393064E+04  0.12699999809E+01 0.  1.
</event>
<event>
 5   0  0.8022574E-05  0.1997507E+04  0.7818609E-02  0.8607787E-01
        2   -1    0    0  501    0  0.00000000000E+00  0.00000000000E+00  0.10074982374E+04  0.10074982374E+04  0.25500000920E-02 0. -1.
       -2   -1    0    0    0  501  0.00000000000E+00  0.00000000000E+00 -0.99008473708E+03  0.99008473708E+03  0.25500000920E-02 0.  1.
    10030    2    1    2    0    0  0.00000000000E+00  0.00000000000E+00  0.17413500270E+02  0.19975829744E+04  0.19975070738E+04 0.  0.
        1    1    3    3  502    0  0.67655409607E+03 -0.72735859121E+02  0.73982459088E+03  0.10051648499E+04  0.50400001928E-02 0. -1.
       -1    1    3    3    0  502 -0.67655409607E+03  0.72735859121E+02 -0.72241109061E+03  0.99241812457E+03  0.50400001928E-02 0.  1.
</event>
<event>
 5   0  0.3787698E-05  0.2005187E+04  0.7818609E-02  0.8604200E-01
        1   -1    0    0  501    0  0.00000000000E+00  0.00000000000E+00  0.11279928101E+04  0.11279928101E+04  0.50400001928E-02 0.  1.
       -1   -1    0    0    0  501  0.00000000000E+00  0.00000000000E+00 -0.89113464864E+03  0.89113464865E+03  0.50400001928E-02 0. -1.
    10030    2    1    2    0    0  0.00000000000E+00  0.00000000000E+00  0.23685816147E+03  0.20191274588E+04  0.20051867509E+04 0.  0.
        4    1    3    3  502    0  0.29696777976E+03 -0.44099857005E+02  0.10816658021E+04  0.11225583191E+04  0.12699999809E+01 0.  1.
       -4    1    3    3    0  502 -0.29696777976E+03  0.44099857005E+02 -0.84480764060E+03  0.89656913962E+03  0.12699999809E+01 0. -1.
</event>
<event>
 5   0  0.7935008E-05  0.1996078E+04  0.7818609E-02  0.8608456E-01
        2   -1    0    0  501    0  0.00000000000E+00  0.00000000000E+00  0.14370945396E+04  0.14370945396E+04  0.25500000920E-02 0. -1.
       -2   -1    0    0    0  501  0.00000000000E+00  0.00000000000E+00 -0.69312224041E+03  0.69312224041E+03  0.25500000920E-02 0.  1.
    10030    2    1    2    0    0  0.00000000000E+00  0.00000000000E+00  0.74397229923E+03  0.21302167800E+04  0.19960783421E+04 0.  0.
        3    1    3    3  502    0 -0.49684091556E+02 -0.31275671539E+03 -0.63808274631E+03  0.71234463099E+03  0.10100000352E+00 0.  1.
       -3    1    3    3    0  502  0.49684091556E+02  0.31275671539E+03  0.13820550455E+04  0.14178721491E+04  0.10100000352E+00 0. -1.
</event>
<event>
 5   0  0.8011197E-05  0.2005137E+04  0.7818609E-02  0.8604223E-01
       -2   -1    0    0    0  501  0.00000000000E+00  0.00000000000E+00  0.11994501316E+04  0.11994501316E+04  0.25500000920E-02 0.  1.
        2   -1    0    0  501    0  0.00000000000E+00  0.00000000000E+00 -0.83800342995E+03  0.83800342995E+03  0.25500000920E-02 0. -1.
    10030    2    1    2    0    0  0.00000000000E+00  0.00000000000E+00  0.36144670162E+03  0.20374535615E+04  0.20051367278E+04 0.  0.
        5    1    3    3  502    0 -0.91618038818E+03 -0.15917507334E+03 -0.20001289979E+03  0.95118371398E+03  0.46999998093E+01 0. -1.
       -5    1    3    3    0  502  0.91618038818E+03  0.15917507334E+03  0.56145960141E+03  0.10862698475E+04  0.46999998093E+01 0.  1.
</event>
<event>
 5   0  0.3970042E-05  0.2011393E+04  0.7818609E-02  0.8601313E-01
       -1   -1    0    0    0  501  0.00000000000E+00  0.00000000000E+00  0.58953606828E+03  0.58953606831E+03  0.50400001928E-02 0.  1.
        1   -1    0    0  501    0  0.00000000000E+00  0.00000000000E+00 -0.17156287362E+04  0.17156287362E+04  0.50400001928E-02 0. -1.
    10030    2    1    2    0    0  0.00000000000E+00  0.00000000000E+00 -0.11260926679E+04  0.23051648045E+04  0.20113925721E+04 0.  0.
        3    1    3    3  502    0  0.47002771364E+03 -0.88348781009E+03 -0.67735480799E+03  0.12084230668E+04  0.10100000352E+00 0. -1.
       -3    1    3    3    0  502 -0.47002771364E+03  0.88348781009E+03 -0.44873785990E+03  0.10967417377E+04  0.10100000352E+00 0.  1.
</event>
<event>
 5   0  0.2859625E-05  0.1991892E+04  0.7818609E-02  0.8610421E-01
       -3   -1    0    0    0  501  0.00000000000E+00  0.00000000000E+00  0.75574065713E+03  0.75574066387E+03  0.10100000352E+00 0.  1.
        3   -1    0    0  501    0  0.00000000000E+00  0.00000000000E+00 -0.13124985955E+04  0.13124985993E+04  0.10100000352E+00 0. -1.
    10030    2    1    2    0    0  0.00000000000E+00  0.00000000000E+00 -0.55675793833E+03  0.20682392632E+04  0.19918921276E+04 0.  0.
        5    1    3    3  502    0  0.20972266160E+03 -0.95874792306E+03 -0.45429928150E+03  0.10814763529E+04  0.46999998093E+01 0.  1.
       -5    1    3    3    0  502 -0.20972266160E+03  0.95874792306E+03 -0.10245865683E+03  0.98676291029E+03  0.46999998093E+01 0. -1.
</event>
<event>
 5   0  0.3787698E-05  0.1989481E+04  0.7818609E-02  0.8611554E-01
       -1   -1    0    0    0  501  0.00000000000E+00  0.00000000000E+00  0.95466521128E+03  0.95466521130E+03  0.50400001928E-02 0.  1.
        1   -1    0    0  501    0  0.00000000000E+00  0.00000000000E+00 -0.10364983284E+04  0.10364983284E+04  0.50400001928E-02 0. -1.
    10030    2    1    2    0    0  0.00000000000E+00  0.00000000000E+00 -0.81833117140E+02  0.19911635397E+04  0.19894812346E+04 0.  0.
        4    1    3    3  502    0  0.14207285740E+03  0.45139461589E+03  0.83478930435E+03  0.95959188805E+03  0.12699999809E+01 0.  1.
       -4    1    3    3    0  502 -0.14207285740E+03 -0.45139461589E+03 -0.91662242149E+03  0.10315716517E+04  0.12699999809E+01 0. -1.
</event>
<event>
 5   0  0.7857136E-05  0.1965316E+04  0.7818609E-02  0.8623011E-01
       -2   -1    0    0    0  501  0.00000000000E+00  0.00000000000E+00  0.49203383820E+03  0.49203383821E+03  0.25500000920E-02 0.  1.
        2   -1    0    0  501    0  0.00000000000E+00  0.00000000000E+00 -0.19624997085E+04  0.19624997085E+04  0.25500000920E-02 0. -1.
    10030    2    1    2    0    0  0.00000000000E+00  0.00000000000E+00 -0.14704658703E+04  0.24545335467E+04  0.19653155106E+04 0.  0.
        4    1    3    3  502    0 -0.68999435209E+03 -0.32306960634E+03  0.39854651466E+02  0.76292606628E+03  0.12699999809E+01 0.  1.
       -4    1    3    3    0  502  0.68999435209E+03  0.32306960634E+03 -0.15103205217E+04  0.16916074804E+04  0.12699999809E+01 0. -1.
</event>
<event>
 5   0  0.3970042E-05  0.1996868E+04  0.7818609E-02  0.8608086E-01
        1   -1    0    0  501    0  0.00000000000E+00  0.00000000000E+00  0.17312849809E+04  0.17312849809E+04  0.50400001928E-02 0.  1.
       -1   -1    0    0    0  501  0.00000000000E+00  0.00000000000E+00 -0.57579787337E+03  0.57579787340E+03  0.50400001928E-02 0. -1.
    10030    2    1    2    0    0  0.00000000000E+00  0.00000000000E+00  0.11554871075E+04  0.23070828543E+04  0.19968677575E+04 0.  0.
        3    1    3    3  502    0  0.72238280037E+03 -0.37640683527E+03  0.12448035367E+04  0.14876339842E+04  0.10100000352E+00 0.  1.
       -3    1    3    3    0  502 -0.72238280037E+03  0.37640683527E+03 -0.89316429176E+02  0.81944887005E+03  0.10100000352E+00 0. -1.
</event>
<event>
 5   0  0.8011197E-05  0.1995327E+04  0.7818609E-02  0.8608808E-01
        2   -1    0    0  501    0  0.00000000000E+00  0.00000000000E+00  0.16611760504E+04  0.16611760504E+04  0.25500000920E-02 0. -1.
       -2   -1    0    0    0  501  0.00000000000E+00  0.00000000000E+00 -0.59917350095E+03  0.59917350096E+03  0.25500000920E-02 0.  1.
    10030    2    1    2    0    0  0.00000000000E+00  0.00000000000E+00  0.10620025495E+04  0.22603495514E+04  0.19953272111E+04 0.  0.
        5    1    3    3  502    0 -0.43729060518E+03  0.87253304748E+03  0.76528888304E+03  0.12402524569E+04  0.46999998093E+01 0. -1.
       -5    1    3    3    0  502  0.43729060518E+03 -0.87253304748E+03  0.29671366642E+03  0.10200970945E+04  0.46999998093E+01 0.  1.
</event>
<event>
 5   0  0.7843846E-05  0.1986156E+04  0.7818609E-02  0.8613120E-01
        2   -1    0    0  501    0  0.00000000000E+00  0.00000000000E+00  0.11204565347E+04  0.11204565347E+04  0.25500000920E-02 0. -1.
       -2   -1    0    0    0  501  0.00000000000E+00  0.00000000000E+00 -0.88018073748E+03  0.88018073748E+03  0.25500000920E-02 0.  1.
    10030    2    1    2    0    0  0.00000000000E+00  0.00000000000E+00  0.24027579727E+03  0.20006372722E+04  0.19861563474E+04 0.  0.
        2    1    3    3  502    0 -0.13156967608E+03 -0.84147713879E+03  0.63455685367E+03  0.10621001626E+04  0.25500000920E-02 0. -1.
       -2    1    3    3    0  502  0.13156967608E+03  0.84147713879E+03 -0.39428105640E+03  0.93853710966E+03  0.25500000920E-02 0.  1.
</event>
<event>
 5   0  0.8011197E-05  0.1979180E+04  0.7818609E-02  0.8616417E-01
       -2   -1    0    0    0  501  0.00000000000E+00  0.00000000000E+00  0.64851368226E+03  0.64851368226E+03  0.25500000920E-02 0.  1.
        2   -1    0    0  501    0  0.00000000000E+00  0.00000000000E+00 -0.15100501101E+04  0.15100501101E+04  0.25500000920E-02 0. -1.
    10030    2    1    2    0    0  0.00000000000E+00  0.00000000000E+00 -0.86153642788E+03  0.21585637924E+04  0.19791797870E+04 0.  0.
        5    1    3    3  502    0  0.57117222194E+03  0.80353284790E+03 -0.52435543549E+03  0.11166348810E+04  0.46999998093E+01 0. -1.
       -5    1    3    3    0  502 -0.57117222194E+03 -0.80353284790E+03 -0.33718099239E+03  0.10419289114E+04  0.46999998093E+01 0.  1.
</event>
<event>
 5   0  0.3549426E-05  0.1995618E+04  0.7818609E-02  0.8608672E-01
        1   -1    0    0  501    0  0.00000000000E+00  0.00000000000E+00  0.15217942472E+04  0.15217942472E+04  0.50400001928E-02 0.  1.
       -1   -1    0    0    0  501  0.00000000000E+00  0.00000000000E+00 -0.65424285199E+03  0.65424285201E+03  0.50400001928E-02 0. -1.
    10030    2    1    2    0    0  0.00000000000E+00  0.00000000000E+00  0.86755139518E+03  0.21760370992E+04  0.19956182084E+04 0.  0.
        5    1    3    3  502    0 -0.11159688346E+02  0.74995329181E+03 -0.28378075438E+03  0.80194020045E+03  0.46999998093E+01 0. -1.
       -5    1    3    3    0  502  0.11159688346E+02 -0.74995329181E+03  0.11513321496E+04  0.13740968987E+04  0.46999998093E+01 0.  1.
</event>
<event>
 5   0  0.3787698E-05  0.2006231E+04  0.7818609E-02  0.8603713E-01
        1   -1    0    0  501    0  0.00000000000E+00  0.00000000000E+00  0.92301254341E+03  0.92301254342E+03  0.50400001928E-02 0. -1.
       -1   -1    0    0    0  501  0.00000000000E+00  0.00000000000E+00 -0.10901705071E+04  0.10901705071E+04  0.50400001928E-02 0.  1.
    10030    2    1    2    0    0  0.00000000000E+00  0.00000000000E+00 -0.16715796367E+03  0.20131830505E+04  0.20062313451E+04 0.  0.
        4    1    3    3  502    0  0.38310023612E+03  0.85264297793E+03 -0.44880938655E+03  0.10369172180E+04  0.12699999809E+01 0.  1.
       -4    1    3    3    0  502 -0.38310023612E+03 -0.85264297793E+03  0.28165142287E+03  0.97626583246E+03  0.12699999809E+01 0. -1.
</event>
<event>
 5   0  0.7935008E-05  0.1999211E+04  0.7818609E-02  0.8606989E-01
        2   -1    0    0  501    0  0.00000000000E+00  0.00000000000E+00  0.26141815643E+04  0.26141815643E+04  0.25500000920E-02 0. -1.
       -2   -1    0    0    0  501  0.00000000000E+00  0.00000000000E+00 -0.38222733274E+03  0.38222733275E+03  0.25500000920E-02 0.  1.
    10030    2    1    2    0    0  0.00000000000E+00  0.00000000000E+00  0.22319542316E+04  0.29964088971E+04  0.19992114912E+04 0.  0.
        3    1    3    3  502    0 -0.80833930687E+03 -0.35514276544E+03  0.18184515104E+04  0.20214610372E+04  0.10100000352E+00 0. -1.
       -3    1    3    3    0  502  0.80833930687E+03  0.35514276544E+03  0.41350272112E+03  0.97494785986E+03  0.10100000352E+00 0.  1.
</event>
<event>
 5   0  0.3772949E-05  0.2001883E+04  0.7818609E-02  0.8605741E-01
        1   -1    0    0  501    0  0.00000000000E+00  0.00000000000E+00  0.13005323626E+04  0.13005323626E+04  0.50400001928E-02 0.  1.
       -1   -1    0    0    0  501  0.00000000000E+00  0.00000000000E+00 -0.77036468439E+03  0.77036468440E+03  0.50400001928E-02 0. -1.
    10030    2    1    2    0    0  0.00000000000E+00  0.00000000000E+00  0.53016767823E+03  0.20708970470E+04  0.20018833164E+04 0.  0.
        2    1    3    3  502    0 -0.14180086898E+03  0.67000325563E+03  0.10202305641E+04  0.12287726612E+04  0.25500000920E-02 0.  1.
       -2    1    3    3    0  502  0.14180086898E+03 -0.67000325563E+03 -0.49006288590E+03  0.84212438579E+03  0.25500000920E-02 0. -1.
</event>
<event>
 5   0  0.7857136E-05  0.2118625E+04  0.7818609E-02  0.8553083E-01
        2   -1    0    0  501    0  0.00000000000E+00  0.00000000000E+00  0.12668731769E+04  0.12668731769E+04  0.25500000920E-02 0. -1.
       -2   -1    0    0    0  501  0.00000000000E+00  0.00000000000E+00 -0.88575789452E+03  0.88575789453E+03  0.25500000920E-02 0.  1.
    10030    2    1    2    0    0  0.00000000000E+00  0.00000000000E+00  0.38111528239E+03  0.21526310714E+04  0.21186249482E+04 0.  0.
        4    1    3    3  502    0 -0.58976029221E+03  0.53766142210E+02 -0.70185294779E+03  0.91831757772E+03  0.12699999809E+01 0.  1.
       -4    1    3    3    0  502  0.58976029221E+03 -0.53766142210E+02  0.10829682302E+04  0.12343134937E+04  0.12699999809E+01 0. -1.
</event>
<event>
 5   0  0.3787698E-05  0.1995713E+04  0.7818609E-02  0.8608628E-01
       -1   -1    0    0    0  501  0.00000000000E+00  0.00000000000E+00  0.62798782468E+03  0.62798782470E+03  0.50400001928E-02 0. -1.
        1   -1    0    0  501    0  0.00000000000E+00  0.00000000000E+00 -0.15855676246E+04  0.15855676246E+04  0.50400001928E-02 0.  1.
    10030    2    1    2    0    0  0.00000000000E+00  0.00000000000E+00 -0.95757979988E+03  0.22135554493E+04  0.19957125679E+04 0.  0.
        4    1    3    3  502    0  0.27685567480E+02 -0.32795867888E+03 -0.15236309046E+04  0.15587739195E+04  0.12699999809E+01 0.  1.
       -4    1    3    3    0  502 -0.27685567480E+02  0.32795867888E+03  0.56605110472E+03  0.65478152979E+03  0.12699999809E+01 0. -1.
</event>
<event>
 5   0  0.3818907E-05  0.1996989E+04  0.7818609E-02  0.8608029E-01
       -1   -1    0    0    0  501  0.00000000000E+00  0.00000000000E+00  0.94671460036E+03  0.94671460038E+03  0.50400001928E-02 0. -1.
        1   -1    0    0  501    0  0.00000000000E+00  0.00000000000E+00 -0.10531069526E+04  0.10531069526E+04  0.50400001928E-02 0.  1.
    10030    2    1    2    0    0  0.00000000000E+00  0.00000000000E+00 -0.10639235221E+03  0.19998215530E+04  0.19969894619E+04 0.  0.
        1    1    3    3  502    0 -0.75694849047E+03 -0.64339682483E+03 -0.15364414195E+03  0.10052547010E+04  0.50400001928E-02 0. -1.
       -1    1    3    3    0  502  0.75694849047E+03  0.64339682483E+03  0.47251789740E+02  0.99456685200E+03  0.50400001928E-02 0.  1.
</event>
<event>
 5   0  0.3549426E-05  0.1998668E+04  0.7818609E-02  0.8607244E-01
        1   -1    0    0  501    0  0.00000000000E+00  0.00000000000E+00  0.10179877544E+04  0.10179877544E+04  0.50400001928E-02 0.  1.
       -1   -1    0    0    0  501  0.00000000000E+00  0.00000000000E+00 -0.98102157245E+03  0.98102157247E+03  0.50400001928E-02 0. -1.
    10030    2    1    2    0    0  0.00000000000E+00  0.00000000000E+00  0.36966181914E+02  0.19990093268E+04  0.19986675037E+04 0.  0.
        5    1    3    3  502    0  0.69381490812E+03 -0.21684348321E+03 -0.66737877297E+03  0.98682153379E+03  0.46999998093E+01 0.  1.
       -5    1    3    3    0  502 -0.69381490812E+03  0.21684348321E+03  0.70434495489E+03  0.10121877931E+04  0.46999998093E+01 0. -1.
</event>
<event>
 5   0  0.3970042E-05  0.1940512E+04  0.7818609E-02  0.8634950E-01
        1   -1    0    0  501    0  0.00000000000E+00  0.00000000000E+00  0.17817797174E+04  0.17817797174E+04  0.50400001928E-02 0. -1.
       -1   -1    0    0    0  501  0.00000000000E+00  0.00000000000E+00 -0.52834641489E+03  0.52834641491E+03  0.50400001928E-02 0.  1.
    10030    2    1    2    0    0  0.00000000000E+00  0.00000000000E+00  0.12534333025E+04  0.23101261323E+04  0.19405122270E+04 0.  0.
        3    1    3    3  502    0 -0.44707774946E+03 -0.43865661597E+03 -0.25543763110E+03  0.67642186125E+03  0.10100000352E+00 0.  1.
       -3    1    3    3    0  502  0.44707774946E+03  0.43865661597E+03  0.15088709336E+04  0.16337042710E+04  0.10100000352E+00 0. -1.
</event>
<event>
 5   0  0.7843846E-05  0.2007730E+04  0.7818609E-02  0.8603015E-01
        2   -1    0    0  501    0  0.00000000000E+00  0.00000000000E+00  0.72662275474E+03  0.72662275474E+03  0.25500000920E-02 0.  1.
       -2   -1    0    0    0  501  0.00000000000E+00  0.00000000000E+00 -0.13868893348E+04  0.13868893348E+04  0.25500000920E-02 0. -1.
    10030    2    1    2    0    0  0.00000000000E+00  0.00000000000E+00 -0.66026658010E+03  0.21135120896E+04  0.20077304092E+04 0.  0.
        2    1    3    3  502    0 -0.83224316791E+03  0.31683513179E+03  0.15767354759E+03  0.90436394161E+03  0.25500000920E-02 0.  1.
       -2    1    3    3    0  502  0.83224316791E+03 -0.31683513179E+03 -0.81794012769E+03  0.12091481480E+04  0.25500000920E-02 0. -1.
</event>
<event>
 5   0  0.3787698E-05  0.1994831E+04  0.7818609E-02  0.8609041E-01
        1   -1    0    0  501    0  0.00000000000E+00  0.00000000000E+00  0.10665453191E+04  0.10665453191E+04  0.50400001928E-02 0. -1.
       -1   -1    0    0    0  501  0.00000000000E+00  0.00000000000E+00 -0.93276660227E+03  0.93276660228E+03  0.50400001928E-02 0.  1.
    10030    2    1    2    0    0  0.00000000000E+00  0.00000000000E+00  0.13377871685E+03  0.19993119214E+04  0.19948311743E+04 0.  0.
        4    1    3    3  502    0 -0.87559060061E+03  0.40361493729E+03 -0.18916899243E+03  0.98252248731E+03  0.12699999809E+01 0.  1.
       -4    1    3    3    0  502  0.87559060061E+03 -0.40361493729E+03  0.32294770928E+03  0.10167894341E+04  0.12699999809E+01 0. -1.
</event>
<event>
 5   0  0.7935008E-05  0.2002516E+04  0.7818609E-02  0.8605445E-01
        2   -1    0    0  501    0  0.00000000000E+00  0.00000000000E+00  0.10230683271E+04  0.10230683271E+04  0.25500000920E-02 0.  1.
       -2   -1    0    0    0  501  0.00000000000E+00  0.00000000000E+00 -0.97991305588E+03  0.97991305589E+03  0.25500000920E-02 0. -1.
    10030    2    1    2    0    0  0.00000000000E+00  0.00000000000E+00  0.43155271231E+02  0.20029813830E+04  0.20025164277E+04 0.  0.
        3    1    3    3  502    0 -0.33636338895E+03  0.67738812586E+03 -0.63471722474E+03  0.98735047884E+03  0.10100000352E+00 0. -1.
       -3    1    3    3    0  502  0.33636338895E+03 -0.67738812586E+03  0.67787249597E+03  0.10156309042E+04  0.10100000352E+00 0.  1.
</event>
<event>
 5   0  0.7857136E-05  0.1984190E+04  0.7818609E-02  0.8614048E-01
       -2   -1    0    0    0  501  0.00000000000E+00  0.00000000000E+00  0.71943167794E+03  0.71943167795E+03  0.25500000920E-02 0. -1.
        2   -1    0    0  501    0  0.00000000000E+00  0.00000000000E+00 -0.13680978819E+04  0.13680978819E+04  0.25500000920E-02 0.  1.
    10030    2    1    2    0    0  0.00000000000E+00  0.00000000000E+00 -0.64866620399E+03  0.20875295599E+04  0.19841904695E+04 0.  0.
        4    1    3    3  502    0  0.42259620900E+03  0.87861469112E+03 -0.13119663032E+03  0.98375073064E+03  0.12699999809E+01 0. -1.
       -4    1    3    3    0  502 -0.42259620900E+03 -0.87861469112E+03 -0.51746957367E+03  0.11037788292E+04  0.12699999809E+01 0.  1.
</event>
<event>
 5   0  0.3818907E-05  0.2007633E+04  0.7818609E-02  0.8603060E-01
       -1   -1    0    0    0  501  0.00000000000E+00  0.00000000000E+00  0.12518612942E+04  0.12518612942E+04  0.50400001928E-02 0. -1.
        1   -1    0    0  501    0  0.00000000000E+00  0.00000000000E+00 -0.80491973575E+03  0.80491973577E+03  0.50400001928E-02 0.  1.
    10030    2    1    2    0    0  0.00000000000E+00  0.00000000000E+00  0.44694155847E+03  0.20567810300E+04  0.20076332954E+04 0.  0.
        1    1    3    3  502    0 -0.52193395307E+03  0.83039796165E+03  0.45288931487E+01  0.98081411948E+03  0.50400001928E-02 0.  1.
       -1    1    3    3    0  502  0.52193395307E+03 -0.83039796165E+03  0.44241266532E+03  0.10759669105E+04  0.50400001928E-02 0. -1.
</event>
<event>
 5   0  0.8011197E-05  0.1980718E+04  0.7818609E-02  0.8615689E-01
        2   -1    0    0  501    0  0.00000000000E+00  0.00000000000E+00  0.10588312898E+04  0.10588312898E+04  0.25500000920E-02 0. -1.
       -2   -1    0    0    0  501  0.00000000000E+00  0.00000000000E+00 -0.92631498784E+03  0.92631498785E+03  0.25500000920E-02 0.  1.
    10030    2    1    2    0    0  0.00000000000E+00  0.00000000000E+00  0.13251630200E+03  0.19851462777E+04  0.19807183479E+04 0.  0.
        5    1    3    3  502    0  0.75240219535E+03 -0.63599492509E+03 -0.34915998453E+02  0.98581936745E+03  0.46999998093E+01 0.  1.
       -5    1    3    3    0  502 -0.75240219535E+03  0.63599492509E+03  0.16743230045E+03  0.99932691024E+03  0.46999998093E+01 0. -1.
</event>
<event>
 5   0  0.2859625E-05  0.1940464E+04  0.7818609E-02  0.8634973E-01
       -3   -1    0    0    0  501  0.00000000000E+00  0.00000000000E+00  0.10194880088E+04  0.10194880138E+04  0.10100000352E+00 0. -1.
        3   -1    0    0  501    0  0.00000000000E+00  0.00000000000E+00 -0.92335555404E+03  0.92335555956E+03  0.10100000352E+00 0.  1.
    10030    2    1    2    0    0  0.00000000000E+00  0.00000000000E+00  0.96132454798E+02  0.19428435734E+04  0.19404637852E+04 0.  0.
        3    1    3    3  502    0 -0.36150904510E+03  0.34743711157E+03  0.87971634919E+03  0.10125720722E+04  0.10100000352E+00 0. -1.
       -3    1    3    3    0  502  0.36150904510E+03 -0.34743711157E+03 -0.78358389439E+03  0.93027150119E+03  0.10100000352E+00 0.  1.
</event>
<event>
 5   0  0.8022574E-05  0.1947038E+04  0.7818609E-02  0.8631790E-01
        2   -1    0    0  501    0  0.00000000000E+00  0.00000000000E+00  0.18806404166E+04  0.18806404166E+04  0.25500000920E-02 0.  1.
       -2   -1    0    0    0  501  0.00000000000E+00  0.00000000000E+00 -0.50394515357E+03  0.50394515357E+03  0.25500000920E-02 0. -1.
    10030    2    1    2    0    0  0.00000000000E+00  0.00000000000E+00  0.13766952630E+04  0.23845855702E+04  0.19470383905E+04 0.  0.
        1    1    3    3  502    0 -0.30314688812E+03 -0.60489311229E+03 -0.16891218179E+03  0.69737008701E+03  0.50400001928E-02 0. -1.
       -1    1    3    3    0  502  0.30314688812E+03  0.60489311229E+03  0.15456074448E+04  0.16872154831E+04  0.50400001928E-02 0.  1.
</event>
<event>
 5   0  0.7935008E-05  0.2014480E+04  0.7818609E-02  0.8599880E-01
       -2   -1    0    0    0  501  0.00000000000E+00  0.00000000000E+00  0.81492430925E+03  0.81492430926E+03  0.25500000920E-02 0. -1.
        2   -1    0    0  501    0  0.00000000000E+00  0.00000000000E+00 -0.12449411153E+04  0.12449411153E+04  0.25500000920E-02 0.  1.
    10030    2    1    2    0    0  0.00000000000E+00  0.00000000000E+00 -0.43001680609E+03  0.20598654246E+04  0.20144803583E+04 0.  0.
        3    1    3    3  502    0  0.65158283511E+02  0.10050012516E+04 -0.19853169152E+03  0.10264930396E+04  0.10100000352E+00 0.  1.
       -3    1    3    3    0  502 -0.65158283511E+02 -0.10050012516E+04 -0.23148511457E+03  0.10333723850E+04  0.10100000352E+00 0. -1.
</event>
<event>
 5   0  0.3818907E-05  0.1953227E+04  0.7818609E-02  0.8628806E-01
       -1   -1    0    0    0  501  0.00000000000E+00  0.00000000000E+00  0.64740666547E+03  0.64740666549E+03  0.50400001928E-02 0. -1.
        1   -1    0    0  501    0  0.00000000000E+00  0.00000000000E+00 -0.14732224829E+04  0.14732224829E+04  0.50400001928E-02 0.  1.
    10030    2    1    2    0    0  0.00000000000E+00  0.00000000000E+00 -0.82581581741E+03  0.21206291484E+04  0.19532271298E+04 0.  0.
        1    1    3    3  502    0  0.53621141834E+02 -0.34418527837E+03 -0.14034826023E+04  0.14460643649E+04  0.50400001928E-02 0.  1.
       -1    1    3    3    0  502 -0.53621141834E+02  0.34418527837E+03  0.57766678485E+03  0.67456478343E+03  0.50400001928E-02 0. -1.
</event>
<event>
 5   0  0.3772949E-05  0.1988874E+04  0.7818609E-02  0.8611840E-01
       -1   -1    0    0    0  501  0.00000000000E+00  0.00000000000E+00  0.75612821631E+03  0.75612821633E+03  0.50400001928E-02 0.  1.
        1   -1    0    0  501    0  0.00000000000E+00  0.00000000000E+00 -0.13078538554E+04  0.13078538554E+04  0.50400001928E-02 0. -1.
    10030    2    1    2    0    0  0.00000000000E+00  0.00000000000E+00 -0.55172563911E+03  0.20639820718E+04  0.19888742574E+04 0.  0.
        2    1    3    3  502    0  0.71137429184E+02 -0.30609710427E+03 -0.12549694795E+04  0.12937172665E+04  0.25500000920E-02 0. -1.
       -2    1    3    3    0  502 -0.71137429184E+02  0.30609710427E+03  0.70324384044E+03  0.77026480525E+03  0.25500000920E-02 0.  1.
</event>
<event>
 5   0  0.8022574E-05  0.2002305E+04  0.7818609E-02  0.8605544E-01
       -2   -1    0    0    0  501  0.00000000000E+00  0.00000000000E+00  0.86563752857E+03  0.86563752858E+03  0.25500000920E-02 0.  1.
        2   -1    0    0  501    0  0.00000000000E+00  0.00000000000E+00 -0.11578821036E+04  0.11578821036E+04  0.25500000920E-02 0. -1.
    10030    2    1    2    0    0  0.00000000000E+00  0.00000000000E+00 -0.29224457499E+03  0.20235196321E+04  0.20023048744E+04 0.  0.
        1    1    3    3  502    0  0.85913408469E+03 -0.50386628053E+03 -0.43490397826E+02  0.99693731942E+03  0.50400001928E-02 0.  1.
       -1    1    3    3    0  502 -0.85913408469E+03  0.50386628053E+03 -0.24875417717E+03  0.10265823127E+04  0.50400001928E-02 0. -1.
</event>
<event>
 5   0  0.7935008E-05  0.1969482E+04  0.7818609E-02  0.8621023E-01
       -2   -1    0    0    0  501  0.00000000000E+00  0.00000000000E+00  0.62326338438E+03  0.62326338438E+03  0.25500000920E-02 0. -1.
        2   -1    0    0  501    0  0.00000000000E+00  0.00000000000E+00 -0.15558671395E+04  0.15558671395E+04  0.25500000920E-02 0.  1.
    10030    2    1    2    0    0  0.00000000000E+00  0.00000000000E+00 -0.93260375513E+03  0.21791305239E+04  0.19694821848E+04 0.  0.
        3    1    3    3  502    0  0.70537454359E+02 -0.82555530286E+03 -0.10551132855E+04  0.13415592220E+04  0.10100000352E+00 0.  1.
       -3    1    3    3    0  502 -0.70537454359E+02  0.82555530286E+03  0.12250953041E+03  0.83757130192E+03  0.10100000352E+00 0. -1.
</event>
<event>
 5   0  0.3549426E-05  0.1771445E+04  0.7818609E-02  0.8721634E-01
       -1   -1    0    0    0  501  0.00000000000E+00  0.00000000000E+00  0.13481952930E+04  0.13481952930E+04  0.50400001928E-02 0.  1.
        1   -1    0    0  501    0  0.00000000000E+00  0.00000000000E+00 -0.58189227140E+03  0.58189227142E+03  0.50400001928E-02 0. -1.
    10030    2    1    2    0    0  0.00000000000E+00  0.00000000000E+00  0.76630302157E+03  0.19300875644E+04  0.17714450839E+04 0.  0.
        5    1    3    3  502    0  0.82902274955E+03  0.30772581531E+03  0.32858191762E+03  0.94337800656E+03  0.46999998093E+01 0.  1.
       -5    1    3    3    0  502 -0.82902274955E+03 -0.30772581531E+03  0.43772110395E+03  0.98670955783E+03  0.46999998093E+01 0. -1.
</event>
<event>
 5   0  0.7935008E-05  0.2003314E+04  0.7818609E-02  0.8605073E-01
       -2   -1    0    0    0  501  0.00000000000E+00  0.00000000000E+00  0.86295449971E+03  0.86295449971E+03  0.25500000920E-02 0. -1.
        2   -1    0    0  501    0  0.00000000000E+00  0.00000000000E+00 -0.11626528348E+04  0.11626528348E+04  0.25500000920E-02 0.  1.
    10030    2    1    2    0    0  0.00000000000E+00  0.00000000000E+00 -0.29969833511E+03  0.20256073345E+04  0.20033137502E+04 0.  0.
        3    1    3    3  502    0 -0.29297668199E+02  0.80897088371E+03  0.44665164083E+03  0.92454850739E+03  0.10100000352E+00 0. -1.
       -3    1    3    3    0  502  0.29297668199E+02 -0.80897088371E+03 -0.74634997594E+03  0.11010588271E+04  0.10100000352E+00 0.  1.
</event>
<event>
 5   0  0.3772949E-05  0.2012157E+04  0.7818609E-02  0.8600958E-01
        1   -1    0    0  501    0  0.00000000000E+00  0.00000000000E+00  0.17648504437E+04  0.17648504437E+04  0.50400001928E-02 0.  1.
       -1   -1    0    0    0  501  0.00000000000E+00  0.00000000000E+00 -0.57352943997E+03  0.57352943999E+03  0.50400001928E-02 0. -1.
    10030    2    1    2    0    0  0.00000000000E+00  0.00000000000E+00  0.11913210038E+04  0.23383798837E+04  0.20121567401E+04 0.  0.
        2    1    3    3  502    0 -0.30556029933E+03  0.53986730048E+03 -0.32482105981E+03  0.70023747369E+03  0.25500000920E-02 0. -1.
       -2    1    3    3    0  502  0.30556029933E+03 -0.53986730048E+03  0.15161420636E+04  0.16381424100E+04  0.25500000920E-02 0.  1.
</event>
<event>
 5   0  0.3787698E-05  0.1995641E+04  0.7818609E-02  0.8608661E-01
       -1   -1    0    0    0  501  0.00000000000E+00  0.00000000000E+00  0.99711389733E+03  0.99711389735E+03  0.50400001928E-02 0. -1.
        1   -1    0    0  501    0  0.00000000000E+00  0.00000000000E+00 -0.99852741856E+03  0.99852741857E+03  0.50400001928E-02 0.  1.
    10030    2    1    2    0    0  0.00000000000E+00  0.00000000000E+00 -0.14135212259E+01  0.19956413159E+04  0.19956408153E+04 0.  0.
        4    1    3    3  502    0  0.61075654162E+03  0.55424986613E+03 -0.56233621501E+03  0.99821846249E+03  0.12699999809E+01 0.  1.
       -4    1    3    3    0  502 -0.61075654162E+03 -0.55424986613E+03  0.56092269379E+03  0.99742285343E+03  0.12699999809E+01 0. -1.
</event>
<event>
 5   0  0.7935008E-05  0.2005153E+04  0.7818609E-02  0.8604215E-01
       -2   -1    0    0    0  501  0.00000000000E+00  0.00000000000E+00  0.48113073207E+03  0.48113073207E+03  0.25500000920E-02 0. -1.
        2   -1    0    0  501    0  0.00000000000E+00  0.00000000000E+00 -0.20891611321E+04  0.20891611321E+04  0.25500000920E-02 0.  1.
    10030    2    1    2    0    0  0.00000000000E+00  0.00000000000E+00 -0.16080304000E+04  0.25702918642E+04  0.20051529866E+04 0.  0.
        3    1    3    3  502    0 -0.69311900771E+03 -0.47813271594E+03 -0.15015720746E+04  0.17215526592E+04  0.10100000352E+00 0.  1.
       -3    1    3    3    0  502  0.69311900771E+03  0.47813271594E+03 -0.10645832548E+03  0.84873920504E+03  0.10100000352E+00 0. -1.
</event>
<event>
 5   0  0.3970042E-05  0.1978479E+04  0.7818609E-02  0.8616749E-01
       -1   -1    0    0    0  501  0.00000000000E+00  0.00000000000E+00  0.94006380718E+03  0.94006380719E+03  0.50400001928E-02 0.  1.
        1   -1    0    0  501    0  0.00000000000E+00  0.00000000000E+00 -0.10409877821E+04  0.10409877821E+04  0.50400001928E-02 0. -1.
    10030    2    1    2    0    0  0.00000000000E+00  0.00000000000E+00 -0.10092397493E+03  0.19810515893E+04  0.19784791510E+04 0.  0.
        3    1    3    3  502    0 -0.60052462834E+03  0.59063155776E+03 -0.56990374533E+03  0.10169885719E+04  0.10100000352E+00 0. -1.
       -3    1    3    3    0  502  0.60052462834E+03 -0.59063155776E+03  0.46897977040E+03  0.96406301740E+03  0.10100000352E+00 0.  1.
</event>
<event>
 5   0  0.3818907E-05  0.1991744E+04  0.7818609E-02  0.8610490E-01
       -1   -1    0    0    0  501  0.00000000000E+00  0.00000000000E+00  0.12479297777E+04  0.12479297777E+04  0.50400001928E-02 0. -1.
        1   -1    0    0  501    0  0.00000000000E+00  0.00000000000E+00 -0.79472516927E+03  0.79472516929E+03  0.50400001928E-02 0.  1.
    10030    2    1    2    0    0  0.00000000000E+00  0.00000000000E+00  0.45320460843E+03  0.20426549470E+04  0.19917441641E+04 0.  0.
        1    1    3    3  502    0  0.28113663952E+03  0.58167977703E+03 -0.55064298519E+03  0.84887977373E+03  0.50400001928E-02 0.  1.
       -1    1    3    3    0  502 -0.28113663952E+03 -0.58167977703E+03  0.10038475936E+04  0.11937751733E+04  0.50400001928E-02 0. -1.
</event>
<event>
 5   0  0.3787698E-05  0.2010901E+04  0.7818609E-02  0.8601541E-01
       -1   -1    0    0    0  501  0.00000000000E+00  0.00000000000E+00  0.13043804200E+04  0.13043804200E+04  0.50400001928E-02 0.  1.
        1   -1    0    0  501    0  0.00000000000E+00  0.00000000000E+00 -0.77502783313E+03  0.77502783315E+03  0.50400001928E-02 0. -1.
    10030    2    1    2    0    0  0.00000000000E+00  0.00000000000E+00  0.52935258684E+03  0.20794082531E+04  0.20109014203E+04 0.  0.
        4    1    3    3  502    0  0.17606200135E+03  0.61004976792E+03  0.10708320483E+04  0.12449262774E+04  0.12699999809E+01 0.  1.
       -4    1    3    3    0  502 -0.17606200135E+03 -0.61004976792E+03 -0.54147946148E+03  0.83448197569E+03  0.12699999809E+01 0. -1.
</event>
<event>
 5   0  0.7843846E-05  0.2009227E+04  0.7818609E-02  0.8602319E-01
        2   -1    0    0  501    0  0.00000000000E+00  0.00000000000E+00  0.10751215473E+04  0.10751215473E+04  0.25500000920E-02 0.  1.
       -2   -1    0    0    0  501  0.00000000000E+00  0.00000000000E+00 -0.93872946823E+03  0.93872946823E+03  0.25500000920E-02 0. -1.
    10030    2    1    2    0    0  0.00000000000E+00  0.00000000000E+00  0.13639207910E+03  0.20138510156E+04  0.20092269941E+04 0.  0.
        2    1    3    3  502    0  0.22072935336E+03 -0.48970080057E+03 -0.78271000359E+03  0.94929619785E+03  0.25500000920E-02 0. -1.
       -2    1    3    3    0  502 -0.22072935336E+03  0.48970080057E+03  0.91910208269E+03  0.10645548177E+04  0.25500000920E-02 0.  1.
</event>
<event>
 5   0  0.7843846E-05  0.1947595E+04  0.7818609E-02  0.8631521E-01
        2   -1    0    0  501    0  0.00000000000E+00  0.00000000000E+00  0.18129013256E+04  0.18129013256E+04  0.25500000920E-02 0. -1.
       -2   -1    0    0    0  501  0.00000000000E+00  0.00000000000E+00 -0.52307406915E+03  0.52307406916E+03  0.25500000920E-02 0.  1.
    10030    2    1    2    0    0  0.00000000000E+00  0.00000000000E+00  0.12898272564E+04  0.23359753948E+04  0.19475951051E+04 0.  0.
        2    1    3    3  502    0  0.72681303715E+03  0.53139104909E+03  0.19991917451E+03  0.92228049658E+03  0.25500000920E-02 0. -1.
       -2    1    3    3    0  502 -0.72681303715E+03 -0.53139104909E+03  0.10899080819E+04  0.14136948982E+04  0.25500000920E-02 0.  1.
</event>
<event>
 5   0  0.7843846E-05  0.2003296E+04  0.7818609E-02  0.8605081E-01
       -2   -1    0    0    0  501  0.00000000000E+00  0.00000000000E+00  0.10743542625E+04  0.10743542625E+04  0.25500000920E-02 0.  1.
        2   -1    0    0  501    0  0.00000000000E+00  0.00000000000E+00 -0.93386226173E+03  0.93386226174E+03  0.25500000920E-02 0. -1.
    10030    2    1    2    0    0  0.00000000000E+00  0.00000000000E+00  0.14049200073E+03  0.20082165242E+04  0.20032961852E+04 0.  0.
        2    1    3    3  502    0  0.83952129653E+03  0.50890429899E+03  0.26952890343E+03  0.10180498134E+04  0.25500000920E-02 0. -1.
       -2    1    3    3    0  502 -0.83952129653E+03 -0.50890429899E+03 -0.12903690270E+03  0.99016671077E+03  0.25500000920E-02 0.  1.
</event>
<event>
 5   0  0.3772949E-05  0.2015867E+04  0.7818609E-02  0.8599238E-01
       -1   -1    0    0    0  501  0.00000000000E+00  0.00000000000E+00  0.68627274228E+03  0.68627274230E+03  0.50400001928E-02 0. -1.
        1   -1    0    0  501    0  0.00000000000E+00  0.00000000000E+00 -0.14803583888E+04  0.14803583888E+04  0.50400001928E-02 0.  1.
    10030    2    1    2    0    0  0.00000000000E+00  0.00000000000E+00 -0.79408564653E+03  0.21666311311E+04  0.20158666732E+04 0.  0.
        2    1    3    3  502    0  0.77758031619E+03  0.42761638689E+03  0.11665982586E+03  0.89503990830E+03  0.25500000920E-02 0. -1.
       -2    1    3    3    0  502 -0.77758031619E+03 -0.42761638689E+03 -0.91074547239E+03  0.12715912228E+04  0.25500000920E-02 0.  1.
</event>
<event>
 5   0  0.3787698E-05  0.1996497E+04  0.7818609E-02  0.8608260E-01
        1   -1    0    0  501    0  0.00000000000E+00  0.00000000000E+00  0.13579817286E+04  0.13579817286E+04  0.50400001928E-02 0.  1.
       -1   -1    0    0    0  501  0.00000000000E+00  0.00000000000E+00 -0.73380980254E+03  0.73380980256E+03  0.50400001928E-02 0. -1.
    10030    2    1    2    0    0  0.00000000000E+00  0.00000000000E+00  0.62417192604E+03  0.20917915312E+04  0.19964972368E+04 0.  0.
        4    1    3    3  502    0  0.54762844560E+03  0.68808165369E+03 -0.18284391306E+03  0.89821310724E+03  0.12699999809E+01 0. -1.
       -4    1    3    3    0  502 -0.54762844560E+03 -0.68808165369E+03  0.80701583910E+03  0.11935784239E+04  0.12699999809E+01 0.  1.
</event>
<event>
 5   0  0.3970042E-05  0.1997763E+04  0.7818609E-02  0.8607667E-01
        1   -1    0    0  501    0  0.00000000000E+00  0.00000000000E+00  0.11829888935E+04  0.11829888935E+04  0.50400001928E-02 0.  1.
       -1   -1    0    0    0  501  0.00000000000E+00  0.00000000000E+00 -0.84342671209E+03  0.84342671210E+03  0.50400001928E-02 0. -1.
    10030    2    1    2    0    0  0.00000000000E+00  0.00000000000E+00  0.33956218142E+03  0.20264156056E+04  0.19977631821E+04 0.  0.
        3    1    3    3  502    0  0.53850235941E+03  0.33492560896E+03 -0.61304175203E+03  0.88203183308E+03  0.10100000352E+00 0. -1.
       -3    1    3    3    0  502 -0.53850235941E+03 -0.33492560896E+03  0.95260393345E+03  0.11443837725E+04  0.10100000352E+00 0.  1.
</event>
<event>
 5   0  0.8011197E-05  0.1996390E+04  0.7818609E-02  0.8608310E-01
       -2   -1    0    0    0  501  0.00000000000E+00  0.00000000000E+00  0.98596987863E+03  0.98596987863E+03  0.25500000920E-02 0. -1.
        2   -1    0    0  501    0  0.00000000000E+00  0.00000000000E+00 -0.10105714467E+04  0.10105714467E+04  0.25500000920E-02 0.  1.
    10030    2    1    2    0    0  0.00000000000E+00  0.00000000000E+00 -0.24601568116E+02  0.19965413254E+04  0.19963897482E+04 0.  0.
        5    1    3    3  502    0  0.62598264109E+03 -0.52650713146E+03  0.55985006504E+03  0.99122056665E+03  0.46999998093E+01 0. -1.
       -5    1    3    3    0  502 -0.62598264109E+03  0.52650713146E+03 -0.58445163316E+03  0.10053207587E+04  0.46999998093E+01 0.  1.
</event>
<event>
 5   0  0.3787698E-05  0.1995874E+04  0.7818609E-02  0.8608552E-01
       -1   -1    0    0    0  501  0.00000000000E+00  0.00000000000E+00  0.11405001232E+04  0.11405001232E+04  0.50400001928E-02 0.  1.
        1   -1    0    0  501    0  0.00000000000E+00  0.00000000000E+00 -0.87319464683E+03  0.87319464685E+03  0.50400001928E-02 0. -1.
    10030    2    1    2    0    0  0.00000000000E+00  0.00000000000E+00  0.26730547633E+03  0.20136947700E+04  0.19958743470E+04 0.  0.
        4    1    3    3  502    0 -0.94202415133E+03 -0.24015099810E+03 -0.93737003117E+02  0.97666280887E+03  0.12699999809E+01 0.  1.
       -4    1    3    3    0  502  0.94202415133E+03  0.24015099810E+03  0.36104247944E+03  0.10370319611E+04  0.12699999809E+01 0. -1.
</event>
<event>
 5   0  0.8011197E-05  0.2009438E+04  0.7818609E-02  0.8602221E-01
        2   -1    0    0  501    0  0.00000000000E+00  0.00000000000E+00  0.21768785137E+04  0.21768785137E+04  0.25500000920E-02 0. -1.
       -2   -1    0    0    0  501  0.00000000000E+00  0.00000000000E+00 -0.46371926927E+03  0.46371926928E+03  0.25500000920E-02 0.  1.
    10030    2    1    2    0    0  0.00000000000E+00  0.00000000000E+00  0.17131592444E+04  0.26405977830E+04  0.20094382436E+04 0.  0.
        5    1    3    3  502    0  0.36063498080E+03 -0.88315568567E+03  0.12709203571E+04  0.15891136519E+04  0.46999998093E+01 0. -1.
       -5    1    3    3    0  502 -0.36063498080E+03  0.88315568567E+03  0.44223888734E+03  0.10514841311E+04  0.46999998093E+01 0.  1.
</event>
<event>
 5   0  0.3787698E-05  0.2004282E+04  0.7818609E-02  0.8604621E-01
        1   -1    0    0  501    0  0.00000000000E+00  0.00000000000E+00  0.15440977493E+04  0.15440977493E+04  0.50400001928E-02 0. -1.
       -1   -1    0    0    0  501  0.00000000000E+00  0.00000000000E+00 -0.65040356585E+03  0.65040356586E+03  0.50400001928E-02 0.  1.
    10030    2    1    2    0    0  0.00000000000E+00  0.00000000000E+00  0.89369418348E+03  0.21945013152E+04  0.20042820981E+04 0.  0.
        4    1    3    3  502    0 -0.87093879779E+03 -0.14260326057E+02  0.98940312822E+03  0.13182025297E+04  0.12699999809E+01 0. -1.
       -4    1    3    3    0  502  0.87093879779E+03  0.14260326057E+02 -0.95708944737E+02  0.87629878546E+03  0.12699999809E+01 0.  1.
</event>
<event>
 5   0  0.3549426E-05  0.2009380E+04  0.7818609E-02  0.8602248E-01
       -1   -1    0    0    0  501  0.00000000000E+00  0.00000000000E+00  0.71855193445E+03  0.71855193447E+03  0.50400001928E-02 0.  1.
        1   -1    0    0  501    0  0.00000000000E+00  0.00000000000E+00 -0.14047722110E+04  0.14047722110E+04  0.50400001928E-02 0. -1.
    10030    2    1    2    0    0  0.00000000000E+00  0.00000000000E+00 -0.68622027656E+03  0.21233241455E+04  0.20093797946E+04 0.  0.
        5    1    3    3  502    0  0.34662592694E+02 -0.24534244165E+03 -0.13719672571E+04  0.13941702384E+04  0.46999998093E+01 0. -1.
       -5    1    3    3    0  502 -0.34662592694E+02  0.24534244165E+03  0.68574698052E+03  0.72915390714E+03  0.46999998093E+01 0.  1.
</event>
<event>
 5   0  0.3970042E-05  0.1968695E+04  0.7818609E-02  0.8621398E-01
        1   -1    0    0  501    0  0.00000000000E+00  0.00000000000E+00  0.72734720069E+03  0.72734720070E+03  0.50400001928E-02 0. -1.
       -1   -1    0    0    0  501  0.00000000000E+00  0.00000000000E+00 -0.13321565488E+04  0.13321565488E+04  0.50400001928E-02 0.  1.
    10030    2    1    2    0    0  0.00000000000E+00  0.00000000000E+00 -0.60480934815E+03  0.20595037495E+04  0.19686953413E+04 0.  0.
        3    1    3    3  502    0 -0.37807908115E+03  0.17809858417E+03  0.62992645341E+03  0.75595650946E+03  0.10100000352E+00 0. -1.
       -3    1    3    3    0  502  0.37807908115E+03 -0.17809858417E+03 -0.12347358016E+04  0.13035472401E+04  0.10100000352E+00 0.  1.
</event>
<event>
 5   0  0.3818907E-05  0.2003417E+04  0.7818609E-02  0.8605025E-01
       -1   -1    0    0    0  501  0.00000000000E+00  0.00000000000E+00  0.55040613057E+03  0.55040613060E+03  0.50400001928E-02 0. -1.
        1   -1    0    0  501    0  0.00000000000E+00  0.00000000000E+00 -0.18230540942E+04  0.18230540942E+04  0.50400001928E-02 0.  1.
    10030    2    1    2    0    0  0.00000000000E+00  0.00000000000E+00 -0.12726479636E+04  0.23734602248E+04  0.20034172305E+04 0.  0.
        1    1    3    3  502    0  0.43796718065E+03 -0.15466656851E+03  0.41512046432E+03  0.62294622454E+03  0.50400001928E-02 0. -1.
       -1    1    3    3    0  502 -0.43796718065E+03  0.15466656851E+03 -0.16877684280E+04  0.17505140003E+04  0.50400001928E-02 0.  1.
</event>
<event>
 5   0  0.7857136E-05  0.1998732E+04  0.7818609E-02  0.8607214E-01
       -2   -1    0    0    0  501  0.00000000000E+00  0.00000000000E+00  0.60768256823E+03  0.60768256823E+03  0.25500000920E-02 0. -1.
        2   -1    0    0  501    0  0.00000000000E+00  0.00000000000E+00 -0.16435106242E+04  0.16435106242E+04  0.25500000920E-02 0.  1.
    10030    2    1    2    0    0  0.00000000000E+00  0.00000000000E+00 -0.10358280560E+04  0.22511931924E+04  0.19987323553E+04 0.  0.
        4    1    3    3  502    0 -0.92755819141E+03  0.34938895804E+03 -0.37414146977E+03  0.10594433891E+04  0.12699999809E+01 0.  1.
       -4    1    3    3    0  502  0.92755819141E+03 -0.34938895804E+03 -0.66168658621E+03  0.11917498033E+04  0.12699999809E+01 0. -1.
</event>
<event>
 5   0  0.7843846E-05  0.2028115E+04  0.7818609E-02  0.8593587E-01
       -2   -1    0    0    0  501  0.00000000000E+00  0.00000000000E+00  0.88851929023E+03  0.88851929024E+03  0.25500000920E-02 0. -1.
        2   -1    0    0  501    0  0.00000000000E+00  0.00000000000E+00 -0.11573334573E+04  0.11573334574E+04  0.25500000920E-02 0.  1.
    10030    2    1    2    0    0  0.00000000000E+00  0.00000000000E+00 -0.26881416711E+03  0.20458527476E+04  0.20281154820E+04 0.  0.
        2    1    3    3  502    0  0.57379451677E+03  0.81772087098E+03 -0.31030390560E+03  0.10460382804E+04  0.25500000920E-02 0. -1.
       -2    1    3    3    0  502 -0.57379451677E+03 -0.81772087098E+03  0.41489738488E+02  0.99981446715E+03  0.25500000920E-02 0.  1.
</event>
<event>
 5   0  0.3970042E-05  0.1997020E+04  0.7818609E-02  0.8608015E-01
        1   -1    0    0  501    0  0.00000000000E+00  0.00000000000E+00  0.11378635022E+04  0.11378635022E+04  0.50400001928E-02 0.  1.
       -1   -1    0    0    0  501  0.00000000000E+00  0.00000000000E+00 -0.87622286034E+03  0.87622286036E+03  0.50400001928E-02 0. -1.
    10030    2    1    2    0    0  0.00000000000E+00  0.00000000000E+00  0.26164064186E+03  0.20140863626E+04  0.19970197922E+04 0.  0.
        3    1    3    3  502    0 -0.55385874702E+03 -0.70704855807E+03  0.57083408242E+03  0.10642033335E+04  0.10100000352E+00 0. -1.
       -3    1    3    3    0  502  0.55385874702E+03  0.70704855807E+03 -0.30919344056E+03  0.94988302911E+03  0.10100000352E+00 0.  1.
</event>
<event>
 5   0  0.7935008E-05  0.1996135E+04  0.7818609E-02  0.8608430E-01
       -2   -1    0    0    0  501  0.00000000000E+00  0.00000000000E+00  0.50332231702E+03  0.50332231703E+03  0.25500000920E-02 0.  1.
        2   -1    0    0  501    0  0.00000000000E+00  0.00000000000E+00 -0.19791271929E+04  0.19791271929E+04  0.25500000920E-02 0. -1.
    10030    2    1    2    0    0  0.00000000000E+00  0.00000000000E+00 -0.14758048758E+04  0.24824495099E+04  0.19961351501E+04 0.  0.
        3    1    3    3  502    0 -0.55407695958E+03 -0.81274864557E+03 -0.52766958001E+03  0.11162422828E+04  0.10100000352E+00 0.  1.
       -3    1    3    3    0  502  0.55407695958E+03  0.81274864557E+03 -0.94813529584E+03  0.13662072271E+04  0.10100000352E+00 0. -1.
</event>
<event>
 5   0  0.3818907E-05  0.1996463E+04  0.7818609E-02  0.8608276E-01
       -1   -1    0    0    0  501  0.00000000000E+00  0.00000000000E+00  0.12597344238E+04  0.12597344238E+04  0.50400001928E-02 0. -1.
        1   -1    0    0  501    0  0.00000000000E+00  0.00000000000E+00 -0.79101265836E+03  0.79101265838E+03  0.50400001928E-02 0.  1.
    10030    2    1    2    0    0  0.00000000000E+00  0.00000000000E+00  0.46872176543E+03  0.20507470822E+04  0.19964627474E+04 0.  0.
        1    1    3    3  502    0 -0.24351189337E+03 -0.61144652791E+03  0.10053018838E+04  0.12015809487E+04  0.50400001928E-02 0. -1.
       -1    1    3    3    0  502  0.24351189337E+03  0.61144652791E+03 -0.53658011839E+03  0.84916613345E+03  0.50400001928E-02 0.  1.
</event>
<event>
 5   0  0.3787698E-05  0.2009507E+04  0.7818609E-02  0.8602189E-01
        1   -1    0    0  501    0  0.00000000000E+00  0.00000000000E+00  0.15644862496E+04  0.15644862496E+04  0.50400001928E-02 0. -1.
       -1   -1    0    0    0  501  0.00000000000E+00  0.00000000000E+00 -0.64527869724E+03  0.64527869726E+03  0.50400001928E-02 0.  1.
    10030    2    1    2    0    0  0.00000000000E+00  0.00000000000E+00  0.91920755232E+03  0.22097649468E+04  0.20095070530E+04 0.  0.
        4    1    3    3  502    0  0.44305196136E+03 -0.28905935142E+03 -0.47973462765E+03  0.71414093495E+03  0.12699999809E+01 0.  1.
       -4    1    3    3    0  502 -0.44305196136E+03  0.28905935142E+03  0.13989421800E+04  0.14956240119E+04  0.12699999809E+01 0. -1.
</event>
<event>
 5   0  0.3549426E-05  0.1999748E+04  0.7818609E-02  0.8606738E-01
       -1   -1    0    0    0  501  0.00000000000E+00  0.00000000000E+00  0.42457642562E+03  0.42457642565E+03  0.50400001928E-02 0. -1.
        1   -1    0    0  501    0  0.00000000000E+00  0.00000000000E+00 -0.23546952277E+04  0.23546952277E+04  0.50400001928E-02 0.  1.
    10030    2    1    2    0    0  0.00000000000E+00  0.00000000000E+00 -0.19301188021E+04  0.27792716534E+04  0.19997480674E+04 0.  0.
        5    1    3    3  502    0  0.86450440522E+03 -0.49333069623E+03 -0.83333530651E+03  0.12981574887E+04  0.46999998093E+01 0.  1.
       -5    1    3    3    0  502 -0.86450440522E+03  0.49333069623E+03 -0.10967834956E+04  0.14811141646E+04  0.46999998093E+01 0. -1.
</event>
<event>
 5   0  0.7935008E-05  0.1933221E+04  0.7818609E-02  0.8638495E-01
        2   -1    0    0  501    0  0.00000000000E+00  0.00000000000E+00  0.18371059719E+04  0.18371059719E+04  0.25500000920E-02 0.  1.
       -2   -1    0    0    0  501  0.00000000000E+00  0.00000000000E+00 -0.50859120813E+03  0.50859120813E+03  0.25500000920E-02 0. -1.
    10030    2    1    2    0    0  0.00000000000E+00  0.00000000000E+00  0.13285147638E+04  0.23456971800E+04  0.19332210900E+04 0.  0.
        3    1    3    3  502    0  0.37022445211E+03  0.22612461310E+03  0.17123504308E+04  0.17664491200E+04  0.10100000352E+00 0.  1.
       -3    1    3    3    0  502 -0.37022445211E+03 -0.22612461310E+03 -0.38383566700E+03  0.57924806003E+03  0.10100000352E+00 0. -1.
</event>
<event>
 5   0  0.3818907E-05  0.1988561E+04  0.7818609E-02  0.8611987E-01
        1   -1    0    0  501    0  0.00000000000E+00  0.00000000000E+00  0.16076315892E+04  0.16076315892E+04  0.50400001928E-02 0. -1.
       -1   -1    0    0    0  501  0.00000000000E+00  0.00000000000E+00 -0.61493816708E+03  0.61493816711E+03  0.50400001928E-02 0.  1.
    10030    2    1    2    0    0  0.00000000000E+00  0.00000000000E+00  0.99269342212E+03  0.22225697563E+04  0.19885613120E+04 0.  0.
        1    1    3    3  502    0 -0.74304675023E+03 -0.13721427866E+03  0.12186531879E+04  0.14338974244E+04  0.50400001928E-02 0. -1.
       -1    1    3    3    0  502  0.74304675023E+03  0.13721427866E+03 -0.22595976582E+03  0.78867233189E+03  0.50400001928E-02 0.  1.
</event>
<event>
 5   0  0.8022574E-05  0.2001983E+04  0.7818609E-02  0.8605694E-01
       -2   -1    0    0    0  501  0.00000000000E+00  0.00000000000E+00  0.68465024169E+03  0.68465024170E+03  0.25500000920E-02 0.  1.
        2   -1    0    0  501    0  0.00000000000E+00  0.00000000000E+00 -0.14634969377E+04  0.14634969377E+04  0.25500000920E-02 0. -1.
    10030    2    1    2    0    0  0.00000000000E+00  0.00000000000E+00 -0.77884669604E+03  0.21481471794E+04  0.20019825495E+04 0.  0.
        1    1    3    3  502    0  0.65430798060E+03  0.32104418041E+03 -0.11256639673E+04  0.13410099427E+04  0.50400001928E-02 0. -1.
       -1    1    3    3    0  502 -0.65430798060E+03 -0.32104418041E+03  0.34681727122E+03  0.80713723672E+03  0.50400001928E-02 0.  1.
</event>
<event>
 5   0  0.3787698E-05  0.2032534E+04  0.7818609E-02  0.8591559E-01
        1   -1    0    0  501    0  0.00000000000E+00  0.00000000000E+00  0.15854353700E+04  0.15854353700E+04  0.50400001928E-02 0. -1.
       -1   -1    0    0    0  501  0.00000000000E+00  0.00000000000E+00 -0.65142910100E+03  0.65142910102E+03  0.50400001928E-02 0.  1.
    10030    2    1    2    0    0  0.00000000000E+00  0.00000000000E+00  0.93400626901E+03  0.22368644710E+04  0.20325341206E+04 0.  0.
        4    1    3    3  502    0  0.53273450885E+03  0.65148538725E+03 -0.15996849719E+03  0.85663924713E+03  0.12699999809E+01 0.  1.
       -4    1    3    3    0  502 -0.53273450885E+03 -0.65148538725E+03  0.10939747662E+04  0.13802252239E+04  0.12699999809E+01 0. -1.
</event>
<event>
 5   0  0.3549426E-05  0.2009703E+04  0.7818609E-02  0.8602097E-01
       -1   -1    0    0    0  501  0.00000000000E+00  0.00000000000E+00  0.94574087104E+03  0.94574087105E+03  0.50400001928E-02 0. -1.
        1   -1    0    0  501    0  0.00000000000E+00  0.00000000000E+00 -0.10676568985E+04  0.10676568985E+04  0.50400001928E-02 0.  1.
    10030    2    1    2    0    0  0.00000000000E+00  0.00000000000E+00 -0.12191602743E+03  0.20133977695E+04  0.20097032270E+04 0.  0.
        5    1    3    3  502    0  0.49445688623E+03  0.28414272850E+03  0.76789596409E+03  0.95650980349E+03  0.46999998093E+01 0. -1.
       -5    1    3    3    0  502 -0.49445688623E+03 -0.28414272850E+03 -0.88981199152E+03  0.10568879660E+04  0.46999998093E+01 0.  1.
</event>
<event>
 5   0  0.3772949E-05  0.2034280E+04  0.7818609E-02  0.8590759E-01
       -1   -1    0    0    0  501  0.00000000000E+00  0.00000000000E+00  0.66870581491E+03  0.66870581493E+03  0.50400001928E-02 0.  1.
        1   -1    0    0  501    0  0.00000000000E+00  0.00000000000E+00 -0.15471284760E+04  0.15471284760E+04  0.50400001928E-02 0. -1.
    10030    2    1    2    0    0  0.00000000000E+00  0.00000000000E+00 -0.87842266106E+03  0.22158342909E+04  0.20342800282E+04 0.  0.
        2    1    3    3  502    0  0.65176816398E+03  0.76308273335E+03 -0.61976640767E+03  0.11794945517E+04  0.25500000920E-02 0. -1.
       -2    1    3    3    0  502 -0.65176816398E+03 -0.76308273335E+03 -0.25865625339E+03  0.10363397392E+04  0.25500000920E-02 0.  1.
</event>
<event>
 5   0  0.3772949E-05  0.2014816E+04  0.7818609E-02  0.8599725E-01
        1   -1    0    0  501    0  0.00000000000E+00  0.00000000000E+00  0.29450458535E+03  0.29450458539E+03  0.50400001928E-02 0. -1.
       -1   -1    0    0    0  501  0.00000000000E+00  0.00000000000E+00 -0.34460289682E+04  0.34460289682E+04  0.50400001928E-02 0.  1.
    10030    2    1    2    0    0  0.00000000000E+00  0.00000000000E+00 -0.31515243829E+04  0.37405335536E+04  0.20148164507E+04 0.  0.
        2    1    3    3  502    0 -0.58405268464E+03  0.30073658729E+03 -0.29936708717E+04  0.30649021716E+04  0.25500000920E-02 0.  1.
       -2    1    3    3    0  502  0.58405268464E+03 -0.30073658729E+03 -0.15785351115E+03  0.67563138201E+03  0.25500000920E-02 0. -1.
</event>
<event>
 5   0  0.3549426E-05  0.1997753E+04  0.7818609E-02  0.8607672E-01
       -1   -1    0    0    0  501  0.00000000000E+00  0.00000000000E+00  0.11961617773E+04  0.11961617774E+04  0.50400001928E-02 0. -1.
        1   -1    0    0  501    0  0.00000000000E+00  0.00000000000E+00 -0.83412971145E+03  0.83412971146E+03  0.50400001928E-02 0.  1.
    10030    2    1    2    0    0  0.00000000000E+00  0.00000000000E+00  0.36203206589E+03  0.20302914888E+04  0.19977528157E+04 0.  0.
        5    1    3    3  502    0  0.24307238580E+03 -0.42099406780E+03  0.10678175831E+04  0.11732760420E+04  0.46999998093E+01 0. -1.
       -5    1    3    3    0  502 -0.24307238580E+03  0.42099406780E+03 -0.70578551720E+03  0.85701544686E+03  0.46999998093E+01 0.  1.
</event>
<event>
 5   0  0.7843846E-05  0.2019185E+04  0.7818609E-02  0.8597703E-01
       -2   -1    0    0    0  501  0.00000000000E+00  0.00000000000E+00  0.18551767758E+04  0.18551767758E+04  0.25500000920E-02 0. -1.
        2   -1    0    0  501    0  0.00000000000E+00  0.00000000000E+00 -0.54942288533E+03  0.54942288533E+03  0.25500000920E-02 0.  1.
    10030    2    1    2    0    0  0.00000000000E+00  0.00000000000E+00  0.13057538904E+04  0.24045996611E+04  0.20191845651E+04 0.  0.
        2    1    3    3  502    0 -0.62417704854E+03 -0.65255191699E+03  0.11519176004E+03  0.91032419164E+03  0.25500000920E-02 0.  1.
       -2    1    3    3    0  502  0.62417704854E+03  0.65255191699E+03  0.11905621304E+04  0.14942754695E+04  0.25500000920E-02 0. -1.
</event>
<event>
 5   0  0.3787698E-05  0.1993132E+04  0.7818609E-02  0.8609838E-01
        1   -1    0    0  501    0  0.00000000000E+00  0.00000000000E+00  0.92740552720E+03  0.92740552721E+03  0.50400001928E-02 0. -1.
       -1   -1    0    0    0  501  0.00000000000E+00  0.00000000000E+00 -0.10708841887E+04  0.10708841887E+04  0.50400001928E-02 0.  1.
    10030    2    1    2    0    0  0.00000000000E+00  0.00000000000E+00 -0.14347866151E+03  0.19982897159E+04  0.19931321237E+04 0.  0.
        4    1    3    3  502    0 -0.87892313214E+02  0.33408230897E+02  0.92294747516E+03  0.92772561860E+03  0.12699999809E+01 0. -1.
       -4    1    3    3    0  502  0.87892313214E+02 -0.33408230897E+02 -0.10664261367E+04  0.10705640973E+04  0.12699999809E+01 0.  1.
</event>
<event>
 5   0  0.3818907E-05  0.2043017E+04  0.7818609E-02  0.8586769E-01
       -1   -1    0    0    0  501  0.00000000000E+00  0.00000000000E+00  0.36676627028E+03  0.36676627031E+03  0.50400001928E-02 0. -1.
        1   -1    0    0  501    0  0.00000000000E+00  0.00000000000E+00 -0.28450798195E+04  0.28450798195E+04  0.50400001928E-02 0.  1.
    10030    2    1    2    0    0  0.00000000000E+00  0.00000000000E+00 -0.24783135492E+04  0.32118460898E+04  0.20430167049E+04 0.  0.
        1    1    3    3  502    0 -0.87617270094E+03  0.47115333830E+03 -0.87445702500E+03  0.13245146880E+04  0.50400001928E-02 0. -1.
       -1    1    3    3    0  502  0.87617270094E+03 -0.47115333830E+03 -0.16038565242E+04  0.18873314019E+04  0.50400001928E-02 0.  1.
</event>
<event>
 5   0  0.3818907E-05  0.1989997E+04  0.7818609E-02  0.8611312E-01
       -1   -1    0    0    0  501  0.00000000000E+00  0.00000000000E+00  0.58552837780E+03  0.58552837782E+03  0.50400001928E-02 0. -1.
        1   -1    0    0  501    0  0.00000000000E+00  0.00000000000E+00 -0.16908181909E+04  0.16908181909E+04  0.50400001928E-02 0.  1.
    10030    2    1    2    0    0  0.00000000000E+00  0.00000000000E+00 -0.11052898131E+04  0.22763465687E+04  0.19899970176E+04 0.  0.
        1    1    3    3  502    0  0.21323556668E+03 -0.63843940723E+03 -0.13908532329E+04  0.15451689225E+04  0.50400001928E-02 0.  1.
       -1    1    3    3    0  502 -0.21323556668E+03  0.63843940723E+03  0.28556341978E+03  0.73117764623E+03  0.50400001928E-02 0. -1.
</event>
<event>
 5   0  0.7857136E-05  0.1996637E+04  0.7818609E-02  0.8608194E-01
       -2   -1    0    0    0  501  0.00000000000E+00  0.00000000000E+00  0.78502737100E+03  0.78502737101E+03  0.25500000920E-02 0. -1.
        2   -1    0    0  501    0  0.00000000000E+00  0.00000000000E+00 -0.12695610032E+04  0.12695610032E+04  0.25500000920E-02 0.  1.
    10030    2    1    2    0    0  0.00000000000E+00  0.00000000000E+00 -0.48453363220E+03  0.20545883742E+04  0.19966373098E+04 0.  0.
        4    1    3    3  502    0  0.50417306177E+03  0.70112961787E+03 -0.75766863448E+03  0.11488414120E+04  0.12699999809E+01 0.  1.
       -4    1    3    3    0  502 -0.50417306177E+03 -0.70112961787E+03  0.27313500227E+03  0.90574696226E+03  0.12699999809E+01 0. -1.
</event>
<event>
 5   0  0.3970042E-05  0.1988700E+04  0.7818609E-02  0.8611922E-01
        1   -1    0    0  501    0  0.00000000000E+00  0.00000000000E+00  0.67246983566E+03  0.67246983568E+03  0.50400001928E-02 0.  1.
       -1   -1    0    0    0  501  0.00000000000E+00  0.00000000000E+00 -0.14702995530E+04  0.14702995530E+04  0.50400001928E-02 0. -1.
    10030    2    1    2    0    0  0.00000000000E+00  0.00000000000E+00 -0.79782971734E+03  0.21427693887E+04  0.19887001773E+04 0.  0.
        3    1    3    3  502    0 -0.35797245331E+03  0.58640110869E+03 -0.11734380185E+04  0.13597673812E+04  0.10100000352E+00 0. -1.
       -3    1    3    3    0  502  0.35797245331E+03 -0.58640110869E+03  0.37560830115E+03  0.78300200747E+03  0.10100000352E+00 0.  1.
</event>
<event>
 5   0  0.7857136E-05  0.1964965E+04  0.7818609E-02  0.8623178E-01
        2   -1    0    0  501    0  0.00000000000E+00  0.00000000000E+00  0.14131926193E+04  0.14131926193E+04  0.25500000920E-02 0. -1.
       -2   -1    0    0    0  501  0.00000000000E+00  0.00000000000E+00 -0.68304363579E+03  0.68304363580E+03  0.25500000920E-02 0.  1.
    10030    2    1    2    0    0  0.00000000000E+00  0.00000000000E+00  0.73014898351E+03  0.20962362551E+04  0.19649653684E+04 0.  0.
        4    1    3    3  502    0 -0.74687489866E+03  0.58708086125E+03  0.97766615868E+02  0.95501098212E+03  0.12699999809E+01 0. -1.
       -4    1    3    3    0  502  0.74687489866E+03 -0.58708086125E+03  0.63238236764E+03  0.11412252730E+04  0.12699999809E+01 0.  1.
</event>
<event>
 5   0  0.7935008E-05  0.2004886E+04  0.7818609E-02  0.8604340E-01
       -2   -1    0    0    0  501  0.00000000000E+00  0.00000000000E+00  0.99492069604E+03  0.99492069605E+03  0.25500000920E-02 0.  1.
        2   -1    0    0  501    0  0.00000000000E+00  0.00000000000E+00 -0.10100224780E+04  0.10100224780E+04  0.25500000920E-02 0. -1.
    10030    2    1    2    0    0  0.00000000000E+00  0.00000000000E+00 -0.15101781910E+02  0.20049431740E+04  0.20048862978E+04 0.  0.
        3    1    3    3  502    0 -0.23917568267E+03 -0.63152691020E+03 -0.74842345259E+03  0.10080520423E+04  0.10100000352E+00 0. -1.
       -3    1    3    3    0  502  0.23917568267E+03  0.63152691020E+03  0.73332167068E+03  0.99689113166E+03  0.10100000352E+00 0.  1.
</event>
<event>
 5   0  0.8022574E-05  0.2023873E+04  0.7818609E-02  0.8595540E-01
       -2   -1    0    0    0  501  0.00000000000E+00  0.00000000000E+00  0.90501932197E+03  0.90501932197E+03  0.25500000920E-02 0. -1.
        2   -1    0    0  501    0  0.00000000000E+00  0.00000000000E+00 -0.11314846455E+04  0.11314846455E+04  0.25500000920E-02 0.  1.
    10030    2    1    2    0    0  0.00000000000E+00  0.00000000000E+00 -0.22646532353E+03  0.20365039675E+04  0.20238729868E+04 0.  0.
        1    1    3    3  502    0 -0.69330236882E+03 -0.30843322943E+03 -0.78690047560E+03  0.10931658567E+04  0.50400001928E-02 0.  1.
       -1    1    3    3    0  502  0.69330236882E+03  0.30843322943E+03  0.56043515207E+03  0.94333811082E+03  0.50400001928E-02 0. -1.
</event>
<event>
 5   0  0.7857136E-05  0.1905036E+04  0.7818609E-02  0.8652354E-01
        2   -1    0    0  501    0  0.00000000000E+00  0.00000000000E+00  0.19965945415E+04  0.19965945415E+04  0.25500000920E-02 0. -1.
       -2   -1    0    0    0  501  0.00000000000E+00  0.00000000000E+00 -0.45441909919E+03  0.45441909920E+03  0.25500000920E-02 0.  1.
    10030    2    1    2    0    0  0.00000000000E+00  0.00000000000E+00  0.15421754423E+04  0.24510136407E+04  0.19050361603E+04 0.  0.
        4    1    3    3  502    0  0.44663613803E+02  0.37494759126E+03  0.18961860415E+04  0.19334176092E+04  0.12699999809E+01 0. -1.
       -4    1    3    3    0  502 -0.44663613803E+02 -0.37494759126E+03 -0.35401059920E+03  0.51759603151E+03  0.12699999809E+01 0.  1.
</event>
<event>
 5   0  0.3970042E-05  0.1985410E+04  0.7818609E-02  0.8613472E-01
        1   -1    0    0  501    0  0.00000000000E+00  0.00000000000E+00  0.77896235389E+03  0.77896235390E+03  0.50400001928E-02 0. -1.
       -1   -1    0    0    0  501  0.00000000000E+00  0.00000000000E+00 -0.12650976759E+04  0.12650976759E+04  0.50400001928E-02 0.  1.
    10030    2    1    2    0    0  0.00000000000E+00  0.00000000000E+00 -0.48613532199E+03  0.20440600298E+04  0.19854102483E+04 0.  0.
        3    1    3    3  502    0  0.18699774489E+02 -0.76729109714E+03  0.40511623457E+03  0.86787354092E+03  0.10100000352E+00 0. -1.
       -3    1    3    3    0  502 -0.18699774489E+02  0.76729109714E+03 -0.89125155656E+03  0.11761864889E+04  0.10100000352E+00 0.  1.
</event>
<event>
 5   0  0.7935008E-05  0.2003500E+04  0.7818609E-02  0.8604986E-01
       -2   -1    0    0    0  501  0.00000000000E+00  0.00000000000E+00  0.10328515283E+04  0.10328515283E+04  0.25500000920E-02 0. -1.
        2   -1    0    0  501    0  0.00000000000E+00  0.00000000000E+00 -0.97158536138E+03  0.97158536138E+03  0.25500000920E-02 0.  1.
    10030    2    1    2    0    0  0.00000000000E+00  0.00000000000E+00  0.61266166914E+02  0.20044368897E+04  0.20035003622E+04 0.  0.
        3    1    3    3  502    0 -0.22211404863E+03 -0.43957059262E+03 -0.84209713093E+03  0.97554320489E+03  0.10100000352E+00 0.  1.
       -3    1    3    3    0  502  0.22211404863E+03  0.43957059262E+03  0.90336329785E+03  0.10288936848E+04  0.10100000352E+00 0. -1.
</event>
<event>
 5   0  0.3818907E-05  0.1974132E+04  0.7818609E-02  0.8618811E-01
        1   -1    0    0  501    0  0.00000000000E+00  0.00000000000E+00  0.22252541220E+04  0.22252541220E+04  0.50400001928E-02 0.  1.
       -1   -1    0    0    0  501  0.00000000000E+00  0.00000000000E+00 -0.43783710496E+03  0.43783710499E+03  0.50400001928E-02 0. -1.
    10030    2    1    2    0    0  0.00000000000E+00  0.00000000000E+00  0.17874170170E+04  0.26630912270E+04  0.19741315282E+04 0.  0.
        1    1    3    3  502    0  0.84699343236E+03 -0.14100052966E+02  0.15771867622E+04  0.17902834325E+04  0.50400001928E-02 0.  1.
       -1    1    3    3    0  502 -0.84699343236E+03  0.14100052966E+02  0.21023025482E+03  0.87280779443E+03  0.50400001928E-02 0. -1.
</event>
<event>
 5   0  0.7857136E-05  0.1991483E+04  0.7818609E-02  0.8610613E-01
        2   -1    0    0  501    0  0.00000000000E+00  0.00000000000E+00  0.21018341967E+04  0.21018341967E+04  0.25500000920E-02 0.  1.
       -2   -1    0    0    0  501  0.00000000000E+00  0.00000000000E+00 -0.47173123685E+03  0.47173123686E+03  0.25500000920E-02 0. -1.
    10030    2    1    2    0    0  0.00000000000E+00  0.00000000000E+00  0.16301029598E+04  0.25735654335E+04  0.19914827092E+04 0.  0.
        4    1    3    3  502    0  0.99521848403E+03 -0.14295114817E+02  0.85239499565E+03  0.13104361956E+04  0.12699999809E+01 0.  1.
       -4    1    3    3    0  502 -0.99521848403E+03  0.14295114817E+02  0.77770796418E+03  0.12631292379E+04  0.12699999809E+01 0. -1.
</event>
<event>
 5   0  0.7843846E-05  0.1995322E+04  0.7818609E-02  0.8608811E-01
       -2   -1    0    0    0  501  0.00000000000E+00  0.00000000000E+00  0.15366937186E+04  0.15366937186E+04  0.25500000920E-02 0. -1.
        2   -1    0    0  501    0  0.00000000000E+00  0.00000000000E+00 -0.64770718105E+03  0.64770718106E+03  0.25500000920E-02 0.  1.
    10030    2    1    2    0    0  0.00000000000E+00  0.00000000000E+00  0.88898653751E+03  0.21844008996E+04  0.19953220859E+04 0.  0.
        2    1    3    3  502    0  0.21677648885E+02 -0.24615702176E+03 -0.61367376459E+03  0.66155777463E+03  0.25500000920E-02 0.  1.
       -2    1    3    3    0  502 -0.21677648885E+02  0.24615702176E+03  0.15026603021E+04  0.15228431250E+04  0.25500000920E-02 0. -1.
</event>
<event>
 5   0  0.8022574E-05  0.2027936E+04  0.7818609E-02  0.8593670E-01
        2   -1    0    0  501    0  0.00000000000E+00  0.00000000000E+00  0.10489406757E+04  0.10489406757E+04  0.25500000920E-02 0. -1.
       -2   -1    0    0    0  501  0.00000000000E+00  0.00000000000E+00 -0.98016175021E+03  0.98016175022E+03  0.25500000920E-02 0.  1.
    10030    2    1    2    0    0  0.00000000000E+00  0.00000000000E+00  0.68778925503E+02  0.20291024259E+04  0.20279364177E+04 0.  0.
        1    1    3    3  502    0 -0.37392464917E+03 -0.82054529323E+03 -0.42957673896E+03  0.99882450720E+03  0.50400001928E-02 0.  1.
       -1    1    3    3    0  502  0.37392464917E+03  0.82054529323E+03  0.49835566446E+03  0.10302779187E+04  0.50400001928E-02 0. -1.
</event>
<event>
 5   0  0.7935008E-05  0.1992839E+04  0.7818609E-02  0.8609976E-01
       -2   -1    0    0    0  501  0.00000000000E+00  0.00000000000E+00  0.94982889001E+03  0.94982889001E+03  0.25500000920E-02 0.  1.
        2   -1    0    0  501    0  0.00000000000E+00  0.00000000000E+00 -0.10452953558E+04  0.10452953558E+04  0.25500000920E-02 0. -1.
    10030    2    1    2    0    0  0.00000000000E+00  0.00000000000E+00 -0.95466465812E+02  0.19951242458E+04  0.19928389072E+04 0.  0.
        3    1    3    3  502    0  0.62871394619E+03  0.42830506682E+02 -0.82045774605E+03  0.10345369020E+04  0.10100000352E+00 0. -1.
       -3    1    3    3    0  502 -0.62871394619E+03 -0.42830506682E+02  0.72499128024E+03  0.96058734380E+03  0.10100000352E+00 0.  1.
</event>
<event>
 5   0  0.7843846E-05  0.2062384E+04  0.7818609E-02  0.8577997E-01
       -2   -1    0    0    0  501  0.00000000000E+00  0.00000000000E+00  0.13118408212E+04  0.13118408212E+04  0.25500000920E-02 0.  1.
        2   -1    0    0  501    0  0.00000000000E+00  0.00000000000E+00 -0.81058396000E+03  0.81058396000E+03  0.25500000920E-02 0. -1.
    10030    2    1    2    0    0  0.00000000000E+00  0.00000000000E+00  0.50125686120E+03  0.21224247812E+04  0.20623841812E+04 0.  0.
        2    1    3    3  502    0  0.20465773029E+03  0.77207384120E+03 -0.42056604808E+03  0.90269518866E+03  0.25500000920E-02 0. -1.
       -2    1    3    3    0  502 -0.20465773029E+03 -0.77207384120E+03  0.92182290928E+03  0.12197295925E+04  0.25500000920E-02 0.  1.
</event>
<event>
 5   0  0.3772949E-05  0.1991864E+04  0.7818609E-02  0.8610434E-01
        1   -1    0    0  501    0  0.00000000000E+00  0.00000000000E+00  0.75861273257E+03  0.75861273259E+03  0.50400001928E-02 0. -1.
       -1   -1    0    0    0  501  0.00000000000E+00  0.00000000000E+00 -0.13074920727E+04  0.13074920727E+04  0.50400001928E-02 0.  1.
    10030    2    1    2    0    0  0.00000000000E+00  0.00000000000E+00 -0.54887934008E+03  0.20661048052E+04  0.19918635838E+04 0.  0.
        2    1    3    3  502    0 -0.78349429884E+03  0.56013978576E+03 -0.11495272770E+02  0.96319885653E+03  0.25500000920E-02 0. -1.
       -2    1    3    3    0  502  0.78349429884E+03 -0.56013978576E+03 -0.53738406731E+03  0.11029059487E+04  0.25500000920E-02 0.  1.
</event>
<event>
 5   0  0.3772949E-05  0.2057018E+04  0.7818609E-02  0.8580417E-01
        1   -1    0    0  501    0  0.00000000000E+00  0.00000000000E+00  0.13132377608E+04  0.13132377608E+04  0.50400001928E-02 0. -1.
       -1   -1    0    0    0  501  0.00000000000E+00  0.00000000000E+00 -0.80551353021E+03  0.80551353023E+03  0.50400001928E-02 0.  1.
    10030    2    1    2    0    0  0.00000000000E+00  0.00000000000E+00  0.50772423059E+03  0.21187512910E+04  0.20570180211E+04 0.  0.
        2    1    3    3  502    0 -0.26086195203E+03 -0.93536361540E+03 -0.95244375135E+02  0.97571796234E+03  0.25500000920E-02 0.  1.
       -2    1    3    3    0  502  0.26086195203E+03  0.93536361540E+03  0.60296860573E+03  0.11430333287E+04  0.25500000920E-02 0. -1.
</event>
<event>
 5   0  0.3787698E-05  0.2014048E+04  0.7818609E-02  0.8600081E-01
       -1   -1    0    0    0  501  0.00000000000E+00  0.00000000000E+00  0.11310458941E+04  0.11310458941E+04  0.50400001928E-02 0.  1.
        1   -1    0    0  501    0  0.00000000000E+00  0.00000000000E+00 -0.89660138285E+03  0.89660138287E+03  0.50400001928E-02 0. -1.
    10030    2    1    2    0    0  0.00000000000E+00  0.00000000000E+00  0.23444451128E+03  0.20276472770E+04  0.20140479764E+04 0.  0.
        4    1    3    3  502    0 -0.66455282905E+02  0.12544724942E+03 -0.88647607554E+03  0.89777211051E+03  0.12699999809E+01 0. -1.
       -4    1    3    3    0  502  0.66455282905E+02 -0.12544724942E+03  0.11209205868E+04  0.11298751665E+04  0.12699999809E+01 0.  1.
</event>
<event>
 5   0  0.3549426E-05  0.2001707E+04  0.7818609E-02  0.8605823E-01
       -1   -1    0    0    0  501  0.00000000000E+00  0.00000000000E+00  0.10678820434E+04  0.10678820435E+04  0.50400001928E-02 0. -1.
        1   -1    0    0  501    0  0.00000000000E+00  0.00000000000E+00 -0.93803231503E+03  0.93803231504E+03  0.50400001928E-02 0.  1.
    10030    2    1    2    0    0  0.00000000000E+00  0.00000000000E+00  0.12984972842E+03  0.20059143585E+04  0.20017071368E+04 0.  0.
        5    1    3    3  502    0 -0.44382712300E+03 -0.83242041713E+03  0.39996200149E+03  0.10246452843E+04  0.46999998093E+01 0. -1.
       -5    1    3    3    0  502  0.44382712300E+03  0.83242041713E+03 -0.27011227307E+03  0.98126907422E+03  0.46999998093E+01 0.  1.
</event>
<event>
 5   0  0.3549426E-05  0.1767261E+04  0.7818609E-02  0.8723906E-01
        1   -1    0    0  501    0  0.00000000000E+00  0.00000000000E+00  0.18307747327E+04  0.18307747327E+04  0.50400001928E-02 0.  1.
       -1   -1    0    0    0  501  0.00000000000E+00  0.00000000000E+00 -0.42648764228E+03  0.42648764231E+03  0.50400001928E-02 0. -1.
    10030    2    1    2    0    0  0.00000000000E+00  0.00000000000E+00  0.14042870904E+04  0.22572623750E+04  0.17672609307E+04 0.  0.
        5    1    3    3  502    0  0.29863852913E+03  0.66856121035E+03  0.13338696279E+04  0.15216403443E+04  0.46999998093E+01 0.  1.
       -5    1    3    3    0  502 -0.29863852913E+03 -0.66856121035E+03  0.70417462485E+02  0.73562203072E+03  0.46999998093E+01 0. -1.
</event>
<event>
 5   0  0.7935008E-05  0.2010914E+04  0.7818609E-02  0.8601535E-01
       -2   -1    0    0    0  501  0.00000000000E+00  0.00000000000E+00  0.97913256977E+03  0.97913256977E+03  0.25500000920E-02 0.  1.
        2   -1    0    0  501    0  0.00000000000E+00  0.00000000000E+00 -0.10324893768E+04  0.10324893768E+04  0.25500000920E-02 0. -1.
    10030    2    1    2    0    0  0.00000000000E+00  0.00000000000E+00 -0.53356806990E+02  0.20116219465E+04  0.20109141968E+04 0.  0.
        3    1    3    3  502    0  0.68470633103E+03 -0.18218168936E+03 -0.74032351328E+03  0.10247398900E+04  0.10100000352E+00 0. -1.
       -3    1    3    3    0  502 -0.68470633103E+03  0.18218168936E+03  0.68696670629E+03  0.98688205650E+03  0.10100000352E+00 0.  1.
</event>
<event>
 5   0  0.7935008E-05  0.1994761E+04  0.7818609E-02  0.8609074E-01
        2   -1    0    0  501    0  0.00000000000E+00  0.00000000000E+00  0.13139017695E+04  0.13139017695E+04  0.25500000920E-02 0. -1.
       -2   -1    0    0    0  501  0.00000000000E+00  0.00000000000E+00 -0.75710987884E+03  0.75710987884E+03  0.25500000920E-02 0.  1.
    10030    2    1    2    0    0  0.00000000000E+00  0.00000000000E+00  0.55679189069E+03  0.20710116484E+04  0.19947611482E+04 0.  0.
        3    1    3    3  502    0  0.78618072069E+03  0.42745294349E+03  0.73565361646E+03  0.11584396394E+04  0.10100000352E+00 0. -1.
       -3    1    3    3    0  502 -0.78618072069E+03 -0.42745294349E+03 -0.17886172576E+03  0.91257200900E+03  0.10100000352E+00 0.  1.
</event>
<event>
 5   0  0.3549426E-05  0.1908309E+04  0.7818609E-02  0.8650732E-01
       -1   -1    0    0    0  501  0.00000000000E+00  0.00000000000E+00  0.62480050799E+03  0.62480050801E+03  0.50400001928E-02 0. -1.
        1   -1    0    0  501    0  0.00000000000E+00  0.00000000000E+00 -0.14571216543E+04  0.14571216543E+04  0.50400001928E-02 0.  1.
    10030    2    1    2    0    0  0.00000000000E+00  0.00000000000E+00 -0.83232114627E+03  0.20819221623E+04  0.19083085178E+04 0.  0.
        5    1    3    3  502    0  0.54431604027E+03  0.59209627146E+03 -0.97621623079E+03  0.12648629039E+04  0.46999998093E+01 0.  1.
       -5    1    3    3    0  502 -0.54431604027E+03 -0.59209627146E+03  0.14389508452E+03  0.81705925839E+03  0.46999998093E+01 0. -1.
</event>
<event>
 5   0  0.8022574E-05  0.2004415E+04  0.7818609E-02  0.8604559E-01
        2   -1    0    0  501    0  0.00000000000E+00  0.00000000000E+00  0.12249439179E+04  0.12249439180E+04  0.25500000920E-02 0.  1.
       -2   -1    0    0    0  501  0.00000000000E+00  0.00000000000E+00 -0.81997185199E+03  0.81997185199E+03  0.25500000920E-02 0. -1.
    10030    2    1    2    0    0  0.00000000000E+00  0.00000000000E+00  0.40497206596E+03  0.20449157699E+04  0.20044146607E+04 0.  0.
        1    1    3    3  502    0 -0.39069944556E+03 -0.90993664153E+03  0.45133412245E+02  0.99129600689E+03  0.50400001928E-02 0. -1.
       -1    1    3    3    0  502  0.39069944556E+03  0.90993664153E+03  0.35983865372E+03  0.10536197631E+04  0.50400001928E-02 0.  1.
</event>
<event>
 5   0  0.3772949E-05  0.1932305E+04  0.7818609E-02  0.8638941E-01
       -1   -1    0    0    0  501  0.00000000000E+00  0.00000000000E+00  0.93032069949E+03  0.93032069950E+03  0.50400001928E-02 0. -1.
        1   -1    0    0  501    0  0.00000000000E+00  0.00000000000E+00 -0.10033644373E+04  0.10033644373E+04  0.50400001928E-02 0.  1.
    10030    2    1    2    0    0  0.00000000000E+00  0.00000000000E+00 -0.73043737792E+02  0.19336851368E+04  0.19323050537E+04 0.  0.
        2    1    3    3  502    0 -0.48456631286E+03 -0.17929805220E+03  0.78045474621E+03  0.93598179147E+03  0.25500000920E-02 0.  1.
       -2    1    3    3    0  502  0.48456631286E+03  0.17929805220E+03 -0.85349848400E+03  0.99770334533E+03  0.25500000920E-02 0. -1.
</event>
<event>
 5   0  0.7935008E-05  0.1996496E+04  0.7818609E-02  0.8608261E-01
       -2   -1    0    0    0  501  0.00000000000E+00  0.00000000000E+00  0.60814879210E+03  0.60814879210E+03  0.25500000920E-02 0. -1.
        2   -1    0    0  501    0  0.00000000000E+00  0.00000000000E+00 -0.16385771511E+04  0.16385771511E+04  0.25500000920E-02 0.  1.
    10030    2    1    2    0    0  0.00000000000E+00  0.00000000000E+00 -0.10304283590E+04  0.22467259432E+04  0.19964956451E+04 0.  0.
        3    1    3    3  502    0 -0.10735945752E+03  0.89913304698E+03 -0.42396219245E+02  0.90651185259E+03  0.10100000352E+00 0. -1.
       -3    1    3    3    0  502  0.10735945752E+03 -0.89913304698E+03 -0.98803213976E+03  0.13402140906E+04  0.10100000352E+00 0.  1.
</event>
<event>
 5   0  0.7857136E-05  0.1994785E+04  0.7818609E-02  0.8609063E-01
       -2   -1    0    0    0  501  0.00000000000E+00  0.00000000000E+00  0.91028890535E+03  0.91028890536E+03  0.25500000920E-02 0.  1.
        2   -1    0    0  501    0  0.00000000000E+00  0.00000000000E+00 -0.10928313289E+04  0.10928313289E+04  0.25500000920E-02 0. -1.
    10030    2    1    2    0    0  0.00000000000E+00  0.00000000000E+00 -0.18254242353E+03  0.20031202342E+04  0.19947854362E+04 0.  0.
        4    1    3    3  502    0 -0.16370496348E+03  0.98342136534E+03 -0.61588877750E+02  0.99885519453E+03  0.12699999809E+01 0.  1.
       -4    1    3    3    0  502  0.16370496348E+03 -0.98342136534E+03 -0.12095354578E+03  0.10042650397E+04  0.12699999809E+01 0. -1.
</event>
<event>
 5   0  0.8011197E-05  0.2007952E+04  0.7818609E-02  0.8602912E-01
        2   -1    0    0  501    0  0.00000000000E+00  0.00000000000E+00  0.81384956987E+03  0.81384956988E+03  0.25500000920E-02 0. -1.
       -2   -1    0    0    0  501  0.00000000000E+00  0.00000000000E+00 -0.12385188527E+04  0.12385188527E+04  0.25500000920E-02 0.  1.
    10030    2    1    2    0    0  0.00000000000E+00  0.00000000000E+00 -0.42466928284E+03  0.20523684226E+04  0.20079522261E+04 0.  0.
        5    1    3    3  502    0 -0.92260303359E+02 -0.24311060135E+02  0.80919401365E+03  0.81481288217E+03  0.46999998093E+01 0. -1.
       -5    1    3    3    0  502  0.92260303359E+02  0.24311060135E+02 -0.12338632965E+04  0.12375555404E+04  0.46999998093E+01 0.  1.
</event>
<event>
 5   0  0.3818907E-05  0.1971044E+04  0.7818609E-02  0.8620280E-01
       -1   -1    0    0    0  501  0.00000000000E+00  0.00000000000E+00  0.13712504868E+04  0.13712504868E+04  0.50400001928E-02 0.  1.
        1   -1    0    0  501    0  0.00000000000E+00  0.00000000000E+00 -0.70829749408E+03  0.70829749410E+03  0.50400001928E-02 0. -1.
    10030    2    1    2    0    0  0.00000000000E+00  0.00000000000E+00  0.66295299273E+03  0.20795479809E+04  0.19710436663E+04 0.  0.
        1    1    3    3  502    0 -0.52799645320E+03  0.75688622655E+03 -0.33387923902E+02  0.92345642454E+03  0.50400001928E-02 0. -1.
       -1    1    3    3    0  502  0.52799645320E+03 -0.75688622655E+03  0.69634091663E+03  0.11560915564E+04  0.50400001928E-02 0.  1.
</event>
<event>
 5   0  0.3970042E-05  0.2014078E+04  0.7818609E-02  0.8600067E-01
        1   -1    0    0  501    0  0.00000000000E+00  0.00000000000E+00  0.14625534409E+04  0.14625534409E+04  0.50400001928E-02 0.  1.
       -1   -1    0    0    0  501  0.00000000000E+00  0.00000000000E+00 -0.69339515000E+03  0.69339515002E+03  0.50400001928E-02 0. -1.
    10030    2    1    2    0    0  0.00000000000E+00  0.00000000000E+00  0.76915829090E+03  0.21559485909E+04  0.20140779156E+04 0.  0.
        3    1    3    3  502    0 -0.77365540777E+03  0.45603775313E+03  0.87232186620E+03  0.12519818572E+04  0.10100000352E+00 0.  1.
       -3    1    3    3    0  502  0.77365540777E+03 -0.45603775313E+03 -0.10316357530E+03  0.90396673375E+03  0.10100000352E+00 0. -1.
</event>
<event>
 5   0  0.3787698E-05  0.2038945E+04  0.7818609E-02  0.8588626E-01
        1   -1    0    0  501    0  0.00000000000E+00  0.00000000000E+00  0.56636100051E+03  0.56636100053E+03  0.50400001928E-02 0. -1.
       -1   -1    0    0    0  501  0.00000000000E+00  0.00000000000E+00 -0.18350921136E+04  0.18350921136E+04  0.50400001928E-02 0.  1.
    10030    2    1    2    0    0  0.00000000000E+00  0.00000000000E+00 -0.12687311130E+04  0.24014531141E+04  0.20389454191E+04 0.  0.
        4    1    3    3  502    0 -0.10055984479E+04 -0.15350252051E+03 -0.71365229310E+03  0.12426151740E+04  0.12699999809E+01 0. -1.
       -4    1    3    3    0  502  0.10055984479E+04  0.15350252051E+03 -0.55507881995E+03  0.11588379401E+04  0.12699999809E+01 0.  1.
</event>
<event>
 5   0  0.3549426E-05  0.2005675E+04  0.7818609E-02  0.8603972E-01
        1   -1    0    0  501    0  0.00000000000E+00  0.00000000000E+00  0.14141434065E+04  0.14141434066E+04  0.50400001928E-02 0.  1.
       -1   -1    0    0    0  501  0.00000000000E+00  0.00000000000E+00 -0.71116086712E+03  0.71116086714E+03  0.50400001928E-02 0. -1.
    10030    2    1    2    0    0  0.00000000000E+00  0.00000000000E+00  0.70298253943E+03  0.21253042737E+04  0.20056753987E+04 0.  0.
        5    1    3    3  502    0  0.42806445120E+03 -0.76982799574E+03  0.85944392747E+03  0.12306665966E+04  0.46999998093E+01 0.  1.
       -5    1    3    3    0  502 -0.42806445120E+03  0.76982799574E+03 -0.15646138804E+03  0.89463767714E+03  0.46999998093E+01 0. -1.
</event>
<event>
 5   0  0.7935008E-05  0.1882653E+04  0.7818609E-02  0.8663539E-01
       -2   -1    0    0    0  501  0.00000000000E+00  0.00000000000E+00  0.43733331267E+03  0.43733331268E+03  0.25500000920E-02 0. -1.
        2   -1    0    0  501    0  0.00000000000E+00  0.00000000000E+00 -0.20261341083E+04  0.20261341083E+04  0.25500000920E-02 0.  1.
    10030    2    1    2    0    0  0.00000000000E+00  0.00000000000E+00 -0.15888007956E+04  0.24634674210E+04  0.18826533845E+04 0.  0.
        3    1    3    3  502    0 -0.19550530455E+03 -0.87792397958E+03 -0.11577868014E+04  0.14660979250E+04  0.10100000352E+00 0. -1.
       -3    1    3    3    0  502  0.19550530455E+03  0.87792397958E+03 -0.43101399419E+03  0.99736949593E+03  0.10100000352E+00 0.  1.
</event>
<event>
 5   0  0.3772949E-05  0.2014479E+04  0.7818609E-02  0.8599881E-01
       -1   -1    0    0    0  501  0.00000000000E+00  0.00000000000E+00  0.10304560911E+04  0.10304560911E+04  0.50400001928E-02 0. -1.
        1   -1    0    0  501    0  0.00000000000E+00  0.00000000000E+00 -0.98454568493E+03  0.98454568494E+03  0.50400001928E-02 0.  1.
    10030    2    1    2    0    0  0.00000000000E+00  0.00000000000E+00  0.45910406199E+02  0.20150017761E+04  0.20144786899E+04 0.  0.
        2    1    3    3  502    0  0.95131148776E+03 -0.86858892756E+02  0.34240169102E+03  0.10147792529E+04  0.25500000920E-02 0. -1.
       -2    1    3    3    0  502 -0.95131148776E+03  0.86858892756E+02 -0.29649128482E+03  0.10002225232E+04  0.25500000920E-02 0.  1.
</event>
<event>
 5   0  0.3787698E-05  0.1997156E+04  0.7818609E-02  0.8607951E-01
        1   -1    0    0  501    0  0.00000000000E+00  0.00000000000E+00  0.12478276784E+04  0.12478276784E+04  0.50400001928E-02 0. -1.
       -1   -1    0    0    0  501  0.00000000000E+00  0.00000000000E+00 -0.79911545918E+03  0.79911545919E+03  0.50400001928E-02 0.  1.
    10030    2    1    2    0    0  0.00000000000E+00  0.00000000000E+00  0.44871221922E+03  0.20469431376E+04  0.19971563667E+04 0.  0.
        4    1    3    3  502    0  0.34808556860E+03  0.77751433741E+03 -0.30965508979E+03  0.90641050053E+03  0.12699999809E+01 0.  1.
       -4    1    3    3    0  502 -0.34808556860E+03 -0.77751433741E+03  0.75836730901E+03  0.11405326371E+04  0.12699999809E+01 0. -1.
</event>
<event>
 5   0  0.3970042E-05  0.1984463E+04  0.7818609E-02  0.8613920E-01
       -1   -1    0    0    0  501  0.00000000000E+00  0.00000000000E+00  0.57964946108E+03  0.57964946110E+03  0.50400001928E-02 0.  1.
        1   -1    0    0  501    0  0.00000000000E+00  0.00000000000E+00 -0.16984799211E+04  0.16984799211E+04  0.50400001928E-02 0. -1.
    10030    2    1    2    0    0  0.00000000000E+00  0.00000000000E+00 -0.11188304601E+04  0.22781293822E+04  0.19844626184E+04 0.  0.
        3    1    3    3  502    0  0.24007566291E+03 -0.22994205919E+03  0.51381891233E+03  0.61198003184E+03  0.10100000352E+00 0.  1.
       -3    1    3    3    0  502 -0.24007566291E+03  0.22994205919E+03 -0.16326493724E+04  0.16661493504E+04  0.10100000352E+00 0. -1.
</event>
<event>
 5   0  0.3787698E-05  0.2012822E+04  0.7818609E-02  0.8600649E-01
        1   -1    0    0  501    0  0.00000000000E+00  0.00000000000E+00  0.12589343526E+04  0.12589343526E+04  0.50400001928E-02 0. -1.
       -1   -1    0    0    0  501  0.00000000000E+00  0.00000000000E+00 -0.80454026750E+03  0.80454026751E+03  0.50400001928E-02 0.  1.
    10030    2    1    2    0    0  0.00000000000E+00  0.00000000000E+00  0.45439408512E+03  0.20634746201E+04  0.20128222781E+04 0.  0.
        4    1    3    3  502    0  0.46188565292E+02 -0.59446952385E+03 -0.60396723838E+03  0.84870809840E+03  0.12699999809E+01 0.  1.
       -4    1    3    3    0  502 -0.46188565292E+02  0.59446952385E+03  0.10583613235E+04  0.12147665217E+04  0.12699999809E+01 0. -1.
</event>
<event>
 5   0  0.7843846E-05  0.1999792E+04  0.7818609E-02  0.8606718E-01
       -2   -1    0    0    0  501  0.00000000000E+00  0.00000000000E+00  0.55875156161E+03  0.55875156161E+03  0.25500000920E-02 0.  1.
        2   -1    0    0  501    0  0.00000000000E+00  0.00000000000E+00 -0.17893312879E+04  0.17893312879E+04  0.25500000920E-02 0. -1.
    10030    2    1    2    0    0  0.00000000000E+00  0.00000000000E+00 -0.12305797263E+04  0.23480828495E+04  0.19997916405E+04 0.  0.
        2    1    3    3  502    0  0.86495903658E+03  0.49954954662E+03 -0.66893985592E+03  0.12021582322E+04  0.25500000920E-02 0. -1.
       -2    1    3    3    0  502 -0.86495903658E+03 -0.49954954662E+03 -0.56163987037E+03  0.11459246173E+04  0.25500000920E-02 0.  1.
</event>
<event>
 5   0  0.8011197E-05  0.2016942E+04  0.7818609E-02  0.8598741E-01
       -2   -1    0    0    0  501  0.00000000000E+00  0.00000000000E+00  0.10007722203E+04  0.10007722203E+04  0.25500000920E-02 0. -1.
        2   -1    0    0  501    0  0.00000000000E+00  0.00000000000E+00 -0.10162288302E+04  0.10162288302E+04  0.25500000920E-02 0.  1.
    10030    2    1    2    0    0  0.00000000000E+00  0.00000000000E+00 -0.15456609950E+02  0.20170010505E+04  0.20169418264E+04 0.  0.
        5    1    3    3  502    0  0.54641260424E+03  0.84714940108E+03  0.19888641012E+02  0.10082888921E+04  0.46999998093E+01 0. -1.
       -5    1    3    3    0  502 -0.54641260424E+03 -0.84714940108E+03 -0.35345250962E+02  0.10087121584E+04  0.46999998093E+01 0.  1.
</event>
<event>
 5   0  0.7935008E-05  0.1982291E+04  0.7818609E-02  0.8614945E-01
        2   -1    0    0  501    0  0.00000000000E+00  0.00000000000E+00  0.18956106752E+04  0.18956106752E+04  0.25500000920E-02 0.  1.
       -2   -1    0    0    0  501  0.00000000000E+00  0.00000000000E+00 -0.51823366052E+03  0.51823366052E+03  0.25500000920E-02 0. -1.
    10030    2    1    2    0    0  0.00000000000E+00  0.00000000000E+00  0.13773770146E+04  0.24138443357E+04  0.19822908557E+04 0.  0.
        3    1    3    3  502    0 -0.30629843857E+03  0.87313070643E+03  0.25611491312E+03  0.96008896614E+03  0.10100000352E+00 0. -1.
       -3    1    3    3    0  502  0.30629843857E+03 -0.87313070643E+03  0.11212621015E+04  0.14537553696E+04  0.10100000352E+00 0.  1.
</event>
<event>
 5   0  0.8011197E-05  0.1984885E+04  0.7818609E-02  0.8613720E-01
        2   -1    0    0  501    0  0.00000000000E+00  0.00000000000E+00  0.21393465200E+04  0.21393465200E+04  0.25500000920E-02 0.  1.
       -2   -1    0    0    0  501  0.00000000000E+00  0.00000000000E+00 -0.46039413978E+03  0.46039413978E+03  0.25500000920E-02 0. -1.
    10030    2    1    2    0    0  0.00000000000E+00  0.00000000000E+00  0.16789523803E+04  0.25997406598E+04  0.19848854887E+04 0.  0.
        5    1    3    3  502    0 -0.27148328577E+03 -0.50550493823E+03  0.19000508141E+04  0.19848056840E+04  0.46999998093E+01 0.  1.
       -5    1    3    3    0  502  0.27148328577E+03  0.50550493823E+03 -0.22109843385E+03  0.61493497582E+03  0.46999998093E+01 0. -1.
</event>
<event>
 5   0  0.3787698E-05  0.2003818E+04  0.7818609E-02  0.8604838E-01
        1   -1    0    0  501    0  0.00000000000E+00  0.00000000000E+00  0.41963336220E+03  0.41963336223E+03  0.50400001928E-02 0. -1.
       -1   -1    0    0    0  501  0.00000000000E+00  0.00000000000E+00 -0.23921399739E+04  0.23921399739E+04  0.50400001928E-02 0.  1.
    10030    2    1    2    0    0  0.00000000000E+00  0.00000000000E+00 -0.19725066117E+04  0.28117733361E+04  0.20038180957E+04 0.  0.
        4    1    3    3  502    0  0.64101079798E+03  0.70080946156E+03 -0.14339434369E+04  0.17199488765E+04  0.12699999809E+01 0.  1.
       -4    1    3    3    0  502 -0.64101079798E+03 -0.70080946156E+03 -0.53856317478E+03  0.10918244596E+04  0.12699999809E+01 0. -1.
</event>
<event>
 5   0  0.3970042E-05  0.2009231E+04  0.7818609E-02  0.8602317E-01
        1   -1    0    0  501    0  0.00000000000E+00  0.00000000000E+00  0.11861347131E+04  0.11861347131E+04  0.50400001928E-02 0. -1.
       -1   -1    0    0    0  501  0.00000000000E+00  0.00000000000E+00 -0.85087532345E+03  0.85087532347E+03  0.50400001928E-02 0.  1.
    10030    2    1    2    0    0  0.00000000000E+00  0.00000000000E+00  0.33525938968E+03  0.20370100366E+04  0.20092314528E+04 0.  0.
        3    1    3    3  502    0  0.19105669737E+03  0.12761181435E+03 -0.82388193497E+03  0.85531800504E+03  0.10100000352E+00 0.  1.
       -3    1    3    3    0  502 -0.19105669737E+03 -0.12761181435E+03  0.11591413247E+04  0.11816920316E+04  0.10100000352E+00 0. -1.
</event>
<event>
 5   0  0.3970042E-05  0.2010111E+04  0.7818609E-02  0.8601908E-01
        1   -1    0    0  501    0  0.00000000000E+00  0.00000000000E+00  0.82129881162E+03  0.82129881163E+03  0.50400001928E-02 0. -1.
       -1   -1    0    0    0  501  0.00000000000E+00  0.00000000000E+00 -0.12299261936E+04  0.12299261937E+04  0.50400001928E-02 0.  1.
    10030    2    1    2    0    0  0.00000000000E+00  0.00000000000E+00 -0.40862738203E+03  0.20512250053E+04  0.20101113613E+04 0.  0.
        3    1    3    3  502    0  0.88014687224E+03  0.10953669441E+03  0.27809221824E+03  0.92951175150E+03  0.10100000352E+00 0. -1.
       -3    1    3    3    0  502 -0.88014687224E+03 -0.10953669441E+03 -0.68671960028E+03  0.11217132538E+04  0.10100000352E+00 0.  1.
</event>
<event>
 5   0  0.3549426E-05  0.1993264E+04  0.7818609E-02  0.8609776E-01
        1   -1    0    0  501    0  0.00000000000E+00  0.00000000000E+00  0.83069482879E+03  0.83069482881E+03  0.50400001928E-02 0.  1.
       -1   -1    0    0    0  501  0.00000000000E+00  0.00000000000E+00 -0.11957165701E+04  0.11957165701E+04  0.50400001928E-02 0. -1.
    10030    2    1    2    0    0  0.00000000000E+00  0.00000000000E+00 -0.36502174130E+03  0.20264113989E+04  0.19932642289E+04 0.  0.
        5    1    3    3  502    0 -0.62050478939E+03 -0.65375908308E+03  0.24979745928E+03  0.93533309202E+03  0.46999998093E+01 0.  1.
       -5    1    3    3    0  502  0.62050478939E+03  0.65375908308E+03 -0.61481920058E+03  0.10910783069E+04  0.46999998093E+01 0. -1.
</event>
<event>
 5   0  0.7843846E-05  0.1991262E+04  0.7818609E-02  0.8610717E-01
       -2   -1    0    0    0  501  0.00000000000E+00  0.00000000000E+00  0.18982037294E+04  0.18982037294E+04  0.25500000920E-02 0. -1.
        2   -1    0    0  501    0  0.00000000000E+00  0.00000000000E+00 -0.52222076426E+03  0.52222076426E+03  0.25500000920E-02 0.  1.
    10030    2    1    2    0    0  0.00000000000E+00  0.00000000000E+00  0.13759829651E+04  0.24204244936E+04  0.19912623155E+04 0.  0.
        2    1    3    3  502    0 -0.46186039791E+03 -0.58230929455E+03  0.14932532462E+04  0.16679941244E+04  0.25500000920E-02 0. -1.
       -2    1    3    3    0  502  0.46186039791E+03  0.58230929455E+03 -0.11727028113E+03  0.75243036922E+03  0.25500000920E-02 0.  1.
</event>
<event>
 5   0  0.7935008E-05  0.2000582E+04  0.7818609E-02  0.8606348E-01
       -2   -1    0    0    0  501  0.00000000000E+00  0.00000000000E+00  0.13559607632E+04  0.13559607632E+04  0.25500000920E-02 0. -1.
        2   -1    0    0  501    0  0.00000000000E+00  0.00000000000E+00 -0.73791404739E+03  0.73791404739E+03  0.25500000920E-02 0.  1.
    10030    2    1    2    0    0  0.00000000000E+00  0.00000000000E+00  0.61804671579E+03  0.20938748106E+04  0.20005824101E+04 0.  0.
        3    1    3    3  502    0 -0.55852490506E+03 -0.74733383055E+03  0.68657286244E+03  0.11583782757E+04  0.10100000352E+00 0. -1.
       -3    1    3    3    0  502  0.55852490506E+03  0.74733383055E+03 -0.68526146659E+02  0.93549653492E+03  0.10100000352E+00 0.  1.
</event>
<event>
 5   0  0.7935008E-05  0.2001740E+04  0.7818609E-02  0.8605808E-01
       -2   -1    0    0    0  501  0.00000000000E+00  0.00000000000E+00  0.44713165616E+03  0.44713165617E+03  0.25500000920E-02 0. -1.
        2   -1    0    0  501    0  0.00000000000E+00  0.00000000000E+00 -0.22403709139E+04  0.22403709139E+04  0.25500000920E-02 0.  1.
    10030    2    1    2    0    0  0.00000000000E+00  0.00000000000E+00 -0.17932392578E+04  0.26875025701E+04  0.20017400003E+04 0.  0.
        3    1    3    3  502    0 -0.65252452952E+03  0.75527209433E+03 -0.79690130826E+03  0.12772141181E+04  0.10100000352E+00 0.  1.
       -3    1    3    3    0  502  0.65252452952E+03 -0.75527209433E+03 -0.99633794950E+03  0.14102884520E+04  0.10100000352E+00 0. -1.
</event>
<event>
 5   0  0.3772949E-05  0.1984795E+04  0.7818609E-02  0.8613762E-01
        1   -1    0    0  501    0  0.00000000000E+00  0.00000000000E+00  0.11118945827E+04  0.11118945827E+04  0.50400001928E-02 0. -1.
       -1   -1    0    0    0  501  0.00000000000E+00  0.00000000000E+00 -0.88574336225E+03  0.88574336227E+03  0.50400001928E-02 0.  1.
    10030    2    1    2    0    0  0.00000000000E+00  0.00000000000E+00  0.22615122041E+03  0.19976379449E+04  0.19847954516E+04 0.  0.
        2    1    3    3  502    0 -0.86775145162E+03 -0.41459526307E+03  0.35955081322E+03  0.10267222610E+04  0.25500000920E-02 0. -1.
       -2    1    3    3    0  502  0.86775145162E+03  0.41459526307E+03 -0.13339959280E+03  0.97091568394E+03  0.25500000920E-02 0.  1.
</event>
<event>
 5   0  0.7857136E-05  0.1998786E+04  0.7818609E-02  0.8607188E-01
        2   -1    0    0  501    0  0.00000000000E+00  0.00000000000E+00  0.11401455740E+04  0.11401455740E+04  0.25500000920E-02 0. -1.
       -2   -1    0    0    0  501  0.00000000000E+00  0.00000000000E+00 -0.87601649782E+03  0.87601649783E+03  0.25500000920E-02 0.  1.
    10030    2    1    2    0    0  0.00000000000E+00  0.00000000000E+00  0.26412907621E+03  0.20161620719E+04  0.19987859643E+04 0.  0.
        4    1    3    3  502    0  0.72377117667E+03 -0.42812790702E+03 -0.41267328764E+03  0.93671718047E+03  0.12699999809E+01 0.  1.
       -4    1    3    3    0  502 -0.72377117667E+03  0.42812790702E+03  0.67680236385E+03  0.10794448914E+04  0.12699999809E+01 0. -1.
</event>
<event>
 5   0  0.7935008E-05  0.2015946E+04  0.7818609E-02  0.8599201E-01
       -2   -1    0    0    0  501  0.00000000000E+00  0.00000000000E+00  0.49233529131E+03  0.49233529131E+03  0.25500000920E-02 0.  1.
        2   -1    0    0  501    0  0.00000000000E+00  0.00000000000E+00 -0.20636544668E+04  0.20636544668E+04  0.25500000920E-02 0. -1.
    10030    2    1    2    0    0  0.00000000000E+00  0.00000000000E+00 -0.15713191755E+04  0.25559897581E+04  0.20159463515E+04 0.  0.
        3    1    3    3  502    0 -0.90300945227E+03 -0.27519511936E+02 -0.21888978954E+03  0.92956771921E+03  0.10100000352E+00 0.  1.
       -3    1    3    3    0  502  0.90300945227E+03  0.27519511936E+02 -0.13524293859E+04  0.16264220389E+04  0.10100000352E+00 0. -1.
</event>
<event>
 5   0  0.7935008E-05  0.1880229E+04  0.7818609E-02  0.8664761E-01
        2   -1    0    0  501    0  0.00000000000E+00  0.00000000000E+00  0.18913613853E+04  0.18913613853E+04  0.25500000920E-02 0.  1.
       -2   -1    0    0    0  501  0.00000000000E+00  0.00000000000E+00 -0.46729047680E+03  0.46729047681E+03  0.25500000920E-02 0. -1.
    10030    2    1    2    0    0  0.00000000000E+00  0.00000000000E+00  0.14240709085E+04  0.23586518621E+04  0.18802288835E+04 0.  0.
        3    1    3    3  502    0  0.93417752398E+03  0.10187288512E+03  0.74637673103E+03  0.12000599843E+04  0.10100000352E+00 0.  1.
       -3    1    3    3    0  502 -0.93417752398E+03 -0.10187288512E+03  0.67769417751E+03  0.11585918779E+04  0.10100000352E+00 0. -1.
</event>
<event>
 5   0  0.7935008E-05  0.2032082E+04  0.7818609E-02  0.8591766E-01
        2   -1    0    0  501    0  0.00000000000E+00  0.00000000000E+00  0.65078444800E+03  0.65078444800E+03  0.25500000920E-02 0. -1.
       -2   -1    0    0    0  501  0.00000000000E+00  0.00000000000E+00 -0.15863003950E+04  0.15863003950E+04  0.25500000920E-02 0.  1.
    10030    2    1    2    0    0  0.00000000000E+00  0.00000000000E+00 -0.93551594696E+03  0.22370848430E+04  0.20320823083E+04 0.  0.
        3    1    3    3  502    0  0.49185468926E+03  0.74128475679E+03 -0.10081059424E+04  0.13445079871E+04  0.10100000352E+00 0.  1.
       -3    1    3    3    0  502 -0.49185468926E+03 -0.74128475679E+03  0.72589995464E+02  0.89257685587E+03  0.10100000352E+00 0. -1.
</event>
<event>
 5   0  0.8011197E-05  0.2005290E+04  0.7818609E-02  0.8604151E-01
        2   -1    0    0  501    0  0.00000000000E+00  0.00000000000E+00  0.17223029271E+04  0.17223029271E+04  0.25500000920E-02 0.  1.
       -2   -1    0    0    0  501  0.00000000000E+00  0.00000000000E+00 -0.58369365925E+03  0.58369365926E+03  0.25500000920E-02 0. -1.
    10030    2    1    2    0    0  0.00000000000E+00  0.00000000000E+00  0.11386092679E+04  0.23059965864E+04  0.20052903011E+04 0.  0.
        5    1    3    3  502    0  0.81947700663E+03 -0.33769644251E+03  0.30302773871E+02  0.88686064282E+03  0.46999998093E+01 0. -1.
       -5    1    3    3    0  502 -0.81947700663E+03  0.33769644251E+03  0.11083064940E+04  0.14191359436E+04  0.46999998093E+01 0.  1.
</event>
<event>
 5   0  0.3970042E-05  0.1999512E+04  0.7818609E-02  0.8606849E-01
        1   -1    0    0  501    0  0.00000000000E+00  0.00000000000E+00  0.13485319410E+04  0.13485319410E+04  0.50400001928E-02 0. -1.
       -1   -1    0    0    0  501  0.00000000000E+00  0.00000000000E+00 -0.74118519558E+03  0.74118519560E+03  0.50400001928E-02 0.  1.
    10030    2    1    2    0    0  0.00000000000E+00  0.00000000000E+00  0.60734674539E+03  0.20897171366E+04  0.19995118509E+04 0.  0.
        3    1    3    3  502    0 -0.56421537157E+03 -0.79339201356E+03  0.54131214990E+03  0.11139249196E+04  0.10100000352E+00 0. -1.
       -3    1    3    3    0  502  0.56421537157E+03  0.79339201356E+03  0.66034595485E+02  0.97579221697E+03  0.10100000352E+00 0.  1.
</event>
<event>
 5   0  0.3772949E-05  0.1999916E+04  0.7818609E-02  0.8606660E-01
       -1   -1    0    0    0  501  0.00000000000E+00  0.00000000000E+00  0.11059159290E+04  0.11059159290E+04  0.50400001928E-02 0. -1.
        1   -1    0    0  501    0  0.00000000000E+00  0.00000000000E+00 -0.90415200935E+03  0.90415200937E+03  0.50400001928E-02 0.  1.
    10030    2    1    2    0    0  0.00000000000E+00  0.00000000000E+00  0.20176391963E+03  0.20100679384E+04  0.19999161076E+04 0.  0.
        2    1    3    3  502    0 -0.48174460464E+03  0.21991132648E+03 -0.75164376430E+03  0.91946027866E+03  0.25500000920E-02 0.  1.
       -2    1    3    3    0  502  0.48174460464E+03 -0.21991132648E+03  0.95340768393E+03  0.10906076597E+04  0.25500000920E-02 0. -1.
</event>
<event>
 5   0  0.3787698E-05  0.1945587E+04  0.7818609E-02  0.8632492E-01
       -1   -1    0    0    0  501  0.00000000000E+00  0.00000000000E+00  0.73527209211E+03  0.73527209213E+03  0.50400001928E-02 0. -1.
        1   -1    0    0  501    0  0.00000000000E+00  0.00000000000E+00 -0.12870440684E+04  0.12870440684E+04  0.50400001928E-02 0.  1.
    10030    2    1    2    0    0  0.00000000000E+00  0.00000000000E+00 -0.55177197631E+03  0.20223161606E+04  0.19455874022E+04 0.  0.
        4    1    3    3  502    0  0.46920406546E+03  0.52886968582E+03 -0.97042177641E+03  0.12006563358E+04  0.12699999809E+01 0. -1.
       -4    1    3    3    0  502 -0.46920406546E+03 -0.52886968582E+03  0.41864980010E+03  0.82165982477E+03  0.12699999809E+01 0.  1.
</event>
<event>
 5   0  0.7935008E-05  0.1986124E+04  0.7818609E-02  0.8613136E-01
       -2   -1    0    0    0  501  0.00000000000E+00  0.00000000000E+00  0.45463680045E+03  0.45463680045E+03  0.25500000920E-02 0. -1.
        2   -1    0    0  501    0  0.00000000000E+00  0.00000000000E+00 -0.21691433382E+04  0.21691433382E+04  0.25500000920E-02 0.  1.
    10030    2    1    2    0    0  0.00000000000E+00  0.00000000000E+00 -0.17145065377E+04  0.26237801386E+04  0.19861242529E+04 0.  0.
        3    1    3    3  502    0 -0.10897127834E+03 -0.98498468985E+03 -0.94187094536E+03  0.13671834064E+04  0.10100000352E+00 0. -1.
       -3    1    3    3    0  502  0.10897127834E+03  0.98498468985E+03 -0.77263559237E+03  0.12565967323E+04  0.10100000352E+00 0.  1.
</event>
<event>
 5   0  0.7935008E-05  0.1993880E+04  0.7818609E-02  0.8609487E-01
        2   -1    0    0  501    0  0.00000000000E+00  0.00000000000E+00  0.15635559136E+04  0.15635559136E+04  0.25500000920E-02 0. -1.
       -2   -1    0    0    0  501  0.00000000000E+00  0.00000000000E+00 -0.63565993086E+03  0.63565993086E+03  0.25500000920E-02 0.  1.
    10030    2    1    2    0    0  0.00000000000E+00  0.00000000000E+00  0.92789598271E+03  0.21992158444E+04  0.19938804818E+04 0.  0.
        3    1    3    3  502    0 -0.82743215679E+03  0.42029634400E+03  0.62309501491E+02  0.93014809307E+03  0.10100000352E+00 0.  1.
       -3    1    3    3    0  502  0.82743215679E+03 -0.42029634400E+03  0.86558648122E+03  0.12690677514E+04  0.10100000352E+00 0. -1.
</event>
<event>
 5   0  0.8022574E-05  0.1995692E+04  0.7818609E-02  0.8608637E-01
       -2   -1    0    0    0  501  0.00000000000E+00  0.00000000000E+00  0.11972745821E+04  0.11972745821E+04  0.25500000920E-02 0. -1.
        2   -1    0    0  501    0  0.00000000000E+00  0.00000000000E+00 -0.83163607361E+03  0.83163607361E+03  0.25500000920E-02 0.  1.
    10030    2    1    2    0    0  0.00000000000E+00  0.00000000000E+00  0.36563850848E+03  0.20289106557E+04  0.19956920930E+04 0.  0.
        1    1    3    3  502    0  0.66864050394E+03 -0.21254372295E+03  0.90416589104E+03  0.11444522341E+04  0.50400001928E-02 0. -1.
       -1    1    3    3    0  502 -0.66864050394E+03  0.21254372295E+03 -0.53852738257E+03  0.88445842156E+03  0.50400001928E-02 0.  1.
</event>
<event>
 5   0  0.3818907E-05  0.2025679E+04  0.7818609E-02  0.8594708E-01
       -1   -1    0    0    0  501  0.00000000000E+00  0.00000000000E+00  0.85524379686E+03  0.85524379688E+03  0.50400001928E-02 0.  1.
        1   -1    0    0  501    0  0.00000000000E+00  0.00000000000E+00 -0.11994753413E+04  0.11994753414E+04  0.50400001928E-02 0. -1.
    10030    2    1    2    0    0  0.00000000000E+00  0.00000000000E+00 -0.34423154449E+03  0.20547191382E+04  0.20256789925E+04 0.  0.
        1    1    3    3  502    0 -0.52886451252E+03 -0.81604492180E+03  0.11517036233E+03  0.97922990119E+03  0.50400001928E-02 0. -1.
       -1    1    3    3    0  502  0.52886451252E+03  0.81604492180E+03 -0.45940190682E+03  0.10754892370E+04  0.50400001928E-02 0.  1.
</event>
<event>
 5   0  0.7843846E-05  0.1999142E+04  0.7818609E-02  0.8607022E-01
        2   -1    0    0  501    0  0.00000000000E+00  0.00000000000E+00  0.74276895508E+03  0.74276895508E+03  0.25500000920E-02 0.  1.
       -2   -1    0    0    0  501  0.00000000000E+00  0.00000000000E+00 -0.13451593468E+04  0.13451593468E+04  0.25500000920E-02 0. -1.
    10030    2    1    2    0    0  0.00000000000E+00  0.00000000000E+00 -0.60239039172E+03  0.20879283019E+04  0.19991424186E+04 0.  0.
        2    1    3    3  502    0 -0.21597100765E+03  0.98813533901E+02  0.71287183938E+03  0.75139460340E+03  0.25500000920E-02 0.  1.
       -2    1    3    3    0  502  0.21597100765E+03 -0.98813533901E+02 -0.13152622311E+04  0.13365336985E+04  0.25500000920E-02 0. -1.
</event>
<event>
 5   0  0.7935008E-05  0.2018667E+04  0.7818609E-02  0.8597943E-01
        2   -1    0    0  501    0  0.00000000000E+00  0.00000000000E+00  0.18235733889E+04  0.18235733889E+04  0.25500000920E-02 0. -1.
       -2   -1    0    0    0  501  0.00000000000E+00  0.00000000000E+00 -0.55865816296E+03  0.55865816297E+03  0.25500000920E-02 0.  1.
    10030    2    1    2    0    0  0.00000000000E+00  0.00000000000E+00  0.12649152259E+04  0.23822315518E+04  0.20186670448E+04 0.  0.
        3    1    3    3  502    0 -0.30292864150E+02 -0.19939002622E+03  0.17995533768E+04  0.18108192639E+04  0.10100000352E+00 0. -1.
       -3    1    3    3    0  502  0.30292864150E+02  0.19939002622E+03 -0.53463815094E+03  0.57141228795E+03  0.10100000352E+00 0.  1.
</event>
<event>
 5   0  0.3818907E-05  0.2009258E+04  0.7818609E-02  0.8602304E-01
       -1   -1    0    0    0  501  0.00000000000E+00  0.00000000000E+00  0.65866117494E+03  0.65866117496E+03  0.50400001928E-02 0.  1.
        1   -1    0    0  501    0  0.00000000000E+00  0.00000000000E+00 -0.15323199733E+04  0.15323199733E+04  0.50400001928E-02 0. -1.
    10030    2    1    2    0    0  0.00000000000E+00  0.00000000000E+00 -0.87365879836E+03  0.21909811483E+04  0.20092582453E+04 0.  0.
        1    1    3    3  502    0  0.49119586489E+03 -0.62389354457E+03  0.23426982465E+03  0.82788820707E+03  0.50400001928E-02 0.  1.
       -1    1    3    3    0  502 -0.49119586489E+03  0.62389354457E+03 -0.11079286230E+04  0.13630929412E+04  0.50400001928E-02 0. -1.
</event>
<event>
 5   0  0.7857136E-05  0.2055835E+04  0.7818609E-02  0.8580952E-01
       -2   -1    0    0    0  501  0.00000000000E+00  0.00000000000E+00  0.53728971271E+03  0.53728971272E+03  0.25500000920E-02 0.  1.
        2   -1    0    0  501    0  0.00000000000E+00  0.00000000000E+00 -0.19665629901E+04  0.19665629901E+04  0.25500000920E-02 0. -1.
    10030    2    1    2    0    0  0.00000000000E+00  0.00000000000E+00 -0.14292732774E+04  0.25038527028E+04  0.20558346860E+04 0.  0.
        4    1    3    3  502    0  0.77943660385E+03  0.59503223477E+03 -0.33919223894E+03  0.10376115688E+04  0.12699999809E+01 0.  1.
       -4    1    3    3    0  502 -0.77943660385E+03 -0.59503223477E+03 -0.10900810385E+04  0.14662411340E+04  0.12699999809E+01 0. -1.
</event>
<event>
 5   0  0.3549426E-05  0.1997337E+04  0.7818609E-02  0.8607867E-01
        1   -1    0    0  501    0  0.00000000000E+00  0.00000000000E+00  0.12818516052E+04  0.12818516052E+04  0.50400001928E-02 0.  1.
       -1   -1    0    0    0  501  0.00000000000E+00  0.00000000000E+00 -0.77804529031E+03  0.77804529032E+03  0.50400001928E-02 0. -1.
    10030    2    1    2    0    0  0.00000000000E+00  0.00000000000E+00  0.50380631491E+03  0.20598968955E+04  0.19973368312E+04 0.  0.
        5    1    3    3  502    0 -0.99811210898E+03  0.14241762803E+02  0.22120674558E+03  0.10224407681E+04  0.46999998093E+01 0. -1.
       -5    1    3    3    0  502  0.99811210898E+03 -0.14241762803E+02  0.28259956932E+03  0.10374561275E+04  0.46999998093E+01 0.  1.
</event>
<event>
 5   0  0.8011197E-05  0.2051134E+04  0.7818609E-02  0.8583080E-01
        2   -1    0    0  501    0  0.00000000000E+00  0.00000000000E+00  0.28135443408E+04  0.28135443408E+04  0.25500000920E-02 0. -1.
       -2   -1    0    0    0  501  0.00000000000E+00  0.00000000000E+00 -0.37382999218E+03  0.37382999219E+03  0.25500000920E-02 0.  1.
    10030    2    1    2    0    0  0.00000000000E+00  0.00000000000E+00  0.24397143486E+04  0.31873743330E+04  0.20511335977E+04 0.  0.
        5    1    3    3  502    0  0.33595946417E+03 -0.34526487618E+03 -0.18704390532E+03  0.51680180805E+03  0.46999998093E+01 0.  1.
       -5    1    3    3    0  502 -0.33595946417E+03  0.34526487618E+03  0.26267582539E+04  0.26705725249E+04  0.46999998093E+01 0. -1.
</event>
<event>
 5   0  0.7857136E-05  0.1967199E+04  0.7818609E-02  0.8622112E-01
        2   -1    0    0  501    0  0.00000000000E+00  0.00000000000E+00  0.60493435747E+03  0.60493435748E+03  0.25500000920E-02 0.  1.
       -2   -1    0    0    0  501  0.00000000000E+00  0.00000000000E+00 -0.15992939170E+04  0.15992939170E+04  0.25500000920E-02 0. -1.
    10030    2    1    2    0    0  0.00000000000E+00  0.00000000000E+00 -0.99435955954E+03  0.22042282745E+04  0.19671988594E+04 0.  0.
        4    1    3    3  502    0 -0.57615026649E+02 -0.38814325224E+03  0.51343309814E+03  0.64621191162E+03  0.12699999809E+01 0.  1.
       -4    1    3    3    0  502  0.57615026649E+02  0.38814325224E+03 -0.15077926577E+04  0.15580163629E+04  0.12699999809E+01 0. -1.
</event>
<event>
 5   0  0.7935008E-05  0.2020969E+04  0.7818609E-02  0.8596879E-01
       -2   -1    0    0    0  501  0.00000000000E+00  0.00000000000E+00  0.57562469774E+03  0.57562469774E+03  0.25500000920E-02 0.  1.
        2   -1    0    0  501    0  0.00000000000E+00  0.00000000000E+00 -0.17738626385E+04  0.17738626385E+04  0.25500000920E-02 0. -1.
    10030    2    1    2    0    0  0.00000000000E+00  0.00000000000E+00 -0.11982379408E+04  0.23494873363E+04  0.20209692181E+04 0.  0.
        3    1    3    3  502    0 -0.67396023315E+03 -0.11896847101E+03 -0.14634088264E+04  0.16155312737E+04  0.10100000352E+00 0. -1.
       -3    1    3    3    0  502  0.67396023315E+03  0.11896847101E+03  0.26517088563E+03  0.73395606254E+03  0.10100000352E+00 0.  1.
</event>
<event>
 5   0  0.7935008E-05  0.2001930E+04  0.7818609E-02  0.8605719E-01
        2   -1    0    0  501    0  0.00000000000E+00  0.00000000000E+00  0.11214179343E+04  0.11214179343E+04  0.25500000920E-02 0.  1.
       -2   -1    0    0    0  501  0.00000000000E+00  0.00000000000E+00 -0.89345030884E+03  0.89345030885E+03  0.25500000920E-02 0. -1.
    10030    2    1    2    0    0  0.00000000000E+00  0.00000000000E+00  0.22796762549E+03  0.20148682432E+04  0.20019302683E+04 0.  0.
        3    1    3    3  502    0  0.46731152539E+03 -0.13006731062E+03 -0.76725098318E+03  0.90772884081E+03  0.10100000352E+00 0. -1.
       -3    1    3    3    0  502 -0.46731152539E+03  0.13006731062E+03  0.99521860867E+03  0.11071394024E+04  0.10100000352E+00 0.  1.
</event>
<event>
 5   0  0.7857136E-05  0.1997150E+04  0.7818609E-02  0.8607954E-01
       -2   -1    0    0    0  501  0.00000000000E+00  0.00000000000E+00  0.60351720076E+03  0.60351720076E+03  0.25500000920E-02 0.  1.
        2   -1    0    0  501    0  0.00000000000E+00  0.00000000000E+00 -0.16522341671E+04  0.16522341671E+04  0.25500000920E-02 0. -1.
    10030    2    1    2    0    0  0.00000000000E+00  0.00000000000E+00 -0.10487169663E+04  0.22557513678E+04  0.19971497085E+04 0.  0.
        4    1    3    3  502    0 -0.13232944310E+03  0.90425127212E+03 -0.97892362837E+03  0.13392066785E+04  0.12699999809E+01 0. -1.
       -4    1    3    3    0  502  0.13232944310E+03 -0.90425127212E+03 -0.69793337940E+02  0.91654468934E+03  0.12699999809E+01 0.  1.
</event>
<event>
 5   0  0.7935008E-05  0.1993980E+04  0.7818609E-02  0.8609441E-01
       -2   -1    0    0    0  501  0.00000000000E+00  0.00000000000E+00  0.49660577118E+03  0.49660577119E+03  0.25500000920E-02 0.  1.
        2   -1    0    0  501    0  0.00000000000E+00  0.00000000000E+00 -0.20015651329E+04  0.20015651329E+04  0.25500000920E-02 0. -1.
    10030    2    1    2    0    0  0.00000000000E+00  0.00000000000E+00 -0.15049593617E+04  0.24981709041E+04  0.19939797355E+04 0.  0.
        3    1    3    3  502    0 -0.33954722803E+03  0.39501139961E+03  0.31256825050E+03  0.60747448285E+03  0.10100000352E+00 0.  1.
       -3    1    3    3    0  502  0.33954722803E+03 -0.39501139961E+03 -0.18175276122E+04  0.18906964212E+04  0.10100000352E+00 0. -1.
</event>
<event>
 5   0  0.3549426E-05  0.2017332E+04  0.7818609E-02  0.8598560E-01
       -1   -1    0    0    0  501  0.00000000000E+00  0.00000000000E+00  0.53464297334E+03  0.53464297337E+03  0.50400001928E-02 0.  1.
        1   -1    0    0  501    0  0.00000000000E+00  0.00000000000E+00 -0.19029661190E+04  0.19029661190E+04  0.50400001928E-02 0. -1.
    10030    2    1    2    0    0  0.00000000000E+00  0.00000000000E+00 -0.13683231457E+04  0.24376090924E+04  0.20173323614E+04 0.  0.
        5    1    3    3  502    0  0.85104871602E+03 -0.48594520381E+03 -0.97254261093E+03  0.13806838444E+04  0.46999998093E+01 0.  1.
       -5    1    3    3    0  502 -0.85104871602E+03  0.48594520381E+03 -0.39578053475E+03  0.10569252480E+04  0.46999998093E+01 0. -1.
</event>
<event>
 5   0  0.8022574E-05  0.2007199E+04  0.7818609E-02  0.8603262E-01
        2   -1    0    0  501    0  0.00000000000E+00  0.00000000000E+00  0.13953034388E+04  0.13953034388E+04  0.25500000920E-02 0.  1.
       -2   -1    0    0    0  501  0.00000000000E+00  0.00000000000E+00 -0.72185889912E+03  0.72185889912E+03  0.25500000920E-02 0. -1.
    10030    2    1    2    0    0  0.00000000000E+00  0.00000000000E+00  0.67344453968E+03  0.21171623379E+04  0.20071992470E+04 0.  0.
        1    1    3    3  502    0  0.31799805357E+03 -0.76944493220E+03 -0.25437490279E+03  0.87056008234E+03  0.50400001928E-02 0. -1.
       -1    1    3    3    0  502 -0.31799805357E+03  0.76944493220E+03  0.92781944247E+03  0.12466022556E+04  0.50400001928E-02 0.  1.
</event>
<event>
 5   0  0.3818907E-05  0.1952821E+04  0.7818609E-02  0.8629001E-01
       -1   -1    0    0    0  501  0.00000000000E+00  0.00000000000E+00  0.55500875672E+03  0.55500875674E+03  0.50400001928E-02 0. -1.
        1   -1    0    0  501    0  0.00000000000E+00  0.00000000000E+00 -0.17177708256E+04  0.17177708256E+04  0.50400001928E-02 0.  1.
    10030    2    1    2    0    0  0.00000000000E+00  0.00000000000E+00 -0.11627620689E+04  0.22727795824E+04  0.19528213951E+04 0.  0.
        1    1    3    3  502    0 -0.23834487643E+03 -0.71458121555E+03  0.14164930808E+03  0.76648491194E+03  0.50400001928E-02 0. -1.
       -1    1    3    3    0  502  0.23834487643E+03  0.71458121555E+03 -0.13044113770E+04  0.15062946704E+04  0.50400001928E-02 0.  1.
</event>
<event>
 5   0  0.7857136E-05  0.1964761E+04  0.7818609E-02  0.8623276E-01
       -2   -1    0    0    0  501  0.00000000000E+00  0.00000000000E+00  0.94114441085E+03  0.94114441086E+03  0.25500000920E-02 0. -1.
        2   -1    0    0  501    0  0.00000000000E+00  0.00000000000E+00 -0.10254234318E+04  0.10254234318E+04  0.25500000920E-02 0.  1.
    10030    2    1    2    0    0  0.00000000000E+00  0.00000000000E+00 -0.84279020948E+02  0.19665678427E+04  0.19647610863E+04 0.  0.
        4    1    3    3  502    0 -0.44672172601E+03  0.24325283942E+02 -0.91753962073E+03  0.10207999747E+04  0.12699999809E+01 0.  1.
       -4    1    3    3    0  502  0.44672172601E+03 -0.24325283942E+02  0.83326059979E+03  0.94576786792E+03  0.12699999809E+01 0. -1.
</event>
<event>
 5   0  0.7857136E-05  0.1967923E+04  0.7818609E-02  0.8621766E-01
        2   -1    0    0  501    0  0.00000000000E+00  0.00000000000E+00  0.93188560145E+03  0.93188560145E+03  0.25500000920E-02 0.  1.
       -2   -1    0    0    0  501  0.00000000000E+00  0.00000000000E+00 -0.10389472244E+04  0.10389472244E+04  0.25500000920E-02 0. -1.
    10030    2    1    2    0    0  0.00000000000E+00  0.00000000000E+00 -0.10706162295E+03  0.19708328259E+04  0.19679227211E+04 0.  0.
        4    1    3    3  502    0 -0.64960142409E+03  0.41196448321E+03  0.56095749851E+03  0.95203554222E+03  0.12699999809E+01 0.  1.
       -4    1    3    3    0  502  0.64960142409E+03 -0.41196448321E+03 -0.66801912147E+03  0.10187972836E+04  0.12699999809E+01 0. -1.
</event>
<event>
 5   0  0.2859625E-05  0.2001776E+04  0.7818609E-02  0.8605791E-01
       -3   -1    0    0    0  501  0.00000000000E+00  0.00000000000E+00  0.55428357614E+03  0.55428358534E+03  0.10100000352E+00 0. -1.
        3   -1    0    0  501    0  0.00000000000E+00  0.00000000000E+00 -0.18073361044E+04  0.18073361072E+04  0.10100000352E+00 0.  1.
    10030    2    1    2    0    0  0.00000000000E+00  0.00000000000E+00 -0.12530525283E+04  0.23616196926E+04  0.20017759449E+04 0.  0.
        4    1    3    3  502    0 -0.25037341758E+03  0.74320123657E+03 -0.13602019910E+04  0.15700910787E+04  0.12699999809E+01 0.  1.
       -4    1    3    3    0  502  0.25037341758E+03 -0.74320123657E+03  0.10714946272E+03  0.79152861385E+03  0.12699999809E+01 0. -1.
</event>
<event>
 5   0  0.7857136E-05  0.1958537E+04  0.7818609E-02  0.8626255E-01
        2   -1    0    0  501    0  0.00000000000E+00  0.00000000000E+00  0.14002925309E+04  0.14002925309E+04  0.25500000920E-02 0.  1.
       -2   -1    0    0    0  501  0.00000000000E+00  0.00000000000E+00 -0.68483306311E+03  0.68483306312E+03  0.25500000920E-02 0. -1.
    10030    2    1    2    0    0  0.00000000000E+00  0.00000000000E+00  0.71545946783E+03  0.20851255941E+04  0.19585368245E+04 0.  0.
        4    1    3    3  502    0 -0.68263726045E+03 -0.69040659979E+03  0.49369528745E+03  0.10892160264E+04  0.12699999809E+01 0.  1.
       -4    1    3    3    0  502  0.68263726045E+03  0.69040659979E+03  0.22176418038E+03  0.99590956768E+03  0.12699999809E+01 0. -1.
</event>
<event>
 5   0  0.8022574E-05  0.2014027E+04  0.7818609E-02  0.8600091E-01
       -2   -1    0    0    0  501  0.00000000000E+00  0.00000000000E+00  0.89649826248E+03  0.89649826249E+03  0.25500000920E-02 0.  1.
        2   -1    0    0  501    0  0.00000000000E+00  0.00000000000E+00 -0.11311519913E+04  0.11311519913E+04  0.25500000920E-02 0. -1.
    10030    2    1    2    0    0  0.00000000000E+00  0.00000000000E+00 -0.23465372877E+03  0.20276502537E+04  0.20140266083E+04 0.  0.
        1    1    3    3  502    0 -0.33917081903E+03  0.51214948491E+03 -0.92068563917E+03  0.11067953675E+04  0.50400001928E-02 0. -1.
       -1    1    3    3    0  502  0.33917081903E+03 -0.51214948491E+03  0.68603191040E+03  0.92085488622E+03  0.50400001928E-02 0.  1.
</event>
<event>
 5   0  0.3787698E-05  0.2008636E+04  0.7818609E-02  0.8602594E-01
       -1   -1    0    0    0  501  0.00000000000E+00  0.00000000000E+00  0.52264307566E+03  0.52264307569E+03  0.50400001928E-02 0. -1.
        1   -1    0    0  501    0  0.00000000000E+00  0.00000000000E+00 -0.19299103541E+04  0.19299103541E+04  0.50400001928E-02 0.  1.
    10030    2    1    2    0    0  0.00000000000E+00  0.00000000000E+00 -0.14072672785E+04  0.24525534298E+04  0.20086356397E+04 0.  0.
        4    1    3    3  502    0 -0.84908147538E+03 -0.35849060099E+03 -0.21645767389E+03  0.94673671119E+03  0.12699999809E+01 0. -1.
       -4    1    3    3    0  502  0.84908147538E+03  0.35849060099E+03 -0.11908096046E+04  0.15058167186E+04  0.12699999809E+01 0.  1.
</event>
<event>
 5   0  0.2859625E-05  0.2009804E+04  0.7818609E-02  0.8602050E-01
       -3   -1    0    0    0  501  0.00000000000E+00  0.00000000000E+00  0.90977843317E+03  0.90977843877E+03  0.10100000352E+00 0.  1.
        3   -1    0    0  501    0  0.00000000000E+00  0.00000000000E+00 -0.11099717477E+04  0.11099717523E+04  0.10100000352E+00 0. -1.
    10030    2    1    2    0    0  0.00000000000E+00  0.00000000000E+00 -0.20019331450E+03  0.20197501910E+04  0.20098043365E+04 0.  0.
        1    1    3    3  502    0 -0.79469061155E+03  0.61430521547E+03 -0.69543872524E+02  0.10068467689E+04  0.50400001928E-02 0. -1.
       -1    1    3    3    0  502  0.79469061155E+03 -0.61430521547E+03 -0.13064944198E+03  0.10129034221E+04  0.50400001928E-02 0.  1.
</event>
<event>
 5   0  0.3549426E-05  0.1988464E+04  0.7818609E-02  0.8612033E-01
       -1   -1    0    0    0  501  0.00000000000E+00  0.00000000000E+00  0.64208195999E+03  0.64208196001E+03  0.50400001928E-02 0. -1.
        1   -1    0    0  501    0  0.00000000000E+00  0.00000000000E+00 -0.15395182053E+04  0.15395182054E+04  0.50400001928E-02 0.  1.
    10030    2    1    2    0    0  0.00000000000E+00  0.00000000000E+00 -0.89743624536E+03  0.21816001654E+04  0.19884635946E+04 0.  0.
        5    1    3    3  502    0  0.35947044318E+03  0.92229382719E+03 -0.34679804876E+03  0.10488736243E+04  0.46999998093E+01 0.  1.
       -5    1    3    3    0  502 -0.35947044318E+03 -0.92229382719E+03 -0.55063819660E+03  0.11327265410E+04  0.46999998093E+01 0. -1.
</event>
<event>
 5   0  0.7857136E-05  0.1987633E+04  0.7818609E-02  0.8612424E-01
       -2   -1    0    0    0  501  0.00000000000E+00  0.00000000000E+00  0.10586676331E+04  0.10586676331E+04  0.25500000920E-02 0.  1.
        2   -1    0    0  501    0  0.00000000000E+00  0.00000000000E+00 -0.93293815921E+03  0.93293815922E+03  0.25500000920E-02 0. -1.
    10030    2    1    2    0    0  0.00000000000E+00  0.00000000000E+00  0.12572947389E+03  0.19916057923E+04  0.19876331984E+04 0.  0.
        4    1    3    3  502    0  0.22990742026E+03 -0.91619507404E+02  0.10272946963E+04  0.10566870691E+04  0.12699999809E+01 0.  1.
       -4    1    3    3    0  502 -0.22990742026E+03  0.91619507404E+02 -0.90156522237E+03  0.93491872327E+03  0.12699999809E+01 0. -1.
</event>
<event>
 5   0  0.8022574E-05  0.1959927E+04  0.7818609E-02  0.8625589E-01
       -2   -1    0    0    0  501  0.00000000000E+00  0.00000000000E+00  0.95346170147E+03  0.95346170148E+03  0.25500000920E-02 0. -1.
        2   -1    0    0  501    0  0.00000000000E+00  0.00000000000E+00 -0.10072019199E+04  0.10072019199E+04  0.25500000920E-02 0.  1.
    10030    2    1    2    0    0  0.00000000000E+00  0.00000000000E+00 -0.53740218409E+02  0.19606636214E+04  0.19599269948E+04 0.  0.
        1    1    3    3  502    0 -0.24903151833E+03  0.81328794940E+03 -0.51375054583E+03  0.99367681322E+03  0.50400001928E-02 0.  1.
       -1    1    3    3    0  502  0.24903151833E+03 -0.81328794940E+03  0.46001032742E+03  0.96698680814E+03  0.50400001928E-02 0. -1.
</event>
<event>
 5   0  0.7843846E-05  0.2005313E+04  0.7818609E-02  0.8604141E-01
       -2   -1    0    0    0  501  0.00000000000E+00  0.00000000000E+00  0.12060288914E+04  0.12060288914E+04  0.25500000920E-02 0.  1.
        2   -1    0    0  501    0  0.00000000000E+00  0.00000000000E+00 -0.83357887943E+03  0.83357887944E+03  0.25500000920E-02 0. -1.
    10030    2    1    2    0    0  0.00000000000E+00  0.00000000000E+00  0.37245001196E+03  0.20396077708E+04  0.20053131545E+04 0.  0.
        2    1    3    3  502    0 -0.24135705815E+03  0.65361375198E+03 -0.54711605860E+03  0.88588946708E+03  0.25500000920E-02 0. -1.
       -2    1    3    3    0  502  0.24135705815E+03 -0.65361375198E+03  0.91956607056E+03  0.11537183038E+04  0.25500000920E-02 0.  1.
</event>
<event>
 5   0  0.8011197E-05  0.2007509E+04  0.7818609E-02  0.8603118E-01
        2   -1    0    0  501    0  0.00000000000E+00  0.00000000000E+00  0.16119880939E+04  0.16119880939E+04  0.25500000920E-02 0.  1.
       -2   -1    0    0    0  501  0.00000000000E+00  0.00000000000E+00 -0.62501898035E+03  0.62501898035E+03  0.25500000920E-02 0. -1.
    10030    2    1    2    0    0  0.00000000000E+00  0.00000000000E+00  0.98696911356E+03  0.22370070743E+04  0.20075090583E+04 0.  0.
        5    1    3    3  502    0  0.69766903482E+03  0.11821769971E+03 -0.29978557422E+03  0.76851219065E+03  0.46999998093E+01 0. -1.
       -5    1    3    3    0  502 -0.69766903482E+03 -0.11821769971E+03  0.12867546878E+04  0.14684948836E+04  0.46999998093E+01 0.  1.
</event>
<event>
 5   0  0.7843846E-05  0.2002120E+04  0.7818609E-02  0.8605630E-01
        2   -1    0    0  501    0  0.00000000000E+00  0.00000000000E+00  0.13516510979E+04  0.13516510979E+04  0.25500000920E-02 0.  1.
       -2   -1    0    0    0  501  0.00000000000E+00  0.00000000000E+00 -0.74140485250E+03  0.74140485250E+03  0.25500000920E-02 0. -1.
    10030    2    1    2    0    0  0.00000000000E+00  0.00000000000E+00  0.61024624545E+03  0.20930559504E+04  0.20021195598E+04 0.  0.
        2    1    3    3  502    0 -0.15007364652E+03 -0.19369313465E+03 -0.70957084677E+03  0.75068629692E+03  0.25500000920E-02 0. -1.
       -2    1    3    3    0  502  0.15007364652E+03  0.19369313465E+03  0.13198170922E+04  0.13423696535E+04  0.25500000920E-02 0.  1.
</event>
<event>
 5   0  0.3970042E-05  0.1991746E+04  0.7818609E-02  0.8610489E-01
        1   -1    0    0  501    0  0.00000000000E+00  0.00000000000E+00  0.23507549942E+04  0.23507549942E+04  0.50400001928E-02 0. -1.
       -1   -1    0    0    0  501  0.00000000000E+00  0.00000000000E+00 -0.42189129693E+03  0.42189129696E+03  0.50400001928E-02 0.  1.
    10030    2    1    2    0    0  0.00000000000E+00  0.00000000000E+00  0.19288636972E+04  0.27726462911E+04  0.19917460413E+04 0.  0.
        3    1    3    3  502    0  0.69826728736E+03 -0.70581789162E+03  0.10723235304E+04  0.14613808076E+04  0.10100000352E+00 0. -1.
       -3    1    3    3    0  502 -0.69826728736E+03  0.70581789162E+03  0.85654016681E+03  0.13112654835E+04  0.10100000352E+00 0.  1.
</event>
<event>
 5   0  0.8022574E-05  0.2033381E+04  0.7818609E-02  0.8591171E-01
        2   -1    0    0  501    0  0.00000000000E+00  0.00000000000E+00  0.21441406248E+04  0.21441406248E+04  0.25500000920E-02 0. -1.
       -2   -1    0    0    0  501  0.00000000000E+00  0.00000000000E+00 -0.48208566902E+03  0.48208566903E+03  0.25500000920E-02 0.  1.
    10030    2    1    2    0    0  0.00000000000E+00  0.00000000000E+00  0.16620549558E+04  0.26262262938E+04  0.20333808965E+04 0.  0.
        1    1    3    3  502    0 -0.33005773716E+03  0.71180566198E+03 -0.40554927292E+01  0.78461573865E+03  0.50400001928E-02 0.  1.
       -1    1    3    3    0  502  0.33005773716E+03 -0.71180566198E+03  0.16661104485E+04  0.18416105552E+04  0.50400001928E-02 0. -1.
</event>
<event>
 5   0  0.3772949E-05  0.1992658E+04  0.7818609E-02  0.8610061E-01
       -1   -1    0    0    0  501  0.00000000000E+00  0.00000000000E+00  0.68322314404E+03  0.68322314406E+03  0.50400001928E-02 0.  1.
        1   -1    0    0  501    0  0.00000000000E+00  0.00000000000E+00 -0.14529236273E+04  0.14529236274E+04  0.50400001928E-02 0. -1.
    10030    2    1    2    0    0  0.00000000000E+00  0.00000000000E+00 -0.76970048331E+03  0.21361467714E+04  0.19926575709E+04 0.  0.
        2    1    3    3  502    0 -0.80262395370E+03 -0.26229312384E+03 -0.95176782100E+03  0.12723462103E+04  0.25500000920E-02 0. -1.
       -2    1    3    3    0  502  0.80262395370E+03  0.26229312384E+03  0.18206733769E+03  0.86380056108E+03  0.25500000920E-02 0.  1.
</event>
<event>
 5   0  0.3787698E-05  0.1991369E+04  0.7818609E-02  0.8610666E-01
       -1   -1    0    0    0  501  0.00000000000E+00  0.00000000000E+00  0.18930709118E+04  0.18930709118E+04  0.50400001928E-02 0. -1.
        1   -1    0    0  501    0  0.00000000000E+00  0.00000000000E+00 -0.52369298071E+03  0.52369298073E+03  0.50400001928E-02 0.  1.
    10030    2    1    2    0    0  0.00000000000E+00  0.00000000000E+00  0.13693779311E+04  0.24167638926E+04  0.19913693264E+04 0.  0.
        4    1    3    3  502    0 -0.19936206013E+03  0.77708300915E+03 -0.31020314757E+02  0.80284936754E+03  0.12699999809E+01 0.  1.
       -4    1    3    3    0  502  0.19936206013E+03 -0.77708300915E+03  0.14003982459E+04  0.16139145250E+04  0.12699999809E+01 0. -1.
</event>
<event>
 5   0  0.7935008E-05  0.1994811E+04  0.7818609E-02  0.8609051E-01
       -2   -1    0    0    0  501  0.00000000000E+00  0.00000000000E+00  0.93094050484E+03  0.93094050485E+03  0.25500000920E-02 0. -1.
        2   -1    0    0  501    0  0.00000000000E+00  0.00000000000E+00 -0.10686157854E+04  0.10686157854E+04  0.25500000920E-02 0.  1.
    10030    2    1    2    0    0  0.00000000000E+00  0.00000000000E+00 -0.13767528058E+03  0.19995562903E+04  0.19948109873E+04 0.  0.
        3    1    3    3  502    0  0.57851656172E+03  0.70563962202E+02  0.74250552797E+03  0.94391480242E+03  0.10100000352E+00 0. -1.
       -3    1    3    3    0  502 -0.57851656172E+03 -0.70563962202E+02 -0.88018080855E+03  0.10556414879E+04  0.10100000352E+00 0.  1.
</event>
<event>
 5   0  0.8011197E-05  0.2003465E+04  0.7818609E-02  0.8605002E-01
        2   -1    0    0  501    0  0.00000000000E+00  0.00000000000E+00  0.14422290914E+04  0.14422290914E+04  0.25500000920E-02 0.  1.
       -2   -1    0    0    0  501  0.00000000000E+00  0.00000000000E+00 -0.69577599719E+03  0.69577599719E+03  0.25500000920E-02 0. -1.
    10030    2    1    2    0    0  0.00000000000E+00  0.00000000000E+00  0.74645309424E+03  0.21380050886E+04  0.20034653820E+04 0.  0.
        5    1    3    3  502    0 -0.58384763237E+03  0.49616999969E+03 -0.31538402011E+03  0.82858427245E+03  0.46999998093E+01 0. -1.
       -5    1    3    3    0  502  0.58384763237E+03 -0.49616999969E+03  0.10618371144E+04  0.13094208162E+04  0.46999998093E+01 0.  1.
</event>
<event>
 5   0  0.2859625E-05  0.1993267E+04  0.7818609E-02  0.8609775E-01
        3   -1    0    0  501    0  0.00000000000E+00  0.00000000000E+00  0.71017543930E+03  0.71017544648E+03  0.10100000352E+00 0. -1.
       -3   -1    0    0    0  501  0.00000000000E+00  0.00000000000E+00 -0.13986378281E+04  0.13986378318E+04  0.10100000352E+00 0.  1.
    10030    2    1    2    0    0  0.00000000000E+00  0.00000000000E+00 -0.68846238882E+03  0.21088132782E+04  0.19932669118E+04 0.  0.
        1    1    3    3  502    0  0.89327580300E+03 -0.90195638515E+02 -0.80197991297E+03  0.12038474547E+04  0.50400001928E-02 0. -1.
       -1    1    3    3    0  502 -0.89327580300E+03  0.90195638515E+02  0.11351752415E+03  0.90496582352E+03  0.50400001928E-02 0.  1.
</event>
<event>
 5   0  0.8011197E-05  0.1995738E+04  0.7818609E-02  0.8608616E-01
        2   -1    0    0  501    0  0.00000000000E+00  0.00000000000E+00  0.67942853586E+03  0.67942853587E+03  0.25500000920E-02 0.  1.
       -2   -1    0    0    0  501  0.00000000000E+00  0.00000000000E+00 -0.14655591747E+04  0.14655591747E+04  0.25500000920E-02 0. -1.
    10030    2    1    2    0    0  0.00000000000E+00  0.00000000000E+00 -0.78613063886E+03  0.21449877106E+04  0.19957381835E+04 0.  0.
        5    1    3    3  502    0  0.63728032337E+03 -0.50281598117E+03  0.23065267088E+03  0.84390335113E+03  0.46999998093E+01 0.  1.
       -5    1    3    3    0  502 -0.63728032337E+03  0.50281598117E+03 -0.10167833097E+04  0.13010843595E+04  0.46999998093E+01 0. -1.
</event>
<event>
 5   0  0.8022574E-05  0.1970992E+04  0.7818609E-02  0.8620304E-01
       -2   -1    0    0    0  501  0.00000000000E+00  0.00000000000E+00  0.96008010122E+03  0.96008010123E+03  0.25500000920E-02 0.  1.
        2   -1    0    0  501    0  0.00000000000E+00  0.00000000000E+00 -0.10115845909E+04  0.10115845909E+04  0.25500000920E-02 0. -1.
    10030    2    1    2    0    0  0.00000000000E+00  0.00000000000E+00 -0.51504489705E+02  0.19716646922E+04  0.19709918685E+04 0.  0.
        1    1    3    3  502    0 -0.35653016081E+03  0.18206463496E+03  0.87507775824E+03  0.96230056108E+03  0.50400001928E-02 0.  1.
       -1    1    3    3    0  502  0.35653016081E+03 -0.18206463496E+03 -0.92658224794E+03  0.10093641311E+04  0.50400001928E-02 0. -1.
</event>
<event>
 5   0  0.3787698E-05  0.1990363E+04  0.7818609E-02  0.8611139E-01
        1   -1    0    0  501    0  0.00000000000E+00  0.00000000000E+00  0.89592479997E+03  0.89592479999E+03  0.50400001928E-02 0. -1.
       -1   -1    0    0    0  501  0.00000000000E+00  0.00000000000E+00 -0.11054349663E+04  0.11054349663E+04  0.50400001928E-02 0.  1.
    10030    2    1    2    0    0  0.00000000000E+00  0.00000000000E+00 -0.20951016632E+03  0.20013597663E+04  0.19903633850E+04 0.  0.
        4    1    3    3  502    0  0.87365054396E+02 -0.90785187400E+02 -0.10973819526E+04  0.11045919453E+04  0.12699999809E+01 0.  1.
       -4    1    3    3    0  502 -0.87365054396E+02  0.90785187400E+02  0.88787178625E+03  0.89676782095E+03  0.12699999809E+01 0. -1.
</event>
<event>
 5   0  0.3549426E-05  0.1983232E+04  0.7818609E-02  0.8614501E-01
        1   -1    0    0  501    0  0.00000000000E+00  0.00000000000E+00  0.78712579005E+03  0.78712579006E+03  0.50400001928E-02 0. -1.
       -1   -1    0    0    0  501  0.00000000000E+00  0.00000000000E+00 -0.12492314838E+04  0.12492314838E+04  0.50400001928E-02 0.  1.
    10030    2    1    2    0    0  0.00000000000E+00  0.00000000000E+00 -0.46210569372E+03  0.20363572738E+04  0.19832320274E+04 0.  0.
        5    1    3    3  502    0 -0.16819689700E+03  0.21585219991E+03  0.74757709743E+03  0.79610048044E+03  0.46999998093E+01 0. -1.
       -5    1    3    3    0  502  0.16819689700E+03 -0.21585219991E+03 -0.12096827911E+04  0.12402567934E+04  0.46999998093E+01 0.  1.
</event>
<event>
 5   0  0.8011197E-05  0.2007473E+04  0.7818609E-02  0.8603135E-01
        2   -1    0    0  501    0  0.00000000000E+00  0.00000000000E+00  0.13517719388E+04  0.13517719388E+04  0.25500000920E-02 0. -1.
       -2   -1    0    0    0  501  0.00000000000E+00  0.00000000000E+00 -0.74530841500E+03  0.74530841501E+03  0.25500000920E-02 0.  1.
    10030    2    1    2    0    0  0.00000000000E+00  0.00000000000E+00  0.60646352383E+03  0.20970803538E+04  0.20074730396E+04 0.  0.
        5    1    3    3  502    0 -0.55206592207E+02 -0.43710493486E+03  0.12453508424E+04  0.13209955725E+04  0.46999998093E+01 0. -1.
       -5    1    3    3    0  502  0.55206592207E+02  0.43710493486E+03 -0.63888731861E+03  0.77608478131E+03  0.46999998093E+01 0.  1.
</event>
<event>
 5   0  0.7843846E-05  0.1884424E+04  0.7818609E-02  0.8662649E-01
        2   -1    0    0  501    0  0.00000000000E+00  0.00000000000E+00  0.14692828523E+04  0.14692828523E+04  0.25500000920E-02 0. -1.
       -2   -1    0    0    0  501  0.00000000000E+00  0.00000000000E+00 -0.60421536034E+03  0.60421536035E+03  0.25500000920E-02 0.  1.
    10030    2    1    2    0    0  0.00000000000E+00  0.00000000000E+00  0.86506749196E+03  0.20734982127E+04  0.18844238038E+04 0.  0.
        2    1    3    3  502    0 -0.22238456977E+03 -0.49113715309E+03 -0.41771490776E+03  0.68202371233E+03  0.25500000920E-02 0.  1.
       -2    1    3    3    0  502  0.22238456977E+03  0.49113715309E+03  0.12827823997E+04  0.13914745003E+04  0.25500000920E-02 0. -1.
</event>
<event>
 5   0  0.7935008E-05  0.1761563E+04  0.7818609E-02  0.8727011E-01
       -2   -1    0    0    0  501  0.00000000000E+00  0.00000000000E+00  0.58403275111E+03  0.58403275112E+03  0.25500000920E-02 0.  1.
        2   -1    0    0  501    0  0.00000000000E+00  0.00000000000E+00 -0.13283089192E+04  0.13283089192E+04  0.25500000920E-02 0. -1.
    10030    2    1    2    0    0  0.00000000000E+00  0.00000000000E+00 -0.74427616812E+03  0.19123416704E+04  0.17615628430E+04 0.  0.
        3    1    3    3  502    0 -0.30142693422E+03 -0.66946316749E+03 -0.90034028812E+03  0.11617451415E+04  0.10100000352E+00 0. -1.
       -3    1    3    3    0  502  0.30142693422E+03  0.66946316749E+03  0.15606412000E+03  0.75059652881E+03  0.10100000352E+00 0.  1.
</event>
<event>
 5   0  0.3818907E-05  0.1987051E+04  0.7818609E-02  0.8612699E-01
       -1   -1    0    0    0  501  0.00000000000E+00  0.00000000000E+00  0.10869707469E+04  0.10869707469E+04  0.50400001928E-02 0.  1.
        1   -1    0    0  501    0  0.00000000000E+00  0.00000000000E+00 -0.90811378302E+03  0.90811378303E+03  0.50400001928E-02 0. -1.
    10030    2    1    2    0    0  0.00000000000E+00  0.00000000000E+00  0.17885696389E+03  0.19950845300E+04  0.19870511992E+04 0.  0.
        1    1    3    3  502    0  0.37978359443E+03  0.78467772595E+03 -0.38908869214E+03  0.95464376737E+03  0.50400001928E-02 0. -1.
       -1    1    3    3    0  502 -0.37978359443E+03 -0.78467772595E+03  0.56794565603E+03  0.10404407626E+04  0.50400001928E-02 0.  1.
</event>
<event>
 5   0  0.7935008E-05  0.1998762E+04  0.7818609E-02  0.8607200E-01
        2   -1    0    0  501    0  0.00000000000E+00  0.00000000000E+00  0.74262855788E+03  0.74262855789E+03  0.25500000920E-02 0.  1.
       -2   -1    0    0    0  501  0.00000000000E+00  0.00000000000E+00 -0.13449020390E+04  0.13449020390E+04  0.25500000920E-02 0. -1.
    10030    2    1    2    0    0  0.00000000000E+00  0.00000000000E+00 -0.60227348114E+03  0.20875305969E+04  0.19987622787E+04 0.  0.
        3    1    3    3  502    0  0.56473113444E+03  0.48241667557E+01  0.55999198075E+03  0.79532103926E+03  0.10100000352E+00 0.  1.
       -3    1    3    3    0  502 -0.56473113444E+03 -0.48241667557E+01 -0.11622654619E+04  0.12922095576E+04  0.10100000352E+00 0. -1.
</event>
<event>
 5   0  0.8011197E-05  0.2009146E+04  0.7818609E-02  0.8602357E-01
        2   -1    0    0  501    0  0.00000000000E+00  0.00000000000E+00  0.14373581625E+04  0.14373581625E+04  0.25500000920E-02 0. -1.
       -2   -1    0    0    0  501  0.00000000000E+00  0.00000000000E+00 -0.70209817384E+03  0.70209817385E+03  0.25500000920E-02 0.  1.
    10030    2    1    2    0    0  0.00000000000E+00  0.00000000000E+00  0.73525998870E+03  0.21394563364E+04  0.20091456305E+04 0.  0.
        5    1    3    3  502    0  0.51772956783E+03  0.28551383633E+03 -0.49719162523E+03  0.77251773982E+03  0.46999998093E+01 0.  1.
       -5    1    3    3    0  502 -0.51772956783E+03 -0.28551383633E+03  0.12324516139E+04  0.13669385966E+04  0.46999998093E+01 0. -1.
</event>
<event>
 5   0  0.3818907E-05  0.1989223E+04  0.7818609E-02  0.8611676E-01
       -1   -1    0    0    0  501  0.00000000000E+00  0.00000000000E+00  0.13219520502E+04  0.13219520502E+04  0.50400001928E-02 0.  1.
        1   -1    0    0  501    0  0.00000000000E+00  0.00000000000E+00 -0.74832666907E+03  0.74832666909E+03  0.50400001928E-02 0. -1.
    10030    2    1    2    0    0  0.00000000000E+00  0.00000000000E+00  0.57362538114E+03  0.20702787193E+04  0.19892229382E+04 0.  0.
        1    1    3    3  502    0 -0.16409995345E+02 -0.81229922379E+03  0.88390852633E+03  0.12005805262E+04  0.50400001928E-02 0.  1.
       -1    1    3    3    0  502  0.16409995345E+02  0.81229922379E+03 -0.31028314518E+03  0.86969819313E+03  0.50400001928E-02 0. -1.
</event>
<event>
 5   0  0.3772949E-05  0.2005521E+04  0.7818609E-02  0.8604044E-01
       -1   -1    0    0    0  501  0.00000000000E+00  0.00000000000E+00  0.18462783980E+04  0.18462783980E+04  0.50400001928E-02 0.  1.
        1   -1    0    0  501    0  0.00000000000E+00  0.00000000000E+00 -0.54462437465E+03  0.54462437467E+03  0.50400001928E-02 0. -1.
    10030    2    1    2    0    0  0.00000000000E+00  0.00000000000E+00  0.13016540233E+04  0.23909027726E+04  0.20055205987E+04 0.  0.
        2    1    3    3  502    0 -0.40373012331E+03  0.10236229662E+03  0.17382789365E+04  0.17874813883E+04  0.25500000920E-02 0.  1.
       -2    1    3    3    0  502  0.40373012331E+03 -0.10236229662E+03 -0.43662491323E+03  0.60342138435E+03  0.25500000920E-02 0. -1.
</event>
<event>
 5   0  0.7857136E-05  0.2007898E+04  0.7818609E-02  0.8602937E-01
       -2   -1    0    0    0  501  0.00000000000E+00  0.00000000000E+00  0.11919161886E+04  0.11919161886E+04  0.25500000920E-02 0. -1.
        2   -1    0    0  501    0  0.00000000000E+00  0.00000000000E+00 -0.84562488685E+03  0.84562488686E+03  0.25500000920E-02 0.  1.
    10030    2    1    2    0    0  0.00000000000E+00  0.00000000000E+00  0.34629130174E+03  0.20375410754E+04  0.20078983960E+04 0.  0.
        4    1    3    3  502    0 -0.51471867751E+03 -0.62036981149E+03  0.78041020586E+03  0.11219784857E+04  0.12699999809E+01 0. -1.
       -4    1    3    3    0  502  0.51471867751E+03  0.62036981149E+03 -0.43411890413E+03  0.91556258978E+03  0.12699999809E+01 0.  1.
</event>
<event>
 5   0  0.7857136E-05  0.1937323E+04  0.7818609E-02  0.8636498E-01
       -2   -1    0    0    0  501  0.00000000000E+00  0.00000000000E+00  0.57119560567E+03  0.57119560567E+03  0.25500000920E-02 0. -1.
        2   -1    0    0  501    0  0.00000000000E+00  0.00000000000E+00 -0.16427032782E+04  0.16427032782E+04  0.25500000920E-02 0.  1.
    10030    2    1    2    0    0  0.00000000000E+00  0.00000000000E+00 -0.10715076725E+04  0.22138988839E+04  0.19373227856E+04 0.  0.
        4    1    3    3  502    0  0.57739102503E+02 -0.91303625536E+03 -0.89952977822E+03  0.12830138122E+04  0.12699999809E+01 0.  1.
       -4    1    3    3    0  502 -0.57739102503E+02  0.91303625536E+03 -0.17197789430E+03  0.93088507163E+03  0.12699999809E+01 0. -1.
</event>
<event>
 5   0  0.7843846E-05  0.1998165E+04  0.7818609E-02  0.8607479E-01
        2   -1    0    0  501    0  0.00000000000E+00  0.00000000000E+00  0.92715819018E+03  0.92715819019E+03  0.25500000920E-02 0. -1.
       -2   -1    0    0    0  501  0.00000000000E+00  0.00000000000E+00 -0.10765866611E+04  0.10765866611E+04  0.25500000920E-02 0.  1.
    10030    2    1    2    0    0  0.00000000000E+00  0.00000000000E+00 -0.14942847090E+03  0.20037448513E+04  0.19981652987E+04 0.  0.
        2    1    3    3  502    0  0.84262149652E+03 -0.12775110805E+03 -0.59754789640E+03  0.10408625368E+04  0.25500000920E-02 0.  1.
       -2    1    3    3    0  502 -0.84262149652E+03  0.12775110805E+03  0.44811942551E+03  0.96288231447E+03  0.25500000920E-02 0. -1.
</event>
<event>
 5   0  0.8022574E-05  0.1975490E+04  0.7818609E-02  0.8618166E-01
        2   -1    0    0  501    0  0.00000000000E+00  0.00000000000E+00  0.12850723998E+04  0.12850723998E+04  0.25500000920E-02 0. -1.
       -2   -1    0    0    0  501  0.00000000000E+00  0.00000000000E+00 -0.75921008636E+03  0.75921008636E+03  0.25500000920E-02 0.  1.
    10030    2    1    2    0    0  0.00000000000E+00  0.00000000000E+00  0.52586231341E+03  0.20442824861E+04  0.19754897394E+04 0.  0.
        1    1    3    3  502    0 -0.36280821256E+03  0.17106611991E+03 -0.67113445677E+03  0.78186627729E+03  0.50400001928E-02 0.  1.
       -1    1    3    3    0  502  0.36280821256E+03 -0.17106611991E+03  0.11969967702E+04  0.12624162088E+04  0.50400001928E-02 0. -1.
</event>
<event>
 5   0  0.7857136E-05  0.2012892E+04  0.7818609E-02  0.8600617E-01
        2   -1    0    0  501    0  0.00000000000E+00  0.00000000000E+00  0.19276975436E+04  0.19276975436E+04  0.25500000920E-02 0.  1.
       -2   -1    0    0    0  501  0.00000000000E+00  0.00000000000E+00 -0.52546304672E+03  0.52546304673E+03  0.25500000920E-02 0. -1.
    10030    2    1    2    0    0  0.00000000000E+00  0.00000000000E+00  0.14022344968E+04  0.24531605903E+04  0.20128922717E+04 0.  0.
        4    1    3    3  502    0 -0.26023245669E+03 -0.45480813659E+03  0.17483417001E+04  0.18251771656E+04  0.12699999809E+01 0.  1.
       -4    1    3    3    0  502  0.26023245669E+03  0.45480813659E+03 -0.34610720326E+03  0.62798342468E+03  0.12699999809E+01 0. -1.
</event>
<event>
 5   0  0.7935008E-05  0.1989008E+04  0.7818609E-02  0.8611777E-01
       -2   -1    0    0    0  501  0.00000000000E+00  0.00000000000E+00  0.38403183646E+03  0.38403183647E+03  0.25500000920E-02 0.  1.
        2   -1    0    0  501    0  0.00000000000E+00  0.00000000000E+00 -0.25754070336E+04  0.25754070336E+04  0.25500000920E-02 0. -1.
    10030    2    1    2    0    0  0.00000000000E+00  0.00000000000E+00 -0.21913751972E+04  0.29594388701E+04  0.19890080872E+04 0.  0.
        3    1    3    3  502    0  0.80183431102E+03 -0.48778091962E+03 -0.15850446238E+04  0.18420735483E+04  0.10100000352E+00 0. -1.
       -3    1    3    3    0  502 -0.80183431102E+03  0.48778091962E+03 -0.60633057340E+03  0.11173653218E+04  0.10100000352E+00 0.  1.
</event>
<event>
 5   0  0.3818907E-05  0.2000437E+04  0.7818609E-02  0.8606416E-01
       -1   -1    0    0    0  501  0.00000000000E+00  0.00000000000E+00  0.49826372914E+03  0.49826372916E+03  0.50400001928E-02 0.  1.
        1   -1    0    0  501    0  0.00000000000E+00  0.00000000000E+00 -0.20078462305E+04  0.20078462305E+04  0.50400001928E-02 0. -1.
    10030    2    1    2    0    0  0.00000000000E+00  0.00000000000E+00 -0.15095825014E+04  0.25061099597E+04  0.20004369027E+04 0.  0.
        1    1    3    3  502    0 -0.41454487962E+03 -0.47801245338E+03  0.21568465606E+03  0.66847829709E+03  0.50400001928E-02 0.  1.
       -1    1    3    3    0  502  0.41454487962E+03  0.47801245338E+03 -0.17252671575E+04  0.18376316626E+04  0.50400001928E-02 0. -1.
</event>
<event>
 5   0  0.3970042E-05  0.1991975E+04  0.7818609E-02  0.8610382E-01
        1   -1    0    0  501    0  0.00000000000E+00  0.00000000000E+00  0.11124964622E+04  0.11124964623E+04  0.50400001928E-02 0.  1.
       -1   -1    0    0    0  501  0.00000000000E+00  0.00000000000E+00 -0.89167978997E+03  0.89167978998E+03  0.50400001928E-02 0. -1.
    10030    2    1    2    0    0  0.00000000000E+00  0.00000000000E+00  0.22081667228E+03  0.20041762522E+04  0.19919745097E+04 0.  0.
        3    1    3    3  502    0  0.10902153192E+03 -0.50222676989E+03  0.96878913312E+03  0.10966630373E+04  0.10100000352E+00 0.  1.
       -3    1    3    3    0  502 -0.10902153192E+03  0.50222676989E+03 -0.74797246085E+03  0.90751321489E+03  0.10100000352E+00 0. -1.
</event>
<event>
 5   0  0.3787698E-05  0.1994131E+04  0.7818609E-02  0.8609370E-01
       -1   -1    0    0    0  501  0.00000000000E+00  0.00000000000E+00  0.11204189939E+04  0.11204189939E+04  0.50400001928E-02 0. -1.
        1   -1    0    0  501    0  0.00000000000E+00  0.00000000000E+00 -0.88729266897E+03  0.88729266898E+03  0.50400001928E-02 0.  1.
    10030    2    1    2    0    0  0.00000000000E+00  0.00000000000E+00  0.23312632495E+03  0.20077116629E+04  0.19941309481E+04 0.  0.
        4    1    3    3  502    0 -0.37980241465E+03  0.39811878777E+03 -0.72059797443E+03  0.90664849694E+03  0.12699999809E+01 0.  1.
       -4    1    3    3    0  502  0.37980241465E+03 -0.39811878777E+03  0.95372429938E+03  0.11010631660E+04  0.12699999809E+01 0. -1.
</event>
<event>
 5   0  0.3818907E-05  0.2002854E+04  0.7818609E-02  0.8605288E-01
        1   -1    0    0  501    0  0.00000000000E+00  0.00000000000E+00  0.10026450177E+04  0.10026450177E+04  0.50400001928E-02 0.  1.
       -1   -1    0    0    0  501  0.00000000000E+00  0.00000000000E+00 -0.10002103384E+04  0.10002103384E+04  0.50400001928E-02 0. -1.
    10030    2    1    2    0    0  0.00000000000E+00  0.00000000000E+00  0.24346792909E+01  0.20028553561E+04  0.20028538763E+04 0.  0.
        1    1    3    3  502    0 -0.77734916945E+03 -0.35361365751E+03 -0.52179505655E+03  0.10007919020E+04  0.50400001928E-02 0. -1.
       -1    1    3    3    0  502  0.77734916945E+03  0.35361365751E+03  0.52422973584E+03  0.10020634541E+04  0.50400001928E-02 0.  1.
</event>
<event>
 5   0  0.8022574E-05  0.1993370E+04  0.7818609E-02  0.8609727E-01
        2   -1    0    0  501    0  0.00000000000E+00  0.00000000000E+00  0.19857829042E+04  0.19857829042E+04  0.25500000920E-02 0.  1.
       -2   -1    0    0    0  501  0.00000000000E+00  0.00000000000E+00 -0.50024656987E+03  0.50024656988E+03  0.25500000920E-02 0. -1.
    10030    2    1    2    0    0  0.00000000000E+00  0.00000000000E+00  0.14855363343E+04  0.24860294741E+04  0.19933700974E+04 0.  0.
        1    1    3    3  502    0 -0.82248839694E+03 -0.41353026907E+02  0.42603303960E+02  0.82462856940E+03  0.50400001928E-02 0. -1.
       -1    1    3    3    0  502  0.82248839694E+03  0.41353026907E+02  0.14429330304E+04  0.16614009047E+04  0.50400001928E-02 0.  1.
</event>
<event>
 5   0  0.7857136E-05  0.2004320E+04  0.7818609E-02  0.8604604E-01
        2   -1    0    0  501    0  0.00000000000E+00  0.00000000000E+00  0.14404657824E+04  0.14404657824E+04  0.25500000920E-02 0. -1.
       -2   -1    0    0    0  501  0.00000000000E+00  0.00000000000E+00 -0.69722217917E+03  0.69722217917E+03  0.25500000920E-02 0.  1.
    10030    2    1    2    0    0  0.00000000000E+00  0.00000000000E+00  0.74324360327E+03  0.21376879616E+04  0.20043200262E+04 0.  0.
        4    1    3    3  502    0  0.68050298407E+03 -0.73548530342E+03  0.35314459373E+03  0.10624197193E+04  0.12699999809E+01 0.  1.
       -4    1    3    3    0  502 -0.68050298407E+03  0.73548530342E+03  0.39009900955E+03  0.10752682424E+04  0.12699999809E+01 0. -1.
</event>
<event>
 5   0  0.7843846E-05  0.1996820E+04  0.7818609E-02  0.8608109E-01
       -2   -1    0    0    0  501  0.00000000000E+00  0.00000000000E+00  0.12251586546E+04  0.12251586546E+04  0.25500000920E-02 0.  1.
        2   -1    0    0  501    0  0.00000000000E+00  0.00000000000E+00 -0.81362735018E+03  0.81362735018E+03  0.25500000920E-02 0. -1.
    10030    2    1    2    0    0  0.00000000000E+00  0.00000000000E+00  0.41153130445E+03  0.20387860048E+04  0.19968200617E+04 0.  0.
        2    1    3    3  502    0 -0.19794055835E+03 -0.48867526100E+01 -0.79338026549E+03  0.81771424756E+03  0.25500000920E-02 0. -1.
       -2    1    3    3    0  502  0.19794055835E+03  0.48867526100E+01  0.12049115699E+04  0.12210717573E+04  0.25500000920E-02 0.  1.
</event>
<event>
 5   0  0.3549426E-05  0.2072672E+04  0.7818609E-02  0.8573378E-01
        1   -1    0    0  501    0  0.00000000000E+00  0.00000000000E+00  0.13506849428E+04  0.13506849428E+04  0.50400001928E-02 0. -1.
       -1   -1    0    0    0  501  0.00000000000E+00  0.00000000000E+00 -0.79514657616E+03  0.79514657618E+03  0.50400001928E-02 0.  1.
    10030    2    1    2    0    0  0.00000000000E+00  0.00000000000E+00  0.55553836659E+03  0.21458315189E+04  0.20726721957E+04 0.  0.
        5    1    3    3  502    0  0.68107455388E+03  0.37679482355E+02  0.10854921164E+04  0.12820286721E+04  0.46999998093E+01 0. -1.
       -5    1    3    3    0  502 -0.68107455388E+03 -0.37679482355E+02 -0.52995374979E+03  0.86380284686E+03  0.46999998093E+01 0.  1.
</event>
<event>
 5   0  0.3970042E-05  0.2002244E+04  0.7818609E-02  0.8605572E-01
       -1   -1    0    0    0  501  0.00000000000E+00  0.00000000000E+00  0.57173425210E+03  0.57173425212E+03  0.50400001928E-02 0.  1.
        1   -1    0    0  501    0  0.00000000000E+00  0.00000000000E+00 -0.17529915334E+04  0.17529915334E+04  0.50400001928E-02 0. -1.
    10030    2    1    2    0    0  0.00000000000E+00  0.00000000000E+00 -0.11812572813E+04  0.23247257855E+04  0.20022440444E+04 0.  0.
        3    1    3    3  502    0  0.92071903680E+03  0.14067207662E+03 -0.10168074953E+04  0.13789161217E+04  0.10100000352E+00 0.  1.
       -3    1    3    3    0  502 -0.92071903680E+03 -0.14067207662E+03 -0.16444978593E+03  0.94580966381E+03  0.10100000352E+00 0. -1.
</event>
<event>
 5   0  0.8022574E-05  0.1987087E+04  0.7818609E-02  0.8612682E-01
       -2   -1    0    0    0  501  0.00000000000E+00  0.00000000000E+00  0.66266954147E+03  0.66266954148E+03  0.25500000920E-02 0. -1.
        2   -1    0    0  501    0  0.00000000000E+00  0.00000000000E+00 -0.14896239521E+04  0.14896239521E+04  0.25500000920E-02 0.  1.
    10030    2    1    2    0    0  0.00000000000E+00  0.00000000000E+00 -0.82695441060E+03  0.21522934936E+04  0.19870867332E+04 0.  0.
        1    1    3    3  502    0 -0.72051898947E+03 -0.43364780858E+03 -0.98654986550E+03  0.12963327787E+04  0.50400001928E-02 0.  1.
       -1    1    3    3    0  502  0.72051898947E+03  0.43364780858E+03  0.15959545490E+03  0.85596071482E+03  0.50400001928E-02 0. -1.
</event>
<event>
 5   0  0.3787698E-05  0.2006812E+04  0.7818609E-02  0.8603442E-01
       -1   -1    0    0    0  501  0.00000000000E+00  0.00000000000E+00  0.44140258943E+03  0.44140258946E+03  0.50400001928E-02 0. -1.
        1   -1    0    0  501    0  0.00000000000E+00  0.00000000000E+00 -0.22809653018E+04  0.22809653018E+04  0.50400001928E-02 0.  1.
    10030    2    1    2    0    0  0.00000000000E+00  0.00000000000E+00 -0.18395627124E+04  0.27223678913E+04  0.20068123885E+04 0.  0.
        4    1    3    3  502    0 -0.87605853370E+03 -0.47162156426E+03 -0.10962228525E+04  0.14804092710E+04  0.12699999809E+01 0.  1.
       -4    1    3    3    0  502  0.87605853370E+03  0.47162156426E+03 -0.74333985986E+03  0.12419586203E+04  0.12699999809E+01 0. -1.
</event>
<event>
 5   0  0.3970042E-05  0.2013891E+04  0.7818609E-02  0.8600153E-01
       -1   -1    0    0    0  501  0.00000000000E+00  0.00000000000E+00  0.84419517044E+03  0.84419517045E+03  0.50400001928E-02 0. -1.
        1   -1    0    0  501    0  0.00000000000E+00  0.00000000000E+00 -0.12010724062E+04  0.12010724062E+04  0.50400001928E-02 0.  1.
    10030    2    1    2    0    0  0.00000000000E+00  0.00000000000E+00 -0.35687723578E+03  0.20452675767E+04  0.20138912828E+04 0.  0.
        3    1    3    3  502    0 -0.71645695491E+03 -0.65611373165E+03  0.90534266819E+02  0.97570090744E+03  0.10100000352E+00 0. -1.
       -3    1    3    3    0  502  0.71645695491E+03  0.65611373165E+03 -0.44741150259E+03  0.10695666692E+04  0.10100000352E+00 0.  1.
</event>
<event>
 5   0  0.3818907E-05  0.2000317E+04  0.7818609E-02  0.8606473E-01
        1   -1    0    0  501    0  0.00000000000E+00  0.00000000000E+00  0.27169173386E+04  0.27169173386E+04  0.50400001928E-02 0. -1.
       -1   -1    0    0    0  501  0.00000000000E+00  0.00000000000E+00 -0.36818083973E+03  0.36818083976E+03  0.50400001928E-02 0.  1.
    10030    2    1    2    0    0  0.00000000000E+00  0.00000000000E+00  0.23487364988E+04  0.30850981783E+04  0.20003168821E+04 0.  0.
        1    1    3    3  502    0 -0.45165818509E+02  0.47997489225E+03  0.25258893243E+04  0.25714845376E+04  0.50400001928E-02 0. -1.
       -1    1    3    3    0  502  0.45165818509E+02 -0.47997489225E+03 -0.17715282549E+03  0.51361364074E+03  0.50400001928E-02 0.  1.
</event>
<event>
 5   0  0.3549426E-05  0.1994426E+04  0.7818609E-02  0.8609231E-01
        1   -1    0    0  501    0  0.00000000000E+00  0.00000000000E+00  0.10308099345E+04  0.10308099345E+04  0.50400001928E-02 0. -1.
       -1   -1    0    0    0  501  0.00000000000E+00  0.00000000000E+00 -0.96471117156E+03  0.96471117158E+03  0.50400001928E-02 0.  1.
    10030    2    1    2    0    0  0.00000000000E+00  0.00000000000E+00  0.66098762921E+02  0.19955211061E+04  0.19944260925E+04 0.  0.
        5    1    3    3  502    0  0.17567820252E+03  0.54990258164E+02 -0.94755248843E+03  0.96527952825E+03  0.46999998093E+01 0.  1.
       -5    1    3    3    0  502 -0.17567820252E+03 -0.54990258164E+02  0.10136512513E+04  0.10302415778E+04  0.46999998093E+01 0. -1.
</event>
<event>
 5   0  0.3970042E-05  0.1999570E+04  0.7818609E-02  0.8606822E-01
        1   -1    0    0  501    0  0.00000000000E+00  0.00000000000E+00  0.13101639007E+04  0.13101639007E+04  0.50400001928E-02 0.  1.
       -1   -1    0    0    0  501  0.00000000000E+00  0.00000000000E+00 -0.76293489585E+03  0.76293489586E+03  0.50400001928E-02 0. -1.
    10030    2    1    2    0    0  0.00000000000E+00  0.00000000000E+00  0.54722900482E+03  0.20730987965E+04  0.19995697128E+04 0.  0.
        3    1    3    3  502    0 -0.25625635720E+03  0.26303322753E+03 -0.69048128305E+03  0.78206023542E+03  0.10100000352E+00 0. -1.
       -3    1    3    3    0  502  0.25625635720E+03 -0.26303322753E+03  0.12377102879E+04  0.12910385611E+04  0.10100000352E+00 0.  1.
</event>
<event>
 5   0  0.7857136E-05  0.1976569E+04  0.7818609E-02  0.8617654E-01
       -2   -1    0    0    0  501  0.00000000000E+00  0.00000000000E+00  0.88376991018E+03  0.88376991018E+03  0.25500000920E-02 0. -1.
        2   -1    0    0  501    0  0.00000000000E+00  0.00000000000E+00 -0.11051588905E+04  0.11051588905E+04  0.25500000920E-02 0.  1.
    10030    2    1    2    0    0  0.00000000000E+00  0.00000000000E+00 -0.22138898035E+03  0.19889288007E+04  0.19765689195E+04 0.  0.
        4    1    3    3  502    0 -0.51740190597E+03 -0.30710140954E+03 -0.89961788919E+03  0.10822799857E+04  0.12699999809E+01 0.  1.
       -4    1    3    3    0  502  0.51740190597E+03  0.30710140954E+03  0.67822890884E+03  0.90664881499E+03  0.12699999809E+01 0. -1.
</event>
<event>
 5   0  0.8022574E-05  0.1978273E+04  0.7818609E-02  0.8616847E-01
       -2   -1    0    0    0  501  0.00000000000E+00  0.00000000000E+00  0.77524533069E+03  0.77524533069E+03  0.25500000920E-02 0. -1.
        2   -1    0    0  501    0  0.00000000000E+00  0.00000000000E+00 -0.12620398959E+04  0.12620398959E+04  0.25500000920E-02 0.  1.
    10030    2    1    2    0    0  0.00000000000E+00  0.00000000000E+00 -0.48679456522E+03  0.20372852266E+04  0.19782725156E+04 0.  0.
        1    1    3    3  502    0 -0.59938766566E+03 -0.73525361897E+03 -0.53198340230E+03  0.10875981787E+04  0.50400001928E-02 0.  1.
       -1    1    3    3    0  502  0.59938766566E+03  0.73525361897E+03  0.45188837080E+02  0.94968704791E+03  0.50400001928E-02 0. -1.
</event>
<event>
 5   0  0.3787698E-05  0.1941940E+04  0.7818609E-02  0.8634257E-01
       -1   -1    0    0    0  501  0.00000000000E+00  0.00000000000E+00  0.96611951498E+03  0.96611951500E+03  0.50400001928E-02 0.  1.
        1   -1    0    0  501    0  0.00000000000E+00  0.00000000000E+00 -0.97584498090E+03  0.97584498092E+03  0.50400001928E-02 0. -1.
    10030    2    1    2    0    0  0.00000000000E+00  0.00000000000E+00 -0.97254659212E+01  0.19419644959E+04  0.19419401429E+04 0.  0.
        4    1    3    3  502    0  0.75844984865E+03  0.66654921287E+02  0.59771615991E+03  0.96796449943E+03  0.12699999809E+01 0. -1.
       -4    1    3    3    0  502 -0.75844984865E+03 -0.66654921287E+02 -0.60744162583E+03  0.97399999648E+03  0.12699999809E+01 0.  1.
</event>
<event>
 5   0  0.8011197E-05  0.1986224E+04  0.7818609E-02  0.8613088E-01
       -2   -1    0    0    0  501  0.00000000000E+00  0.00000000000E+00  0.10487280843E+04  0.10487280843E+04  0.25500000920E-02 0.  1.
        2   -1    0    0  501    0  0.00000000000E+00  0.00000000000E+00 -0.94044555867E+03  0.94044555868E+03  0.25500000920E-02 0. -1.
    10030    2    1    2    0    0  0.00000000000E+00  0.00000000000E+00  0.10828252560E+03  0.19891736430E+04  0.19862242261E+04 0.  0.
        5    1    3    3  502    0 -0.19873661859E+03 -0.78386200740E+03  0.63146383391E+03  0.10260139150E+04  0.46999998093E+01 0. -1.
       -5    1    3    3    0  502  0.19873661859E+03  0.78386200740E+03 -0.52318130831E+03  0.96315972797E+03  0.46999998093E+01 0.  1.
</event>
<event>
 5   0  0.3787698E-05  0.2009206E+04  0.7818609E-02  0.8602329E-01
        1   -1    0    0  501    0  0.00000000000E+00  0.00000000000E+00  0.23221721149E+04  0.23221721149E+04  0.50400001928E-02 0.  1.
       -1   -1    0    0    0  501  0.00000000000E+00  0.00000000000E+00 -0.43460465630E+03  0.43460465633E+03  0.50400001928E-02 0. -1.
    10030    2    1    2    0    0  0.00000000000E+00  0.00000000000E+00  0.18875674586E+04  0.27567767712E+04  0.20092056280E+04 0.  0.
        4    1    3    3  502    0 -0.49189217562E+03 -0.76192656725E+03  0.35087164195E+03  0.97242096251E+03  0.12699999809E+01 0. -1.
       -4    1    3    3    0  502  0.49189217562E+03  0.76192656725E+03  0.15366958166E+04  0.17843558087E+04  0.12699999809E+01 0.  1.
</event>
<event>
 5   0  0.3818907E-05  0.1984729E+04  0.7818609E-02  0.8613794E-01
        1   -1    0    0  501    0  0.00000000000E+00  0.00000000000E+00  0.91335092973E+03  0.91335092975E+03  0.50400001928E-02 0.  1.
       -1   -1    0    0    0  501  0.00000000000E+00  0.00000000000E+00 -0.10782137683E+04  0.10782137683E+04  0.50400001928E-02 0. -1.
    10030    2    1    2    0    0  0.00000000000E+00  0.00000000000E+00 -0.16486283855E+03  0.19915646980E+04  0.19847292488E+04 0.  0.
        1    1    3    3  502    0 -0.71889230282E+03 -0.33631827277E+03  0.51533107752E+03  0.94629923552E+03  0.50400001928E-02 0.  1.
       -1    1    3    3    0  502  0.71889230282E+03  0.33631827277E+03 -0.68019391607E+03  0.10452654625E+04  0.50400001928E-02 0. -1.
</event>
<event>
 5   0  0.3818907E-05  0.2096786E+04  0.7818609E-02  0.8562660E-01
       -1   -1    0    0    0  501  0.00000000000E+00  0.00000000000E+00  0.68205008316E+03  0.68205008318E+03  0.50400001928E-02 0. -1.
        1   -1    0    0  501    0  0.00000000000E+00  0.00000000000E+00 -0.16115066087E+04  0.16115066087E+04  0.50400001928E-02 0.  1.
    10030    2    1    2    0    0  0.00000000000E+00  0.00000000000E+00 -0.92945652553E+03  0.22935566919E+04  0.20967863186E+04 0.  0.
        1    1    3    3  502    0 -0.22453088144E+03  0.99265996850E+03 -0.18943516825E+03  0.10352166985E+04  0.50400001928E-02 0. -1.
       -1    1    3    3    0  502  0.22453088144E+03 -0.99265996850E+03 -0.74002135729E+03  0.12583399934E+04  0.50400001928E-02 0.  1.
</event>
<event>
 5   0  0.3970042E-05  0.1874280E+04  0.7818609E-02  0.8667766E-01
       -1   -1    0    0    0  501  0.00000000000E+00  0.00000000000E+00  0.60154948682E+03  0.60154948684E+03  0.50400001928E-02 0.  1.
        1   -1    0    0  501    0  0.00000000000E+00  0.00000000000E+00 -0.14599489276E+04  0.14599489276E+04  0.50400001928E-02 0. -1.
    10030    2    1    2    0    0  0.00000000000E+00  0.00000000000E+00 -0.85839944080E+03  0.20614984145E+04  0.18742801586E+04 0.  0.
        3    1    3    3  502    0 -0.50637254520E+03  0.28077837052E+03  0.38127815131E+03  0.69326956283E+03  0.10100000352E+00 0.  1.
       -3    1    3    3    0  502  0.50637254520E+03 -0.28077837052E+03 -0.12396775921E+04  0.13682288516E+04  0.10100000352E+00 0. -1.
</event>
<event>
 5   0  0.8011197E-05  0.2061441E+04  0.7818609E-02  0.8578422E-01
        2   -1    0    0  501    0  0.00000000000E+00  0.00000000000E+00  0.17662726474E+04  0.17662726474E+04  0.25500000920E-02 0.  1.
       -2   -1    0    0    0  501  0.00000000000E+00  0.00000000000E+00 -0.60148380027E+03  0.60148380028E+03  0.25500000920E-02 0. -1.
    10030    2    1    2    0    0  0.00000000000E+00  0.00000000000E+00  0.11647888471E+04  0.23677564477E+04  0.20614406460E+04 0.  0.
        5    1    3    3  502    0  0.71583071999E+03  0.49996973379E+03 -0.46693829976E+02  0.87440594585E+03  0.46999998093E+01 0. -1.
       -5    1    3    3    0  502 -0.71583071999E+03 -0.49996973379E+03  0.12114826771E+04  0.14933505018E+04  0.46999998093E+01 0.  1.
</event>
<event>
 5   0  0.8022574E-05  0.1966722E+04  0.7818609E-02  0.8622339E-01
        2   -1    0    0  501    0  0.00000000000E+00  0.00000000000E+00  0.84594382276E+03  0.84594382277E+03  0.25500000920E-02 0.  1.
       -2   -1    0    0    0  501  0.00000000000E+00  0.00000000000E+00 -0.11431010808E+04  0.11431010808E+04  0.25500000920E-02 0. -1.
    10030    2    1    2    0    0  0.00000000000E+00  0.00000000000E+00 -0.29715725806E+03  0.19890449036E+04  0.19667224493E+04 0.  0.
        1    1    3    3  502    0 -0.51017909180E+03  0.54247150477E+03  0.50092646928E+03  0.89748836586E+03  0.50400001928E-02 0.  1.
       -1    1    3    3    0  502  0.51017909180E+03 -0.54247150477E+03 -0.79808372734E+03  0.10915565377E+04  0.50400001928E-02 0. -1.
</event>
<event>
 5   0  0.3787698E-05  0.2012218E+04  0.7818609E-02  0.8600930E-01
       -1   -1    0    0    0  501  0.00000000000E+00  0.00000000000E+00  0.57262342252E+03  0.57262342255E+03  0.50400001928E-02 0. -1.
        1   -1    0    0  501    0  0.00000000000E+00  0.00000000000E+00 -0.17677502380E+04  0.17677502380E+04  0.50400001928E-02 0.  1.
    10030    2    1    2    0    0  0.00000000000E+00  0.00000000000E+00 -0.11951268154E+04  0.23403736605E+04  0.20122178724E+04 0.  0.
        4    1    3    3  502    0 -0.74332248517E+03 -0.12293846153E+00  0.19104132091E+03  0.76748076931E+03  0.12699999809E+01 0. -1.
       -4    1    3    3    0  502  0.74332248517E+03  0.12293846153E+00 -0.13861681364E+04  0.15728928912E+04  0.12699999809E+01 0.  1.
</event>
<event>
 5   0  0.3970042E-05  0.1996975E+04  0.7818609E-02  0.8608036E-01
       -1   -1    0    0    0  501  0.00000000000E+00  0.00000000000E+00  0.99365789829E+03  0.99365789830E+03  0.50400001928E-02 0.  1.
        1   -1    0    0  501    0  0.00000000000E+00  0.00000000000E+00 -0.10033408768E+04  0.10033408768E+04  0.50400001928E-02 0. -1.
    10030    2    1    2    0    0  0.00000000000E+00  0.00000000000E+00 -0.96829784724E+01  0.19969987751E+04  0.19969752997E+04 0.  0.
        3    1    3    3  502    0  0.88946612901E+03  0.24914997486E+03  0.37430920880E+03  0.99666097477E+03  0.10100000352E+00 0.  1.
       -3    1    3    3    0  502 -0.88946612901E+03 -0.24914997486E+03 -0.38399218727E+03  0.10003378003E+04  0.10100000352E+00 0. -1.
</event>
<event>
 5   0  0.8011197E-05  0.2009669E+04  0.7818609E-02  0.8602113E-01
       -2   -1    0    0    0  501  0.00000000000E+00  0.00000000000E+00  0.83789976553E+03  0.83789976553E+03  0.25500000920E-02 0.  1.
        2   -1    0    0  501    0  0.00000000000E+00  0.00000000000E+00 -0.12050278127E+04  0.12050278127E+04  0.25500000920E-02 0. -1.
    10030    2    1    2    0    0  0.00000000000E+00  0.00000000000E+00 -0.36712804719E+03  0.20429275783E+04  0.20096691486E+04 0.  0.
        5    1    3    3  502    0  0.51862062597E+03 -0.16036835818E+03  0.67599735069E+03  0.86699473592E+03  0.46999998093E+01 0.  1.
       -5    1    3    3    0  502 -0.51862062597E+03  0.16036835818E+03 -0.10431253979E+04  0.11759328423E+04  0.46999998093E+01 0. -1.
</event>
<event>
 5   0  0.3970042E-05  0.2004599E+04  0.7818609E-02  0.8604474E-01
       -1   -1    0    0    0  501  0.00000000000E+00  0.00000000000E+00  0.78219628810E+03  0.78219628812E+03  0.50400001928E-02 0. -1.
        1   -1    0    0  501    0  0.00000000000E+00  0.00000000000E+00 -0.12843375573E+04  0.12843375573E+04  0.50400001928E-02 0.  1.
    10030    2    1    2    0    0  0.00000000000E+00  0.00000000000E+00 -0.50214126919E+03  0.20665338454E+04  0.20045987828E+04 0.  0.
        3    1    3    3  502    0  0.20415366143E+03  0.18601806711E+03  0.74219298051E+03  0.79191657975E+03  0.10100000352E+00 0. -1.
       -3    1    3    3    0  502 -0.20415366143E+03 -0.18601806711E+03 -0.12443342497E+04  0.12746172657E+04  0.10100000352E+00 0.  1.
</event>
<event>
 5   0  0.3970042E-05  0.2007355E+04  0.7818609E-02  0.8603190E-01
        1   -1    0    0  501    0  0.00000000000E+00  0.00000000000E+00  0.63135109725E+03  0.63135109727E+03  0.50400001928E-02 0.  1.
       -1   -1    0    0    0  501  0.00000000000E+00  0.00000000000E+00 -0.15955762618E+04  0.15955762618E+04  0.50400001928E-02 0. -1.
    10030    2    1    2    0    0  0.00000000000E+00  0.00000000000E+00 -0.96422516452E+03  0.22269273590E+04  0.20073552985E+04 0.  0.
        3    1    3    3  502    0 -0.77919497436E+03  0.39477230933E+03 -0.10305329707E+04  0.13509212405E+04  0.10100000352E+00 0. -1.
       -3    1    3    3    0  502  0.77919497436E+03 -0.39477230933E+03  0.66307806166E+02  0.87600611850E+03  0.10100000352E+00 0.  1.
</event>
<event>
 5   0  0.7857136E-05  0.1983908E+04  0.7818609E-02  0.8614182E-01
       -2   -1    0    0    0  501  0.00000000000E+00  0.00000000000E+00  0.10579816620E+04  0.10579816620E+04  0.25500000920E-02 0. -1.
        2   -1    0    0  501    0  0.00000000000E+00  0.00000000000E+00 -0.93004664316E+03  0.93004664317E+03  0.25500000920E-02 0.  1.
    10030    2    1    2    0    0  0.00000000000E+00  0.00000000000E+00  0.12793501886E+03  0.19880283052E+04  0.19839075516E+04 0.  0.
        4    1    3    3  502    0 -0.18636468069E+03  0.11159484378E+03  0.10338546643E+04  0.10564290242E+04  0.12699999809E+01 0. -1.
       -4    1    3    3    0  502  0.18636468069E+03 -0.11159484378E+03 -0.90591964547E+03  0.93159928097E+03  0.12699999809E+01 0.  1.
</event>
<event>
 5   0  0.7843846E-05  0.2005027E+04  0.7818609E-02  0.8604274E-01
        2   -1    0    0  501    0  0.00000000000E+00  0.00000000000E+00  0.11806031096E+04  0.11806031096E+04  0.25500000920E-02 0. -1.
       -2   -1    0    0    0  501  0.00000000000E+00  0.00000000000E+00 -0.85128801652E+03  0.85128801652E+03  0.25500000920E-02 0.  1.
    10030    2    1    2    0    0  0.00000000000E+00  0.00000000000E+00  0.32931509308E+03  0.20318911261E+04  0.20050269619E+04 0.  0.
        2    1    3    3  502    0  0.26486667731E+03  0.91751249867E+03  0.47378515410E+03  0.10660468631E+04  0.25500000920E-02 0. -1.
       -2    1    3    3    0  502 -0.26486667731E+03 -0.91751249867E+03 -0.14447006102E+03  0.96584426307E+03  0.25500000920E-02 0.  1.
</event>
<event>
 5   0  0.3772949E-05  0.2001522E+04  0.7818609E-02  0.8605910E-01
        1   -1    0    0  501    0  0.00000000000E+00  0.00000000000E+00  0.88183450121E+03  0.88183450123E+03  0.50400001928E-02 0. -1.
       -1   -1    0    0    0  501  0.00000000000E+00  0.00000000000E+00 -0.11357257118E+04  0.11357257118E+04  0.50400001928E-02 0.  1.
    10030    2    1    2    0    0  0.00000000000E+00  0.00000000000E+00 -0.25389121055E+03  0.20175602130E+04  0.20015215378E+04 0.  0.
        2    1    3    3  502    0  0.34074558303E+03  0.47094090343E+03 -0.94810788221E+03  0.11121157508E+04  0.25500000920E-02 0.  1.
       -2    1    3    3    0  502 -0.34074558303E+03 -0.47094090343E+03  0.69421667167E+03  0.90544446219E+03  0.25500000920E-02 0. -1.
</event>
<event>
 5   0  0.7843846E-05  0.2003428E+04  0.7818609E-02  0.8605020E-01
        2   -1    0    0  501    0  0.00000000000E+00  0.00000000000E+00  0.15861386339E+04  0.15861386339E+04  0.25500000920E-02 0. -1.
       -2   -1    0    0    0  501  0.00000000000E+00  0.00000000000E+00 -0.63262479957E+03  0.63262479957E+03  0.25500000920E-02 0.  1.
    10030    2    1    2    0    0  0.00000000000E+00  0.00000000000E+00  0.95351383435E+03  0.22187634335E+04  0.20034276981E+04 0.  0.
        2    1    3    3  502    0 -0.17999508569E+03  0.98538696693E+03  0.48418035452E+03  0.11125719398E+04  0.25500000920E-02 0. -1.
       -2    1    3    3    0  502  0.17999508569E+03 -0.98538696693E+03  0.46933347984E+03  0.11061914937E+04  0.25500000920E-02 0.  1.
</event>
<event>
 5   0  0.3772949E-05  0.1995530E+04  0.7818609E-02  0.8608714E-01
       -1   -1    0    0    0  501  0.00000000000E+00  0.00000000000E+00  0.12610827481E+04  0.12610827481E+04  0.50400001928E-02 0. -1.
        1   -1    0    0  501    0  0.00000000000E+00  0.00000000000E+00 -0.78942844724E+03  0.78942844726E+03  0.50400001928E-02 0.  1.
    10030    2    1    2    0    0  0.00000000000E+00  0.00000000000E+00  0.47165430084E+03  0.20505111954E+04  0.19955295996E+04 0.  0.
        2    1    3    3  502    0  0.93019474448E+03  0.30051601957E+03  0.44124115578E+03  0.10725044980E+04  0.25500000920E-02 0.  1.
       -2    1    3    3    0  502 -0.93019474448E+03 -0.30051601957E+03  0.30413145062E+02  0.97800669735E+03  0.25500000920E-02 0. -1.
</event>
<event>
 5   0  0.2859625E-05  0.1976576E+04  0.7818609E-02  0.8617651E-01
       -3   -1    0    0    0  501  0.00000000000E+00  0.00000000000E+00  0.34675065167E+03  0.34675066638E+03  0.10100000352E+00 0. -1.
        3   -1    0    0  501    0  0.00000000000E+00  0.00000000000E+00 -0.28167587370E+04  0.28167587388E+04  0.10100000352E+00 0.  1.
    10030    2    1    2    0    0  0.00000000000E+00  0.00000000000E+00 -0.24700080853E+04  0.31635094052E+04  0.19765757803E+04 0.  0.
        4    1    3    3  502    0 -0.37362662365E+03 -0.62240887152E+03 -0.16168811446E+03  0.74373000242E+03  0.12699999809E+01 0. -1.
       -4    1    3    3    0  502  0.37362662365E+03  0.62240887152E+03 -0.23083199708E+04  0.24197794027E+04  0.12699999809E+01 0.  1.
</event>
<event>
 5   0  0.3818907E-05  0.2013973E+04  0.7818609E-02  0.8600116E-01
       -1   -1    0    0    0  501  0.00000000000E+00  0.00000000000E+00  0.73660329029E+03  0.73660329031E+03  0.50400001928E-02 0.  1.
        1   -1    0    0  501    0  0.00000000000E+00  0.00000000000E+00 -0.13766183402E+04  0.13766183402E+04  0.50400001928E-02 0. -1.
    10030    2    1    2    0    0  0.00000000000E+00  0.00000000000E+00 -0.64001504994E+03  0.21132216305E+04  0.20139727892E+04 0.  0.
        1    1    3    3  502    0  0.80929672631E+03  0.26428429546E+03 -0.88429611545E+03  0.12275125253E+04  0.50400001928E-02 0. -1.
       -1    1    3    3    0  502 -0.80929672631E+03 -0.26428429546E+03  0.24428106551E+03  0.88570910520E+03  0.50400001928E-02 0.  1.
</event>
<event>
 5   0  0.7843846E-05  0.1987265E+04  0.7818609E-02  0.8612598E-01
       -2   -1    0    0    0  501  0.00000000000E+00  0.00000000000E+00  0.40511909614E+03  0.40511909615E+03  0.25500000920E-02 0.  1.
        2   -1    0    0  501    0  0.00000000000E+00  0.00000000000E+00 -0.24370751542E+04  0.24370751542E+04  0.25500000920E-02 0. -1.
    10030    2    1    2    0    0  0.00000000000E+00  0.00000000000E+00 -0.20319560580E+04  0.28421942503E+04  0.19872651395E+04 0.  0.
        2    1    3    3  502    0 -0.21418214633E+03  0.96873560572E+03 -0.93786456696E+03  0.13652518491E+04  0.25500000920E-02 0. -1.
       -2    1    3    3    0  502  0.21418214633E+03 -0.96873560572E+03 -0.10940914911E+04  0.14769424012E+04  0.25500000920E-02 0.  1.
</event>
<event>
 5   0  0.7857136E-05  0.1970632E+04  0.7818609E-02  0.8620476E-01
       -2   -1    0    0    0  501  0.00000000000E+00  0.00000000000E+00  0.55789957677E+03  0.55789957677E+03  0.25500000920E-02 0. -1.
        2   -1    0    0  501    0  0.00000000000E+00  0.00000000000E+00 -0.17401833552E+04  0.17401833552E+04  0.25500000920E-02 0.  1.
    10030    2    1    2    0    0  0.00000000000E+00  0.00000000000E+00 -0.11822837785E+04  0.22980829320E+04  0.19706319366E+04 0.  0.
        4    1    3    3  502    0 -0.52788745833E+03 -0.34922397574E+03 -0.14717500270E+04  0.16020837396E+04  0.12699999809E+01 0.  1.
       -4    1    3    3    0  502  0.52788745833E+03  0.34922397574E+03  0.28946624851E+03  0.69599919240E+03  0.12699999809E+01 0. -1.
</event>
<event>
 5   0  0.8022574E-05  0.2006484E+04  0.7818609E-02  0.8603595E-01
        2   -1    0    0  501    0  0.00000000000E+00  0.00000000000E+00  0.11037231991E+04  0.11037231991E+04  0.25500000920E-02 0.  1.
       -2   -1    0    0    0  501  0.00000000000E+00  0.00000000000E+00 -0.91190819904E+03  0.91190819904E+03  0.25500000920E-02 0. -1.
    10030    2    1    2    0    0  0.00000000000E+00  0.00000000000E+00  0.19181500006E+03  0.20156313981E+04  0.20064837251E+04 0.  0.
        1    1    3    3  502    0  0.26100405085E+03  0.71723652262E+03 -0.55816991265E+03  0.94557125345E+03  0.50400001928E-02 0. -1.
       -1    1    3    3    0  502 -0.26100405085E+03 -0.71723652262E+03  0.74998491270E+03  0.10700601447E+04  0.50400001928E-02 0.  1.
</event>
<event>
 5   0  0.8022574E-05  0.2031844E+04  0.7818609E-02  0.8591875E-01
       -2   -1    0    0    0  501  0.00000000000E+00  0.00000000000E+00  0.12641423017E+04  0.12641423017E+04  0.25500000920E-02 0.  1.
        2   -1    0    0  501    0  0.00000000000E+00  0.00000000000E+00 -0.81644131437E+03  0.81644131437E+03  0.25500000920E-02 0. -1.
    10030    2    1    2    0    0  0.00000000000E+00  0.00000000000E+00  0.44770098734E+03  0.20805836161E+04  0.20318444846E+04 0.  0.
        1    1    3    3  502    0 -0.32783441011E+03 -0.34001661570E+03 -0.69717574864E+03  0.84210493641E+03  0.50400001928E-02 0. -1.
       -1    1    3    3    0  502  0.32783441011E+03  0.34001661570E+03  0.11448767360E+04  0.12384786797E+04  0.50400001928E-02 0.  1.
</event>
<event>
 5   0  0.3772949E-05  0.1990434E+04  0.7818609E-02  0.8611106E-01
       -1   -1    0    0    0  501  0.00000000000E+00  0.00000000000E+00  0.77929229723E+03  0.77929229725E+03  0.50400001928E-02 0. -1.
        1   -1    0    0  501    0  0.00000000000E+00  0.00000000000E+00 -0.12709693721E+04  0.12709693721E+04  0.50400001928E-02 0.  1.
    10030    2    1    2    0    0  0.00000000000E+00  0.00000000000E+00 -0.49167707485E+03  0.20502616693E+04  0.19904337635E+04 0.  0.
        2    1    3    3  502    0  0.72740047284E+03 -0.66287711084E+03 -0.93267794612E+02  0.98854256028E+03  0.25500000920E-02 0. -1.
       -2    1    3    3    0  502 -0.72740047284E+03  0.66287711084E+03 -0.39840928023E+03  0.10617191091E+04  0.25500000920E-02 0.  1.
</event>
<event>
 5   0  0.2859625E-05  0.2003037E+04  0.7818609E-02  0.8605202E-01
        4   -1    0    0  501    0  0.00000000000E+00  0.00000000000E+00  0.82040987015E+03  0.82041085314E+03  0.12699999809E+01 0. -1.
       -4   -1    0    0    0  501  0.00000000000E+00  0.00000000000E+00 -0.12226049017E+04  0.12226055613E+04  0.12699999809E+01 0.  1.
    10030    2    1    2    0    0  0.00000000000E+00  0.00000000000E+00 -0.40219503158E+03  0.20430164145E+04  0.20030365015E+04 0.  0.
        4    1    3    3  502    0 -0.22467638279E+03  0.95177894228E+03  0.19257589459E+02  0.97812836561E+03  0.12699999809E+01 0.  1.
       -4    1    3    3    0  502  0.22467638279E+03 -0.95177894228E+03 -0.42145262103E+03  0.10648880489E+04  0.12699999809E+01 0. -1.
</event>
<event>
 5   0  0.8022574E-05  0.1842558E+04  0.7818609E-02  0.8683989E-01
       -2   -1    0    0    0  501  0.00000000000E+00  0.00000000000E+00  0.10730433628E+04  0.10730433628E+04  0.25500000920E-02 0.  1.
        2   -1    0    0  501    0  0.00000000000E+00  0.00000000000E+00 -0.79097947435E+03  0.79097947436E+03  0.25500000920E-02 0. -1.
    10030    2    1    2    0    0  0.00000000000E+00  0.00000000000E+00  0.28206388846E+03  0.18640228372E+04  0.18425583031E+04 0.  0.
        1    1    3    3  502    0  0.23058359927E+03 -0.67552025035E+02  0.10407876331E+04  0.10681624266E+04  0.50400001928E-02 0.  1.
       -1    1    3    3    0  502 -0.23058359927E+03  0.67552025035E+02 -0.75872374467E+03  0.79586041055E+03  0.50400001928E-02 0. -1.
</event>
<event>
 5   0  0.8011197E-05  0.2002928E+04  0.7818609E-02  0.8605253E-01
       -2   -1    0    0    0  501  0.00000000000E+00  0.00000000000E+00  0.86126899119E+03  0.86126899119E+03  0.25500000920E-02 0. -1.
        2   -1    0    0  501    0  0.00000000000E+00  0.00000000000E+00 -0.11644797655E+04  0.11644797655E+04  0.25500000920E-02 0.  1.
    10030    2    1    2    0    0  0.00000000000E+00  0.00000000000E+00 -0.30321077433E+03  0.20257487567E+04  0.20029281694E+04 0.  0.
        5    1    3    3  502    0 -0.29321639660E+02  0.25228795827E+03 -0.11313525908E+04  0.11595213440E+04  0.46999998093E+01 0.  1.
       -5    1    3    3    0  502  0.29321639660E+02 -0.25228795827E+03  0.82814181645E+03  0.86622741275E+03  0.46999998093E+01 0. -1.
</event>
<event>
 5   0  0.7857136E-05  0.2012384E+04  0.7818609E-02  0.8600853E-01
       -2   -1    0    0    0  501  0.00000000000E+00  0.00000000000E+00  0.14521978449E+04  0.14521978449E+04  0.25500000920E-02 0. -1.
        2   -1    0    0  501    0  0.00000000000E+00  0.00000000000E+00 -0.69716534374E+03  0.69716534374E+03  0.25500000920E-02 0.  1.
    10030    2    1    2    0    0  0.00000000000E+00  0.00000000000E+00  0.75503250116E+03  0.21493631886E+04  0.20123836709E+04 0.  0.
        4    1    3    3  502    0 -0.50158847695E+03  0.54144162429E+03  0.11079300118E+04  0.13312627677E+04  0.12699999809E+01 0. -1.
       -4    1    3    3    0  502  0.50158847695E+03 -0.54144162429E+03 -0.35289751069E+03  0.81810042090E+03  0.12699999809E+01 0.  1.
</event>
<event>
 5   0  0.3818907E-05  0.1998602E+04  0.7818609E-02  0.8607275E-01
        1   -1    0    0  501    0  0.00000000000E+00  0.00000000000E+00  0.19431655196E+04  0.19431655196E+04  0.50400001928E-02 0.  1.
       -1   -1    0    0    0  501  0.00000000000E+00  0.00000000000E+00 -0.51390495908E+03  0.51390495911E+03  0.50400001928E-02 0. -1.
    10030    2    1    2    0    0  0.00000000000E+00  0.00000000000E+00  0.14292605605E+04  0.24570704787E+04  0.19986019082E+04 0.  0.
        1    1    3    3  502    0  0.70790174788E+03 -0.59065330144E+03  0.11885554406E+04  0.15042141611E+04  0.50400001928E-02 0. -1.
       -1    1    3    3    0  502 -0.70790174788E+03  0.59065330144E+03  0.24070511990E+03  0.95285631756E+03  0.50400001928E-02 0.  1.
</event>
<event>
 5   0  0.7935008E-05  0.1991576E+04  0.7818609E-02  0.8610569E-01
        2   -1    0    0  501    0  0.00000000000E+00  0.00000000000E+00  0.54950502524E+03  0.54950502524E+03  0.25500000920E-02 0.  1.
       -2   -1    0    0    0  501  0.00000000000E+00  0.00000000000E+00 -0.18045221170E+04  0.18045221170E+04  0.25500000920E-02 0. -1.
    10030    2    1    2    0    0  0.00000000000E+00  0.00000000000E+00 -0.12550170917E+04  0.23540271422E+04  0.19915762315E+04 0.  0.
        3    1    3    3  502    0  0.13304821167E+03  0.20704638614E+03  0.51299057020E+03  0.56897220315E+03  0.10100000352E+00 0.  1.
       -3    1    3    3    0  502 -0.13304821167E+03 -0.20704638614E+03 -0.17680076619E+04  0.17850549391E+04  0.10100000352E+00 0. -1.
</event>
<event>
 5   0  0.8022574E-05  0.2020151E+04  0.7818609E-02  0.8597257E-01
        2   -1    0    0  501    0  0.00000000000E+00  0.00000000000E+00  0.73869950515E+03  0.73869950515E+03  0.25500000920E-02 0.  1.
       -2   -1    0    0    0  501  0.00000000000E+00  0.00000000000E+00 -0.13811466446E+04  0.13811466446E+04  0.25500000920E-02 0. -1.
    10030    2    1    2    0    0  0.00000000000E+00  0.00000000000E+00 -0.64244713947E+03  0.21198461498E+04  0.20201508289E+04 0.  0.
        1    1    3    3  502    0  0.65821423947E+03  0.58735070498E+03  0.19501579312E+03  0.90346997475E+03  0.50400001928E-02 0. -1.
       -1    1    3    3    0  502 -0.65821423947E+03 -0.58735070498E+03 -0.83746293259E+03  0.12163761750E+04  0.50400001928E-02 0.  1.
</event>
<event>
 5   0  0.3787698E-05  0.1868946E+04  0.7818609E-02  0.8670470E-01
       -1   -1    0    0    0  501  0.00000000000E+00  0.00000000000E+00  0.80646205216E+03  0.80646205217E+03  0.50400001928E-02 0.  1.
        1   -1    0    0  501    0  0.00000000000E+00  0.00000000000E+00 -0.10828036048E+04  0.10828036049E+04  0.50400001928E-02 0. -1.
    10030    2    1    2    0    0  0.00000000000E+00  0.00000000000E+00 -0.27634155268E+03  0.18892656570E+04  0.18689462456E+04 0.  0.
        4    1    3    3  502    0 -0.18586703081E+03  0.90237322652E+03 -0.29612067361E+03  0.96773604838E+03  0.12699999809E+01 0. -1.
       -4    1    3    3    0  502  0.18586703081E+03 -0.90237322652E+03  0.19779120929E+02  0.92152960865E+03  0.12699999809E+01 0.  1.
</event>
<event>
 5   0  0.7935008E-05  0.2012671E+04  0.7818609E-02  0.8600719E-01
       -2   -1    0    0    0  501  0.00000000000E+00  0.00000000000E+00  0.11348403170E+04  0.11348403170E+04  0.25500000920E-02 0. -1.
        2   -1    0    0  501    0  0.00000000000E+00  0.00000000000E+00 -0.89238229722E+03  0.89238229723E+03  0.25500000920E-02 0.  1.
    10030    2    1    2    0    0  0.00000000000E+00  0.00000000000E+00  0.24245801975E+03  0.20272226142E+04  0.20126712688E+04 0.  0.
        3    1    3    3  502    0 -0.92973735212E+03  0.16365373543E+03  0.47234262337E+03  0.10556048755E+04  0.10100000352E+00 0. -1.
       -3    1    3    3    0  502  0.92973735212E+03 -0.16365373543E+03 -0.22988460362E+03  0.97161773874E+03  0.10100000352E+00 0.  1.
</event>
<event>
 5   0  0.8022574E-05  0.1995285E+04  0.7818609E-02  0.8608828E-01
       -2   -1    0    0    0  501  0.00000000000E+00  0.00000000000E+00  0.78981343809E+03  0.78981343809E+03  0.25500000920E-02 0.  1.
        2   -1    0    0  501    0  0.00000000000E+00  0.00000000000E+00 -0.12601594251E+04  0.12601594251E+04  0.25500000920E-02 0. -1.
    10030    2    1    2    0    0  0.00000000000E+00  0.00000000000E+00 -0.47034598699E+03  0.20499728632E+04  0.19952852909E+04 0.  0.
        1    1    3    3  502    0  0.69532829489E+03  0.12225099527E+03  0.48903267935E+03  0.85882460667E+03  0.50400001928E-02 0.  1.
       -1    1    3    3    0  502 -0.69532829489E+03 -0.12225099527E+03 -0.95937866634E+03  0.11911482565E+04  0.50400001928E-02 0. -1.
</event>
<event>
 5   0  0.3772949E-05  0.2009802E+04  0.7818609E-02  0.8602052E-01
        1   -1    0    0  501    0  0.00000000000E+00  0.00000000000E+00  0.26083804769E+04  0.26083804769E+04  0.50400001928E-02 0.  1.
       -1   -1    0    0    0  501  0.00000000000E+00  0.00000000000E+00 -0.38714661133E+03  0.38714661136E+03  0.50400001928E-02 0. -1.
    10030    2    1    2    0    0  0.00000000000E+00  0.00000000000E+00  0.22212338655E+04  0.29955270882E+04  0.20098016447E+04 0.  0.
        2    1    3    3  502    0 -0.49676471241E+03 -0.27241342491E+03  0.23476453521E+04  0.24150409837E+04  0.25500000920E-02 0.  1.
       -2    1    3    3    0  502  0.49676471241E+03  0.27241342491E+03 -0.12641148662E+03  0.58048610450E+03  0.25500000920E-02 0. -1.
</event>
<event>
 5   0  0.8011197E-05  0.1988271E+04  0.7818609E-02  0.8612124E-01
        2   -1    0    0  501    0  0.00000000000E+00  0.00000000000E+00  0.94130636623E+03  0.94130636623E+03  0.25500000920E-02 0. -1.
       -2   -1    0    0    0  501  0.00000000000E+00  0.00000000000E+00 -0.10499298623E+04  0.10499298623E+04  0.25500000920E-02 0.  1.
    10030    2    1    2    0    0  0.00000000000E+00  0.00000000000E+00 -0.10862349611E+03  0.19912362286E+04  0.19882712728E+04 0.  0.
        5    1    3    3  502    0 -0.74597626256E+03  0.31195757591E+03 -0.63352137218E+03  0.10272144530E+04  0.46999998093E+01 0.  1.
       -5    1    3    3    0  502  0.74597626256E+03 -0.31195757591E+03  0.52489787606E+03  0.96402177556E+03  0.46999998093E+01 0. -1.
</event>
<event>
 5   0  0.3818907E-05  0.1959476E+04  0.7818609E-02  0.8625805E-01
        1   -1    0    0  501    0  0.00000000000E+00  0.00000000000E+00  0.79510944203E+03  0.79510944205E+03  0.50400001928E-02 0. -1.
       -1   -1    0    0    0  501  0.00000000000E+00  0.00000000000E+00 -0.12072383704E+04  0.12072383704E+04  0.50400001928E-02 0.  1.
    10030    2    1    2    0    0  0.00000000000E+00  0.00000000000E+00 -0.41212892840E+03  0.20023478125E+04  0.19594760801E+04 0.  0.
        1    1    3    3  502    0 -0.10101803133E+03  0.71502468859E+03  0.47055667484E+03  0.86190981675E+03  0.50400001928E-02 0. -1.
       -1    1    3    3    0  502  0.10101803133E+03 -0.71502468859E+03 -0.88268560324E+03  0.11404379957E+04  0.50400001928E-02 0.  1.
</event>
<event>
 5   0  0.8022574E-05  0.2027985E+04  0.7818609E-02  0.8593647E-01
       -2   -1    0    0    0  501  0.00000000000E+00  0.00000000000E+00  0.77107805088E+03  0.77107805088E+03  0.25500000920E-02 0.  1.
        2   -1    0    0  501    0  0.00000000000E+00  0.00000000000E+00 -0.13334330661E+04  0.13334330661E+04  0.25500000920E-02 0. -1.
    10030    2    1    2    0    0  0.00000000000E+00  0.00000000000E+00 -0.56235501518E+03  0.21045111169E+04  0.20279851770E+04 0.  0.
        1    1    3    3  502    0 -0.38108442741E+03  0.40264323692E+03  0.59987967345E+03  0.81682466888E+03  0.50400001928E-02 0.  1.
       -1    1    3    3    0  502  0.38108442741E+03 -0.40264323692E+03 -0.11622346886E+04  0.12876864481E+04  0.50400001928E-02 0. -1.
</event>
<event>
 5   0  0.7843846E-05  0.1988332E+04  0.7818609E-02  0.8612095E-01
        2   -1    0    0  501    0  0.00000000000E+00  0.00000000000E+00  0.11990432584E+04  0.11990432584E+04  0.25500000920E-02 0.  1.
       -2   -1    0    0    0  501  0.00000000000E+00  0.00000000000E+00 -0.82429543577E+03  0.82429543578E+03  0.25500000920E-02 0. -1.
    10030    2    1    2    0    0  0.00000000000E+00  0.00000000000E+00  0.37474782267E+03  0.20233386942E+04  0.19883318488E+04 0.  0.
        2    1    3    3  502    0 -0.70478194447E+03  0.43880011276E+03  0.74390563614E+03  0.11147460355E+04  0.25500000920E-02 0.  1.
       -2    1    3    3    0  502  0.70478194447E+03 -0.43880011276E+03 -0.36915781346E+03  0.90859265871E+03  0.25500000920E-02 0. -1.
</event>
<event>
 5   0  0.3549426E-05  0.1993069E+04  0.7818609E-02  0.8609868E-01
       -1   -1    0    0    0  501  0.00000000000E+00  0.00000000000E+00  0.67127379870E+03  0.67127379872E+03  0.50400001928E-02 0. -1.
        1   -1    0    0  501    0  0.00000000000E+00  0.00000000000E+00 -0.14793978211E+04  0.14793978212E+04  0.50400001928E-02 0.  1.
    10030    2    1    2    0    0  0.00000000000E+00  0.00000000000E+00 -0.80812402244E+03  0.21506716199E+04  0.19930689855E+04 0.  0.
        5    1    3    3  502    0 -0.88480132296E+02 -0.11930739059E+03  0.65924940142E+03  0.67579201722E+03  0.46999998093E+01 0. -1.
       -5    1    3    3    0  502  0.88480132296E+02  0.11930739059E+03 -0.14673734239E+04  0.14748796027E+04  0.46999998093E+01 0.  1.
</event>
<event>
 5   0  0.3970042E-05  0.2000652E+04  0.7818609E-02  0.8606316E-01
       -1   -1    0    0    0  501  0.00000000000E+00  0.00000000000E+00  0.11198107930E+04  0.11198107930E+04  0.50400001928E-02 0.  1.
        1   -1    0    0  501    0  0.00000000000E+00  0.00000000000E+00 -0.89359066008E+03  0.89359066010E+03  0.50400001928E-02 0. -1.
    10030    2    1    2    0    0  0.00000000000E+00  0.00000000000E+00  0.22622013288E+03  0.20134014531E+04  0.20006523593E+04 0.  0.
        3    1    3    3  502    0 -0.68931237958E+03  0.71615951551E+03  0.22614880015E+03  0.10194014412E+04  0.10100000352E+00 0.  1.
       -3    1    3    3    0  502  0.68931237958E+03 -0.71615951551E+03  0.71332729091E-01  0.99400001187E+03  0.10100000352E+00 0. -1.
</event>
<event>
 5   0  0.7935008E-05  0.2012512E+04  0.7818609E-02  0.8600793E-01
        2   -1    0    0  501    0  0.00000000000E+00  0.00000000000E+00  0.12151799825E+04  0.12151799825E+04  0.25500000920E-02 0.  1.
       -2   -1    0    0    0  501  0.00000000000E+00  0.00000000000E+00 -0.83325183620E+03  0.83325183621E+03  0.25500000920E-02 0. -1.
    10030    2    1    2    0    0  0.00000000000E+00  0.00000000000E+00  0.38192814627E+03  0.20484318187E+04  0.20125118153E+04 0.  0.
        3    1    3    3  502    0  0.31439365569E+03 -0.18223723234E+03 -0.76413198941E+03  0.84613916529E+03  0.10100000352E+00 0. -1.
       -3    1    3    3    0  502 -0.31439365569E+03  0.18223723234E+03  0.11460601357E+04  0.12022926534E+04  0.10100000352E+00 0.  1.
</event>
<event>
 5   0  0.8011197E-05  0.1833411E+04  0.7818609E-02  0.8688731E-01
        2   -1    0    0  501    0  0.00000000000E+00  0.00000000000E+00  0.14694462355E+04  0.14694462356E+04  0.25500000920E-02 0.  1.
       -2   -1    0    0    0  501  0.00000000000E+00  0.00000000000E+00 -0.57188170580E+03  0.57188170580E+03  0.25500000920E-02 0. -1.
    10030    2    1    2    0    0  0.00000000000E+00  0.00000000000E+00  0.89756452975E+03  0.20413279414E+04  0.18334114866E+04 0.  0.
        5    1    3    3  502    0 -0.43059952661E+03  0.67933368972E+03  0.93844864090E+03  0.12359685093E+04  0.46999998093E+01 0.  1.
       -5    1    3    3    0  502  0.43059952661E+03 -0.67933368972E+03 -0.40884111147E+02  0.80535943208E+03  0.46999998093E+01 0. -1.
</event>
<event>
 5   0  0.3549426E-05  0.2007778E+04  0.7818609E-02  0.8602993E-01
        1   -1    0    0  501    0  0.00000000000E+00  0.00000000000E+00  0.75868862287E+03  0.75868862288E+03  0.50400001928E-02 0. -1.
       -1   -1    0    0    0  501  0.00000000000E+00  0.00000000000E+00 -0.13283356184E+04  0.13283356184E+04  0.50400001928E-02 0.  1.
    10030    2    1    2    0    0  0.00000000000E+00  0.00000000000E+00 -0.56964699549E+03  0.20870242412E+04  0.20077779967E+04 0.  0.
        5    1    3    3  502    0  0.27718789898E+03  0.13229533661E+03 -0.12782845091E+04  0.13146743185E+04  0.46999998093E+01 0.  1.
       -5    1    3    3    0  502 -0.27718789898E+03 -0.13229533661E+03  0.70863751365E+03  0.77234992275E+03  0.46999998093E+01 0. -1.
</event>
<event>
 5   0  0.8022574E-05  0.2012855E+04  0.7818609E-02  0.8600634E-01
       -2   -1    0    0    0  501  0.00000000000E+00  0.00000000000E+00  0.76872462241E+03  0.76872462242E+03  0.25500000920E-02 0.  1.
        2   -1    0    0  501    0  0.00000000000E+00  0.00000000000E+00 -0.13176324319E+04  0.13176324319E+04  0.25500000920E-02 0. -1.
    10030    2    1    2    0    0  0.00000000000E+00  0.00000000000E+00 -0.54890780948E+03  0.20863570543E+04  0.20128551798E+04 0.  0.
        1    1    3    3  502    0 -0.84945962085E+03  0.10394166180E+03  0.27451915897E+03  0.89874706407E+03  0.50400001928E-02 0.  1.
       -1    1    3    3    0  502  0.84945962085E+03 -0.10394166180E+03 -0.82342696845E+03  0.11876099902E+04  0.50400001928E-02 0. -1.
</event>
<event>
 5   0  0.3818907E-05  0.1985400E+04  0.7818609E-02  0.8613477E-01
        1   -1    0    0  501    0  0.00000000000E+00  0.00000000000E+00  0.11508704541E+04  0.11508704541E+04  0.50400001928E-02 0.  1.
       -1   -1    0    0    0  501  0.00000000000E+00  0.00000000000E+00 -0.85626768361E+03  0.85626768363E+03  0.50400001928E-02 0. -1.
    10030    2    1    2    0    0  0.00000000000E+00  0.00000000000E+00  0.29460277046E+03  0.20071381377E+04  0.19853998870E+04 0.  0.
        1    1    3    3  502    0  0.11035339539E+03 -0.83818874142E+03  0.67330094656E+03  0.10807739832E+04  0.50400001928E-02 0.  1.
       -1    1    3    3    0  502 -0.11035339539E+03  0.83818874142E+03 -0.37869817610E+03  0.92636415449E+03  0.50400001928E-02 0. -1.
</event>
<event>
 5   0  0.7935008E-05  0.2015997E+04  0.7818609E-02  0.8599178E-01
       -2   -1    0    0    0  501  0.00000000000E+00  0.00000000000E+00  0.54005173280E+03  0.54005173280E+03  0.25500000920E-02 0. -1.
        2   -1    0    0  501    0  0.00000000000E+00  0.00000000000E+00 -0.18814137520E+04  0.18814137520E+04  0.25500000920E-02 0.  1.
    10030    2    1    2    0    0  0.00000000000E+00  0.00000000000E+00 -0.13413620192E+04  0.24214654848E+04  0.20159967826E+04 0.  0.
        3    1    3    3  502    0  0.60213097707E+03  0.31908818444E+03 -0.15628204973E+04  0.17049301746E+04  0.10100000352E+00 0.  1.
       -3    1    3    3    0  502 -0.60213097707E+03 -0.31908818444E+03  0.22145847819E+03  0.71653531020E+03  0.10100000352E+00 0. -1.
</event>
<event>
 5   0  0.7857136E-05  0.1998581E+04  0.7818609E-02  0.8607284E-01
       -2   -1    0    0    0  501  0.00000000000E+00  0.00000000000E+00  0.80270719456E+03  0.80270719456E+03  0.25500000920E-02 0.  1.
        2   -1    0    0  501    0  0.00000000000E+00  0.00000000000E+00 -0.12440174785E+04  0.12440174785E+04  0.25500000920E-02 0. -1.
    10030    2    1    2    0    0  0.00000000000E+00  0.00000000000E+00 -0.44131028396E+03  0.20467246731E+04  0.19985812770E+04 0.  0.
        4    1    3    3  502    0 -0.86079450565E+03 -0.15360749437E+03 -0.71606196769E+03  0.11301808695E+04  0.12699999809E+01 0. -1.
       -4    1    3    3    0  502  0.86079450565E+03  0.15360749437E+03  0.27475168373E+03  0.91654380359E+03  0.12699999809E+01 0.  1.
</event>
<event>
 5   0  0.7843846E-05  0.1996558E+04  0.7818609E-02  0.8608232E-01
       -2   -1    0    0    0  501  0.00000000000E+00  0.00000000000E+00  0.55708485044E+03  0.55708485045E+03  0.25500000920E-02 0. -1.
        2   -1    0    0  501    0  0.00000000000E+00  0.00000000000E+00 -0.17888855922E+04  0.17888855922E+04  0.25500000920E-02 0.  1.
    10030    2    1    2    0    0  0.00000000000E+00  0.00000000000E+00 -0.12318007418E+04  0.23459704427E+04  0.19965581009E+04 0.  0.
        2    1    3    3  502    0 -0.94561840100E+02  0.37139776621E+03 -0.16990014831E+04  0.17416900648E+04  0.25500000920E-02 0.  1.
       -2    1    3    3    0  502  0.94561840100E+02 -0.37139776621E+03  0.46720074132E+03  0.60428037784E+03  0.25500000920E-02 0. -1.
</event>
<event>
 5   0  0.7843846E-05  0.1931737E+04  0.7818609E-02  0.8639218E-01
       -2   -1    0    0    0  501  0.00000000000E+00  0.00000000000E+00  0.56576551203E+03  0.56576551204E+03  0.25500000920E-02 0. -1.
        2   -1    0    0  501    0  0.00000000000E+00  0.00000000000E+00 -0.16489194621E+04  0.16489194621E+04  0.25500000920E-02 0.  1.
    10030    2    1    2    0    0  0.00000000000E+00  0.00000000000E+00 -0.10831539501E+04  0.22146849741E+04  0.19317367976E+04 0.  0.
        2    1    3    3  502    0 -0.80109260839E+03  0.47625704549E+03 -0.83236482819E+03  0.12495604618E+04  0.25500000920E-02 0.  1.
       -2    1    3    3    0  502  0.80109260839E+03 -0.47625704549E+03 -0.25078912189E+03  0.96512451231E+03  0.25500000920E-02 0. -1.
</event>
<event>
 5   0  0.8022574E-05  0.2009665E+04  0.7818609E-02  0.8602115E-01
       -2   -1    0    0    0  501  0.00000000000E+00  0.00000000000E+00  0.72463453822E+03  0.72463453823E+03  0.25500000920E-02 0.  1.
        2   -1    0    0  501    0  0.00000000000E+00  0.00000000000E+00 -0.13933762370E+04  0.13933762370E+04  0.25500000920E-02 0. -1.
    10030    2    1    2    0    0  0.00000000000E+00  0.00000000000E+00 -0.66874169873E+03  0.21180107752E+04  0.20096651921E+04 0.  0.
        1    1    3    3  502    0 -0.83509020704E+03 -0.35210141200E+03  0.12300459169E+03  0.91459345495E+03  0.50400001928E-02 0.  1.
       -1    1    3    3    0  502  0.83509020704E+03  0.35210141200E+03 -0.79174629042E+03  0.12034173202E+04  0.50400001928E-02 0. -1.
</event>
<event>
 5   0  0.3549426E-05  0.2013675E+04  0.7818609E-02  0.8600254E-01
       -1   -1    0    0    0  501  0.00000000000E+00  0.00000000000E+00  0.83352075706E+03  0.83352075707E+03  0.50400001928E-02 0.  1.
        1   -1    0    0  501    0  0.00000000000E+00  0.00000000000E+00 -0.12161919878E+04  0.12161919878E+04  0.50400001928E-02 0. -1.
    10030    2    1    2    0    0  0.00000000000E+00  0.00000000000E+00 -0.38267123076E+03  0.20497127449E+04  0.20136745183E+04 0.  0.
        5    1    3    3  502    0 -0.55927542803E+03 -0.47871255947E+03 -0.89046431460E+03  0.11553802424E+04  0.46999998093E+01 0. -1.
       -5    1    3    3    0  502  0.55927542803E+03  0.47871255947E+03  0.50779308384E+03  0.89433250248E+03  0.46999998093E+01 0.  1.
</event>
<event>
 5   0  0.3818907E-05  0.1766232E+04  0.7818609E-02  0.8724466E-01
       -1   -1    0    0    0  501  0.00000000000E+00  0.00000000000E+00  0.56947572718E+03  0.56947572720E+03  0.50400001928E-02 0. -1.
        1   -1    0    0  501    0  0.00000000000E+00  0.00000000000E+00 -0.13694945849E+04  0.13694945849E+04  0.50400001928E-02 0.  1.
    10030    2    1    2    0    0  0.00000000000E+00  0.00000000000E+00 -0.80001885768E+03  0.19389703121E+04  0.17662320624E+04 0.  0.
        1    1    3    3  502    0  0.43803771709E+03 -0.22236254607E+03  0.40563831002E+03  0.63707502075E+03  0.50400001928E-02 0. -1.
       -1    1    3    3    0  502 -0.43803771709E+03  0.22236254607E+03 -0.12056571677E+04  0.13018952913E+04  0.50400001928E-02 0.  1.
</event>
<event>
 5   0  0.8022574E-05  0.2013072E+04  0.7818609E-02  0.8600533E-01
       -2   -1    0    0    0  501  0.00000000000E+00  0.00000000000E+00  0.12802993279E+04  0.12802993279E+04  0.25500000920E-02 0.  1.
        2   -1    0    0  501    0  0.00000000000E+00  0.00000000000E+00 -0.79131087666E+03  0.79131087666E+03  0.25500000920E-02 0. -1.
    10030    2    1    2    0    0  0.00000000000E+00  0.00000000000E+00  0.48898845121E+03  0.20716102045E+04  0.20130720638E+04 0.  0.
        1    1    3    3  502    0 -0.62639946174E+03 -0.14601563864E+03 -0.55224020382E+03  0.84774176206E+03  0.50400001928E-02 0. -1.
       -1    1    3    3    0  502  0.62639946174E+03  0.14601563864E+03  0.10412286550E+04  0.12238684425E+04  0.50400001928E-02 0.  1.
</event>
<event>
 5   0  0.3772949E-05  0.2011643E+04  0.7818609E-02  0.8601197E-01
       -1   -1    0    0    0  501  0.00000000000E+00  0.00000000000E+00  0.56866488684E+03  0.56866488686E+03  0.50400001928E-02 0. -1.
        1   -1    0    0  501    0  0.00000000000E+00  0.00000000000E+00 -0.17790379171E+04  0.17790379171E+04  0.50400001928E-02 0.  1.
    10030    2    1    2    0    0  0.00000000000E+00  0.00000000000E+00 -0.12103730302E+04  0.23477028039E+04  0.20116425088E+04 0.  0.
        2    1    3    3  502    0  0.24265372926E+03 -0.97153828568E+03 -0.71534169291E+03  0.12306426006E+04  0.25500000920E-02 0.  1.
       -2    1    3    3    0  502 -0.24265372926E+03  0.97153828568E+03 -0.49503133731E+03  0.11170602033E+04  0.25500000920E-02 0. -1.
</event>
<event>
 5   0  0.3970042E-05  0.2000762E+04  0.7818609E-02  0.8606264E-01
       -1   -1    0    0    0  501  0.00000000000E+00  0.00000000000E+00  0.11375506370E+04  0.11375506370E+04  0.50400001928E-02 0.  1.
        1   -1    0    0  501    0  0.00000000000E+00  0.00000000000E+00 -0.87975196089E+03  0.87975196091E+03  0.50400001928E-02 0. -1.
    10030    2    1    2    0    0  0.00000000000E+00  0.00000000000E+00  0.25779867612E+03  0.20173025979E+04  0.20007622583E+04 0.  0.
        3    1    3    3  502    0 -0.28823329061E+03  0.89325920704E+03  0.47784124188E+03  0.10532438955E+04  0.10100000352E+00 0.  1.
       -3    1    3    3    0  502  0.28823329061E+03 -0.89325920704E+03 -0.22004256576E+03  0.96405870243E+03  0.10100000352E+00 0. -1.
</event>
<event>
 5   0  0.3787698E-05  0.2013788E+04  0.7818609E-02  0.8600201E-01
        1   -1    0    0  501    0  0.00000000000E+00  0.00000000000E+00  0.12417247634E+04  0.12417247634E+04  0.50400001928E-02 0. -1.
       -1   -1    0    0    0  501  0.00000000000E+00  0.00000000000E+00 -0.81647357335E+03  0.81647357336E+03  0.50400001928E-02 0.  1.
    10030    2    1    2    0    0  0.00000000000E+00  0.00000000000E+00  0.42525119001E+03  0.20581983367E+04  0.20137879279E+04 0.  0.
        4    1    3    3  502    0  0.65237223763E+03 -0.76052522649E+03  0.31403925655E+03  0.10500525816E+04  0.12699999809E+01 0. -1.
       -4    1    3    3    0  502 -0.65237223763E+03  0.76052522649E+03  0.11121193346E+03  0.10081457551E+04  0.12699999809E+01 0.  1.
</event>
<event>
 5   0  0.8022574E-05  0.2009536E+04  0.7818609E-02  0.8602175E-01
        2   -1    0    0  501    0  0.00000000000E+00  0.00000000000E+00  0.17920403381E+04  0.17920403381E+04  0.25500000920E-02 0.  1.
       -2   -1    0    0    0  501  0.00000000000E+00  0.00000000000E+00 -0.56335726856E+03  0.56335726856E+03  0.25500000920E-02 0. -1.
    10030    2    1    2    0    0  0.00000000000E+00  0.00000000000E+00  0.12286830695E+04  0.23553976067E+04  0.20095362152E+04 0.  0.
        1    1    3    3  502    0 -0.93486434513E+03 -0.35211341839E+03  0.48808103215E+03  0.11118355531E+04  0.50400001928E-02 0.  1.
       -1    1    3    3    0  502  0.93486434513E+03  0.35211341839E+03  0.74060203738E+03  0.12435620535E+04  0.50400001928E-02 0. -1.
</event>
<event>
 5   0  0.3772949E-05  0.1994624E+04  0.7818609E-02  0.8609138E-01
       -1   -1    0    0    0  501  0.00000000000E+00  0.00000000000E+00  0.50664928461E+03  0.50664928464E+03  0.50400001928E-02 0. -1.
        1   -1    0    0  501    0  0.00000000000E+00  0.00000000000E+00 -0.19631550743E+04  0.19631550743E+04  0.50400001928E-02 0.  1.
    10030    2    1    2    0    0  0.00000000000E+00  0.00000000000E+00 -0.14565057897E+04  0.24698043590E+04  0.19946238884E+04 0.  0.
        2    1    3    3  502    0 -0.65552985875E+02  0.98770088180E+03 -0.87879285694E+03  0.13236793839E+04  0.25500000920E-02 0. -1.
       -2    1    3    3    0  502  0.65552985875E+02 -0.98770088180E+03 -0.57771293278E+03  0.11461249751E+04  0.25500000920E-02 0.  1.
</event>
<event>
 5   0  0.3970042E-05  0.2014906E+04  0.7818609E-02  0.8599683E-01
        1   -1    0    0  501    0  0.00000000000E+00  0.00000000000E+00  0.15985820123E+04  0.15985820124E+04  0.50400001928E-02 0. -1.
       -1   -1    0    0    0  501  0.00000000000E+00  0.00000000000E+00 -0.63491345920E+03  0.63491345922E+03  0.50400001928E-02 0.  1.
    10030    2    1    2    0    0  0.00000000000E+00  0.00000000000E+00  0.96366855314E+03  0.22334954716E+04  0.20149056904E+04 0.  0.
        3    1    3    3  502    0  0.58416909735E+03 -0.58374843182E+03 -0.15777816213E+03  0.84077923654E+03  0.10100000352E+00 0.  1.
       -3    1    3    3    0  502 -0.58416909735E+03  0.58374843182E+03  0.11214467153E+04  0.13927162350E+04  0.10100000352E+00 0. -1.
</event>
<event>
 5   0  0.3549426E-05  0.1984395E+04  0.7818609E-02  0.8613952E-01
        1   -1    0    0  501    0  0.00000000000E+00  0.00000000000E+00  0.15127258905E+04  0.15127258905E+04  0.50400001928E-02 0. -1.
       -1   -1    0    0    0  501  0.00000000000E+00  0.00000000000E+00 -0.65078243737E+03  0.65078243739E+03  0.50400001928E-02 0.  1.
    10030    2    1    2    0    0  0.00000000000E+00  0.00000000000E+00  0.86194345312E+03  0.21635083279E+04  0.19843945597E+04 0.  0.
        5    1    3    3  502    0  0.82567070998E+03 -0.46238152882E+02  0.10286926967E+04  0.13198866779E+04  0.46999998093E+01 0. -1.
       -5    1    3    3    0  502 -0.82567070998E+03  0.46238152882E+02 -0.16674924363E+03  0.84362165000E+03  0.46999998093E+01 0.  1.
</event>
<event>
 5   0  0.8022574E-05  0.1996967E+04  0.7818609E-02  0.8608040E-01
        2   -1    0    0  501    0  0.00000000000E+00  0.00000000000E+00  0.17310748255E+04  0.17310748255E+04  0.25500000920E-02 0.  1.
       -2   -1    0    0    0  501  0.00000000000E+00  0.00000000000E+00 -0.57592485869E+03  0.57592485869E+03  0.25500000920E-02 0. -1.
    10030    2    1    2    0    0  0.00000000000E+00  0.00000000000E+00  0.11551499669E+04  0.23069996842E+04  0.19969667241E+04 0.  0.
        1    1    3    3  502    0 -0.46307310447E+03  0.67239784411E+03  0.12416323129E+04  0.14860034863E+04  0.50400001928E-02 0.  1.
       -1    1    3    3    0  502  0.46307310447E+03 -0.67239784411E+03 -0.86482346027E+02  0.82099619795E+03  0.50400001928E-02 0. -1.
</event>
<event>
 5   0  0.2859625E-05  0.2004434E+04  0.7818609E-02  0.8604550E-01
       -3   -1    0    0    0  501  0.00000000000E+00  0.00000000000E+00  0.54604027120E+03  0.54604028054E+03  0.10100000352E+00 0.  1.
        3   -1    0    0  501    0  0.00000000000E+00  0.00000000000E+00 -0.18394967511E+04  0.18394967539E+04  0.10100000352E+00 0. -1.
    10030    2    1    2    0    0  0.00000000000E+00  0.00000000000E+00 -0.12934564799E+04  0.23855370344E+04  0.20044344033E+04 0.  0.
        5    1    3    3  502    0 -0.63672721397E+03  0.17954959004E+03  0.24924079881E+03  0.70696723127E+03  0.46999998093E+01 0.  1.
       -5    1    3    3    0  502  0.63672721397E+03 -0.17954959004E+03 -0.15426972787E+04  0.16785698031E+04  0.46999998093E+01 0. -1.
</event>
<event>
 5   0  0.3549426E-05  0.2003675E+04  0.7818609E-02  0.8604905E-01
       -1   -1    0    0    0  501  0.00000000000E+00  0.00000000000E+00  0.15160041182E+04  0.15160041182E+04  0.50400001928E-02 0. -1.
        1   -1    0    0  501    0  0.00000000000E+00  0.00000000000E+00 -0.66205501575E+03  0.66205501577E+03  0.50400001928E-02 0.  1.
    10030    2    1    2    0    0  0.00000000000E+00  0.00000000000E+00  0.85394910240E+03  0.21780591339E+04  0.20036747544E+04 0.  0.
        5    1    3    3  502    0  0.59276227743E+03 -0.78484495168E+03  0.21984619220E+03  0.10078209930E+04  0.46999998093E+01 0. -1.
       -5    1    3    3    0  502 -0.59276227743E+03  0.78484495168E+03  0.63410291020E+03  0.11702381409E+04  0.46999998093E+01 0.  1.
</event>
<event>
 5   0  0.7843846E-05  0.2000244E+04  0.7818609E-02  0.8606507E-01
        2   -1    0    0  501    0  0.00000000000E+00  0.00000000000E+00  0.14847712791E+04  0.14847712791E+04  0.25500000920E-02 0.  1.
       -2   -1    0    0    0  501  0.00000000000E+00  0.00000000000E+00 -0.67366884981E+03  0.67366884982E+03  0.25500000920E-02 0. -1.
    10030    2    1    2    0    0  0.00000000000E+00  0.00000000000E+00  0.81110242924E+03  0.21584401289E+04  0.20002441449E+04 0.  0.
        2    1    3    3  502    0  0.80264736782E+03 -0.58713457299E+03  0.29097278401E+03  0.10361635802E+04  0.25500000920E-02 0.  1.
       -2    1    3    3    0  502 -0.80264736782E+03  0.58713457299E+03  0.52012964523E+03  0.11222765487E+04  0.25500000920E-02 0. -1.
</event>
<event>
 5   0  0.3772949E-05  0.2000687E+04  0.7818609E-02  0.8606300E-01
       -1   -1    0    0    0  501  0.00000000000E+00  0.00000000000E+00  0.47491357385E+03  0.47491357388E+03  0.50400001928E-02 0.  1.
        1   -1    0    0  501    0  0.00000000000E+00  0.00000000000E+00 -0.21070925231E+04  0.21070925231E+04  0.50400001928E-02 0. -1.
    10030    2    1    2    0    0  0.00000000000E+00  0.00000000000E+00 -0.16321789492E+04  0.25820060970E+04  0.20006867227E+04 0.  0.
        2    1    3    3  502    0 -0.56789419997E+02 -0.77513496574E+01 -0.21049716855E+04  0.21057518654E+04  0.25500000920E-02 0. -1.
       -2    1    3    3    0  502  0.56789419997E+02  0.77513496574E+01  0.47279273628E+03  0.47625423161E+03  0.25500000920E-02 0.  1.
</event>
<event>
 5   0  0.8011197E-05  0.2016680E+04  0.7818609E-02  0.8598862E-01
       -2   -1    0    0    0  501  0.00000000000E+00  0.00000000000E+00  0.13456381967E+04  0.13456381967E+04  0.25500000920E-02 0.  1.
        2   -1    0    0  501    0  0.00000000000E+00  0.00000000000E+00 -0.75558942270E+03  0.75558942270E+03  0.25500000920E-02 0. -1.
    10030    2    1    2    0    0  0.00000000000E+00  0.00000000000E+00  0.59004877396E+03  0.21012276194E+04  0.20166804290E+04 0.  0.
        5    1    3    3  502    0  0.33169374744E+03  0.75116059804E+03  0.90476350442E+03  0.12218355352E+04  0.46999998093E+01 0.  1.
       -5    1    3    3    0  502 -0.33169374744E+03 -0.75116059804E+03 -0.31471473046E+03  0.87939208417E+03  0.46999998093E+01 0. -1.
</event>
<event>
 5   0  0.7857136E-05  0.2015485E+04  0.7818609E-02  0.8599415E-01
       -2   -1    0    0    0  501  0.00000000000E+00  0.00000000000E+00  0.61178009060E+03  0.61178009060E+03  0.25500000920E-02 0. -1.
        2   -1    0    0  501    0  0.00000000000E+00  0.00000000000E+00 -0.16599834187E+04  0.16599834187E+04  0.25500000920E-02 0.  1.
    10030    2    1    2    0    0  0.00000000000E+00  0.00000000000E+00 -0.10482033281E+04  0.22717635093E+04  0.20154848610E+04 0.  0.
        4    1    3    3  502    0 -0.81082241795E+03 -0.58308287573E+03 -0.37235564212E+03  0.10658653623E+04  0.12699999809E+01 0. -1.
       -4    1    3    3    0  502  0.81082241795E+03  0.58308287573E+03 -0.67584768596E+03  0.12058981470E+04  0.12699999809E+01 0.  1.
</event>
<event>
 5   0  0.7857136E-05  0.2001985E+04  0.7818609E-02  0.8605693E-01
       -2   -1    0    0    0  501  0.00000000000E+00  0.00000000000E+00  0.76444787806E+03  0.76444787806E+03  0.25500000920E-02 0.  1.
        2   -1    0    0  501    0  0.00000000000E+00  0.00000000000E+00 -0.13107311753E+04  0.13107311753E+04  0.25500000920E-02 0. -1.
    10030    2    1    2    0    0  0.00000000000E+00  0.00000000000E+00 -0.54628329721E+03  0.20751790533E+04  0.20019846809E+04 0.  0.
        4    1    3    3  502    0 -0.38412283581E+03  0.84541188407E+03  0.11430541443E+03  0.93559550415E+03  0.12699999809E+01 0.  1.
       -4    1    3    3    0  502  0.38412283581E+03 -0.84541188407E+03 -0.66058871163E+03  0.11395835492E+04  0.12699999809E+01 0. -1.
</event>
<event>
 5   0  0.3549426E-05  0.2015206E+04  0.7818609E-02  0.8599544E-01
        1   -1    0    0  501    0  0.00000000000E+00  0.00000000000E+00  0.76785769299E+03  0.76785769301E+03  0.50400001928E-02 0.  1.
       -1   -1    0    0    0  501  0.00000000000E+00  0.00000000000E+00 -0.13222026921E+04  0.13222026921E+04  0.50400001928E-02 0. -1.
    10030    2    1    2    0    0  0.00000000000E+00  0.00000000000E+00 -0.55434499914E+03  0.20900603851E+04  0.20152057055E+04 0.  0.
        5    1    3    3  502    0 -0.55023139851E+03 -0.79833706052E+02 -0.11486911356E+04  0.12761823645E+04  0.46999998093E+01 0. -1.
       -5    1    3    3    0  502  0.55023139851E+03  0.79833706052E+02  0.59434613646E+03  0.81387802062E+03  0.46999998093E+01 0.  1.
</event>
<event>
 5   0  0.3549426E-05  0.2004278E+04  0.7818609E-02  0.8604623E-01
        1   -1    0    0  501    0  0.00000000000E+00  0.00000000000E+00  0.11053644717E+04  0.11053644717E+04  0.50400001928E-02 0. -1.
       -1   -1    0    0    0  501  0.00000000000E+00  0.00000000000E+00 -0.90855288223E+03  0.90855288225E+03  0.50400001928E-02 0.  1.
    10030    2    1    2    0    0  0.00000000000E+00  0.00000000000E+00  0.19681158950E+03  0.20139173540E+04  0.20042775025E+04 0.  0.
        5    1    3    3  502    0 -0.45599396186E+03  0.78003115794E+03  0.53394283201E+03  0.10495218618E+04  0.46999998093E+01 0. -1.
       -5    1    3    3    0  502  0.45599396186E+03 -0.78003115794E+03 -0.33713124252E+03  0.96439549216E+03  0.46999998093E+01 0.  1.
</event>
<event>
 5   0  0.3549426E-05  0.2040464E+04  0.7818609E-02  0.8587933E-01
        1   -1    0    0  501    0  0.00000000000E+00  0.00000000000E+00  0.33752108300E+04  0.33752108300E+04  0.50400001928E-02 0. -1.
       -1   -1    0    0    0  501  0.00000000000E+00  0.00000000000E+00 -0.30838773547E+03  0.30838773551E+03  0.50400001928E-02 0.  1.
    10030    2    1    2    0    0  0.00000000000E+00  0.00000000000E+00  0.30668230945E+04  0.36835985655E+04  0.20404642851E+04 0.  0.
        5    1    3    3  502    0 -0.93051771022E+03 -0.78156847647E+02  0.79153405926E+03  0.12241404980E+04  0.46999998093E+01 0.  1.
       -5    1    3    3    0  502  0.93051771022E+03  0.78156847647E+02  0.22752890353E+04  0.24594580675E+04  0.46999998093E+01 0. -1.
</event>
<event>
 5   0  0.7857136E-05  0.2009656E+04  0.7818609E-02  0.8602120E-01
       -2   -1    0    0    0  501  0.00000000000E+00  0.00000000000E+00  0.42412664199E+03  0.42412664199E+03  0.25500000920E-02 0. -1.
        2   -1    0    0  501    0  0.00000000000E+00  0.00000000000E+00 -0.23806077725E+04  0.23806077725E+04  0.25500000920E-02 0.  1.
    10030    2    1    2    0    0  0.00000000000E+00  0.00000000000E+00 -0.19564811306E+04  0.28047344145E+04  0.20096558715E+04 0.  0.
        4    1    3    3  502    0  0.96280013731E+03  0.28262330321E+03 -0.90415997249E+03  0.13506912692E+04  0.12699999809E+01 0.  1.
       -4    1    3    3    0  502 -0.96280013731E+03 -0.28262330321E+03 -0.10523211581E+04  0.14540431453E+04  0.12699999809E+01 0. -1.
</event>
<event>
 5   0  0.8011197E-05  0.1992386E+04  0.7818609E-02  0.8610189E-01
       -2   -1    0    0    0  501  0.00000000000E+00  0.00000000000E+00  0.79553331263E+03  0.79553331264E+03  0.25500000920E-02 0.  1.
        2   -1    0    0  501    0  0.00000000000E+00  0.00000000000E+00 -0.12474651919E+04  0.12474651919E+04  0.25500000920E-02 0. -1.
    10030    2    1    2    0    0  0.00000000000E+00  0.00000000000E+00 -0.45193187922E+03  0.20429985045E+04  0.19923856218E+04 0.  0.
        5    1    3    3  502    0  0.38854176762E+02 -0.32173175711E+03  0.73996005384E+03  0.80782667811E+03  0.46999998093E+01 0.  1.
       -5    1    3    3    0  502 -0.38854176762E+02  0.32173175711E+03 -0.11918919331E+04  0.12351718264E+04  0.46999998093E+01 0. -1.
</event>
<event>
 5   0  0.3970042E-05  0.2000806E+04  0.7818609E-02  0.8606244E-01
        1   -1    0    0  501    0  0.00000000000E+00  0.00000000000E+00  0.22247168419E+04  0.22247168419E+04  0.50400001928E-02 0. -1.
       -1   -1    0    0    0  501  0.00000000000E+00  0.00000000000E+00 -0.44985788664E+03  0.44985788667E+03  0.50400001928E-02 0.  1.
    10030    2    1    2    0    0  0.00000000000E+00  0.00000000000E+00  0.17748589553E+04  0.26745747286E+04  0.20008062544E+04 0.  0.
        3    1    3    3  502    0 -0.34684675177E+03 -0.82780950277E+03  0.14780774562E+04  0.17292438286E+04  0.10100000352E+00 0. -1.
       -3    1    3    3    0  502  0.34684675177E+03  0.82780950277E+03  0.29678149912E+03  0.94533090001E+03  0.10100000352E+00 0.  1.
</event>
<event>
 5   0  0.7857136E-05  0.2225664E+04  0.7818609E-02  0.8507821E-01
        2   -1    0    0  501    0  0.00000000000E+00  0.00000000000E+00  0.16215537915E+04  0.16215537915E+04  0.25500000920E-02 0. -1.
       -2   -1    0    0    0  501  0.00000000000E+00  0.00000000000E+00 -0.76370894634E+03  0.76370894635E+03  0.25500000920E-02 0.  1.
    10030    2    1    2    0    0  0.00000000000E+00  0.00000000000E+00  0.85784484511E+03  0.23852627378E+04  0.22256640695E+04 0.  0.
        4    1    3    3  502    0 -0.87225415574E+03  0.68266413894E+03  0.54402951487E+03  0.12340289157E+04  0.12699999809E+01 0. -1.
       -4    1    3    3    0  502  0.87225415574E+03 -0.68266413894E+03  0.31381533025E+03  0.11512338221E+04  0.12699999809E+01 0.  1.
</event>
<event>
 5   0  0.8022574E-05  0.1999752E+04  0.7818609E-02  0.8606737E-01
        2   -1    0    0  501    0  0.00000000000E+00  0.00000000000E+00  0.13294223493E+04  0.13294223493E+04  0.25500000920E-02 0. -1.
       -2   -1    0    0    0  501  0.00000000000E+00  0.00000000000E+00 -0.75201983868E+03  0.75201983868E+03  0.25500000920E-02 0.  1.
    10030    2    1    2    0    0  0.00000000000E+00  0.00000000000E+00  0.57740251066E+03  0.20814421880E+04  0.19997519653E+04 0.  0.
        1    1    3    3  502    0 -0.85113974249E+03 -0.49202755671E+03  0.98986492926E+02  0.98809326666E+03  0.50400001928E-02 0.  1.
       -1    1    3    3    0  502  0.85113974249E+03  0.49202755671E+03  0.47841601773E+03  0.10933489214E+04  0.50400001928E-02 0. -1.
</event>
<event>
 5   0  0.3970042E-05  0.2006668E+04  0.7818609E-02  0.8603510E-01
       -1   -1    0    0    0  501  0.00000000000E+00  0.00000000000E+00  0.51952501046E+03  0.51952501048E+03  0.50400001928E-02 0. -1.
        1   -1    0    0  501    0  0.00000000000E+00  0.00000000000E+00 -0.19376906348E+04  0.19376906348E+04  0.50400001928E-02 0.  1.
    10030    2    1    2    0    0  0.00000000000E+00  0.00000000000E+00 -0.14181656243E+04  0.24572156453E+04  0.20066676330E+04 0.  0.
        3    1    3    3  502    0 -0.10355007415E+03 -0.16106691355E+03  0.49694335498E+03  0.53255786236E+03  0.10100000352E+00 0. -1.
       -3    1    3    3    0  502  0.10355007415E+03  0.16106691355E+03 -0.19151089793E+04  0.19246577829E+04  0.10100000352E+00 0.  1.
</event>
<event>
 5   0  0.7935008E-05  0.1927268E+04  0.7818609E-02  0.8641401E-01
       -2   -1    0    0    0  501  0.00000000000E+00  0.00000000000E+00  0.57019732210E+03  0.57019732211E+03  0.25500000920E-02 0. -1.
        2   -1    0    0  501    0  0.00000000000E+00  0.00000000000E+00 -0.16285427720E+04  0.16285427720E+04  0.25500000920E-02 0.  1.
    10030    2    1    2    0    0  0.00000000000E+00  0.00000000000E+00 -0.10583454499E+04  0.21987400941E+04  0.19272682507E+04 0.  0.
        3    1    3    3  502    0 -0.74266039808E+03  0.56558881625E+03 -0.25642514849E+03  0.96808524569E+03  0.10100000352E+00 0. -1.
       -3    1    3    3    0  502  0.74266039808E+03 -0.56558881625E+03 -0.80192030141E+03  0.12306548484E+04  0.10100000352E+00 0.  1.
</event>
<event>
 5   0  0.3970042E-05  0.2002760E+04  0.7818609E-02  0.8605331E-01
        1   -1    0    0  501    0  0.00000000000E+00  0.00000000000E+00  0.25457218990E+04  0.25457218990E+04  0.50400001928E-02 0.  1.
       -1   -1    0    0    0  501  0.00000000000E+00  0.00000000000E+00 -0.39390083867E+03  0.39390083871E+03  0.50400001928E-02 0. -1.
    10030    2    1    2    0    0  0.00000000000E+00  0.00000000000E+00  0.21518210603E+04  0.29396227377E+04  0.20027600866E+04 0.  0.
        3    1    3    3  502    0  0.28411012489E+03  0.63122007842E+02 -0.33045422361E+03  0.44034413252E+03  0.10100000352E+00 0. -1.
       -3    1    3    3    0  502 -0.28411012489E+03 -0.63122007842E+02  0.24822752839E+04  0.24992786052E+04  0.10100000352E+00 0.  1.
</event>
<event>
 5   0  0.3549426E-05  0.1976398E+04  0.7818609E-02  0.8617736E-01
        1   -1    0    0  501    0  0.00000000000E+00  0.00000000000E+00  0.10577780741E+04  0.10577780742E+04  0.50400001928E-02 0. -1.
       -1   -1    0    0    0  501  0.00000000000E+00  0.00000000000E+00 -0.92319633629E+03  0.92319633631E+03  0.50400001928E-02 0.  1.
    10030    2    1    2    0    0  0.00000000000E+00  0.00000000000E+00  0.13458173785E+03  0.19809744105E+04  0.19763975741E+04 0.  0.
        5    1    3    3  502    0  0.63520080686E+03  0.61961680655E+03  0.50316536370E+03  0.10200992722E+04  0.46999998093E+01 0. -1.
       -5    1    3    3    0  502 -0.63520080686E+03 -0.61961680655E+03 -0.36858362585E+03  0.96087513822E+03  0.46999998093E+01 0.  1.
</event>
<event>
 5   0  0.3818907E-05  0.2097344E+04  0.7818609E-02  0.8562414E-01
       -1   -1    0    0    0  501  0.00000000000E+00  0.00000000000E+00  0.60068663660E+03  0.60068663662E+03  0.50400001928E-02 0. -1.
        1   -1    0    0  501    0  0.00000000000E+00  0.00000000000E+00 -0.18307597934E+04  0.18307597934E+04  0.50400001928E-02 0.  1.
    10030    2    1    2    0    0  0.00000000000E+00  0.00000000000E+00 -0.12300731568E+04  0.24314464300E+04  0.20973439801E+04 0.  0.
        1    1    3    3  502    0  0.29301810296E+03 -0.36986283511E+02  0.55147597140E+03  0.62558240136E+03  0.50400001928E-02 0. -1.
       -1    1    3    3    0  502 -0.29301810296E+03  0.36986283511E+02 -0.17815491282E+04  0.18058640287E+04  0.50400001928E-02 0.  1.
</event>
<event>
 5   0  0.3818907E-05  0.1984526E+04  0.7818609E-02  0.8613889E-01
       -1   -1    0    0    0  501  0.00000000000E+00  0.00000000000E+00  0.63607132621E+03  0.63607132623E+03  0.50400001928E-02 0. -1.
        1   -1    0    0  501    0  0.00000000000E+00  0.00000000000E+00 -0.15479180665E+04  0.15479180665E+04  0.50400001928E-02 0.  1.
    10030    2    1    2    0    0  0.00000000000E+00  0.00000000000E+00 -0.91184674026E+03  0.21839893927E+04  0.19845264397E+04 0.  0.
        1    1    3    3  502    0 -0.25291279047E+03 -0.86209348300E+02  0.59573348765E+03  0.65291294952E+03  0.50400001928E-02 0. -1.
       -1    1    3    3    0  502  0.25291279047E+03  0.86209348300E+02 -0.15075802279E+04  0.15310764432E+04  0.50400001928E-02 0.  1.
</event>
<event>
 5   0  0.7935008E-05  0.1999072E+04  0.7818609E-02  0.8607054E-01
        2   -1    0    0  501    0  0.00000000000E+00  0.00000000000E+00  0.11465040310E+04  0.11465040310E+04  0.25500000920E-02 0.  1.
       -2   -1    0    0    0  501  0.00000000000E+00  0.00000000000E+00 -0.87140793860E+03  0.87140793861E+03  0.25500000920E-02 0. -1.
    10030    2    1    2    0    0  0.00000000000E+00  0.00000000000E+00  0.27509609237E+03  0.20179119696E+04  0.19990724992E+04 0.  0.
        3    1    3    3  502    0 -0.66176421692E+03 -0.71231663835E+03 -0.96468231297E+02  0.97705322369E+03  0.10100000352E+00 0. -1.
       -3    1    3    3    0  502  0.66176421692E+03  0.71231663835E+03  0.37156432367E+03  0.10408587459E+04  0.10100000352E+00 0.  1.
</event>
<event>
 5   0  0.3818907E-05  0.1994261E+04  0.7818609E-02  0.8609309E-01
       -1   -1    0    0    0  501  0.00000000000E+00  0.00000000000E+00  0.13830302168E+04  0.13830302168E+04  0.50400001928E-02 0. -1.
        1   -1    0    0  501    0  0.00000000000E+00  0.00000000000E+00 -0.71890639953E+03  0.71890639955E+03  0.50400001928E-02 0.  1.
    10030    2    1    2    0    0  0.00000000000E+00  0.00000000000E+00  0.66412381726E+03  0.21019366163E+04  0.19942610397E+04 0.  0.
        1    1    3    3  502    0 -0.47110748341E+03  0.73453725782E+03  0.84058694096E+03  0.12116408913E+04  0.50400001928E-02 0. -1.
       -1    1    3    3    0  502  0.47110748341E+03 -0.73453725782E+03 -0.17646312370E+03  0.89029572508E+03  0.50400001928E-02 0.  1.
</event>
<event>
 5   0  0.3772949E-05  0.1955433E+04  0.7818609E-02  0.8627745E-01
       -1   -1    0    0    0  501  0.00000000000E+00  0.00000000000E+00  0.86902614872E+03  0.86902614874E+03  0.50400001928E-02 0.  1.
        1   -1    0    0  501    0  0.00000000000E+00  0.00000000000E+00 -0.11000013735E+04  0.11000013735E+04  0.50400001928E-02 0. -1.
    10030    2    1    2    0    0  0.00000000000E+00  0.00000000000E+00 -0.23097522479E+03  0.19690275223E+04  0.19554334120E+04 0.  0.
        2    1    3    3  502    0 -0.80241286788E+03 -0.55077506251E+03 -0.20946583700E+03  0.99553780285E+03  0.25500000920E-02 0. -1.
       -2    1    3    3    0  502  0.80241286788E+03  0.55077506251E+03 -0.21509387787E+02  0.97348971941E+03  0.25500000920E-02 0.  1.
</event>
<event>
 5   0  0.3549426E-05  0.2009805E+04  0.7818609E-02  0.8602050E-01
        1   -1    0    0  501    0  0.00000000000E+00  0.00000000000E+00  0.21322510862E+04  0.21322510862E+04  0.50400001928E-02 0. -1.
       -1   -1    0    0    0  501  0.00000000000E+00  0.00000000000E+00 -0.47359780761E+03  0.47359780763E+03  0.50400001928E-02 0.  1.
    10030    2    1    2    0    0  0.00000000000E+00  0.00000000000E+00  0.16586532786E+04  0.26058488938E+04  0.20098054033E+04 0.  0.
        5    1    3    3  502    0  0.95443620603E+03  0.13644447859E+03  0.11966051369E+04  0.15367015035E+04  0.46999998093E+01 0. -1.
       -5    1    3    3    0  502 -0.95443620603E+03 -0.13644447859E+03  0.46204814173E+03  0.10691473904E+04  0.46999998093E+01 0.  1.
</event>
<event>
 5   0  0.7857136E-05  0.1992908E+04  0.7818609E-02  0.8609944E-01
        2   -1    0    0  501    0  0.00000000000E+00  0.00000000000E+00  0.10384625086E+04  0.10384625086E+04  0.25500000920E-02 0. -1.
       -2   -1    0    0    0  501  0.00000000000E+00  0.00000000000E+00 -0.95614478667E+03  0.95614478668E+03  0.25500000920E-02 0.  1.
    10030    2    1    2    0    0  0.00000000000E+00  0.00000000000E+00  0.82317721952E+02  0.19946072953E+04  0.19929079395E+04 0.  0.
        4    1    3    3  502    0  0.49603674448E+03  0.39673512061E+03  0.80958153231E+03  0.10290165587E+04  0.12699999809E+01 0. -1.
       -4    1    3    3    0  502 -0.49603674448E+03 -0.39673512061E+03 -0.72726381035E+03  0.96559073657E+03  0.12699999809E+01 0.  1.
</event>
<event>
 5   0  0.7935008E-05  0.1983207E+04  0.7818609E-02  0.8614512E-01
        2   -1    0    0  501    0  0.00000000000E+00  0.00000000000E+00  0.40412535598E+03  0.40412535599E+03  0.25500000920E-02 0. -1.
       -2   -1    0    0    0  501  0.00000000000E+00  0.00000000000E+00 -0.24331010263E+04  0.24331010263E+04  0.25500000920E-02 0.  1.
    10030    2    1    2    0    0  0.00000000000E+00  0.00000000000E+00 -0.20289756703E+04  0.28372263823E+04  0.19832073199E+04 0.  0.
        3    1    3    3  502    0  0.58382097635E+03  0.37165886241E+02 -0.21599260819E+04  0.22377463943E+04  0.10100000352E+00 0.  1.
       -3    1    3    3    0  502 -0.58382097635E+03 -0.37165886241E+02  0.13095041160E+03  0.59947998801E+03  0.10100000352E+00 0. -1.
</event>
<event>
 5   0  0.3787698E-05  0.1999355E+04  0.7818609E-02  0.8606922E-01
        1   -1    0    0  501    0  0.00000000000E+00  0.00000000000E+00  0.15576680279E+04  0.15576680279E+04  0.50400001928E-02 0. -1.
       -1   -1    0    0    0  501  0.00000000000E+00  0.00000000000E+00 -0.64157115535E+03  0.64157115537E+03  0.50400001928E-02 0.  1.
    10030    2    1    2    0    0  0.00000000000E+00  0.00000000000E+00  0.91609687256E+03  0.21992391833E+04  0.19993547723E+04 0.  0.
        4    1    3    3  502    0 -0.57970369028E+03  0.55985781740E+03  0.11086683297E+04  0.13706364297E+04  0.12699999809E+01 0. -1.
       -4    1    3    3    0  502  0.57970369028E+03 -0.55985781740E+03 -0.19257145716E+03  0.82860275358E+03  0.12699999809E+01 0.  1.
</event>
<event>
 5   0  0.3772949E-05  0.1995013E+04  0.7818609E-02  0.8608956E-01
        1   -1    0    0  501    0  0.00000000000E+00  0.00000000000E+00  0.12568070092E+04  0.12568070092E+04  0.50400001928E-02 0. -1.
       -1   -1    0    0    0  501  0.00000000000E+00  0.00000000000E+00 -0.79170428504E+03  0.79170428506E+03  0.50400001928E-02 0.  1.
    10030    2    1    2    0    0  0.00000000000E+00  0.00000000000E+00  0.46510272411E+03  0.20485112942E+04  0.19950132778E+04 0.  0.
        2    1    3    3  502    0  0.91114231270E+03  0.38172142362E+03  0.90538846549E+02  0.99201252109E+03  0.25500000920E-02 0.  1.
       -2    1    3    3    0  502 -0.91114231270E+03 -0.38172142362E+03  0.37456387756E+03  0.10564987731E+04  0.25500000920E-02 0. -1.
</event>
<event>
 5   0  0.3787698E-05  0.2000717E+04  0.7818609E-02  0.8606285E-01
        1   -1    0    0  501    0  0.00000000000E+00  0.00000000000E+00  0.16398028713E+04  0.16398028713E+04  0.50400001928E-02 0. -1.
       -1   -1    0    0    0  501  0.00000000000E+00  0.00000000000E+00 -0.61026693312E+03  0.61026693314E+03  0.50400001928E-02 0.  1.
    10030    2    1    2    0    0  0.00000000000E+00  0.00000000000E+00  0.10295359382E+04  0.22500698044E+04  0.20007173406E+04 0.  0.
        4    1    3    3  502    0 -0.30986542988E+03 -0.55529682777E+03  0.13832462039E+04  0.15224134868E+04  0.12699999809E+01 0. -1.
       -4    1    3    3    0  502  0.30986542988E+03  0.55529682777E+03 -0.35371026569E+03  0.72765631759E+03  0.12699999809E+01 0.  1.
</event>
<event>
 5   0  0.3818907E-05  0.2004328E+04  0.7818609E-02  0.8604600E-01
        1   -1    0    0  501    0  0.00000000000E+00  0.00000000000E+00  0.85935412337E+03  0.85935412339E+03  0.50400001928E-02 0.  1.
       -1   -1    0    0    0  501  0.00000000000E+00  0.00000000000E+00 -0.11687068712E+04  0.11687068712E+04  0.50400001928E-02 0. -1.
    10030    2    1    2    0    0  0.00000000000E+00  0.00000000000E+00 -0.30935274786E+03  0.20280609946E+04  0.20043283851E+04 0.  0.
        1    1    3    3  502    0  0.17708370108E+03 -0.74324946820E+03 -0.81085693428E+03  0.11141217963E+04  0.50400001928E-02 0. -1.
       -1    1    3    3    0  502 -0.17708370108E+03  0.74324946820E+03  0.50150418642E+03  0.91393919830E+03  0.50400001928E-02 0.  1.
</event>
<event>
 5   0  0.2859625E-05  0.2012620E+04  0.7818609E-02  0.8600743E-01
       -3   -1    0    0    0  501  0.00000000000E+00  0.00000000000E+00  0.18977927723E+04  0.18977927750E+04  0.10100000352E+00 0. -1.
        3   -1    0    0  501    0  0.00000000000E+00  0.00000000000E+00 -0.53359868417E+03  0.53359869373E+03  0.10100000352E+00 0.  1.
    10030    2    1    2    0    0  0.00000000000E+00  0.00000000000E+00  0.13641940881E+04  0.24313914687E+04  0.20126199254E+04 0.  0.
        4    1    3    3  502    0 -0.61255427852E+03 -0.79837093024E+03  0.67452928719E+03  0.12114496517E+04  0.12699999809E+01 0. -1.
       -4    1    3    3    0  502  0.61255427852E+03  0.79837093024E+03  0.68966480092E+03  0.12199418170E+04  0.12699999809E+01 0.  1.
</event>
<event>
 5   0  0.3787698E-05  0.1993531E+04  0.7818609E-02  0.8609651E-01
       -1   -1    0    0    0  501  0.00000000000E+00  0.00000000000E+00  0.77326200519E+03  0.77326200520E+03  0.50400001928E-02 0.  1.
        1   -1    0    0  501    0  0.00000000000E+00  0.00000000000E+00 -0.12848707667E+04  0.12848707668E+04  0.50400001928E-02 0. -1.
    10030    2    1    2    0    0  0.00000000000E+00  0.00000000000E+00 -0.51160876156E+03  0.20581327720E+04  0.19935312845E+04 0.  0.
        4    1    3    3  502    0 -0.17960477769E+03 -0.14504722159E+03 -0.12568883718E+04  0.12779149286E+04  0.12699999809E+01 0. -1.
       -4    1    3    3    0  502  0.17960477769E+03  0.14504722159E+03  0.74527961027E+03  0.78021784333E+03  0.12699999809E+01 0.  1.
</event>
<event>
 5   0  0.7857136E-05  0.2010869E+04  0.7818609E-02  0.8601556E-01
       -2   -1    0    0    0  501  0.00000000000E+00  0.00000000000E+00  0.69660942797E+03  0.69660942798E+03  0.25500000920E-02 0. -1.
        2   -1    0    0  501    0  0.00000000000E+00  0.00000000000E+00 -0.14511699926E+04  0.14511699926E+04  0.25500000920E-02 0.  1.
    10030    2    1    2    0    0  0.00000000000E+00  0.00000000000E+00 -0.75456056459E+03  0.21477794205E+04  0.20108691637E+04 0.  0.
        4    1    3    3  502    0 -0.21519272641E+02  0.85066487246E+03  0.19472220886E+03  0.87293307639E+03  0.12699999809E+01 0.  1.
       -4    1    3    3    0  502  0.21519272641E+02 -0.85066487246E+03 -0.94928277346E+03  0.12748463442E+04  0.12699999809E+01 0. -1.
</event>
<event>
 5   0  0.7857136E-05  0.1969795E+04  0.7818609E-02  0.8620874E-01
       -2   -1    0    0    0  501  0.00000000000E+00  0.00000000000E+00  0.56362771521E+03  0.56362771521E+03  0.25500000920E-02 0.  1.
        2   -1    0    0  501    0  0.00000000000E+00  0.00000000000E+00 -0.17210351507E+04  0.17210351507E+04  0.25500000920E-02 0. -1.
    10030    2    1    2    0    0  0.00000000000E+00  0.00000000000E+00 -0.11574074355E+04  0.22846628659E+04  0.19697950247E+04 0.  0.
        4    1    3    3  502    0  0.32116996474E+03  0.91515775221E+03 -0.37997453289E+03  0.10416554691E+04  0.12699999809E+01 0.  1.
       -4    1    3    3    0  502 -0.32116996474E+03 -0.91515775221E+03 -0.77743290260E+03  0.12430073969E+04  0.12699999809E+01 0. -1.
</event>
<event>
 5   0  0.3818907E-05  0.2001571E+04  0.7818609E-02  0.8605886E-01
       -1   -1    0    0    0  501  0.00000000000E+00  0.00000000000E+00  0.12402852509E+04  0.12402852509E+04  0.50400001928E-02 0.  1.
        1   -1    0    0  501    0  0.00000000000E+00  0.00000000000E+00 -0.80753365010E+03  0.80753365012E+03  0.50400001928E-02 0. -1.
    10030    2    1    2    0    0  0.00000000000E+00  0.00000000000E+00  0.43275160080E+03  0.20478189010E+04  0.20015714585E+04 0.  0.
        1    1    3    3  502    0  0.11794011504E+03  0.23485119809E+03  0.12043520984E+04  0.12326917429E+04  0.50400001928E-02 0.  1.
       -1    1    3    3    0  502 -0.11794011504E+03 -0.23485119809E+03 -0.77160049763E+03  0.81512715814E+03  0.50400001928E-02 0. -1.
</event>
<event>
 5   0  0.3787698E-05  0.2012229E+04  0.7818609E-02  0.8600924E-01
        1   -1    0    0  501    0  0.00000000000E+00  0.00000000000E+00  0.17238337703E+04  0.17238337703E+04  0.50400001928E-02 0.  1.
       -1   -1    0    0    0  501  0.00000000000E+00  0.00000000000E+00 -0.58721810560E+03  0.58721810563E+03  0.50400001928E-02 0. -1.
    10030    2    1    2    0    0  0.00000000000E+00  0.00000000000E+00  0.11366156647E+04  0.23110518760E+04  0.20122290138E+04 0.  0.
        4    1    3    3  502    0  0.79198082694E+03 -0.29496933971E+03  0.11952941835E+04  0.14638887730E+04  0.12699999809E+01 0.  1.
       -4    1    3    3    0  502 -0.79198082694E+03  0.29496933971E+03 -0.58678518773E+02  0.84716310300E+03  0.12699999809E+01 0. -1.
</event>
<event>
 5   0  0.7857136E-05  0.1983265E+04  0.7818609E-02  0.8614485E-01
        2   -1    0    0  501    0  0.00000000000E+00  0.00000000000E+00  0.16770135385E+04  0.16770135385E+04  0.25500000920E-02 0. -1.
       -2   -1    0    0    0  501  0.00000000000E+00  0.00000000000E+00 -0.58636092257E+03  0.58636092257E+03  0.25500000920E-02 0.  1.
    10030    2    1    2    0    0  0.00000000000E+00  0.00000000000E+00  0.10906526159E+04  0.22633744611E+04  0.19832651922E+04 0.  0.
        4    1    3    3  502    0 -0.24056281010E+03 -0.60371147106E+03  0.14001082600E+04  0.15435811474E+04  0.12699999809E+01 0. -1.
       -4    1    3    3    0  502  0.24056281010E+03  0.60371147106E+03 -0.30945564407E+03  0.71979331370E+03  0.12699999809E+01 0.  1.
</event>
<event>
 5   0  0.7857136E-05  0.2007301E+04  0.7818609E-02  0.8603215E-01
       -2   -1    0    0    0  501  0.00000000000E+00  0.00000000000E+00  0.82504240608E+03  0.82504240608E+03  0.25500000920E-02 0. -1.
        2   -1    0    0  501    0  0.00000000000E+00  0.00000000000E+00 -0.12209244266E+04  0.12209244266E+04  0.25500000920E-02 0.  1.
    10030    2    1    2    0    0  0.00000000000E+00  0.00000000000E+00 -0.39588202049E+03  0.20459668327E+04  0.20073011000E+04 0.  0.
        4    1    3    3  502    0  0.75855071242E+03  0.45702736651E+03  0.28342682922E+03  0.92984169484E+03  0.12699999809E+01 0. -1.
       -4    1    3    3    0  502 -0.75855071242E+03 -0.45702736651E+03 -0.67930884971E+03  0.11161251378E+04  0.12699999809E+01 0.  1.
</event>
<event>
 5   0  0.8011197E-05  0.1994148E+04  0.7818609E-02  0.8609362E-01
       -2   -1    0    0    0  501  0.00000000000E+00  0.00000000000E+00  0.59573307589E+03  0.59573307589E+03  0.25500000920E-02 0. -1.
        2   -1    0    0  501    0  0.00000000000E+00  0.00000000000E+00 -0.16687945780E+04  0.16687945780E+04  0.25500000920E-02 0.  1.
    10030    2    1    2    0    0  0.00000000000E+00  0.00000000000E+00 -0.10730615021E+04  0.22645276539E+04  0.19941475642E+04 0.  0.
        5    1    3    3  502    0  0.66679107974E+03  0.65815244690E+03 -0.92389578763E+03  0.13158193279E+04  0.46999998093E+01 0.  1.
       -5    1    3    3    0  502 -0.66679107974E+03 -0.65815244690E+03 -0.14916571449E+03  0.94870832596E+03  0.46999998093E+01 0. -1.
</event>
<event>
 5   0  0.8022574E-05  0.2011296E+04  0.7818609E-02  0.8601358E-01
       -2   -1    0    0    0  501  0.00000000000E+00  0.00000000000E+00  0.11850803013E+04  0.11850803013E+04  0.25500000920E-02 0. -1.
        2   -1    0    0  501    0  0.00000000000E+00  0.00000000000E+00 -0.85338333157E+03  0.85338333157E+03  0.25500000920E-02 0.  1.
    10030    2    1    2    0    0  0.00000000000E+00  0.00000000000E+00  0.33169696969E+03  0.20384636328E+04  0.20112958765E+04 0.  0.
        1    1    3    3  502    0  0.41570645246E+03  0.42236996600E+03 -0.65760352984E+03  0.88524044490E+03  0.50400001928E-02 0.  1.
       -1    1    3    3    0  502 -0.41570645246E+03 -0.42236996600E+03  0.98930049953E+03  0.11532231879E+04  0.50400001928E-02 0. -1.
</event>
<event>
 5   0  0.3549426E-05  0.1971019E+04  0.7818609E-02  0.8620291E-01
        1   -1    0    0  501    0  0.00000000000E+00  0.00000000000E+00  0.12846350068E+04  0.12846350068E+04  0.50400001928E-02 0. -1.
       -1   -1    0    0    0  501  0.00000000000E+00  0.00000000000E+00 -0.75603489243E+03  0.75603489245E+03  0.50400001928E-02 0.  1.
    10030    2    1    2    0    0  0.00000000000E+00  0.00000000000E+00  0.52860011439E+03  0.20406698993E+04  0.19710189134E+04 0.  0.
        5    1    3    3  502    0 -0.13341236373E+03 -0.15566105684E+03 -0.73370174827E+03  0.76181990577E+03  0.46999998093E+01 0.  1.
       -5    1    3    3    0  502  0.13341236373E+03  0.15566105684E+03  0.12623018627E+04  0.12788499935E+04  0.46999998093E+01 0. -1.
</event>
<event>
 5   0  0.8011197E-05  0.1985809E+04  0.7818609E-02  0.8613284E-01
       -2   -1    0    0    0  501  0.00000000000E+00  0.00000000000E+00  0.80631363660E+03  0.80631363661E+03  0.25500000920E-02 0. -1.
        2   -1    0    0  501    0  0.00000000000E+00  0.00000000000E+00 -0.12226743604E+04  0.12226743604E+04  0.25500000920E-02 0.  1.
    10030    2    1    2    0    0  0.00000000000E+00  0.00000000000E+00 -0.41636072381E+03  0.20289879970E+04  0.19858086614E+04 0.  0.
        5    1    3    3  502    0 -0.51028787583E+03  0.81865589058E+03 -0.44833526691E+03  0.10637752511E+04  0.46999998093E+01 0.  1.
       -5    1    3    3    0  502  0.51028787583E+03 -0.81865589058E+03  0.31974543096E+02  0.96521274588E+03  0.46999998093E+01 0. -1.
</event>
<event>
 5   0  0.3772949E-05  0.2027173E+04  0.7818609E-02  0.8594021E-01
        1   -1    0    0  501    0  0.00000000000E+00  0.00000000000E+00  0.16716017291E+04  0.16716017291E+04  0.50400001928E-02 0. -1.
       -1   -1    0    0    0  501  0.00000000000E+00  0.00000000000E+00 -0.61459464038E+03  0.61459464041E+03  0.50400001928E-02 0.  1.
    10030    2    1    2    0    0  0.00000000000E+00  0.00000000000E+00  0.10570070887E+04  0.22861963695E+04  0.20271728723E+04 0.  0.
        2    1    3    3  502    0  0.34930253697E+03 -0.81079891265E+03  0.10900750784E+04  0.14027369018E+04  0.25500000920E-02 0. -1.
       -2    1    3    3    0  502 -0.34930253697E+03  0.81079891265E+03 -0.33067989724E+02  0.88345946768E+03  0.25500000920E-02 0.  1.
</event>
<event>
 5   0  0.8011197E-05  0.2005211E+04  0.7818609E-02  0.8604188E-01
       -2   -1    0    0    0  501  0.00000000000E+00  0.00000000000E+00  0.81186930368E+03  0.81186930368E+03  0.25500000920E-02 0.  1.
        2   -1    0    0  501    0  0.00000000000E+00  0.00000000000E+00 -0.12381520871E+04  0.12381520871E+04  0.25500000920E-02 0. -1.
    10030    2    1    2    0    0  0.00000000000E+00  0.00000000000E+00 -0.42628278344E+03  0.20500213908E+04  0.20052108845E+04 0.  0.
        5    1    3    3  502    0  0.28148564102E+03 -0.44023853073E+03  0.66163852435E+03  0.84310838980E+03  0.46999998093E+01 0.  1.
       -5    1    3    3    0  502 -0.28148564102E+03  0.44023853073E+03 -0.10879213078E+04  0.12069130010E+04  0.46999998093E+01 0. -1.
</event>
<event>
 5   0  0.3970042E-05  0.1987763E+04  0.7818609E-02  0.8612363E-01
        1   -1    0    0  501    0  0.00000000000E+00  0.00000000000E+00  0.14751633024E+04  0.14751633024E+04  0.50400001928E-02 0.  1.
       -1   -1    0    0    0  501  0.00000000000E+00  0.00000000000E+00 -0.66962135432E+03  0.66962135434E+03  0.50400001928E-02 0. -1.
    10030    2    1    2    0    0  0.00000000000E+00  0.00000000000E+00  0.80554194807E+03  0.21447846567E+04  0.19877634149E+04 0.  0.
        3    1    3    3  502    0 -0.11818185580E+03 -0.76587883991E+03 -0.26869232271E+03  0.82020297667E+03  0.10100000352E+00 0. -1.
       -3    1    3    3    0  502  0.11818185580E+03  0.76587883991E+03  0.10742342708E+04  0.13245816801E+04  0.10100000352E+00 0.  1.
</event>
<event>
 5   0  0.3787698E-05  0.2000533E+04  0.7818609E-02  0.8606371E-01
       -1   -1    0    0    0  501  0.00000000000E+00  0.00000000000E+00  0.14641479048E+04  0.14641479048E+04  0.50400001928E-02 0. -1.
        1   -1    0    0  501    0  0.00000000000E+00  0.00000000000E+00 -0.68335521671E+03  0.68335521673E+03  0.50400001928E-02 0.  1.
    10030    2    1    2    0    0  0.00000000000E+00  0.00000000000E+00  0.78079268809E+03  0.21475031215E+04  0.20005330378E+04 0.  0.
        4    1    3    3  502    0 -0.53787458194E+03 -0.26990972301E+03  0.12480752104E+04  0.13855878421E+04  0.12699999809E+01 0. -1.
       -4    1    3    3    0  502  0.53787458194E+03  0.26990972301E+03 -0.46728252231E+03  0.76191527943E+03  0.12699999809E+01 0.  1.
</event>
<event>
 5   0  0.3970042E-05  0.2027700E+04  0.7818609E-02  0.8593778E-01
       -1   -1    0    0    0  501  0.00000000000E+00  0.00000000000E+00  0.70023282789E+03  0.70023282791E+03  0.50400001928E-02 0. -1.
        1   -1    0    0  501    0  0.00000000000E+00  0.00000000000E+00 -0.14679288354E+04  0.14679288354E+04  0.50400001928E-02 0.  1.
    10030    2    1    2    0    0  0.00000000000E+00  0.00000000000E+00 -0.76769600753E+03  0.21681616633E+04  0.20277001352E+04 0.  0.
        3    1    3    3  502    0  0.53557766915E+03 -0.15823060850E+03  0.52094233658E+03  0.76371545316E+03  0.10100000352E+00 0. -1.
       -3    1    3    3    0  502 -0.53557766915E+03  0.15823060850E+03 -0.12886383441E+04  0.14044462102E+04  0.10100000352E+00 0.  1.
</event>
<event>
 5   0  0.3970042E-05  0.1999415E+04  0.7818609E-02  0.8606894E-01
       -1   -1    0    0    0  501  0.00000000000E+00  0.00000000000E+00  0.17727031536E+04  0.17727031536E+04  0.50400001928E-02 0. -1.
        1   -1    0    0  501    0  0.00000000000E+00  0.00000000000E+00 -0.56378054813E+03  0.56378054815E+03  0.50400001928E-02 0.  1.
    10030    2    1    2    0    0  0.00000000000E+00  0.00000000000E+00  0.12089226054E+04  0.23364837017E+04  0.19994154702E+04 0.  0.
        3    1    3    3  502    0 -0.36989079566E+03  0.87088754449E+03  0.22733058419E+03  0.97311023043E+03  0.10100000352E+00 0.  1.
       -3    1    3    3    0  502  0.36989079566E+03 -0.87088754449E+03  0.98159202125E+03  0.13633734713E+04  0.10100000352E+00 0. -1.
</event>
<event>
 5   0  0.7843846E-05  0.2026323E+04  0.7818609E-02  0.8594412E-01
       -2   -1    0    0    0  501  0.00000000000E+00  0.00000000000E+00  0.54983895706E+03  0.54983895707E+03  0.25500000920E-02 0.  1.
        2   -1    0    0  501    0  0.00000000000E+00  0.00000000000E+00 -0.18669032309E+04  0.18669032309E+04  0.25500000920E-02 0. -1.
    10030    2    1    2    0    0  0.00000000000E+00  0.00000000000E+00 -0.13170642738E+04  0.24167421879E+04  0.20263229016E+04 0.  0.
        2    1    3    3  502    0 -0.83823146264E+03 -0.38784708449E+03 -0.16183143365E+03  0.93768158712E+03  0.25500000920E-02 0.  1.
       -2    1    3    3    0  502  0.83823146264E+03  0.38784708449E+03 -0.11552328401E+04  0.14790606008E+04  0.25500000920E-02 0. -1.
</event>
<event>
 5   0  0.3549426E-05  0.1780159E+04  0.7818609E-02  0.8716922E-01
        1   -1    0    0  501    0  0.00000000000E+00  0.00000000000E+00  0.10942707314E+04  0.10942707314E+04  0.50400001928E-02 0. -1.
       -1   -1    0    0    0  501  0.00000000000E+00  0.00000000000E+00 -0.72399074118E+03  0.72399074120E+03  0.50400001928E-02 0.  1.
    10030    2    1    2    0    0  0.00000000000E+00  0.00000000000E+00  0.37027999017E+03  0.18182614726E+04  0.17801594062E+04 0.  0.
        5    1    3    3  502    0 -0.56409099815E+03 -0.62668076529E+03  0.47636072623E+03  0.96843640332E+03  0.46999998093E+01 0.  1.
       -5    1    3    3    0  502  0.56409099815E+03  0.62668076529E+03 -0.10608073605E+03  0.84982506926E+03  0.46999998093E+01 0. -1.
</event>
<event>
 5   0  0.3772949E-05  0.2006653E+04  0.7818609E-02  0.8603517E-01
       -1   -1    0    0    0  501  0.00000000000E+00  0.00000000000E+00  0.65919865961E+03  0.65919865963E+03  0.50400001928E-02 0. -1.
        1   -1    0    0  501    0  0.00000000000E+00  0.00000000000E+00 -0.15271021762E+04  0.15271021762E+04  0.50400001928E-02 0.  1.
    10030    2    1    2    0    0  0.00000000000E+00  0.00000000000E+00 -0.86790351659E+03  0.21863008358E+04  0.20066526433E+04 0.  0.
        2    1    3    3  502    0  0.52891618374E+03  0.35551247161E+03 -0.12782624226E+04  0.14283193858E+04  0.25500000920E-02 0.  1.
       -2    1    3    3    0  502 -0.52891618374E+03 -0.35551247161E+03  0.41035890598E+03  0.75798145005E+03  0.25500000920E-02 0. -1.
</event>
<event>
 5   0  0.3970042E-05  0.1966384E+04  0.7818609E-02  0.8622500E-01
       -1   -1    0    0    0  501  0.00000000000E+00  0.00000000000E+00  0.98326906672E+03  0.98326906673E+03  0.50400001928E-02 0. -1.
        1   -1    0    0  501    0  0.00000000000E+00  0.00000000000E+00 -0.98311535245E+03  0.98311535246E+03  0.50400001928E-02 0.  1.
    10030    2    1    2    0    0  0.00000000000E+00  0.00000000000E+00  0.15371426927E+00  0.19663844192E+04  0.19663844132E+04 0.  0.
        3    1    3    3  502    0  0.11244888873E+03  0.73789867508E+02  0.97402614410E+03  0.98326834420E+03  0.10100000352E+00 0. -1.
       -3    1    3    3    0  502 -0.11244888873E+03 -0.73789867508E+02 -0.97387242983E+03  0.98311607499E+03  0.10100000352E+00 0.  1.
</event>
<event>
 5   0  0.8022574E-05  0.1968363E+04  0.7818609E-02  0.8621556E-01
       -2   -1    0    0    0  501  0.00000000000E+00  0.00000000000E+00  0.86270321232E+03  0.86270321232E+03  0.25500000920E-02 0.  1.
        2   -1    0    0  501    0  0.00000000000E+00  0.00000000000E+00 -0.11227656439E+04  0.11227656439E+04  0.25500000920E-02 0. -1.
    10030    2    1    2    0    0  0.00000000000E+00  0.00000000000E+00 -0.26006243162E+03  0.19854688563E+04  0.19683633076E+04 0.  0.
        1    1    3    3  502    0  0.97592664479E+03  0.12690656521E+03 -0.13879204814E+03  0.99388194719E+03  0.50400001928E-02 0. -1.
       -1    1    3    3    0  502 -0.97592664479E+03 -0.12690656521E+03 -0.12127038348E+03  0.99158690907E+03  0.50400001928E-02 0.  1.
</event>
<event>
 5   0  0.7843846E-05  0.2011171E+04  0.7818609E-02  0.8601416E-01
       -2   -1    0    0    0  501  0.00000000000E+00  0.00000000000E+00  0.94935090213E+03  0.94935090213E+03  0.25500000920E-02 0.  1.
        2   -1    0    0  501    0  0.00000000000E+00  0.00000000000E+00 -0.10651506262E+04  0.10651506262E+04  0.25500000920E-02 0. -1.
    10030    2    1    2    0    0  0.00000000000E+00  0.00000000000E+00 -0.11579972409E+03  0.20145015284E+04  0.20111705128E+04 0.  0.
        2    1    3    3  502    0 -0.36395803477E+03  0.38795810017E+02 -0.99605730569E+03  0.10611789303E+04  0.25500000920E-02 0. -1.
       -2    1    3    3    0  502  0.36395803477E+03 -0.38795810017E+02  0.88025758160E+03  0.95332259803E+03  0.25500000920E-02 0.  1.
</event>
<event>
 5   0  0.3970042E-05  0.1967224E+04  0.7818609E-02  0.8622099E-01
        1   -1    0    0  501    0  0.00000000000E+00  0.00000000000E+00  0.75333322243E+03  0.75333322244E+03  0.50400001928E-02 0. -1.
       -1   -1    0    0    0  501  0.00000000000E+00  0.00000000000E+00 -0.12842829266E+04  0.12842829266E+04  0.50400001928E-02 0.  1.
    10030    2    1    2    0    0  0.00000000000E+00  0.00000000000E+00 -0.53094970415E+03  0.20376161490E+04  0.19672244362E+04 0.  0.
        3    1    3    3  502    0  0.16913826368E+03 -0.68604262238E+03  0.44328389367E+03  0.83412400311E+03  0.10100000352E+00 0. -1.
       -3    1    3    3    0  502 -0.16913826368E+03  0.68604262238E+03 -0.97423359783E+03  0.12034921459E+04  0.10100000352E+00 0.  1.
</event>
<event>
 5   0  0.8022574E-05  0.1996397E+04  0.7818609E-02  0.8608307E-01
       -2   -1    0    0    0  501  0.00000000000E+00  0.00000000000E+00  0.70284868002E+03  0.70284868003E+03  0.25500000920E-02 0.  1.
        2   -1    0    0  501    0  0.00000000000E+00  0.00000000000E+00 -0.14176596763E+04  0.14176596763E+04  0.25500000920E-02 0. -1.
    10030    2    1    2    0    0  0.00000000000E+00  0.00000000000E+00 -0.71481099629E+03  0.21205083563E+04  0.19963969868E+04 0.  0.
        1    1    3    3  502    0  0.10336479150E+03 -0.14090227026E+03  0.68647488289E+03  0.70836819152E+03  0.50400001928E-02 0.  1.
       -1    1    3    3    0  502 -0.10336479150E+03  0.14090227026E+03 -0.14012858792E+04  0.14121401648E+04  0.50400001928E-02 0. -1.
</event>
<event>
 5   0  0.3818907E-05  0.1961437E+04  0.7818609E-02  0.8624866E-01
       -1   -1    0    0    0  501  0.00000000000E+00  0.00000000000E+00  0.98235436271E+03  0.98235436273E+03  0.50400001928E-02 0.  1.
        1   -1    0    0  501    0  0.00000000000E+00  0.00000000000E+00 -0.97908508764E+03  0.97908508766E+03  0.50400001928E-02 0. -1.
    10030    2    1    2    0    0  0.00000000000E+00  0.00000000000E+00  0.32692750719E+01  0.19614394504E+04  0.19614367258E+04 0.  0.
        1    1    3    3  502    0  0.67376142505E+03 -0.50972391146E+03  0.49966703869E+03  0.98154983234E+03  0.50400001928E-02 0. -1.
       -1    1    3    3    0  502 -0.67376142505E+03  0.50972391146E+03 -0.49639776362E+03  0.97988961804E+03  0.50400001928E-02 0.  1.
</event>
<event>
 5   0  0.3970042E-05  0.2003656E+04  0.7818609E-02  0.8604913E-01
       -1   -1    0    0    0  501  0.00000000000E+00  0.00000000000E+00  0.84736172120E+03  0.84736172122E+03  0.50400001928E-02 0.  1.
        1   -1    0    0  501    0  0.00000000000E+00  0.00000000000E+00 -0.11844522763E+04  0.11844522764E+04  0.50400001928E-02 0. -1.
    10030    2    1    2    0    0  0.00000000000E+00  0.00000000000E+00 -0.33709055514E+03  0.20318139976E+04  0.20036561777E+04 0.  0.
        3    1    3    3  502    0  0.30557483051E+03  0.36527594130E+03  0.72523608671E+03  0.86762312210E+03  0.10100000352E+00 0.  1.
       -3    1    3    3    0  502 -0.30557483051E+03 -0.36527594130E+03 -0.10623266419E+04  0.11641908755E+04  0.10100000352E+00 0. -1.
</event>
<event>
 5   0  0.7857136E-05  0.2000038E+04  0.7818609E-02  0.8606603E-01
        2   -1    0    0  501    0  0.00000000000E+00  0.00000000000E+00  0.11565895072E+04  0.11565895072E+04  0.25500000920E-02 0.  1.
       -2   -1    0    0    0  501  0.00000000000E+00  0.00000000000E+00 -0.86464347247E+03  0.86464347248E+03  0.25500000920E-02 0. -1.
    10030    2    1    2    0    0  0.00000000000E+00  0.00000000000E+00  0.29194603470E+03  0.20212329797E+04  0.20000375674E+04 0.  0.
        4    1    3    3  502    0  0.40858304789E+03  0.87044241151E+03 -0.13157513880E+03  0.97052755182E+03  0.12699999809E+01 0. -1.
       -4    1    3    3    0  502 -0.40858304789E+03 -0.87044241151E+03  0.42352117350E+03  0.10507054278E+04  0.12699999809E+01 0.  1.
</event>
<event>
 5   0  0.8011197E-05  0.1961747E+04  0.7818609E-02  0.8624717E-01
       -2   -1    0    0    0  501  0.00000000000E+00  0.00000000000E+00  0.82459305103E+03  0.82459305104E+03  0.25500000920E-02 0. -1.
        2   -1    0    0  501    0  0.00000000000E+00  0.00000000000E+00 -0.11667730869E+04  0.11667730869E+04  0.25500000920E-02 0.  1.
    10030    2    1    2    0    0  0.00000000000E+00  0.00000000000E+00 -0.34218003590E+03  0.19913661380E+04  0.19617471597E+04 0.  0.
        5    1    3    3  502    0  0.61116073942E+02 -0.49969371024E+03  0.68344060553E+03  0.84884753038E+03  0.46999998093E+01 0. -1.
       -5    1    3    3    0  502 -0.61116073942E+02  0.49969371024E+03 -0.10256206414E+04  0.11425186076E+04  0.46999998093E+01 0.  1.
</event>
<event>
 5   0  0.2859625E-05  0.2003863E+04  0.7818609E-02  0.8604817E-01
        3   -1    0    0  501    0  0.00000000000E+00  0.00000000000E+00  0.12099947829E+04  0.12099947871E+04  0.10100000352E+00 0. -1.
       -3   -1    0    0    0  501  0.00000000000E+00  0.00000000000E+00 -0.82964548931E+03  0.82964549546E+03  0.10100000352E+00 0.  1.
    10030    2    1    2    0    0  0.00000000000E+00  0.00000000000E+00  0.38034929357E+03  0.20396402826E+04  0.20038629936E+04 0.  0.
        3    1    3    3  502    0  0.34092690369E+03  0.97558888059E+01 -0.76873925958E+03  0.84100320478E+03  0.10100000352E+00 0.  1.
       -3    1    3    3    0  502 -0.34092690369E+03 -0.97558888059E+01  0.11490885532E+04  0.11986370778E+04  0.10100000352E+00 0. -1.
</event>
<event>
 5   0  0.8022574E-05  0.1998482E+04  0.7818609E-02  0.8607330E-01
        2   -1    0    0  501    0  0.00000000000E+00  0.00000000000E+00  0.16698763995E+04  0.16698763995E+04  0.25500000920E-02 0.  1.
       -2   -1    0    0    0  501  0.00000000000E+00  0.00000000000E+00 -0.59793827809E+03  0.59793827809E+03  0.25500000920E-02 0. -1.
    10030    2    1    2    0    0  0.00000000000E+00  0.00000000000E+00  0.10719381215E+04  0.22678146776E+04  0.19984824432E+04 0.  0.
        1    1    3    3  502    0  0.70842618710E+03 -0.13279909513E+03  0.13213236827E+04  0.15051244257E+04  0.50400001928E-02 0.  1.
       -1    1    3    3    0  502 -0.70842618710E+03  0.13279909513E+03 -0.24938556127E+03  0.76269025195E+03  0.50400001928E-02 0. -1.
</event>
<event>
 5   0  0.8011197E-05  0.1999203E+04  0.7818609E-02  0.8606993E-01
       -2   -1    0    0    0  501  0.00000000000E+00  0.00000000000E+00  0.73722385242E+03  0.73722385243E+03  0.25500000920E-02 0. -1.
        2   -1    0    0  501    0  0.00000000000E+00  0.00000000000E+00 -0.13553589085E+04  0.13553589085E+04  0.25500000920E-02 0.  1.
    10030    2    1    2    0    0  0.00000000000E+00  0.00000000000E+00 -0.61813505608E+03  0.20925827609E+04  0.19992027571E+04 0.  0.
        5    1    3    3  502    0  0.12084692045E+03 -0.89410294517E+03  0.14132958758E+03  0.91324706245E+03  0.46999998093E+01 0. -1.
       -5    1    3    3    0  502 -0.12084692045E+03  0.89410294517E+03 -0.75946464366E+03  0.11793356985E+04  0.46999998093E+01 0.  1.
</event>
<event>
 5   0  0.7857136E-05  0.1998588E+04  0.7818609E-02  0.8607281E-01
       -2   -1    0    0    0  501  0.00000000000E+00  0.00000000000E+00  0.78654688013E+03  0.78654688013E+03  0.25500000920E-02 0. -1.
        2   -1    0    0  501    0  0.00000000000E+00  0.00000000000E+00 -0.12695849028E+04  0.12695849028E+04  0.25500000920E-02 0.  1.
    10030    2    1    2    0    0  0.00000000000E+00  0.00000000000E+00 -0.48303802269E+03  0.20561317830E+04  0.19985875456E+04 0.  0.
        4    1    3    3  502    0 -0.31015123026E+03 -0.29268405803E+03  0.68823203311E+03  0.80964355599E+03  0.12699999809E+01 0. -1.
       -4    1    3    3    0  502  0.31015123026E+03  0.29268405803E+03 -0.11712700558E+04  0.12464882270E+04  0.12699999809E+01 0.  1.
</event>
<event>
 5   0  0.3970042E-05  0.2005988E+04  0.7818609E-02  0.8603826E-01
        1   -1    0    0  501    0  0.00000000000E+00  0.00000000000E+00  0.26294343134E+04  0.26294343134E+04  0.50400001928E-02 0.  1.
       -1   -1    0    0    0  501  0.00000000000E+00  0.00000000000E+00 -0.38259083214E+03  0.38259083217E+03  0.50400001928E-02 0. -1.
    10030    2    1    2    0    0  0.00000000000E+00  0.00000000000E+00  0.22468434812E+04  0.30120251455E+04  0.20059884965E+04 0.  0.
        3    1    3    3  502    0  0.37345989991E+03 -0.92241328904E+03  0.13114346467E+04  0.16462622559E+04  0.10100000352E+00 0. -1.
       -3    1    3    3    0  502 -0.37345989991E+03  0.92241328904E+03  0.93540883455E+03  0.13657628896E+04  0.10100000352E+00 0.  1.
</event>
<event>
 5   0  0.3970042E-05  0.1998492E+04  0.7818609E-02  0.8607326E-01
       -1   -1    0    0    0  501  0.00000000000E+00  0.00000000000E+00  0.14520487726E+04  0.14520487726E+04  0.50400001928E-02 0. -1.
        1   -1    0    0  501    0  0.00000000000E+00  0.00000000000E+00 -0.68764421781E+03  0.68764421783E+03  0.50400001928E-02 0.  1.
    10030    2    1    2    0    0  0.00000000000E+00  0.00000000000E+00  0.76440455478E+03  0.21396929904E+04  0.19984923742E+04 0.  0.
        3    1    3    3  502    0  0.16923014784E+03 -0.48412915993E+03 -0.53598727959E+03  0.74182360471E+03  0.10100000352E+00 0.  1.
       -3    1    3    3    0  502 -0.16923014784E+03  0.48412915993E+03  0.13003918344E+04  0.13978693857E+04  0.10100000352E+00 0. -1.
</event>
<event>
 5   0  0.7935008E-05  0.2001577E+04  0.7818609E-02  0.8605884E-01
       -2   -1    0    0    0  501  0.00000000000E+00  0.00000000000E+00  0.66781619747E+03  0.66781619748E+03  0.25500000920E-02 0. -1.
        2   -1    0    0  501    0  0.00000000000E+00  0.00000000000E+00 -0.14997806718E+04  0.14997806718E+04  0.25500000920E-02 0.  1.
    10030    2    1    2    0    0  0.00000000000E+00  0.00000000000E+00 -0.83196447431E+03  0.21675968693E+04  0.20015772034E+04 0.  0.
        3    1    3    3  502    0 -0.77213550231E+02  0.16254044039E+03  0.65015247786E+03  0.67459586551E+03  0.10100000352E+00 0. -1.
       -3    1    3    3    0  502  0.77213550231E+02 -0.16254044039E+03 -0.14821169522E+04  0.14930010038E+04  0.10100000352E+00 0.  1.
</event>
<event>
 5   0  0.7857136E-05  0.1993849E+04  0.7818609E-02  0.8609502E-01
       -2   -1    0    0    0  501  0.00000000000E+00  0.00000000000E+00  0.86993764705E+03  0.86993764706E+03  0.25500000920E-02 0. -1.
        2   -1    0    0  501    0  0.00000000000E+00  0.00000000000E+00 -0.11424483075E+04  0.11424483075E+04  0.25500000920E-02 0.  1.
    10030    2    1    2    0    0  0.00000000000E+00  0.00000000000E+00 -0.27251066042E+03  0.20123859545E+04  0.19938493348E+04 0.  0.
        4    1    3    3  502    0  0.26082783480E+03 -0.74875563223E+03  0.47367325350E+03  0.92359846264E+03  0.12699999809E+01 0. -1.
       -4    1    3    3    0  502 -0.26082783480E+03  0.74875563223E+03 -0.74618391393E+03  0.10887874919E+04  0.12699999809E+01 0.  1.
</event>
<event>
 5   0  0.3772949E-05  0.2001326E+04  0.7818609E-02  0.8606001E-01
       -1   -1    0    0    0  501  0.00000000000E+00  0.00000000000E+00  0.53271640963E+03  0.53271640965E+03  0.50400001928E-02 0.  1.
        1   -1    0    0  501    0  0.00000000000E+00  0.00000000000E+00 -0.18796620257E+04  0.18796620257E+04  0.50400001928E-02 0. -1.
    10030    2    1    2    0    0  0.00000000000E+00  0.00000000000E+00 -0.13469456161E+04  0.24123784354E+04  0.20013263659E+04 0.  0.
        2    1    3    3  502    0  0.35728543459E+03  0.88734423053E+03 -0.31937912890E+03  0.10084818755E+04  0.25500000920E-02 0.  1.
       -2    1    3    3    0  502 -0.35728543459E+03 -0.88734423053E+03 -0.10275664872E+04  0.14038965599E+04  0.25500000920E-02 0. -1.
</event>
<event>
 5   0  0.3818907E-05  0.1999318E+04  0.7818609E-02  0.8606940E-01
       -1   -1    0    0    0  501  0.00000000000E+00  0.00000000000E+00  0.89577205274E+03  0.89577205275E+03  0.50400001928E-02 0. -1.
        1   -1    0    0  501    0  0.00000000000E+00  0.00000000000E+00 -0.11155943554E+04  0.11155943554E+04  0.50400001928E-02 0.  1.
    10030    2    1    2    0    0  0.00000000000E+00  0.00000000000E+00 -0.21982230265E+03  0.20113664081E+04  0.19993181295E+04 0.  0.
        1    1    3    3  502    0 -0.48966100646E+03 -0.41900695582E+03 -0.87870443861E+03  0.10897046484E+04  0.50400001928E-02 0.  1.
       -1    1    3    3    0  502  0.48966100646E+03  0.41900695582E+03  0.65888213596E+03  0.92166175975E+03  0.50400001928E-02 0. -1.
</event>
<event>
 5   0  0.3772949E-05  0.1825859E+04  0.7818609E-02  0.8692668E-01
       -1   -1    0    0    0  501  0.00000000000E+00  0.00000000000E+00  0.56144518063E+03  0.56144518065E+03  0.50400001928E-02 0. -1.
        1   -1    0    0  501    0  0.00000000000E+00  0.00000000000E+00 -0.14844549295E+04  0.14844549295E+04  0.50400001928E-02 0.  1.
    10030    2    1    2    0    0  0.00000000000E+00  0.00000000000E+00 -0.92300974882E+03  0.20459001101E+04  0.18258587744E+04 0.  0.
        2    1    3    3  502    0  0.89754493097E+03 -0.69237303739E+02 -0.29135138679E+03  0.94618514992E+03  0.25500000920E-02 0. -1.
       -2    1    3    3    0  502 -0.89754493097E+03  0.69237303739E+02 -0.63165836203E+03  0.10997149602E+04  0.25500000920E-02 0.  1.
</event>
<event>
 5   0  0.7857136E-05  0.1991249E+04  0.7818609E-02  0.8610723E-01
       -2   -1    0    0    0  501  0.00000000000E+00  0.00000000000E+00  0.12061262098E+04  0.12061262098E+04  0.25500000920E-02 0.  1.
        2   -1    0    0  501    0  0.00000000000E+00  0.00000000000E+00 -0.82186100672E+03  0.82186100673E+03  0.25500000920E-02 0. -1.
    10030    2    1    2    0    0  0.00000000000E+00  0.00000000000E+00  0.38426520305E+03  0.20279872165E+04  0.19912489558E+04 0.  0.
        4    1    3    3  502    0  0.75812323131E+03 -0.90945255256E+02 -0.45859598290E+03  0.89069285488E+03  0.12699999809E+01 0. -1.
       -4    1    3    3    0  502 -0.75812323131E+03  0.90945255256E+02  0.84286118595E+03  0.11372943616E+04  0.12699999809E+01 0.  1.
</event>
<event>
 5   0  0.7857136E-05  0.1967608E+04  0.7818609E-02  0.8621917E-01
        2   -1    0    0  501    0  0.00000000000E+00  0.00000000000E+00  0.97847107814E+03  0.97847107814E+03  0.25500000920E-02 0.  1.
       -2   -1    0    0    0  501  0.00000000000E+00  0.00000000000E+00 -0.98916589155E+03  0.98916589156E+03  0.25500000920E-02 0. -1.
    10030    2    1    2    0    0  0.00000000000E+00  0.00000000000E+00 -0.10694813413E+02  0.19676369697E+04  0.19676079044E+04 0.  0.
        4    1    3    3  502    0  0.32266375510E+03  0.17776714903E+03  0.90689166862E+03  0.97886013793E+03  0.12699999809E+01 0.  1.
       -4    1    3    3    0  502 -0.32266375510E+03 -0.17776714903E+03 -0.91758648203E+03  0.98877683176E+03  0.12699999809E+01 0. -1.
</event>
<event>
 5   0  0.8011197E-05  0.1997908E+04  0.7818609E-02  0.8607599E-01
        2   -1    0    0  501    0  0.00000000000E+00  0.00000000000E+00  0.10621544040E+04  0.10621544040E+04  0.25500000920E-02 0. -1.
       -2   -1    0    0    0  501  0.00000000000E+00  0.00000000000E+00 -0.93951444991E+03  0.93951444991E+03  0.25500000920E-02 0.  1.
    10030    2    1    2    0    0  0.00000000000E+00  0.00000000000E+00  0.12263995412E+03  0.20016688539E+04  0.19979083168E+04 0.  0.
        5    1    3    3  502    0  0.39946287079E+03 -0.38492955576E+03  0.89363389279E+03  0.10518293457E+04  0.46999998093E+01 0. -1.
       -5    1    3    3    0  502 -0.39946287079E+03  0.38492955576E+03 -0.77099393867E+03  0.94983950829E+03  0.46999998093E+01 0.  1.
</event>
<event>
 5   0  0.3970042E-05  0.1994511E+04  0.7818609E-02  0.8609191E-01
       -1   -1    0    0    0  501  0.00000000000E+00  0.00000000000E+00  0.60507068710E+03  0.60507068712E+03  0.50400001928E-02 0.  1.
        1   -1    0    0  501    0  0.00000000000E+00  0.00000000000E+00 -0.16436397440E+04  0.16436397440E+04  0.50400001928E-02 0. -1.
    10030    2    1    2    0    0  0.00000000000E+00  0.00000000000E+00 -0.10385690569E+04  0.22487104311E+04  0.19945106962E+04 0.  0.
        3    1    3    3  502    0  0.72683122834E+03 -0.38846408200E+03  0.11382664254E+03  0.83195221753E+03  0.10100000352E+00 0. -1.
       -3    1    3    3    0  502 -0.72683122834E+03  0.38846408200E+03 -0.11523956994E+04  0.14167582136E+04  0.10100000352E+00 0.  1.
</event>
<event>
 5   0  0.3772949E-05  0.1998552E+04  0.7818609E-02  0.8607298E-01
       -1   -1    0    0    0  501  0.00000000000E+00  0.00000000000E+00  0.10307303488E+04  0.10307303488E+04  0.50400001928E-02 0.  1.
        1   -1    0    0  501    0  0.00000000000E+00  0.00000000000E+00 -0.96878131270E+03  0.96878131271E+03  0.50400001928E-02 0. -1.
    10030    2    1    2    0    0  0.00000000000E+00  0.00000000000E+00  0.61949036123E+02  0.19995116615E+04  0.19985517761E+04 0.  0.
        2    1    3    3  502    0 -0.26820916231E+03  0.43877182012E+03 -0.82623068667E+03  0.97319782803E+03  0.25500000920E-02 0. -1.
       -2    1    3    3    0  502  0.26820916231E+03 -0.43877182012E+03  0.88817972279E+03  0.10263138335E+04  0.25500000920E-02 0.  1.
</event>
<event>
 5   0  0.8022574E-05  0.1999675E+04  0.7818609E-02  0.8606773E-01
       -2   -1    0    0    0  501  0.00000000000E+00  0.00000000000E+00  0.54945510709E+03  0.54945510710E+03  0.25500000920E-02 0.  1.
        2   -1    0    0  501    0  0.00000000000E+00  0.00000000000E+00 -0.18193930504E+04  0.18193930504E+04  0.25500000920E-02 0. -1.
    10030    2    1    2    0    0  0.00000000000E+00  0.00000000000E+00 -0.12699379433E+04  0.23688481575E+04  0.19996747769E+04 0.  0.
        1    1    3    3  502    0  0.75393996517E+03  0.26468388218E+03  0.76976579829E+02  0.80275053562E+03  0.50400001928E-02 0.  1.
       -1    1    3    3    0  502 -0.75393996517E+03 -0.26468388218E+03 -0.13469145231E+04  0.15660976218E+04  0.50400001928E-02 0. -1.
</event>
<event>
 5   0  0.3787698E-05  0.2083740E+04  0.7818609E-02  0.8568440E-01
       -1   -1    0    0    0  501  0.00000000000E+00  0.00000000000E+00  0.71200297816E+03  0.71200297818E+03  0.50400001928E-02 0. -1.
        1   -1    0    0  501    0  0.00000000000E+00  0.00000000000E+00 -0.15245623399E+04  0.15245623399E+04  0.50400001928E-02 0.  1.
    10030    2    1    2    0    0  0.00000000000E+00  0.00000000000E+00 -0.81255936176E+03  0.22365653181E+04  0.20837398364E+04 0.  0.
        4    1    3    3  502    0  0.37737758446E+03 -0.46853635276E+03 -0.13192837501E+04  0.14499832348E+04  0.12699999809E+01 0.  1.
       -4    1    3    3    0  502 -0.37737758446E+03  0.46853635276E+03  0.50672438834E+03  0.78658208329E+03  0.12699999809E+01 0. -1.
</event>
<event>
 5   0  0.7857136E-05  0.1995506E+04  0.7818609E-02  0.8608725E-01
       -2   -1    0    0    0  501  0.00000000000E+00  0.00000000000E+00  0.75611146545E+03  0.75611146545E+03  0.25500000920E-02 0. -1.
        2   -1    0    0  501    0  0.00000000000E+00  0.00000000000E+00 -0.13166189613E+04  0.13166189613E+04  0.25500000920E-02 0.  1.
    10030    2    1    2    0    0  0.00000000000E+00  0.00000000000E+00 -0.56050749582E+03  0.20727304267E+04  0.19955056424E+04 0.  0.
        4    1    3    3  502    0 -0.17674507683E+03  0.16357203511E+02 -0.13000865756E+04  0.13121482757E+04  0.12699999809E+01 0.  1.
       -4    1    3    3    0  502  0.17674507683E+03 -0.16357203511E+02  0.73957907982E+03  0.76058215105E+03  0.12699999809E+01 0. -1.
</event>
<event>
 5   0  0.2859625E-05  0.1998652E+04  0.7818609E-02  0.8607251E-01
       -3   -1    0    0    0  501  0.00000000000E+00  0.00000000000E+00  0.73584898004E+03  0.73584898697E+03  0.10100000352E+00 0. -1.
        3   -1    0    0  501    0  0.00000000000E+00  0.00000000000E+00 -0.13571433853E+04  0.13571433891E+04  0.10100000352E+00 0.  1.
    10030    2    1    2    0    0  0.00000000000E+00  0.00000000000E+00 -0.62129440527E+03  0.20929923760E+04  0.19986521328E+04 0.  0.
        1    1    3    3  502    0  0.76572927909E+03  0.49498642611E+03  0.11768232185E+03  0.91934869325E+03  0.50400001928E-02 0. -1.
       -1    1    3    3    0  502 -0.76572927909E+03 -0.49498642611E+03 -0.73897672712E+03  0.11736436828E+04  0.50400001928E-02 0.  1.
</event>
<event>
 5   0  0.7843846E-05  0.2058892E+04  0.7818609E-02  0.8579571E-01
        2   -1    0    0  501    0  0.00000000000E+00  0.00000000000E+00  0.24328846832E+04  0.24328846832E+04  0.25500000920E-02 0. -1.
       -2   -1    0    0    0  501  0.00000000000E+00  0.00000000000E+00 -0.43559794272E+03  0.43559794272E+03  0.25500000920E-02 0.  1.
    10030    2    1    2    0    0  0.00000000000E+00  0.00000000000E+00  0.19972867405E+04  0.28684826260E+04  0.20588924818E+04 0.  0.
        2    1    3    3  502    0  0.47047069169E+03  0.45202913707E+03 -0.11076854699E+03  0.66177238044E+03  0.25500000920E-02 0.  1.
       -2    1    3    3    0  502 -0.47047069169E+03 -0.45202913707E+03  0.21080552875E+04  0.22067102455E+04  0.25500000920E-02 0. -1.
</event>
<event>
 5   0  0.3787698E-05  0.2000223E+04  0.7818609E-02  0.8606517E-01
       -1   -1    0    0    0  501  0.00000000000E+00  0.00000000000E+00  0.11445261672E+04  0.11445261673E+04  0.50400001928E-02 0.  1.
        1   -1    0    0  501    0  0.00000000000E+00  0.00000000000E+00 -0.87391856479E+03  0.87391856481E+03  0.50400001928E-02 0. -1.
    10030    2    1    2    0    0  0.00000000000E+00  0.00000000000E+00  0.27060760245E+03  0.20184447321E+04  0.20002226531E+04 0.  0.
        4    1    3    3  502    0  0.17503094610E+03  0.51815673116E+03 -0.70964061378E+03  0.89594287974E+03  0.12699999809E+01 0. -1.
       -4    1    3    3    0  502 -0.17503094610E+03 -0.51815673116E+03  0.98024821623E+03  0.11225018523E+04  0.12699999809E+01 0.  1.
</event>
<event>
 5   0  0.7857136E-05  0.2008024E+04  0.7818609E-02  0.8602879E-01
       -2   -1    0    0    0  501  0.00000000000E+00  0.00000000000E+00  0.78558387648E+03  0.78558387648E+03  0.25500000920E-02 0.  1.
        2   -1    0    0  501    0  0.00000000000E+00  0.00000000000E+00 -0.12831725583E+04  0.12831725583E+04  0.25500000920E-02 0. -1.
    10030    2    1    2    0    0  0.00000000000E+00  0.00000000000E+00 -0.49758868180E+03  0.20687564348E+04  0.20080235781E+04 0.  0.
        4    1    3    3  502    0 -0.80391746408E+03 -0.26263495698E+03 -0.80624895468E+03  0.11684602687E+04  0.12699999809E+01 0. -1.
       -4    1    3    3    0  502  0.80391746408E+03  0.26263495698E+03  0.30866027289E+03  0.90029616607E+03  0.12699999809E+01 0.  1.
</event>
<event>
 5   0  0.3970042E-05  0.1991335E+04  0.7818609E-02  0.8610682E-01
        1   -1    0    0  501    0  0.00000000000E+00  0.00000000000E+00  0.95295951650E+03  0.95295951652E+03  0.50400001928E-02 0. -1.
       -1   -1    0    0    0  501  0.00000000000E+00  0.00000000000E+00 -0.10402897100E+04  0.10402897100E+04  0.50400001928E-02 0.  1.
    10030    2    1    2    0    0  0.00000000000E+00  0.00000000000E+00 -0.87330193522E+02  0.19932492266E+04  0.19913352095E+04 0.  0.
        3    1    3    3  502    0 -0.89247091187E+02 -0.13467693584E+03 -0.10270813292E+04  0.10397110115E+04  0.10100000352E+00 0.  1.
       -3    1    3    3    0  502  0.89247091187E+02  0.13467693584E+03  0.93975113571E+03  0.95353821507E+03  0.10100000352E+00 0. -1.
</event>
<event>
 5   0  0.8011197E-05  0.2123058E+04  0.7818609E-02  0.8551154E-01
       -2   -1    0    0    0  501  0.00000000000E+00  0.00000000000E+00  0.99908662508E+03  0.99908662509E+03  0.25500000920E-02 0.  1.
        2   -1    0    0  501    0  0.00000000000E+00  0.00000000000E+00 -0.11278739417E+04  0.11278739417E+04  0.25500000920E-02 0. -1.
    10030    2    1    2    0    0  0.00000000000E+00  0.00000000000E+00 -0.12878731664E+03  0.21269605668E+04  0.21230579549E+04 0.  0.
        5    1    3    3  502    0  0.27777802613E+03  0.10002994704E+04  0.15751297844E+03  0.10500438518E+04  0.46999998093E+01 0.  1.
       -5    1    3    3    0  502 -0.27777802613E+03 -0.10002994704E+04 -0.28630029508E+03  0.10769167151E+04  0.46999998093E+01 0. -1.
</event>
<event>
 5   0  0.8011197E-05  0.2009131E+04  0.7818609E-02  0.8602363E-01
        2   -1    0    0  501    0  0.00000000000E+00  0.00000000000E+00  0.16598720445E+04  0.16598720445E+04  0.25500000920E-02 0. -1.
       -2   -1    0    0    0  501  0.00000000000E+00  0.00000000000E+00 -0.60796985414E+03  0.60796985414E+03  0.25500000920E-02 0.  1.
    10030    2    1    2    0    0  0.00000000000E+00  0.00000000000E+00  0.10519021903E+04  0.22678418986E+04  0.20091313195E+04 0.  0.
        5    1    3    3  502    0  0.12671277565E+03 -0.23043100008E+03 -0.56841522351E+03  0.62631663688E+03  0.46999998093E+01 0.  1.
       -5    1    3    3    0  502 -0.12671277565E+03  0.23043100008E+03  0.16203174139E+04  0.16415252617E+04  0.46999998093E+01 0. -1.
</event>
<event>
 5   0  0.8022574E-05  0.2007082E+04  0.7818609E-02  0.8603317E-01
       -2   -1    0    0    0  501  0.00000000000E+00  0.00000000000E+00  0.97845366221E+03  0.97845366221E+03  0.25500000920E-02 0.  1.
        2   -1    0    0  501    0  0.00000000000E+00  0.00000000000E+00 -0.10292715443E+04  0.10292715443E+04  0.25500000920E-02 0. -1.
    10030    2    1    2    0    0  0.00000000000E+00  0.00000000000E+00 -0.50817882107E+02  0.20077252065E+04  0.20070819734E+04 0.  0.
        1    1    3    3  502    0  0.26546766944E+03  0.31315487607E+03  0.89061126701E+03  0.98067705636E+03  0.50400001928E-02 0.  1.
       -1    1    3    3    0  502 -0.26546766944E+03 -0.31315487607E+03 -0.94142914912E+03  0.10270481502E+04  0.50400001928E-02 0. -1.
</event>
<event>
 5   0  0.3772949E-05  0.2006611E+04  0.7818609E-02  0.8603536E-01
        1   -1    0    0  501    0  0.00000000000E+00  0.00000000000E+00  0.79704583526E+03  0.79704583528E+03  0.50400001928E-02 0.  1.
       -1   -1    0    0    0  501  0.00000000000E+00  0.00000000000E+00 -0.12629411361E+04  0.12629411361E+04  0.50400001928E-02 0. -1.
    10030    2    1    2    0    0  0.00000000000E+00  0.00000000000E+00 -0.46589530083E+03  0.20599869714E+04  0.20066110463E+04 0.  0.
        2    1    3    3  502    0 -0.47402076499E+03  0.14798094349E+03 -0.11279332559E+04  0.12324071872E+04  0.25500000920E-02 0. -1.
       -2    1    3    3    0  502  0.47402076499E+03 -0.14798094349E+03  0.66203795506E+03  0.82757978420E+03  0.25500000920E-02 0.  1.
</event>
<event>
 5   0  0.3970042E-05  0.1997756E+04  0.7818609E-02  0.8607670E-01
       -1   -1    0    0    0  501  0.00000000000E+00  0.00000000000E+00  0.13341498158E+04  0.13341498158E+04  0.50400001928E-02 0. -1.
        1   -1    0    0  501    0  0.00000000000E+00  0.00000000000E+00 -0.74786022164E+03  0.74786022166E+03  0.50400001928E-02 0.  1.
    10030    2    1    2    0    0  0.00000000000E+00  0.00000000000E+00  0.58628959415E+03  0.20820100375E+04  0.19977563184E+04 0.  0.
        3    1    3    3  502    0 -0.34378771588E+03 -0.50946307478E+03  0.11137634535E+04  0.12720894854E+04  0.10100000352E+00 0. -1.
       -3    1    3    3    0  502  0.34378771588E+03  0.50946307478E+03 -0.52747385939E+03  0.80992055209E+03  0.10100000352E+00 0.  1.
</event>
<event>
 5   0  0.3970042E-05  0.1873898E+04  0.7818609E-02  0.8667959E-01
        1   -1    0    0  501    0  0.00000000000E+00  0.00000000000E+00  0.13944731059E+04  0.13944731059E+04  0.50400001928E-02 0.  1.
       -1   -1    0    0    0  501  0.00000000000E+00  0.00000000000E+00 -0.62953746109E+03  0.62953746111E+03  0.50400001928E-02 0. -1.
    10030    2    1    2    0    0  0.00000000000E+00  0.00000000000E+00  0.76493564484E+03  0.20240105670E+04  0.18738976052E+04 0.  0.
        3    1    3    3  502    0 -0.29524036146E+03  0.79192011270E+03  0.81930242967E+03  0.11770984740E+04  0.10100000352E+00 0.  1.
       -3    1    3    3    0  502  0.29524036146E+03 -0.79192011270E+03 -0.54366784821E+02  0.84691209309E+03  0.10100000352E+00 0. -1.
</event>
<event>
 5   0  0.7857136E-05  0.2003346E+04  0.7818609E-02  0.8605058E-01
       -2   -1    0    0    0  501  0.00000000000E+00  0.00000000000E+00  0.65117732141E+03  0.65117732142E+03  0.25500000920E-02 0. -1.
        2   -1    0    0  501    0  0.00000000000E+00  0.00000000000E+00 -0.15408228338E+04  0.15408228338E+04  0.25500000920E-02 0.  1.
    10030    2    1    2    0    0  0.00000000000E+00  0.00000000000E+00 -0.88964551238E+03  0.21920001552E+04  0.20033460866E+04 0.  0.
        4    1    3    3  502    0  0.19239719093E+03  0.96678827580E+03 -0.63948354448E+03  0.11750051344E+04  0.12699999809E+01 0. -1.
       -4    1    3    3    0  502 -0.19239719093E+03 -0.96678827580E+03 -0.25016196791E+03  0.10169950208E+04  0.12699999809E+01 0.  1.
</event>
<event>
 5   0  0.3549426E-05  0.1960755E+04  0.7818609E-02  0.8625192E-01
       -1   -1    0    0    0  501  0.00000000000E+00  0.00000000000E+00  0.76646274193E+03  0.76646274194E+03  0.50400001928E-02 0.  1.
        1   -1    0    0  501    0  0.00000000000E+00  0.00000000000E+00 -0.12539941986E+04  0.12539941986E+04  0.50400001928E-02 0. -1.
    10030    2    1    2    0    0  0.00000000000E+00  0.00000000000E+00 -0.48753145667E+03  0.20204569406E+04  0.19607547851E+04 0.  0.
        5    1    3    3  502    0 -0.84353706746E+02  0.23454271038E+02  0.76241444084E+03  0.76743958737E+03  0.46999998093E+01 0.  1.
       -5    1    3    3    0  502  0.84353706746E+02 -0.23454271038E+02 -0.12499458975E+04  0.12530173532E+04  0.46999998093E+01 0. -1.
</event>
<event>
 5   0  0.3787698E-05  0.1998845E+04  0.7818609E-02  0.8607161E-01
       -1   -1    0    0    0  501  0.00000000000E+00  0.00000000000E+00  0.99420394274E+03  0.99420394275E+03  0.50400001928E-02 0.  1.
        1   -1    0    0  501    0  0.00000000000E+00  0.00000000000E+00 -0.10046679961E+04  0.10046679961E+04  0.50400001928E-02 0. -1.
    10030    2    1    2    0    0  0.00000000000E+00  0.00000000000E+00 -0.10464053354E+02  0.19988719389E+04  0.19988445491E+04 0.  0.
        4    1    3    3  502    0  0.86739366568E+03 -0.63448415723E+02  0.48716257289E+03  0.99685829386E+03  0.12699999809E+01 0.  1.
       -4    1    3    3    0  502 -0.86739366568E+03  0.63448415723E+02 -0.49762662624E+03  0.10020136450E+04  0.12699999809E+01 0. -1.
</event>
<event>
 5   0  0.3772949E-05  0.1925409E+04  0.7818609E-02  0.8642311E-01
       -1   -1    0    0    0  501  0.00000000000E+00  0.00000000000E+00  0.52819010431E+03  0.52819010434E+03  0.50400001928E-02 0.  1.
        1   -1    0    0  501    0  0.00000000000E+00  0.00000000000E+00 -0.17546707948E+04  0.17546707948E+04  0.50400001928E-02 0. -1.
    10030    2    1    2    0    0  0.00000000000E+00  0.00000000000E+00 -0.12264806905E+04  0.22828608991E+04  0.19254087879E+04 0.  0.
        2    1    3    3  502    0  0.52490283381E+03 -0.38078162513E+03 -0.14568718592E+04  0.15946765331E+04  0.25500000920E-02 0. -1.
       -2    1    3    3    0  502 -0.52490283381E+03  0.38078162513E+03  0.23039116877E+03  0.68818436602E+03  0.25500000920E-02 0.  1.
</event>
<event>
 5   0  0.7935008E-05  0.2017992E+04  0.7818609E-02  0.8598255E-01
       -2   -1    0    0    0  501  0.00000000000E+00  0.00000000000E+00  0.38069940545E+03  0.38069940546E+03  0.25500000920E-02 0. -1.
        2   -1    0    0  501    0  0.00000000000E+00  0.00000000000E+00 -0.26742184599E+04  0.26742184599E+04  0.25500000920E-02 0.  1.
    10030    2    1    2    0    0  0.00000000000E+00  0.00000000000E+00 -0.22935190544E+04  0.30549178654E+04  0.20179924457E+04 0.  0.
        3    1    3    3  502    0  0.64594416637E+03  0.68148922054E+03 -0.17058605436E+04  0.19472112438E+04  0.10100000352E+00 0. -1.
       -3    1    3    3    0  502 -0.64594416637E+03 -0.68148922054E+03 -0.58765851086E+03  0.11077066215E+04  0.10100000352E+00 0.  1.
</event>
<event>
 5   0  0.7857136E-05  0.1961197E+04  0.7818609E-02  0.8624980E-01
       -2   -1    0    0    0  501  0.00000000000E+00  0.00000000000E+00  0.55991857800E+03  0.55991857800E+03  0.25500000920E-02 0.  1.
        2   -1    0    0  501    0  0.00000000000E+00  0.00000000000E+00 -0.17173449898E+04  0.17173449898E+04  0.25500000920E-02 0. -1.
    10030    2    1    2    0    0  0.00000000000E+00  0.00000000000E+00 -0.11574264118E+04  0.22772635678E+04  0.19611969454E+04 0.  0.
        4    1    3    3  502    0 -0.41878586939E+03 -0.86595536099E+03 -0.79997882966E+03  0.12510907371E+04  0.12699999809E+01 0.  1.
       -4    1    3    3    0  502  0.41878586939E+03  0.86595536099E+03 -0.35744758213E+03  0.10261728307E+04  0.12699999809E+01 0. -1.
</event>
<event>
 5   0  0.8022574E-05  0.1979302E+04  0.7818609E-02  0.8616359E-01
       -2   -1    0    0    0  501  0.00000000000E+00  0.00000000000E+00  0.71290268020E+03  0.71290268020E+03  0.25500000920E-02 0.  1.
        2   -1    0    0  501    0  0.00000000000E+00  0.00000000000E+00 -0.13738331563E+04  0.13738331563E+04  0.25500000920E-02 0. -1.
    10030    2    1    2    0    0  0.00000000000E+00  0.00000000000E+00 -0.66093047609E+03  0.20867358365E+04  0.19793022399E+04 0.  0.
        1    1    3    3  502    0 -0.44772749429E+02  0.51383679024E+03  0.55999545933E+03  0.76133288421E+03  0.50400001928E-02 0.  1.
       -1    1    3    3    0  502  0.44772749429E+02 -0.51383679024E+03 -0.12209259354E+04  0.13254029523E+04  0.50400001928E-02 0. -1.
</event>
<event>
 5   0  0.7935008E-05  0.1999579E+04  0.7818609E-02  0.8606817E-01
       -2   -1    0    0    0  501  0.00000000000E+00  0.00000000000E+00  0.13141374429E+04  0.13141374429E+04  0.25500000920E-02 0.  1.
        2   -1    0    0  501    0  0.00000000000E+00  0.00000000000E+00 -0.76063523502E+03  0.76063523502E+03  0.25500000920E-02 0. -1.
    10030    2    1    2    0    0  0.00000000000E+00  0.00000000000E+00  0.55350220786E+03  0.20747726779E+04  0.19995791985E+04 0.  0.
        3    1    3    3  502    0  0.60498176557E+02  0.69313909592E+03  0.10217175693E+04  0.12361264649E+04  0.10100000352E+00 0.  1.
       -3    1    3    3    0  502 -0.60498176557E+02 -0.69313909592E+03 -0.46821536144E+03  0.83864621298E+03  0.10100000352E+00 0. -1.
</event>
<event>
 5   0  0.3549426E-05  0.2004988E+04  0.7818609E-02  0.8604292E-01
       -1   -1    0    0    0  501  0.00000000000E+00  0.00000000000E+00  0.49606259736E+03  0.49606259738E+03  0.50400001928E-02 0. -1.
        1   -1    0    0  501    0  0.00000000000E+00  0.00000000000E+00 -0.20259417129E+04  0.20259417129E+04  0.50400001928E-02 0.  1.
    10030    2    1    2    0    0  0.00000000000E+00  0.00000000000E+00 -0.15298791155E+04  0.25220043102E+04  0.20049876890E+04 0.  0.
        5    1    3    3  502    0  0.11130134283E+03 -0.58790677042E+03 -0.17766804209E+04  0.18747367195E+04  0.46999998093E+01 0.  1.
       -5    1    3    3    0  502 -0.11130134283E+03  0.58790677042E+03  0.24680130539E+03  0.64726759070E+03  0.46999998093E+01 0. -1.
</event>
<event>
 5   0  0.3787698E-05  0.2003974E+04  0.7818609E-02  0.8604765E-01
        1   -1    0    0  501    0  0.00000000000E+00  0.00000000000E+00  0.10679466945E+04  0.10679466945E+04  0.50400001928E-02 0.  1.
       -1   -1    0    0    0  501  0.00000000000E+00  0.00000000000E+00 -0.94010109009E+03  0.94010109010E+03  0.50400001928E-02 0. -1.
    10030    2    1    2    0    0  0.00000000000E+00  0.00000000000E+00  0.12784560442E+03  0.20080477846E+04  0.20039739037E+04 0.  0.
        4    1    3    3  502    0 -0.82466553652E+03  0.27529319989E+02 -0.50569137236E+03  0.96775848618E+03  0.12699999809E+01 0. -1.
       -4    1    3    3    0  502  0.82466553652E+03 -0.27529319989E+02  0.63353697678E+03  0.10402892984E+04  0.12699999809E+01 0.  1.
</event>
<event>
 5   0  0.3549426E-05  0.1993792E+04  0.7818609E-02  0.8609529E-01
       -1   -1    0    0    0  501  0.00000000000E+00  0.00000000000E+00  0.82282697013E+03  0.82282697015E+03  0.50400001928E-02 0.  1.
        1   -1    0    0  501    0  0.00000000000E+00  0.00000000000E+00 -0.12077890149E+04  0.12077890149E+04  0.50400001928E-02 0. -1.
    10030    2    1    2    0    0  0.00000000000E+00  0.00000000000E+00 -0.38496204472E+03  0.20306159850E+04  0.19937917401E+04 0.  0.
        5    1    3    3  502    0  0.69945234916E+03 -0.54237159519E+03 -0.65962305164E+03  0.11038682876E+04  0.46999998093E+01 0. -1.
       -5    1    3    3    0  502 -0.69945234916E+03  0.54237159519E+03  0.27466100692E+03  0.92674769746E+03  0.46999998093E+01 0.  1.
</event>
<event>
 5   0  0.3818907E-05  0.1956738E+04  0.7818609E-02  0.8627118E-01
        1   -1    0    0  501    0  0.00000000000E+00  0.00000000000E+00  0.18057571966E+04  0.18057571966E+04  0.50400001928E-02 0.  1.
       -1   -1    0    0    0  501  0.00000000000E+00  0.00000000000E+00 -0.53008579655E+03  0.53008579658E+03  0.50400001928E-02 0. -1.
    10030    2    1    2    0    0  0.00000000000E+00  0.00000000000E+00  0.12756714000E+04  0.23358429932E+04  0.19567383494E+04 0.  0.
        1    1    3    3  502    0  0.75521205300E+03  0.23218103046E+03  0.13266502862E+04  0.15441030594E+04  0.50400001928E-02 0.  1.
       -1    1    3    3    0  502 -0.75521205300E+03 -0.23218103046E+03 -0.50978886226E+02  0.79173993380E+03  0.50400001928E-02 0. -1.
</event>
<event>
 5   0  0.7857136E-05  0.2002202E+04  0.7818609E-02  0.8605592E-01
        2   -1    0    0  501    0  0.00000000000E+00  0.00000000000E+00  0.91001037791E+03  0.91001037791E+03  0.25500000920E-02 0. -1.
       -2   -1    0    0    0  501  0.00000000000E+00  0.00000000000E+00 -0.11013095459E+04  0.11013095459E+04  0.25500000920E-02 0.  1.
    10030    2    1    2    0    0  0.00000000000E+00  0.00000000000E+00 -0.19129916801E+03  0.20113199238E+04  0.20022019040E+04 0.  0.
        4    1    3    3  502    0  0.76814545329E+03  0.38163328782E+03  0.42294756068E+03  0.95633553514E+03  0.12699999809E+01 0. -1.
       -4    1    3    3    0  502 -0.76814545329E+03 -0.38163328782E+03 -0.61424672869E+03  0.10549843887E+04  0.12699999809E+01 0.  1.
</event>
<event>
 5   0  0.8022574E-05  0.1977749E+04  0.7818609E-02  0.8617095E-01
       -2   -1    0    0    0  501  0.00000000000E+00  0.00000000000E+00  0.23288513687E+04  0.23288513687E+04  0.25500000920E-02 0. -1.
        2   -1    0    0  501    0  0.00000000000E+00  0.00000000000E+00 -0.41989506164E+03  0.41989506164E+03  0.25500000920E-02 0.  1.
    10030    2    1    2    0    0  0.00000000000E+00  0.00000000000E+00  0.19089563071E+04  0.27487464304E+04  0.19777494169E+04 0.  0.
        1    1    3    3  502    0 -0.46518430676E+03  0.34150612456E+02  0.21663561582E+04  0.22160012878E+04  0.50400001928E-02 0. -1.
       -1    1    3    3    0  502  0.46518430676E+03 -0.34150612456E+02 -0.25739985105E+03  0.53274514257E+03  0.50400001928E-02 0.  1.
</event>
<event>
 5   0  0.7843846E-05  0.2000219E+04  0.7818609E-02  0.8606518E-01
       -2   -1    0    0    0  501  0.00000000000E+00  0.00000000000E+00  0.56840624968E+03  0.56840624969E+03  0.25500000920E-02 0. -1.
        2   -1    0    0  501    0  0.00000000000E+00  0.00000000000E+00 -0.17596908658E+04  0.17596908658E+04  0.25500000920E-02 0.  1.
    10030    2    1    2    0    0  0.00000000000E+00  0.00000000000E+00 -0.11912846161E+04  0.23280971154E+04  0.20002192736E+04 0.  0.
        2    1    3    3  502    0  0.24141321612E+03 -0.89141378556E+03 -0.10423824120E+04  0.13926449550E+04  0.25500000920E-02 0.  1.
       -2    1    3    3    0  502 -0.24141321612E+03  0.89141378556E+03 -0.14890220410E+03  0.93545216040E+03  0.25500000920E-02 0. -1.
</event>
<event>
 5   0  0.3970042E-05  0.2005009E+04  0.7818609E-02  0.8604282E-01
        1   -1    0    0  501    0  0.00000000000E+00  0.00000000000E+00  0.10970979193E+04  0.10970979193E+04  0.50400001928E-02 0.  1.
       -1   -1    0    0    0  501  0.00000000000E+00  0.00000000000E+00 -0.91606704262E+03  0.91606704263E+03  0.50400001928E-02 0. -1.
    10030    2    1    2    0    0  0.00000000000E+00  0.00000000000E+00  0.18103087672E+03  0.20131649620E+04  0.20050089740E+04 0.  0.
        3    1    3    3  502    0 -0.65261328333E+03  0.40319351693E+03  0.73854466380E+03  0.10648555490E+04  0.10100000352E+00 0. -1.
       -3    1    3    3    0  502  0.65261328333E+03 -0.40319351693E+03 -0.55751378708E+03  0.94830941294E+03  0.10100000352E+00 0.  1.
</event>
<event>
 5   0  0.7935008E-05  0.2005190E+04  0.7818609E-02  0.8604198E-01
        2   -1    0    0  501    0  0.00000000000E+00  0.00000000000E+00  0.13508034752E+04  0.13508034752E+04  0.25500000920E-02 0. -1.
       -2   -1    0    0    0  501  0.00000000000E+00  0.00000000000E+00 -0.74414720985E+03  0.74414720985E+03  0.25500000920E-02 0.  1.
    10030    2    1    2    0    0  0.00000000000E+00  0.00000000000E+00  0.60665626531E+03  0.20949506850E+04  0.20051899033E+04 0.  0.
        3    1    3    3  502    0  0.34844145743E-01  0.91648752024E+03  0.72803121860E+03  0.11704609525E+04  0.10100000352E+00 0. -1.
       -3    1    3    3    0  502 -0.34844145743E-01 -0.91648752024E+03 -0.12137495328E+03  0.92448973247E+03  0.10100000352E+00 0.  1.
</event>
<event>
 5   0  0.8011197E-05  0.2006766E+04  0.7818609E-02  0.8603464E-01
       -2   -1    0    0    0  501  0.00000000000E+00  0.00000000000E+00  0.54915299637E+03  0.54915299638E+03  0.25500000920E-02 0. -1.
        2   -1    0    0  501    0  0.00000000000E+00  0.00000000000E+00 -0.18333285138E+04  0.18333285138E+04  0.25500000920E-02 0.  1.
    10030    2    1    2    0    0  0.00000000000E+00  0.00000000000E+00 -0.12841755174E+04  0.23824815101E+04  0.20067664006E+04 0.  0.
        5    1    3    3  502    0  0.52084744885E+03 -0.60889695045E+03 -0.13590750091E+04  0.15777022950E+04  0.46999998093E+01 0.  1.
       -5    1    3    3    0  502 -0.52084744885E+03  0.60889695045E+03  0.74899491731E+02  0.80477921513E+03  0.46999998093E+01 0. -1.
</event>
<event>
 5   0  0.8022574E-05  0.2000673E+04  0.7818609E-02  0.8606306E-01
        2   -1    0    0  501    0  0.00000000000E+00  0.00000000000E+00  0.16234003094E+04  0.16234003094E+04  0.25500000920E-02 0.  1.
       -2   -1    0    0    0  501  0.00000000000E+00  0.00000000000E+00 -0.61640558526E+03  0.61640558527E+03  0.25500000920E-02 0. -1.
    10030    2    1    2    0    0  0.00000000000E+00  0.00000000000E+00  0.10069947241E+04  0.22398058946E+04  0.20006729046E+04 0.  0.
        1    1    3    3  502    0  0.52947255658E+03  0.10917480312E+03 -0.43877718395E+03  0.69626556929E+03  0.50400001928E-02 0. -1.
       -1    1    3    3    0  502 -0.52947255658E+03 -0.10917480312E+03  0.14457719081E+04  0.15435403253E+04  0.50400001928E-02 0.  1.
</event>
<event>
 5   0  0.3970042E-05  0.1999043E+04  0.7818609E-02  0.8607068E-01
       -1   -1    0    0    0  501  0.00000000000E+00  0.00000000000E+00  0.39308650224E+03  0.39308650227E+03  0.50400001928E-02 0.  1.
        1   -1    0    0  501    0  0.00000000000E+00  0.00000000000E+00 -0.25415364042E+04  0.25415364042E+04  0.50400001928E-02 0. -1.
    10030    2    1    2    0    0  0.00000000000E+00  0.00000000000E+00 -0.21484499020E+04  0.29346229065E+04  0.19990434268E+04 0.  0.
        3    1    3    3  502    0 -0.62193417319E+03 -0.76502879201E+03 -0.13153212199E+04  0.16438190564E+04  0.10100000352E+00 0. -1.
       -3    1    3    3    0  502  0.62193417319E+03  0.76502879201E+03 -0.83312868205E+03  0.12908038501E+04  0.10100000352E+00 0.  1.
</event>
<event>
 5   0  0.3787698E-05  0.1997844E+04  0.7818609E-02  0.8607629E-01
       -1   -1    0    0    0  501  0.00000000000E+00  0.00000000000E+00  0.50537054793E+03  0.50537054796E+03  0.50400001928E-02 0. -1.
        1   -1    0    0  501    0  0.00000000000E+00  0.00000000000E+00 -0.19744825909E+04  0.19744825909E+04  0.50400001928E-02 0.  1.
    10030    2    1    2    0    0  0.00000000000E+00  0.00000000000E+00 -0.14691120430E+04  0.24798531389E+04  0.19978441870E+04 0.  0.
        4    1    3    3  502    0  0.15419244070E+03 -0.28970959680E+03 -0.19056526210E+04  0.19337064110E+04  0.12699999809E+01 0.  1.
       -4    1    3    3    0  502 -0.15419244070E+03  0.28970959680E+03  0.43654057798E+03  0.54614672788E+03  0.12699999809E+01 0. -1.
</event>
<event>
 5   0  0.3970042E-05  0.2004069E+04  0.7818609E-02  0.8604720E-01
        1   -1    0    0  501    0  0.00000000000E+00  0.00000000000E+00  0.66807602111E+03  0.66807602113E+03  0.50400001928E-02 0. -1.
       -1   -1    0    0    0  501  0.00000000000E+00  0.00000000000E+00 -0.15029332000E+04  0.15029332001E+04  0.50400001928E-02 0.  1.
    10030    2    1    2    0    0  0.00000000000E+00  0.00000000000E+00 -0.83485717894E+03  0.21710092212E+04  0.20040694921E+04 0.  0.
        3    1    3    3  502    0 -0.71603084078E+02 -0.59138993774E+03  0.45542152407E+03  0.74985187530E+03  0.10100000352E+00 0. -1.
       -3    1    3    3    0  502  0.71603084078E+02  0.59138993774E+03 -0.12902787030E+04  0.14211573459E+04  0.10100000352E+00 0.  1.
</event>
<event>
 5   0  0.7857136E-05  0.2007857E+04  0.7818609E-02  0.8602956E-01
       -2   -1    0    0    0  501  0.00000000000E+00  0.00000000000E+00  0.59901256246E+03  0.59901256247E+03  0.25500000920E-02 0.  1.
        2   -1    0    0  501    0  0.00000000000E+00  0.00000000000E+00 -0.16825567600E+04  0.16825567600E+04  0.25500000920E-02 0. -1.
    10030    2    1    2    0    0  0.00000000000E+00  0.00000000000E+00 -0.10835441975E+04  0.22815693224E+04  0.20078572024E+04 0.  0.
        4    1    3    3  502    0  0.14617463950E+03 -0.19936166303E+03  0.56388523268E+03  0.61569494594E+03  0.12699999809E+01 0.  1.
       -4    1    3    3    0  502 -0.14617463950E+03  0.19936166303E+03 -0.16474294302E+04  0.16658743765E+04  0.12699999809E+01 0. -1.
</event>
<event>
 5   0  0.8011197E-05  0.1988244E+04  0.7818609E-02  0.8612137E-01
       -2   -1    0    0    0  501  0.00000000000E+00  0.00000000000E+00  0.97099424475E+03  0.97099424475E+03  0.25500000920E-02 0.  1.
        2   -1    0    0  501    0  0.00000000000E+00  0.00000000000E+00 -0.10178005846E+04  0.10178005846E+04  0.25500000920E-02 0. -1.
    10030    2    1    2    0    0  0.00000000000E+00  0.00000000000E+00 -0.46806339835E+02  0.19887948293E+04  0.19882439588E+04 0.  0.
        5    1    3    3  502    0  0.11911289343E+03  0.33303912231E+03 -0.95272111609E+03  0.10162689375E+04  0.46999998093E+01 0. -1.
       -5    1    3    3    0  502 -0.11911289343E+03 -0.33303912231E+03  0.90591477625E+03  0.97252589179E+03  0.46999998093E+01 0.  1.
</event>
<event>
 5   0  0.7843846E-05  0.1968339E+04  0.7818609E-02  0.8621568E-01
       -2   -1    0    0    0  501  0.00000000000E+00  0.00000000000E+00  0.18678764058E+04  0.18678764058E+04  0.25500000920E-02 0.  1.
        2   -1    0    0  501    0  0.00000000000E+00  0.00000000000E+00 -0.51855122672E+03  0.51855122673E+03  0.25500000920E-02 0. -1.
    10030    2    1    2    0    0  0.00000000000E+00  0.00000000000E+00  0.13493251791E+04  0.23864276325E+04  0.19683389968E+04 0.  0.
        2    1    3    3  502    0  0.58867622292E+03 -0.21709830778E+03  0.15939502117E+04  0.17129940595E+04  0.25500000920E-02 0.  1.
       -2    1    3    3    0  502 -0.58867622292E+03  0.21709830778E+03 -0.24462503259E+03  0.67343357300E+03  0.25500000920E-02 0. -1.
</event>
<event>
 5   0  0.7935008E-05  0.1994573E+04  0.7818609E-02  0.8609162E-01
       -2   -1    0    0    0  501  0.00000000000E+00  0.00000000000E+00  0.12441387814E+04  0.12441387814E+04  0.25500000920E-02 0. -1.
        2   -1    0    0  501    0  0.00000000000E+00  0.00000000000E+00 -0.79941286773E+03  0.79941286773E+03  0.25500000920E-02 0.  1.
    10030    2    1    2    0    0  0.00000000000E+00  0.00000000000E+00  0.44472591370E+03  0.20435516492E+04  0.19945731886E+04 0.  0.
        3    1    3    3  502    0  0.93977013726E+03 -0.82760070486E+02  0.55366605074E+03  0.10938753339E+04  0.10100000352E+00 0. -1.
       -3    1    3    3    0  502 -0.93977013726E+03  0.82760070486E+02 -0.10894013703E+03  0.94967631528E+03  0.10100000352E+00 0.  1.
</event>
<event>
 5   0  0.7843846E-05  0.1987048E+04  0.7818609E-02  0.8612700E-01
       -2   -1    0    0    0  501  0.00000000000E+00  0.00000000000E+00  0.15340192610E+04  0.15340192610E+04  0.25500000920E-02 0.  1.
        2   -1    0    0  501    0  0.00000000000E+00  0.00000000000E+00 -0.64346643218E+03  0.64346643219E+03  0.25500000920E-02 0. -1.
    10030    2    1    2    0    0  0.00000000000E+00  0.00000000000E+00  0.89055282884E+03  0.21774856932E+04  0.19870479620E+04 0.  0.
        2    1    3    3  502    0  0.41236223737E+03  0.22095387923E+03  0.14057637661E+04  0.14815650501E+04  0.25500000920E-02 0.  1.
       -2    1    3    3    0  502 -0.41236223737E+03 -0.22095387923E+03 -0.51521093730E+03  0.69592064309E+03  0.25500000920E-02 0. -1.
</event>
<event>
 5   0  0.7935008E-05  0.1973521E+04  0.7818609E-02  0.8619102E-01
       -2   -1    0    0    0  501  0.00000000000E+00  0.00000000000E+00  0.76889400122E+03  0.76889400123E+03  0.25500000920E-02 0. -1.
        2   -1    0    0  501    0  0.00000000000E+00  0.00000000000E+00 -0.12663593611E+04  0.12663593611E+04  0.25500000920E-02 0.  1.
    10030    2    1    2    0    0  0.00000000000E+00  0.00000000000E+00 -0.49746535992E+03  0.20352533624E+04  0.19735208296E+04 0.  0.
        3    1    3    3  502    0 -0.49466635063E+03 -0.74793412213E+03  0.17596939726E+03  0.91381917711E+03  0.10100000352E+00 0. -1.
       -3    1    3    3    0  502  0.49466635063E+03  0.74793412213E+03 -0.67343475717E+03  0.11214341853E+04  0.10100000352E+00 0.  1.
</event>
<event>
 5   0  0.7935008E-05  0.1995392E+04  0.7818609E-02  0.8608778E-01
       -2   -1    0    0    0  501  0.00000000000E+00  0.00000000000E+00  0.13595090711E+04  0.13595090711E+04  0.25500000920E-02 0. -1.
        2   -1    0    0  501    0  0.00000000000E+00  0.00000000000E+00 -0.73217375790E+03  0.73217375791E+03  0.25500000920E-02 0.  1.
    10030    2    1    2    0    0  0.00000000000E+00  0.00000000000E+00  0.62733531320E+03  0.20916828290E+04  0.19953915561E+04 0.  0.
        3    1    3    3  502    0 -0.43622590888E+03 -0.32878911792E+03 -0.56148651269E+03  0.78336609690E+03  0.10100000352E+00 0.  1.
       -3    1    3    3    0  502  0.43622590888E+03  0.32878911792E+03  0.11888218259E+04  0.13083167321E+04  0.10100000352E+00 0. -1.
</event>
<event>
 5   0  0.7857136E-05  0.2014794E+04  0.7818609E-02  0.8599735E-01
       -2   -1    0    0    0  501  0.00000000000E+00  0.00000000000E+00  0.76736368067E+03  0.76736368067E+03  0.25500000920E-02 0.  1.
        2   -1    0    0  501    0  0.00000000000E+00  0.00000000000E+00 -0.13225136652E+04  0.13225136652E+04  0.25500000920E-02 0. -1.
    10030    2    1    2    0    0  0.00000000000E+00  0.00000000000E+00 -0.55514998455E+03  0.20898773459E+04  0.20147942365E+04 0.  0.
        4    1    3    3  502    0 -0.90627841886E+03 -0.37094060996E+03 -0.32310773905E+02  0.97978727672E+03  0.12699999809E+01 0.  1.
       -4    1    3    3    0  502  0.90627841886E+03  0.37094060996E+03 -0.52283921065E+03  0.11100900692E+04  0.12699999809E+01 0. -1.
</event>
<event>
 5   0  0.3549426E-05  0.2040383E+04  0.7818609E-02  0.8587970E-01
        1   -1    0    0  501    0  0.00000000000E+00  0.00000000000E+00  0.18883180965E+04  0.18883180965E+04  0.50400001928E-02 0.  1.
       -1   -1    0    0    0  501  0.00000000000E+00  0.00000000000E+00 -0.55117344264E+03  0.55117344266E+03  0.50400001928E-02 0. -1.
    10030    2    1    2    0    0  0.00000000000E+00  0.00000000000E+00  0.13371446539E+04  0.24394915392E+04  0.20403830877E+04 0.  0.
        5    1    3    3  502    0  0.87597967487E+03 -0.35660483986E+03  0.11258208444E+04  0.14703748047E+04  0.46999998093E+01 0.  1.
       -5    1    3    3    0  502 -0.87597967487E+03  0.35660483986E+03  0.21132380945E+03  0.96911673447E+03  0.46999998093E+01 0. -1.
</event>
<event>
 5   0  0.3772949E-05  0.2002820E+04  0.7818609E-02  0.8605303E-01
       -1   -1    0    0    0  501  0.00000000000E+00  0.00000000000E+00  0.63620677385E+03  0.63620677387E+03  0.50400001928E-02 0. -1.
        1   -1    0    0  501    0  0.00000000000E+00  0.00000000000E+00 -0.15762522382E+04  0.15762522382E+04  0.50400001928E-02 0.  1.
    10030    2    1    2    0    0  0.00000000000E+00  0.00000000000E+00 -0.94004546432E+03  0.22124590120E+04  0.20028203626E+04 0.  0.
        2    1    3    3  502    0  0.47646377415E+03  0.83383153439E+03 -0.15654189773E+03  0.97303551918E+03  0.25500000920E-02 0. -1.
       -2    1    3    3    0  502 -0.47646377415E+03 -0.83383153439E+03 -0.78350356658E+03  0.12394234929E+04  0.25500000920E-02 0.  1.
</event>
<event>
 5   0  0.3772949E-05  0.2001989E+04  0.7818609E-02  0.8605691E-01
        1   -1    0    0  501    0  0.00000000000E+00  0.00000000000E+00  0.13449288067E+04  0.13449288067E+04  0.50400001928E-02 0. -1.
       -1   -1    0    0    0  501  0.00000000000E+00  0.00000000000E+00 -0.74501333084E+03  0.74501333086E+03  0.50400001928E-02 0.  1.
    10030    2    1    2    0    0  0.00000000000E+00  0.00000000000E+00  0.59991547584E+03  0.20899421376E+04  0.20019889011E+04 0.  0.
        2    1    3    3  502    0 -0.44315058711E+02 -0.78115630422E+02  0.13407143739E+04  0.13437190586E+04  0.25500000920E-02 0. -1.
       -2    1    3    3    0  502  0.44315058711E+02  0.78115630422E+02 -0.74079889806E+03  0.74622307892E+03  0.25500000920E-02 0.  1.
</event>
<event>
 5   0  0.3970042E-05  0.2059724E+04  0.7818609E-02  0.8579196E-01
        1   -1    0    0  501    0  0.00000000000E+00  0.00000000000E+00  0.93894252879E+03  0.93894252880E+03  0.50400001928E-02 0.  1.
       -1   -1    0    0    0  501  0.00000000000E+00  0.00000000000E+00 -0.11295857319E+04  0.11295857319E+04  0.50400001928E-02 0. -1.
    10030    2    1    2    0    0  0.00000000000E+00  0.00000000000E+00 -0.19064320313E+03  0.20685282607E+04  0.20597243346E+04 0.  0.
        3    1    3    3  502    0  0.39517166680E+03 -0.94874761773E+03 -0.29211777951E+02  0.10281712049E+04  0.10100000352E+00 0. -1.
       -3    1    3    3    0  502 -0.39517166680E+03  0.94874761773E+03 -0.16143142518E+03  0.10403570558E+04  0.10100000352E+00 0.  1.
</event>
<event>
 5   0  0.8022574E-05  0.2015076E+04  0.7818609E-02  0.8599604E-01
       -2   -1    0    0    0  501  0.00000000000E+00  0.00000000000E+00  0.82291969359E+03  0.82291969359E+03  0.25500000920E-02 0. -1.
        2   -1    0    0  501    0  0.00000000000E+00  0.00000000000E+00 -0.12335746650E+04  0.12335746650E+04  0.25500000920E-02 0.  1.
    10030    2    1    2    0    0  0.00000000000E+00  0.00000000000E+00 -0.41065497142E+03  0.20564943586E+04  0.20150760634E+04 0.  0.
        1    1    3    3  502    0 -0.10253369663E+03  0.35184625534E+03 -0.11631402778E+04  0.12195098410E+04  0.50400001928E-02 0.  1.
       -1    1    3    3    0  502  0.10253369663E+03 -0.35184625534E+03  0.75248530640E+03  0.83698451761E+03  0.50400001928E-02 0. -1.
</event>
<event>
 5   0  0.3970042E-05  0.2006968E+04  0.7818609E-02  0.8603370E-01
       -1   -1    0    0    0  501  0.00000000000E+00  0.00000000000E+00  0.94098403009E+03  0.94098403010E+03  0.50400001928E-02 0.  1.
        1   -1    0    0  501    0  0.00000000000E+00  0.00000000000E+00 -0.10701349069E+04  0.10701349069E+04  0.50400001928E-02 0. -1.
    10030    2    1    2    0    0  0.00000000000E+00  0.00000000000E+00 -0.12915087680E+03  0.20111189370E+04  0.20069677202E+04 0.  0.
        3    1    3    3  502    0  0.96363101860E+03  0.98346288770E+02  0.19811773404E+03  0.98868972851E+03  0.10100000352E+00 0.  1.
       -3    1    3    3    0  502 -0.96363101860E+03 -0.98346288770E+02 -0.32726861085E+03  0.10224292085E+04  0.10100000352E+00 0. -1.
</event>
<event>
 5   0  0.7935008E-05  0.1996033E+04  0.7818609E-02  0.8608478E-01
        2   -1    0    0  501    0  0.00000000000E+00  0.00000000000E+00  0.65387667260E+03  0.65387667260E+03  0.25500000920E-02 0.  1.
       -2   -1    0    0    0  501  0.00000000000E+00  0.00000000000E+00 -0.15232787846E+04  0.15232787846E+04  0.25500000920E-02 0. -1.
    10030    2    1    2    0    0  0.00000000000E+00  0.00000000000E+00 -0.86940211198E+03  0.21771554572E+04  0.19960325279E+04 0.  0.
        3    1    3    3  502    0  0.11250832126E+03  0.21640953451E+03  0.62086692328E+03  0.66705843492E+03  0.10100000352E+00 0.  1.
       -3    1    3    3    0  502 -0.11250832126E+03 -0.21640953451E+03 -0.14902690353E+04  0.15100970223E+04  0.10100000352E+00 0. -1.
</event>
<event>
 5   0  0.3818907E-05  0.1995220E+04  0.7818609E-02  0.8608859E-01
       -1   -1    0    0    0  501  0.00000000000E+00  0.00000000000E+00  0.14277782259E+04  0.14277782259E+04  0.50400001928E-02 0. -1.
        1   -1    0    0  501    0  0.00000000000E+00  0.00000000000E+00 -0.69704473726E+03  0.69704473728E+03  0.50400001928E-02 0.  1.
    10030    2    1    2    0    0  0.00000000000E+00  0.00000000000E+00  0.73073348867E+03  0.21248229632E+04  0.19952195853E+04 0.  0.
        1    1    3    3  502    0  0.50874837980E+03 -0.53181346419E+03  0.10825935659E+04  0.13090681051E+04  0.50400001928E-02 0. -1.
       -1    1    3    3    0  502 -0.50874837980E+03  0.53181346419E+03 -0.35186007725E+03  0.81575485818E+03  0.50400001928E-02 0.  1.
</event>
<event>
 5   0  0.7857136E-05  0.2005124E+04  0.7818609E-02  0.8604229E-01
       -2   -1    0    0    0  501  0.00000000000E+00  0.00000000000E+00  0.64696793582E+03  0.64696793583E+03  0.25500000920E-02 0. -1.
        2   -1    0    0  501    0  0.00000000000E+00  0.00000000000E+00 -0.15536012203E+04  0.15536012203E+04  0.25500000920E-02 0.  1.
    10030    2    1    2    0    0  0.00000000000E+00  0.00000000000E+00 -0.90663328444E+03  0.22005691561E+04  0.20051236117E+04 0.  0.
        4    1    3    3  502    0  0.28844398865E+03 -0.26241706448E+03  0.56032668138E+03  0.68266408510E+03  0.12699999809E+01 0. -1.
       -4    1    3    3    0  502 -0.28844398865E+03  0.26241706448E+03 -0.14669599658E+04  0.15179050710E+04  0.12699999809E+01 0.  1.
</event>
<event>
 5   0  0.7857136E-05  0.1996728E+04  0.7818609E-02  0.8608152E-01
        2   -1    0    0  501    0  0.00000000000E+00  0.00000000000E+00  0.18515868763E+04  0.18515868763E+04  0.25500000920E-02 0. -1.
       -2   -1    0    0    0  501  0.00000000000E+00  0.00000000000E+00 -0.53831170788E+03  0.53831170789E+03  0.25500000920E-02 0.  1.
    10030    2    1    2    0    0  0.00000000000E+00  0.00000000000E+00  0.13132751684E+04  0.23898985842E+04  0.19967282176E+04 0.  0.
        4    1    3    3  502    0 -0.38817902395E+03 -0.75293338622E+03  0.12890053430E+04  0.15424422278E+04  0.12699999809E+01 0. -1.
       -4    1    3    3    0  502  0.38817902395E+03  0.75293338622E+03  0.24269825374E+02  0.84745635642E+03  0.12699999809E+01 0.  1.
</event>
<event>
 5   0  0.3549426E-05  0.1959476E+04  0.7818609E-02  0.8625805E-01
       -1   -1    0    0    0  501  0.00000000000E+00  0.00000000000E+00  0.70346403908E+03  0.70346403909E+03  0.50400001928E-02 0. -1.
        1   -1    0    0  501    0  0.00000000000E+00  0.00000000000E+00 -0.13645133315E+04  0.13645133316E+04  0.50400001928E-02 0.  1.
    10030    2    1    2    0    0  0.00000000000E+00  0.00000000000E+00 -0.66104929247E+03  0.20679773707E+04  0.19594755009E+04 0.  0.
        5    1    3    3  502    0 -0.54051046620E+03 -0.20086222442E+03 -0.11664484661E+04  0.13011999506E+04  0.46999998093E+01 0.  1.
       -5    1    3    3    0  502  0.54051046620E+03  0.20086222442E+03  0.50539917362E+03  0.76677742010E+03  0.46999998093E+01 0. -1.
</event>
<event>
 5   0  0.3970042E-05  0.2004055E+04  0.7818609E-02  0.8604727E-01
        1   -1    0    0  501    0  0.00000000000E+00  0.00000000000E+00  0.11705341001E+04  0.11705341001E+04  0.50400001928E-02 0. -1.
       -1   -1    0    0    0  501  0.00000000000E+00  0.00000000000E+00 -0.85777889579E+03  0.85777889581E+03  0.50400001928E-02 0.  1.
    10030    2    1    2    0    0  0.00000000000E+00  0.00000000000E+00  0.31275520434E+03  0.20283129960E+04  0.20040553365E+04 0.  0.
        3    1    3    3  502    0  0.32420646015E+03  0.91446042601E+03 -0.97076709239E+02  0.97507517517E+03  0.10100000352E+00 0.  1.
       -3    1    3    3    0  502 -0.32420646015E+03 -0.91446042601E+03  0.40983191357E+03  0.10532378208E+04  0.10100000352E+00 0. -1.
</event>
<event>
 5   0  0.3772949E-05  0.2004735E+04  0.7818609E-02  0.8604410E-01
        1   -1    0    0  501    0  0.00000000000E+00  0.00000000000E+00  0.18817100782E+04  0.18817100782E+04  0.50400001928E-02 0.  1.
       -1   -1    0    0    0  501  0.00000000000E+00  0.00000000000E+00 -0.53395058041E+03  0.53395058043E+03  0.50400001928E-02 0. -1.
    10030    2    1    2    0    0  0.00000000000E+00  0.00000000000E+00  0.13477594978E+04  0.24156606586E+04  0.20047345844E+04 0.  0.
        2    1    3    3  502    0  0.36439548513E+03 -0.71355334112E+03  0.13996703424E+04  0.16127676545E+04  0.25500000920E-02 0.  1.
       -2    1    3    3    0  502 -0.36439548513E+03  0.71355334112E+03 -0.51910844596E+02  0.80289300408E+03  0.25500000920E-02 0. -1.
</event>
<event>
 5   0  0.7857136E-05  0.1965696E+04  0.7818609E-02  0.8622829E-01
       -2   -1    0    0    0  501  0.00000000000E+00  0.00000000000E+00  0.94511630781E+03  0.94511630781E+03  0.25500000920E-02 0.  1.
        2   -1    0    0  501    0  0.00000000000E+00  0.00000000000E+00 -0.10220859534E+04  0.10220859534E+04  0.25500000920E-02 0. -1.
    10030    2    1    2    0    0  0.00000000000E+00  0.00000000000E+00 -0.76969645612E+02  0.19672022612E+04  0.19656959099E+04 0.  0.
        4    1    3    3  502    0  0.45788779212E+03  0.46178049755E+03 -0.77599326713E+03  0.10124572197E+04  0.12699999809E+01 0. -1.
       -4    1    3    3    0  502 -0.45788779212E+03 -0.46178049755E+03  0.69902362152E+03  0.95474504159E+03  0.12699999809E+01 0.  1.
</event>
<event>
 5   0  0.3970042E-05  0.1958275E+04  0.7818609E-02  0.8626381E-01
       -1   -1    0    0    0  501  0.00000000000E+00  0.00000000000E+00  0.53938065918E+03  0.53938065921E+03  0.50400001928E-02 0.  1.
        1   -1    0    0  501    0  0.00000000000E+00  0.00000000000E+00 -0.17774279108E+04  0.17774279108E+04  0.50400001928E-02 0. -1.
    10030    2    1    2    0    0  0.00000000000E+00  0.00000000000E+00 -0.12380472516E+04  0.23168085700E+04  0.19582749942E+04 0.  0.
        3    1    3    3  502    0 -0.89714070938E+03  0.36859094495E+03 -0.77770498398E+03  0.12431998188E+04  0.10100000352E+00 0.  1.
       -3    1    3    3    0  502  0.89714070938E+03 -0.36859094495E+03 -0.46034226762E+03  0.10736087512E+04  0.10100000352E+00 0. -1.
</event>
<event>
 5   0  0.7843846E-05  0.2001689E+04  0.7818609E-02  0.8605831E-01
       -2   -1    0    0    0  501  0.00000000000E+00  0.00000000000E+00  0.99010750826E+03  0.99010750827E+03  0.25500000920E-02 0.  1.
        2   -1    0    0  501    0  0.00000000000E+00  0.00000000000E+00 -0.10116977658E+04  0.10116977658E+04  0.25500000920E-02 0. -1.
    10030    2    1    2    0    0  0.00000000000E+00  0.00000000000E+00 -0.21590257546E+02  0.20018052741E+04  0.20016888410E+04 0.  0.
        2    1    3    3  502    0 -0.29540756587E+03  0.51529430666E+03 -0.81638261189E+03  0.10095912150E+04  0.25500000920E-02 0. -1.
       -2    1    3    3    0  502  0.29540756587E+03 -0.51529430666E+03  0.79479235435E+03  0.99221405905E+03  0.25500000920E-02 0.  1.
</event>
<event>
 5   0  0.7857136E-05  0.2007347E+04  0.7818609E-02  0.8603194E-01
        2   -1    0    0  501    0  0.00000000000E+00  0.00000000000E+00  0.19286094890E+04  0.19286094890E+04  0.25500000920E-02 0.  1.
       -2   -1    0    0    0  501  0.00000000000E+00  0.00000000000E+00 -0.52232457749E+03  0.52232457750E+03  0.25500000920E-02 0. -1.
    10030    2    1    2    0    0  0.00000000000E+00  0.00000000000E+00  0.14062849115E+04  0.24509340665E+04  0.20073466432E+04 0.  0.
        4    1    3    3  502    0 -0.58326447739E+03  0.96887120240E+02 -0.28711378973E+03  0.65728266812E+03  0.12699999809E+01 0. -1.
       -4    1    3    3    0  502  0.58326447739E+03 -0.96887120240E+02  0.16933987012E+04  0.17936513983E+04  0.12699999809E+01 0.  1.
</event>
<event>
 5   0  0.3549426E-05  0.1992348E+04  0.7818609E-02  0.8610206E-01
       -1   -1    0    0    0  501  0.00000000000E+00  0.00000000000E+00  0.73928326054E+03  0.73928326056E+03  0.50400001928E-02 0. -1.
        1   -1    0    0  501    0  0.00000000000E+00  0.00000000000E+00 -0.13423311900E+04  0.13423311900E+04  0.50400001928E-02 0.  1.
    10030    2    1    2    0    0  0.00000000000E+00  0.00000000000E+00 -0.60304792943E+03  0.20816144505E+04  0.19923483419E+04 0.  0.
        5    1    3    3  502    0  0.21622747536E+03  0.87949773242E+03  0.13187511766E+03  0.91525063184E+03  0.46999998093E+01 0.  1.
       -5    1    3    3    0  502 -0.21622747536E+03 -0.87949773242E+03 -0.73492304709E+03  0.11663638187E+04  0.46999998093E+01 0. -1.
</event>
<event>
 5   0  0.2859625E-05  0.1999456E+04  0.7818609E-02  0.8606875E-01
       -4   -1    0    0    0  501  0.00000000000E+00  0.00000000000E+00  0.90463509034E+03  0.90463598181E+03  0.12699999809E+01 0. -1.
        4   -1    0    0  501    0  0.00000000000E+00  0.00000000000E+00 -0.11048146407E+04  0.11048153706E+04  0.12699999809E+01 0.  1.
    10030    2    1    2    0    0  0.00000000000E+00  0.00000000000E+00 -0.20017955035E+03  0.20094513524E+04  0.19994556473E+04 0.  0.
        5    1    3    3  502    0 -0.58707287885E+03  0.62510068442E+03 -0.61649529974E+03  0.10561694823E+04  0.46999998093E+01 0.  1.
       -5    1    3    3    0  502  0.58707287885E+03 -0.62510068442E+03  0.41631574940E+03  0.95328187014E+03  0.46999998093E+01 0. -1.
</event>
<event>
 5   0  0.7843846E-05  0.2018376E+04  0.7818609E-02  0.8598077E-01
        2   -1    0    0  501    0  0.00000000000E+00  0.00000000000E+00  0.89755610184E+03  0.89755610185E+03  0.25500000920E-02 0. -1.
       -2   -1    0    0    0  501  0.00000000000E+00  0.00000000000E+00 -0.11347036974E+04  0.11347036974E+04  0.25500000920E-02 0.  1.
    10030    2    1    2    0    0  0.00000000000E+00  0.00000000000E+00 -0.23714759555E+03  0.20322597992E+04  0.20183758098E+04 0.  0.
        2    1    3    3  502    0 -0.85536979468E+03  0.49290426736E+03  0.92266056356E+02  0.99152666510E+03  0.25500000920E-02 0. -1.
       -2    1    3    3    0  502  0.85536979468E+03 -0.49290426736E+03 -0.32941365191E+03  0.10407331341E+04  0.25500000920E-02 0.  1.
</event>
<event>
 5   0  0.7935008E-05  0.1847791E+04  0.7818609E-02  0.8681290E-01
        2   -1    0    0  501    0  0.00000000000E+00  0.00000000000E+00  0.11570727011E+04  0.11570727011E+04  0.25500000920E-02 0.  1.
       -2   -1    0    0    0  501  0.00000000000E+00  0.00000000000E+00 -0.73770857545E+03  0.73770857546E+03  0.25500000920E-02 0. -1.
    10030    2    1    2    0    0  0.00000000000E+00  0.00000000000E+00  0.41936412565E+03  0.18947812766E+04  0.18477905228E+04 0.  0.
        3    1    3    3  502    0  0.72244916115E+03 -0.57286476159E+03  0.27013569332E+03  0.96077059100E+03  0.10100000352E+00 0. -1.
       -3    1    3    3    0  502 -0.72244916115E+03  0.57286476159E+03  0.14922843233E+03  0.93401068556E+03  0.10100000352E+00 0.  1.
</event>
<event>
 5   0  0.8011197E-05  0.1988101E+04  0.7818609E-02  0.8612204E-01
        2   -1    0    0  501    0  0.00000000000E+00  0.00000000000E+00  0.57192898397E+03  0.57192898397E+03  0.25500000920E-02 0. -1.
       -2   -1    0    0    0  501  0.00000000000E+00  0.00000000000E+00 -0.17277253799E+04  0.17277253799E+04  0.25500000920E-02 0.  1.
    10030    2    1    2    0    0  0.00000000000E+00  0.00000000000E+00 -0.11557963960E+04  0.22996543639E+04  0.19881008235E+04 0.  0.
        5    1    3    3  502    0  0.35658474456E+03  0.83563746693E+03 -0.10444285071E+04  0.13843033095E+04  0.46999998093E+01 0.  1.
       -5    1    3    3    0  502 -0.35658474456E+03 -0.83563746693E+03 -0.11136788886E+03  0.91535105443E+03  0.46999998093E+01 0. -1.
</event>
<event>
 5   0  0.3772949E-05  0.1992513E+04  0.7818609E-02  0.8610129E-01
       -1   -1    0    0    0  501  0.00000000000E+00  0.00000000000E+00  0.49294770190E+03  0.49294770192E+03  0.50400001928E-02 0.  1.
        1   -1    0    0  501    0  0.00000000000E+00  0.00000000000E+00 -0.20134522082E+04  0.20134522082E+04  0.50400001928E-02 0. -1.
    10030    2    1    2    0    0  0.00000000000E+00  0.00000000000E+00 -0.15205045063E+04  0.25063999101E+04  0.19925126237E+04 0.  0.
        2    1    3    3  502    0  0.77480050582E+03  0.18202329848E+03 -0.64735110064E+01  0.79592098312E+03  0.25500000920E-02 0.  1.
       -2    1    3    3    0  502 -0.77480050582E+03 -0.18202329848E+03 -0.15140309952E+04  0.17104789270E+04  0.25500000920E-02 0. -1.
</event>
<event>
 5   0  0.7843846E-05  0.2003174E+04  0.7818609E-02  0.8605138E-01
       -2   -1    0    0    0  501  0.00000000000E+00  0.00000000000E+00  0.13510903620E+04  0.13510903620E+04  0.25500000920E-02 0. -1.
        2   -1    0    0  501    0  0.00000000000E+00  0.00000000000E+00 -0.74249419205E+03  0.74249419205E+03  0.25500000920E-02 0.  1.
    10030    2    1    2    0    0  0.00000000000E+00  0.00000000000E+00  0.60859616999E+03  0.20935845541E+04  0.20031742278E+04 0.  0.
        2    1    3    3  502    0 -0.19983424384E+03  0.17977562697E+03  0.13126887941E+04  0.13399271887E+04  0.25500000920E-02 0. -1.
       -2    1    3    3    0  502  0.19983424384E+03 -0.17977562697E+03 -0.70409262407E+03  0.75365736535E+03  0.25500000920E-02 0.  1.
</event>
<event>
 5   0  0.3772949E-05  0.1996473E+04  0.7818609E-02  0.8608271E-01
       -1   -1    0    0    0  501  0.00000000000E+00  0.00000000000E+00  0.10385334428E+04  0.10385334428E+04  0.50400001928E-02 0. -1.
        1   -1    0    0  501    0  0.00000000000E+00  0.00000000000E+00 -0.95950359142E+03  0.95950359143E+03  0.50400001928E-02 0.  1.
    10030    2    1    2    0    0  0.00000000000E+00  0.00000000000E+00  0.79029851369E+02  0.19980370342E+04  0.19964734591E+04 0.  0.
        2    1    3    3  502    0  0.20073015620E+03  0.23583504548E+03  0.98923959412E+03  0.10365836864E+04  0.25500000920E-02 0. -1.
       -2    1    3    3    0  502 -0.20073015620E+03 -0.23583504548E+03 -0.91020974275E+03  0.96145334785E+03  0.25500000920E-02 0.  1.
</event>
<event>
 5   0  0.8011197E-05  0.2003388E+04  0.7818609E-02  0.8605038E-01
       -2   -1    0    0    0  501  0.00000000000E+00  0.00000000000E+00  0.71418894994E+03  0.71418894994E+03  0.25500000920E-02 0. -1.
        2   -1    0    0  501    0  0.00000000000E+00  0.00000000000E+00 -0.14049375154E+04  0.14049375154E+04  0.25500000920E-02 0.  1.
    10030    2    1    2    0    0  0.00000000000E+00  0.00000000000E+00 -0.69074856542E+03  0.21191264653E+04  0.20033879792E+04 0.  0.
        5    1    3    3  502    0  0.18980470963E+03 -0.64356118502E+02  0.69275232883E+03  0.72117641177E+03  0.46999998093E+01 0. -1.
       -5    1    3    3    0  502 -0.18980470963E+03  0.64356118502E+02 -0.13835008943E+04  0.13979500535E+04  0.46999998093E+01 0.  1.
</event>
<event>
 5   0  0.3818907E-05  0.1996397E+04  0.7818609E-02  0.8608307E-01
       -1   -1    0    0    0  501  0.00000000000E+00  0.00000000000E+00  0.10996657312E+04  0.10996657313E+04  0.50400001928E-02 0. -1.
        1   -1    0    0  501    0  0.00000000000E+00  0.00000000000E+00 -0.90609404659E+03  0.90609404660E+03  0.50400001928E-02 0.  1.
    10030    2    1    2    0    0  0.00000000000E+00  0.00000000000E+00  0.19357168465E+03  0.20057597779E+04  0.19963973275E+04 0.  0.
        1    1    3    3  502    0  0.32940849503E+03  0.32859920565E+03 -0.79048266591E+03  0.91725145935E+03  0.50400001928E-02 0.  1.
       -1    1    3    3    0  502 -0.32940849503E+03 -0.32859920565E+03  0.98405435057E+03  0.10885083185E+04  0.50400001928E-02 0. -1.
</event>
<event>
 5   0  0.3772949E-05  0.1942980E+04  0.7818609E-02  0.8633754E-01
        1   -1    0    0  501    0  0.00000000000E+00  0.00000000000E+00  0.26286225523E+04  0.26286225523E+04  0.50400001928E-02 0. -1.
       -1   -1    0    0    0  501  0.00000000000E+00  0.00000000000E+00 -0.35904448384E+03  0.35904448387E+03  0.50400001928E-02 0.  1.
    10030    2    1    2    0    0  0.00000000000E+00  0.00000000000E+00  0.22695780685E+04  0.29876670362E+04  0.19429795959E+04 0.  0.
        2    1    3    3  502    0 -0.40815096885E+03 -0.26250333037E+03  0.24289006125E+04  0.24769039944E+04  0.25500000920E-02 0. -1.
       -2    1    3    3    0  502  0.40815096885E+03  0.26250333037E+03 -0.15932254405E+03  0.51076304181E+03  0.25500000920E-02 0.  1.
</event>
<event>
 5   0  0.3818907E-05  0.2021432E+04  0.7818609E-02  0.8596665E-01
        1   -1    0    0  501    0  0.00000000000E+00  0.00000000000E+00  0.11128415286E+04  0.11128415286E+04  0.50400001928E-02 0. -1.
       -1   -1    0    0    0  501  0.00000000000E+00  0.00000000000E+00 -0.91796278338E+03  0.91796278339E+03  0.50400001928E-02 0.  1.
    10030    2    1    2    0    0  0.00000000000E+00  0.00000000000E+00  0.19487874522E+03  0.20308043120E+04  0.20214322715E+04 0.  0.
        1    1    3    3  502    0 -0.79418519918E+03  0.55671360941E+03  0.38316425844E+03  0.10428207049E+04  0.50400001928E-02 0. -1.
       -1    1    3    3    0  502  0.79418519918E+03 -0.55671360941E+03 -0.18828551322E+03  0.98798360716E+03  0.50400001928E-02 0.  1.
</event>
<event>
 5   0  0.8011197E-05  0.1998082E+04  0.7818609E-02  0.8607518E-01
       -2   -1    0    0    0  501  0.00000000000E+00  0.00000000000E+00  0.66840668252E+03  0.66840668252E+03  0.25500000920E-02 0. -1.
        2   -1    0    0  501    0  0.00000000000E+00  0.00000000000E+00 -0.14932277506E+04  0.14932277506E+04  0.25500000920E-02 0.  1.
    10030    2    1    2    0    0  0.00000000000E+00  0.00000000000E+00 -0.82482106809E+03  0.21616344331E+04  0.19980824878E+04 0.  0.
        5    1    3    3  502    0  0.93541575537E+03 -0.62189020086E+02 -0.78591082621E+03  0.12233347973E+04  0.46999998093E+01 0.  1.
       -5    1    3    3    0  502 -0.93541575537E+03  0.62189020086E+02 -0.38910241879E+02  0.93829963580E+03  0.46999998093E+01 0. -1.
</event>
<event>
 5   0  0.3549426E-05  0.1903104E+04  0.7818609E-02  0.8653313E-01
        1   -1    0    0  501    0  0.00000000000E+00  0.00000000000E+00  0.30732376700E+04  0.30732376700E+04  0.50400001928E-02 0. -1.
       -1   -1    0    0    0  501  0.00000000000E+00  0.00000000000E+00 -0.29462438439E+03  0.29462438443E+03  0.50400001928E-02 0.  1.
    10030    2    1    2    0    0  0.00000000000E+00  0.00000000000E+00  0.27786132856E+04  0.33678620545E+04  0.19031035250E+04 0.  0.
        5    1    3    3  502    0 -0.47057732891E+03 -0.54583898353E+03  0.24888468101E+04  0.25910931578E+04  0.46999998093E+01 0. -1.
       -5    1    3    3    0  502  0.47057732891E+03  0.54583898353E+03  0.28976647554E+03  0.77676889663E+03  0.46999998093E+01 0.  1.
</event>
<event>
 5   0  0.3970042E-05  0.2003462E+04  0.7818609E-02  0.8605004E-01
        1   -1    0    0  501    0  0.00000000000E+00  0.00000000000E+00  0.19740184479E+04  0.19740184479E+04  0.50400001928E-02 0. -1.
       -1   -1    0    0    0  501  0.00000000000E+00  0.00000000000E+00 -0.50833599994E+03  0.50833599996E+03  0.50400001928E-02 0.  1.
    10030    2    1    2    0    0  0.00000000000E+00  0.00000000000E+00  0.14656824480E+04  0.24823544479E+04  0.20034616459E+04 0.  0.
        3    1    3    3  502    0 -0.39525167616E+03  0.64638451884E+03 -0.79106067322E+02  0.76177070946E+03  0.10100000352E+00 0.  1.
       -3    1    3    3    0  502  0.39525167616E+03 -0.64638451884E+03  0.15447885153E+04  0.17205837384E+04  0.10100000352E+00 0. -1.
</event>
<event>
 5   0  0.8022574E-05  0.1974565E+04  0.7818609E-02  0.8618606E-01
       -2   -1    0    0    0  501  0.00000000000E+00  0.00000000000E+00  0.23487528772E+04  0.23487528772E+04  0.25500000920E-02 0. -1.
        2   -1    0    0  501    0  0.00000000000E+00  0.00000000000E+00 -0.41499751472E+03  0.41499751473E+03  0.25500000920E-02 0.  1.
    10030    2    1    2    0    0  0.00000000000E+00  0.00000000000E+00  0.19337553625E+04  0.27637503919E+04  0.19745648703E+04 0.  0.
        1    1    3    3  502    0  0.79101203990E+03 -0.12425346667E+03  0.15846636628E+03  0.81624172922E+03  0.50400001928E-02 0.  1.
       -1    1    3    3    0  502 -0.79101203990E+03  0.12425346667E+03  0.17752889962E+04  0.19475086627E+04  0.50400001928E-02 0. -1.
</event>
<event>
 5   0  0.3818907E-05  0.1999496E+04  0.7818609E-02  0.8606856E-01
        1   -1    0    0  501    0  0.00000000000E+00  0.00000000000E+00  0.90574622793E+03  0.90574622794E+03  0.50400001928E-02 0.  1.
       -1   -1    0    0    0  501  0.00000000000E+00  0.00000000000E+00 -0.11035060441E+04  0.11035060441E+04  0.50400001928E-02 0. -1.
    10030    2    1    2    0    0  0.00000000000E+00  0.00000000000E+00 -0.19775981613E+03  0.20092522720E+04  0.19994963735E+04 0.  0.
        1    1    3    3  502    0  0.10059725659E+03  0.94395369964E+03 -0.41398291131E+03  0.10356400176E+04  0.50400001928E-02 0.  1.
       -1    1    3    3    0  502 -0.10059725659E+03 -0.94395369964E+03  0.21622309518E+03  0.97361225445E+03  0.50400001928E-02 0. -1.
</event>
<event>
 5   0  0.7935008E-05  0.1992628E+04  0.7818609E-02  0.8610075E-01
        2   -1    0    0  501    0  0.00000000000E+00  0.00000000000E+00  0.13410749419E+04  0.13410749419E+04  0.25500000920E-02 0. -1.
       -2   -1    0    0    0  501  0.00000000000E+00  0.00000000000E+00 -0.74018384093E+03  0.74018384094E+03  0.25500000920E-02 0.  1.
    10030    2    1    2    0    0  0.00000000000E+00  0.00000000000E+00  0.60089110092E+03  0.20812587828E+04  0.19926284164E+04 0.  0.
        3    1    3    3  502    0  0.88247562671E+03  0.37854033957E+03  0.57794297724E+03  0.11207471238E+04  0.10100000352E+00 0.  1.
       -3    1    3    3    0  502 -0.88247562671E+03 -0.37854033957E+03  0.22948123675E+02  0.96051165896E+03  0.10100000352E+00 0. -1.
</event>
<event>
 5   0  0.3818907E-05  0.1994820E+04  0.7818609E-02  0.8609046E-01
        1   -1    0    0  501    0  0.00000000000E+00  0.00000000000E+00  0.76523243400E+03  0.76523243402E+03  0.50400001928E-02 0.  1.
       -1   -1    0    0    0  501  0.00000000000E+00  0.00000000000E+00 -0.13000317634E+04  0.13000317634E+04  0.50400001928E-02 0. -1.
    10030    2    1    2    0    0  0.00000000000E+00  0.00000000000E+00 -0.53479932937E+03  0.20652641974E+04  0.19948197619E+04 0.  0.
        1    1    3    3  502    0 -0.53593987813E+03  0.81567017034E+03 -0.48027458667E+03  0.10877559737E+04  0.50400001928E-02 0.  1.
       -1    1    3    3    0  502  0.53593987813E+03 -0.81567017034E+03 -0.54524742699E+02  0.97750822367E+03  0.50400001928E-02 0. -1.
</event>
<event>
 5   0  0.3818907E-05  0.2013036E+04  0.7818609E-02  0.8600550E-01
       -1   -1    0    0    0  501  0.00000000000E+00  0.00000000000E+00  0.55702920628E+03  0.55702920630E+03  0.50400001928E-02 0.  1.
        1   -1    0    0  501    0  0.00000000000E+00  0.00000000000E+00 -0.18187175601E+04  0.18187175601E+04  0.50400001928E-02 0. -1.
    10030    2    1    2    0    0  0.00000000000E+00  0.00000000000E+00 -0.12616883538E+04  0.23757467664E+04  0.20130363126E+04 0.  0.
        1    1    3    3  502    0  0.77867259213E+03  0.55637420804E+03 -0.99877967685E+03  0.13832729695E+04  0.50400001928E-02 0.  1.
       -1    1    3    3    0  502 -0.77867259213E+03 -0.55637420804E+03 -0.26290867693E+03  0.99247379691E+03  0.50400001928E-02 0. -1.
</event>
<event>
 5   0  0.8022574E-05  0.1856992E+04  0.7818609E-02  0.8676566E-01
        2   -1    0    0  501    0  0.00000000000E+00  0.00000000000E+00  0.27303079978E+03  0.27303079979E+03  0.25500000920E-02 0. -1.
       -2   -1    0    0    0  501  0.00000000000E+00  0.00000000000E+00 -0.31575353665E+04  0.31575353665E+04  0.25500000920E-02 0.  1.
    10030    2    1    2    0    0  0.00000000000E+00  0.00000000000E+00 -0.28845045668E+04  0.34305661663E+04  0.18569915525E+04 0.  0.
        1    1    3    3  502    0  0.88853269301E+03 -0.25865629622E+03 -0.15818605722E+04  0.18326691726E+04  0.50400001928E-02 0.  1.
       -1    1    3    3    0  502 -0.88853269301E+03  0.25865629622E+03 -0.13026439946E+04  0.15978969938E+04  0.50400001928E-02 0. -1.
</event>
<event>
 5   0  0.3818907E-05  0.1983646E+04  0.7818609E-02  0.8614305E-01
        1   -1    0    0  501    0  0.00000000000E+00  0.00000000000E+00  0.15804528379E+04  0.15804528379E+04  0.50400001928E-02 0.  1.
       -1   -1    0    0    0  501  0.00000000000E+00  0.00000000000E+00 -0.62242483165E+03  0.62242483167E+03  0.50400001928E-02 0. -1.
    10030    2    1    2    0    0  0.00000000000E+00  0.00000000000E+00  0.95802800628E+03  0.22028776696E+04  0.19836462302E+04 0.  0.
        1    1    3    3  502    0 -0.21097475601E+03  0.45278295132E+03  0.14305615483E+04  0.15152653537E+04  0.50400001928E-02 0.  1.
       -1    1    3    3    0  502  0.21097475601E+03 -0.45278295132E+03 -0.47253354198E+03  0.68761231592E+03  0.50400001928E-02 0. -1.
</event>
<event>
 5   0  0.3818907E-05  0.2002331E+04  0.7818609E-02  0.8605532E-01
        1   -1    0    0  501    0  0.00000000000E+00  0.00000000000E+00  0.34415044739E+03  0.34415044742E+03  0.50400001928E-02 0. -1.
       -1   -1    0    0    0  501  0.00000000000E+00  0.00000000000E+00 -0.29124838084E+04  0.29124838084E+04  0.50400001928E-02 0.  1.
    10030    2    1    2    0    0  0.00000000000E+00  0.00000000000E+00 -0.25683333610E+04  0.32566342558E+04  0.20023312471E+04 0.  0.
        1    1    3    3  502    0 -0.60829292877E+03  0.42762400605E+03 -0.23745363642E+04  0.24882334140E+04  0.50400001928E-02 0.  1.
       -1    1    3    3    0  502  0.60829292877E+03 -0.42762400605E+03 -0.19379699687E+03  0.76840084186E+03  0.50400001928E-02 0. -1.
</event>
<event>
 5   0  0.7935008E-05  0.1964113E+04  0.7818609E-02  0.8623585E-01
        2   -1    0    0  501    0  0.00000000000E+00  0.00000000000E+00  0.12709776743E+04  0.12709776743E+04  0.25500000920E-02 0.  1.
       -2   -1    0    0    0  501  0.00000000000E+00  0.00000000000E+00 -0.75881310233E+03  0.75881310233E+03  0.25500000920E-02 0. -1.
    10030    2    1    2    0    0  0.00000000000E+00  0.00000000000E+00  0.51216457193E+03  0.20297907766E+04  0.19641125345E+04 0.  0.
        3    1    3    3  502    0  0.33312240509E+03 -0.16472598455E+03  0.11955059322E+04  0.12519343556E+04  0.10100000352E+00 0.  1.
       -3    1    3    3    0  502 -0.33312240509E+03  0.16472598455E+03 -0.68334136026E+03  0.77785642094E+03  0.10100000352E+00 0. -1.
</event>
<event>
 5   0  0.8011197E-05  0.1995456E+04  0.7818609E-02  0.8608748E-01
        2   -1    0    0  501    0  0.00000000000E+00  0.00000000000E+00  0.11023554210E+04  0.11023554210E+04  0.25500000920E-02 0.  1.
       -2   -1    0    0    0  501  0.00000000000E+00  0.00000000000E+00 -0.90303139949E+03  0.90303139949E+03  0.25500000920E-02 0. -1.
    10030    2    1    2    0    0  0.00000000000E+00  0.00000000000E+00  0.19932402154E+03  0.20053868205E+04  0.19954563975E+04 0.  0.
        5    1    3    3  502    0  0.58937239668E+02 -0.26513165720E+02 -0.90091459582E+03  0.90324179771E+03  0.46999998093E+01 0. -1.
       -5    1    3    3    0  502 -0.58937239668E+02  0.26513165720E+02  0.11002386174E+04  0.11021450228E+04  0.46999998093E+01 0.  1.
</event>
<event>
 5   0  0.7843846E-05  0.2012904E+04  0.7818609E-02  0.8600611E-01
        2   -1    0    0  501    0  0.00000000000E+00  0.00000000000E+00  0.95651212707E+03  0.95651212707E+03  0.25500000920E-02 0.  1.
       -2   -1    0    0    0  501  0.00000000000E+00  0.00000000000E+00 -0.10589993328E+04  0.10589993328E+04  0.25500000920E-02 0. -1.
    10030    2    1    2    0    0  0.00000000000E+00  0.00000000000E+00 -0.10248720572E+03  0.20155114599E+04  0.20129040756E+04 0.  0.
        2    1    3    3  502    0  0.32757963343E+03  0.66777575988E+02 -0.10017772476E+04  0.10560896338E+04  0.25500000920E-02 0. -1.
       -2    1    3    3    0  502 -0.32757963343E+03 -0.66777575988E+02  0.89929004186E+03  0.95942182604E+03  0.25500000920E-02 0.  1.
</event>
<event>
 5   0  0.7843846E-05  0.2025519E+04  0.7818609E-02  0.8594782E-01
       -2   -1    0    0    0  501  0.00000000000E+00  0.00000000000E+00  0.67088736908E+03  0.67088736908E+03  0.25500000920E-02 0. -1.
        2   -1    0    0  501    0  0.00000000000E+00  0.00000000000E+00 -0.15288442166E+04  0.15288442166E+04  0.25500000920E-02 0.  1.
    10030    2    1    2    0    0  0.00000000000E+00  0.00000000000E+00 -0.85795684755E+03  0.21997315857E+04  0.20255194635E+04 0.  0.
        2    1    3    3  502    0  0.20719613542E+03  0.98842891772E+03 -0.51140290260E+03  0.11320136451E+04  0.25500000920E-02 0. -1.
       -2    1    3    3    0  502 -0.20719613542E+03 -0.98842891772E+03 -0.34655394495E+03  0.10677179406E+04  0.25500000920E-02 0.  1.
</event>
<event>
 5   0  0.7935008E-05  0.2002134E+04  0.7818609E-02  0.8605623E-01
        2   -1    0    0  501    0  0.00000000000E+00  0.00000000000E+00  0.19385426740E+04  0.19385426740E+04  0.25500000920E-02 0. -1.
       -2   -1    0    0    0  501  0.00000000000E+00  0.00000000000E+00 -0.51695302111E+03  0.51695302111E+03  0.25500000920E-02 0.  1.
    10030    2    1    2    0    0  0.00000000000E+00  0.00000000000E+00  0.14215896529E+04  0.24554956952E+04  0.20021343530E+04 0.  0.
        3    1    3    3  502    0 -0.72988756845E+03 -0.40665655436E+03  0.13870400747E+04  0.16192546418E+04  0.10100000352E+00 0. -1.
       -3    1    3    3    0  502  0.72988756845E+03  0.40665655436E+03  0.34549578190E+02  0.83624105337E+03  0.10100000352E+00 0.  1.
</event>
<event>
 5   0  0.3772949E-05  0.2001000E+04  0.7818609E-02  0.8606153E-01
        1   -1    0    0  501    0  0.00000000000E+00  0.00000000000E+00  0.13455297617E+04  0.13455297617E+04  0.50400001928E-02 0.  1.
       -1   -1    0    0    0  501  0.00000000000E+00  0.00000000000E+00 -0.74394510458E+03  0.74394510459E+03  0.50400001928E-02 0. -1.
    10030    2    1    2    0    0  0.00000000000E+00  0.00000000000E+00  0.60158465710E+03  0.20894748663E+04  0.20010000293E+04 0.  0.
        2    1    3    3  502    0  0.10648875259E+03  0.96900632173E+03  0.65699656222E+02  0.97705145761E+03  0.25500000920E-02 0. -1.
       -2    1    3    3    0  502 -0.10648875259E+03 -0.96900632173E+03  0.53588500087E+03  0.11124234087E+04  0.25500000920E-02 0.  1.
</event>
<event>
 5   0  0.8022574E-05  0.1999902E+04  0.7818609E-02  0.8606667E-01
        2   -1    0    0  501    0  0.00000000000E+00  0.00000000000E+00  0.13922413739E+04  0.13922413739E+04  0.25500000920E-02 0.  1.
       -2   -1    0    0    0  501  0.00000000000E+00  0.00000000000E+00 -0.71819569626E+03  0.71819569626E+03  0.25500000920E-02 0. -1.
    10030    2    1    2    0    0  0.00000000000E+00  0.00000000000E+00  0.67404567763E+03  0.21104370702E+04  0.19999017605E+04 0.  0.
        1    1    3    3  502    0  0.28063428919E+03 -0.95905235327E+03  0.37600707854E+03  0.10676695855E+04  0.50400001928E-02 0. -1.
       -1    1    3    3    0  502 -0.28063428919E+03  0.95905235327E+03  0.29803859909E+03  0.10427674847E+04  0.50400001928E-02 0.  1.
</event>
<event>
 5   0  0.3970042E-05  0.2003927E+04  0.7818609E-02  0.8604787E-01
        1   -1    0    0  501    0  0.00000000000E+00  0.00000000000E+00  0.16456122148E+04  0.16456122148E+04  0.50400001928E-02 0. -1.
       -1   -1    0    0    0  501  0.00000000000E+00  0.00000000000E+00 -0.61006555452E+03  0.61006555455E+03  0.50400001928E-02 0.  1.
    10030    2    1    2    0    0  0.00000000000E+00  0.00000000000E+00  0.10355466602E+04  0.22556777693E+04  0.20039274721E+04 0.  0.
        3    1    3    3  502    0 -0.64523372920E+03  0.16283398298E+03 -0.32538913578E+03  0.74075608077E+03  0.10100000352E+00 0.  1.
       -3    1    3    3    0  502  0.64523372920E+03 -0.16283398298E+03  0.13609357960E+04  0.15149216885E+04  0.10100000352E+00 0. -1.
</event>
<event>
 5   0  0.3970042E-05  0.2052944E+04  0.7818609E-02  0.8582260E-01
        1   -1    0    0  501    0  0.00000000000E+00  0.00000000000E+00  0.10384673955E+04  0.10384673955E+04  0.50400001928E-02 0. -1.
       -1   -1    0    0    0  501  0.00000000000E+00  0.00000000000E+00 -0.10146151380E+04  0.10146151380E+04  0.50400001928E-02 0.  1.
    10030    2    1    2    0    0  0.00000000000E+00  0.00000000000E+00  0.23852257446E+02  0.20530825335E+04  0.20529439737E+04 0.  0.
        3    1    3    3  502    0 -0.23507843821E+03 -0.99596690566E+03  0.92136157495E+02  0.10274731291E+04  0.10100000352E+00 0. -1.
       -3    1    3    3    0  502  0.23507843821E+03  0.99596690566E+03 -0.68283900050E+02  0.10256094044E+04  0.10100000352E+00 0.  1.
</event>
<event>
 5   0  0.3787698E-05  0.1974162E+04  0.7818609E-02  0.8618797E-01
        1   -1    0    0  501    0  0.00000000000E+00  0.00000000000E+00  0.18831378095E+04  0.18831378095E+04  0.50400001928E-02 0.  1.
       -1   -1    0    0    0  501  0.00000000000E+00  0.00000000000E+00 -0.51739639301E+03  0.51739639304E+03  0.50400001928E-02 0. -1.
    10030    2    1    2    0    0  0.00000000000E+00  0.00000000000E+00  0.13657414165E+04  0.24005342025E+04  0.19741618071E+04 0.  0.
        4    1    3    3  502    0  0.52566353299E+03  0.73659265361E+03  0.11622742649E+04  0.14730152637E+04  0.12699999809E+01 0.  1.
       -4    1    3    3    0  502 -0.52566353299E+03 -0.73659265361E+03  0.20346715159E+03  0.92751893886E+03  0.12699999809E+01 0. -1.
</event>
<event>
 5   0  0.7857136E-05  0.1998581E+04  0.7818609E-02  0.8607285E-01
       -2   -1    0    0    0  501  0.00000000000E+00  0.00000000000E+00  0.50622650703E+03  0.50622650703E+03  0.25500000920E-02 0. -1.
        2   -1    0    0  501    0  0.00000000000E+00  0.00000000000E+00 -0.19725973677E+04  0.19725973677E+04  0.25500000920E-02 0.  1.
    10030    2    1    2    0    0  0.00000000000E+00  0.00000000000E+00 -0.14663708606E+04  0.24788238747E+04  0.19985805715E+04 0.  0.
        4    1    3    3  502    0 -0.27334729869E+03  0.62917522792E+02 -0.19227686099E+04  0.19431207118E+04  0.12699999809E+01 0.  1.
       -4    1    3    3    0  502  0.27334729869E+03 -0.62917522792E+02  0.45639774925E+03  0.53570316295E+03  0.12699999809E+01 0. -1.
</event>
<event>
 5   0  0.3970042E-05  0.1993631E+04  0.7818609E-02  0.8609604E-01
       -1   -1    0    0    0  501  0.00000000000E+00  0.00000000000E+00  0.42031722364E+03  0.42031722367E+03  0.50400001928E-02 0. -1.
        1   -1    0    0  501    0  0.00000000000E+00  0.00000000000E+00 -0.23640269360E+04  0.23640269361E+04  0.50400001928E-02 0.  1.
    10030    2    1    2    0    0  0.00000000000E+00  0.00000000000E+00 -0.19437097124E+04  0.27843441597E+04  0.19936310977E+04 0.  0.
        3    1    3    3  502    0 -0.20477474633E+03 -0.49863486461E+03  0.19920193346E+03  0.57467455610E+03  0.10100000352E+00 0. -1.
       -3    1    3    3    0  502  0.20477474633E+03  0.49863486461E+03 -0.21429116459E+04  0.22096696036E+04  0.10100000352E+00 0.  1.
</event>
<event>
 5   0  0.8011197E-05  0.1994460E+04  0.7818609E-02  0.8609215E-01
        2   -1    0    0  501    0  0.00000000000E+00  0.00000000000E+00  0.83556810405E+03  0.83556810405E+03  0.25500000920E-02 0. -1.
       -2   -1    0    0    0  501  0.00000000000E+00  0.00000000000E+00 -0.11901691339E+04  0.11901691339E+04  0.25500000920E-02 0.  1.
    10030    2    1    2    0    0  0.00000000000E+00  0.00000000000E+00 -0.35460102984E+03  0.20257372379E+04  0.19944596930E+04 0.  0.
        5    1    3    3  502    0  0.81447330494E+03 -0.93610619127E+02 -0.75393217866E+03  0.11138067752E+04  0.46999998093E+01 0.  1.
       -5    1    3    3    0  502 -0.81447330494E+03  0.93610619127E+02  0.39933114881E+03  0.91193046275E+03  0.46999998093E+01 0. -1.
</event>
<event>
 5   0  0.3970042E-05  0.1998692E+04  0.7818609E-02  0.8607232E-01
        1   -1    0    0  501    0  0.00000000000E+00  0.00000000000E+00  0.12063143355E+04  0.12063143356E+04  0.50400001928E-02 0.  1.
       -1   -1    0    0    0  501  0.00000000000E+00  0.00000000000E+00 -0.82788749964E+03  0.82788749965E+03  0.50400001928E-02 0. -1.
    10030    2    1    2    0    0  0.00000000000E+00  0.00000000000E+00  0.37842683591E+03  0.20342018352E+04  0.19986921314E+04 0.  0.
        3    1    3    3  502    0  0.51943204944E+03 -0.40233178418E+03  0.95559361776E+03  0.11596722343E+04  0.10100000352E+00 0.  1.
       -3    1    3    3    0  502 -0.51943204944E+03  0.40233178418E+03 -0.57716678186E+03  0.87452960089E+03  0.10100000352E+00 0. -1.
</event>
<event>
 5   0  0.8022574E-05  0.2005309E+04  0.7818609E-02  0.8604143E-01
        2   -1    0    0  501    0  0.00000000000E+00  0.00000000000E+00  0.17238539341E+04  0.17238539341E+04  0.25500000920E-02 0.  1.
       -2   -1    0    0    0  501  0.00000000000E+00  0.00000000000E+00 -0.58317921651E+03  0.58317921652E+03  0.25500000920E-02 0. -1.
    10030    2    1    2    0    0  0.00000000000E+00  0.00000000000E+00  0.11406747176E+04  0.23070331506E+04  0.20053087410E+04 0.  0.
        1    1    3    3  502    0  0.70418634236E+03 -0.35191302563E+03 -0.14405707530E+03  0.80029595984E+03  0.50400001928E-02 0. -1.
       -1    1    3    3    0  502 -0.70418634236E+03  0.35191302563E+03  0.12847317929E+04  0.15067371907E+04  0.50400001928E-02 0.  1.
</event>
<event>
 5   0  0.3970042E-05  0.2006508E+04  0.7818609E-02  0.8603584E-01
        1   -1    0    0  501    0  0.00000000000E+00  0.00000000000E+00  0.13201495977E+04  0.13201495977E+04  0.50400001928E-02 0. -1.
       -1   -1    0    0    0  501  0.00000000000E+00  0.00000000000E+00 -0.76242764709E+03  0.76242764711E+03  0.50400001928E-02 0.  1.
    10030    2    1    2    0    0  0.00000000000E+00  0.00000000000E+00  0.55772195057E+03  0.20825772448E+04  0.20065079632E+04 0.  0.
        3    1    3    3  502    0 -0.64022444168E+03  0.99042980772E+02  0.10739455198E+04  0.12542152277E+04  0.10100000352E+00 0. -1.
       -3    1    3    3    0  502  0.64022444168E+03 -0.99042980772E+02 -0.51622356919E+03  0.82836201709E+03  0.10100000352E+00 0.  1.
</event>
<event>
 5   0  0.8011197E-05  0.1988427E+04  0.7818609E-02  0.8612051E-01
        2   -1    0    0  501    0  0.00000000000E+00  0.00000000000E+00  0.32596077405E+04  0.32596077405E+04  0.25500000920E-02 0.  1.
       -2   -1    0    0    0  501  0.00000000000E+00  0.00000000000E+00 -0.30324516970E+03  0.30324516971E+03  0.25500000920E-02 0. -1.
    10030    2    1    2    0    0  0.00000000000E+00  0.00000000000E+00  0.29563625708E+04  0.35628529102E+04  0.19884268178E+04 0.  0.
        5    1    3    3  502    0  0.83784366608E+03 -0.41098067804E+03  0.20925111157E+04  0.22911813516E+04  0.46999998093E+01 0.  1.
       -5    1    3    3    0  502 -0.83784366608E+03  0.41098067804E+03  0.86385145507E+03  0.12716715586E+04  0.46999998093E+01 0. -1.
</event>
<event>
 5   0  0.7935008E-05  0.1814991E+04  0.7818609E-02  0.8698368E-01
       -2   -1    0    0    0  501  0.00000000000E+00  0.00000000000E+00  0.57082540530E+03  0.57082540530E+03  0.25500000920E-02 0. -1.
        2   -1    0    0  501    0  0.00000000000E+00  0.00000000000E+00 -0.14427324497E+04  0.14427324497E+04  0.25500000920E-02 0.  1.
    10030    2    1    2    0    0  0.00000000000E+00  0.00000000000E+00 -0.87190704445E+03  0.20135578550E+04  0.18149912786E+04 0.  0.
        3    1    3    3  502    0  0.46937734815E+03  0.71321541078E+03 -0.77709649607E+03  0.11545000180E+04  0.10100000352E+00 0.  1.
       -3    1    3    3    0  502 -0.46937734815E+03 -0.71321541078E+03 -0.94810548372E+02  0.85905783706E+03  0.10100000352E+00 0. -1.
</event>
<event>
 5   0  0.7935008E-05  0.1886273E+04  0.7818609E-02  0.8661719E-01
       -2   -1    0    0    0  501  0.00000000000E+00  0.00000000000E+00  0.50738175243E+03  0.50738175243E+03  0.25500000920E-02 0. -1.
        2   -1    0    0  501    0  0.00000000000E+00  0.00000000000E+00 -0.17531312695E+04  0.17531312695E+04  0.25500000920E-02 0.  1.
    10030    2    1    2    0    0  0.00000000000E+00  0.00000000000E+00 -0.12457495171E+04  0.22605130219E+04  0.18862733797E+04 0.  0.
        3    1    3    3  502    0 -0.77106604522E+03 -0.66693351467E+02  0.23058092743E+02  0.77428840562E+03  0.10100000352E+00 0. -1.
       -3    1    3    3    0  502  0.77106604522E+03  0.66693351467E+02 -0.12688076098E+04  0.14862246163E+04  0.10100000352E+00 0.  1.
</event>
<event>
 5   0  0.3818907E-05  0.1996840E+04  0.7818609E-02  0.8608099E-01
        1   -1    0    0  501    0  0.00000000000E+00  0.00000000000E+00  0.85791782132E+03  0.85791782134E+03  0.50400001928E-02 0. -1.
       -1   -1    0    0    0  501  0.00000000000E+00  0.00000000000E+00 -0.11619327747E+04  0.11619327747E+04  0.50400001928E-02 0.  1.
    10030    2    1    2    0    0  0.00000000000E+00  0.00000000000E+00 -0.30401495341E+03  0.20198505961E+04  0.19968403388E+04 0.  0.
        1    1    3    3  502    0  0.76134377343E+03 -0.19384328950E+02 -0.80506525728E+03  0.11082193655E+04  0.50400001928E-02 0.  1.
       -1    1    3    3    0  502 -0.76134377343E+03  0.19384328950E+02  0.50105030387E+03  0.91163123059E+03  0.50400001928E-02 0. -1.
</event>
<event>
 5   0  0.3787698E-05  0.1974752E+04  0.7818609E-02  0.8618517E-01
       -1   -1    0    0    0  501  0.00000000000E+00  0.00000000000E+00  0.47274629548E+03  0.47274629551E+03  0.50400001928E-02 0.  1.
        1   -1    0    0  501    0  0.00000000000E+00  0.00000000000E+00 -0.20622287426E+04  0.20622287426E+04  0.50400001928E-02 0. -1.
    10030    2    1    2    0    0  0.00000000000E+00  0.00000000000E+00 -0.15894824471E+04  0.25349750381E+04  0.19747516285E+04 0.  0.
        4    1    3    3  502    0  0.79086664688E+03  0.40792544777E+03 -0.24554232651E+03  0.92312830695E+03  0.12699999809E+01 0.  1.
       -4    1    3    3    0  502 -0.79086664688E+03 -0.40792544777E+03 -0.13439401206E+04  0.16118467312E+04  0.12699999809E+01 0. -1.
</event>
<event>
 5   0  0.3818907E-05  0.2033141E+04  0.7818609E-02  0.8591281E-01
        1   -1    0    0  501    0  0.00000000000E+00  0.00000000000E+00  0.28116399479E+04  0.28116399479E+04  0.50400001928E-02 0. -1.
       -1   -1    0    0    0  501  0.00000000000E+00  0.00000000000E+00 -0.36754899774E+03  0.36754899777E+03  0.50400001928E-02 0.  1.
    10030    2    1    2    0    0  0.00000000000E+00  0.00000000000E+00  0.24440909501E+04  0.31791889457E+04  0.20331408657E+04 0.  0.
        1    1    3    3  502    0 -0.79212223050E+03 -0.59587588615E+03  0.86929792357E+03  0.13184098679E+04  0.50400001928E-02 0.  1.
       -1    1    3    3    0  502  0.79212223050E+03  0.59587588615E+03  0.15747930266E+04  0.18607790778E+04  0.50400001928E-02 0. -1.
</event>
<event>
 5   0  0.3549426E-05  0.2000662E+04  0.7818609E-02  0.8606311E-01
       -1   -1    0    0    0  501  0.00000000000E+00  0.00000000000E+00  0.70763125159E+03  0.70763125161E+03  0.50400001928E-02 0. -1.
        1   -1    0    0  501    0  0.00000000000E+00  0.00000000000E+00 -0.14141013711E+04  0.14141013711E+04  0.50400001928E-02 0.  1.
    10030    2    1    2    0    0  0.00000000000E+00  0.00000000000E+00 -0.70647011947E+03  0.21217326227E+04  0.20006622135E+04 0.  0.
        5    1    3    3  502    0  0.62526410071E+03  0.50485043680E+03 -0.98494173665E+03  0.12712047332E+04  0.46999998093E+01 0.  1.
       -5    1    3    3    0  502 -0.62526410071E+03 -0.50485043680E+03  0.27847161719E+03  0.85052788946E+03  0.46999998093E+01 0. -1.
</event>
<event>
 5   0  0.3970042E-05  0.2001576E+04  0.7818609E-02  0.8605884E-01
        1   -1    0    0  501    0  0.00000000000E+00  0.00000000000E+00  0.18600060467E+04  0.18600060467E+04  0.50400001928E-02 0.  1.
       -1   -1    0    0    0  501  0.00000000000E+00  0.00000000000E+00 -0.53848016152E+03  0.53848016154E+03  0.50400001928E-02 0. -1.
    10030    2    1    2    0    0  0.00000000000E+00  0.00000000000E+00  0.13215258851E+04  0.23984862082E+04  0.20015757357E+04 0.  0.
        3    1    3    3  502    0  0.56793298792E+03 -0.82262756345E+03  0.60314034116E+03  0.11674940121E+04  0.10100000352E+00 0. -1.
       -3    1    3    3    0  502 -0.56793298792E+03  0.82262756345E+03  0.71838554398E+03  0.12309921961E+04  0.10100000352E+00 0.  1.
</event>
<event>
 5   0  0.3787698E-05  0.1983814E+04  0.7818609E-02  0.8614226E-01
       -1   -1    0    0    0  501  0.00000000000E+00  0.00000000000E+00  0.71208635618E+03  0.71208635619E+03  0.50400001928E-02 0. -1.
        1   -1    0    0  501    0  0.00000000000E+00  0.00000000000E+00 -0.13816850533E+04  0.13816850533E+04  0.50400001928E-02 0.  1.
    10030    2    1    2    0    0  0.00000000000E+00  0.00000000000E+00 -0.66959869711E+03  0.20937714095E+04  0.19838135749E+04 0.  0.
        4    1    3    3  502    0  0.74153975739E+03 -0.63931797201E+03 -0.16702693470E+03  0.99323123740E+03  0.12699999809E+01 0. -1.
       -4    1    3    3    0  502 -0.74153975739E+03  0.63931797201E+03 -0.50257176240E+03  0.11005401721E+04  0.12699999809E+01 0.  1.
</event>
<event>
 5   0  0.3772949E-05  0.2001517E+04  0.7818609E-02  0.8605912E-01
       -1   -1    0    0    0  501  0.00000000000E+00  0.00000000000E+00  0.13940517799E+04  0.13940517800E+04  0.50400001928E-02 0.  1.
        1   -1    0    0  501    0  0.00000000000E+00  0.00000000000E+00 -0.71842203624E+03  0.71842203626E+03  0.50400001928E-02 0. -1.
    10030    2    1    2    0    0  0.00000000000E+00  0.00000000000E+00  0.67562974371E+03  0.21124738162E+04  0.20015169431E+04 0.  0.
        2    1    3    3  502    0  0.55877863679E+01  0.98391046567E+03  0.14490809217E+03  0.99453978452E+03  0.25500000920E-02 0.  1.
       -2    1    3    3    0  502 -0.55877863679E+01 -0.98391046567E+03  0.53072165153E+03  0.11179340317E+04  0.25500000920E-02 0. -1.
</event>
<event>
 5   0  0.7843846E-05  0.1786031E+04  0.7818609E-02  0.8713763E-01
        2   -1    0    0  501    0  0.00000000000E+00  0.00000000000E+00  0.74837305961E+03  0.74837305961E+03  0.25500000920E-02 0.  1.
       -2   -1    0    0    0  501  0.00000000000E+00  0.00000000000E+00 -0.10656142514E+04  0.10656142514E+04  0.25500000920E-02 0. -1.
    10030    2    1    2    0    0  0.00000000000E+00  0.00000000000E+00 -0.31724119181E+03  0.18139873110E+04  0.17860313521E+04 0.  0.
        2    1    3    3  502    0  0.61438432120E+03 -0.55707344312E+03  0.17773998292E+03  0.84816886096E+03  0.25500000920E-02 0.  1.
       -2    1    3    3    0  502 -0.61438432120E+03  0.55707344312E+03 -0.49498117474E+03  0.96581845008E+03  0.25500000920E-02 0. -1.
</event>
<event>
 5   0  0.3549426E-05  0.1988711E+04  0.7818609E-02  0.8611917E-01
        1   -1    0    0  501    0  0.00000000000E+00  0.00000000000E+00  0.91042969924E+03  0.91042969925E+03  0.50400001928E-02 0. -1.
       -1   -1    0    0    0  501  0.00000000000E+00  0.00000000000E+00 -0.10860175631E+04  0.10860175631E+04  0.50400001928E-02 0.  1.
    10030    2    1    2    0    0  0.00000000000E+00  0.00000000000E+00 -0.17558786382E+03  0.19964472623E+04  0.19887107817E+04 0.  0.
        5    1    3    3  502    0  0.64126706383E+03 -0.63404988705E+02  0.67243463303E+03  0.93136140432E+03  0.46999998093E+01 0. -1.
       -5    1    3    3    0  502 -0.64126706383E+03  0.63404988705E+02 -0.84802249685E+03  0.10650858580E+04  0.46999998093E+01 0.  1.
</event>
<event>
 5   0  0.3970042E-05  0.2004900E+04  0.7818609E-02  0.8604333E-01
       -1   -1    0    0    0  501  0.00000000000E+00  0.00000000000E+00  0.12310525930E+04  0.12310525931E+04  0.50400001928E-02 0. -1.
        1   -1    0    0  501    0  0.00000000000E+00  0.00000000000E+00 -0.81629819313E+03  0.81629819315E+03  0.50400001928E-02 0.  1.
    10030    2    1    2    0    0  0.00000000000E+00  0.00000000000E+00  0.41475439991E+03  0.20473507862E+04  0.20049000049E+04 0.  0.
        3    1    3    3  502    0  0.78699538665E+03  0.19667557655E+03  0.80879809933E+03  0.11455118492E+04  0.10100000352E+00 0. -1.
       -3    1    3    3    0  502 -0.78699538665E+03 -0.19667557655E+03 -0.39404369942E+03  0.90183893699E+03  0.10100000352E+00 0.  1.
</event>
<event>
 5   0  0.7843846E-05  0.2039145E+04  0.7818609E-02  0.8588534E-01
        2   -1    0    0  501    0  0.00000000000E+00  0.00000000000E+00  0.16855816637E+04  0.16855816637E+04  0.25500000920E-02 0. -1.
       -2   -1    0    0    0  501  0.00000000000E+00  0.00000000000E+00 -0.61671798148E+03  0.61671798149E+03  0.25500000920E-02 0.  1.
    10030    2    1    2    0    0  0.00000000000E+00  0.00000000000E+00  0.10688636822E+04  0.23022996452E+04  0.20391454301E+04 0.  0.
        2    1    3    3  502    0 -0.70631874303E+03 -0.63213229254E+03  0.95846704575E+03  0.13480120474E+04  0.25500000920E-02 0. -1.
       -2    1    3    3    0  502  0.70631874303E+03  0.63213229254E+03  0.11039663646E+03  0.95428759783E+03  0.25500000920E-02 0.  1.
</event>
<event>
 5   0  0.3772949E-05  0.1991036E+04  0.7818609E-02  0.8610823E-01
       -1   -1    0    0    0  501  0.00000000000E+00  0.00000000000E+00  0.44344214378E+03  0.44344214381E+03  0.50400001928E-02 0.  1.
        1   -1    0    0  501    0  0.00000000000E+00  0.00000000000E+00 -0.22349164139E+04  0.22349164140E+04  0.50400001928E-02 0. -1.
    10030    2    1    2    0    0  0.00000000000E+00  0.00000000000E+00 -0.17914742702E+04  0.26783585578E+04  0.19910360377E+04 0.  0.
        2    1    3    3  502    0 -0.86506916830E+03  0.15679811813E+03 -0.26747176189E+03  0.91895128228E+03  0.25500000920E-02 0.  1.
       -2    1    3    3    0  502  0.86506916830E+03 -0.15679811813E+03 -0.15240025083E+04  0.17594072755E+04  0.25500000920E-02 0. -1.
</event>
<event>
 5   0  0.3549426E-05  0.2013956E+04  0.7818609E-02  0.8600124E-01
        1   -1    0    0  501    0  0.00000000000E+00  0.00000000000E+00  0.15840223592E+04  0.15840223592E+04  0.50400001928E-02 0.  1.
       -1   -1    0    0    0  501  0.00000000000E+00  0.00000000000E+00 -0.64014535135E+03  0.64014535137E+03  0.50400001928E-02 0. -1.
    10030    2    1    2    0    0  0.00000000000E+00  0.00000000000E+00  0.94387700782E+03  0.22241677105E+04  0.20139558582E+04 0.  0.
        5    1    3    3  502    0  0.16061155730E+02 -0.93972579471E+03  0.72770655469E+02  0.94268774696E+03  0.46999998093E+01 0. -1.
       -5    1    3    3    0  502 -0.16061155730E+02  0.93972579471E+03  0.87110635236E+03  0.12814799636E+04  0.46999998093E+01 0.  1.
</event>
<event>
 5   0  0.8022574E-05  0.1974998E+04  0.7818609E-02  0.8618400E-01
       -2   -1    0    0    0  501  0.00000000000E+00  0.00000000000E+00  0.97836671862E+03  0.97836671862E+03  0.25500000920E-02 0. -1.
        2   -1    0    0  501    0  0.00000000000E+00  0.00000000000E+00 -0.99671683473E+03  0.99671683474E+03  0.25500000920E-02 0.  1.
    10030    2    1    2    0    0  0.00000000000E+00  0.00000000000E+00 -0.18350116116E+02  0.19750835534E+04  0.19749983078E+04 0.  0.
        1    1    3    3  502    0 -0.33506255792E+03  0.38786141539E+03 -0.85327972404E+03  0.99538418852E+03  0.50400001928E-02 0.  1.
       -1    1    3    3    0  502  0.33506255792E+03 -0.38786141539E+03  0.83492960792E+03  0.97969936484E+03  0.50400001928E-02 0. -1.
</event>
<event>
 5   0  0.7843846E-05  0.2012301E+04  0.7818609E-02  0.8600891E-01
       -2   -1    0    0    0  501  0.00000000000E+00  0.00000000000E+00  0.10088184319E+04  0.10088184319E+04  0.25500000920E-02 0.  1.
        2   -1    0    0  501    0  0.00000000000E+00  0.00000000000E+00 -0.10034895879E+04  0.10034895879E+04  0.25500000920E-02 0. -1.
    10030    2    1    2    0    0  0.00000000000E+00  0.00000000000E+00  0.53288440181E+01  0.20123080197E+04  0.20123009640E+04 0.  0.
        2    1    3    3  502    0  0.84257819860E+03 -0.36637177845E+03 -0.40742541079E+03  0.10050680406E+04  0.25500000920E-02 0. -1.
       -2    1    3    3    0  502 -0.84257819860E+03  0.36637177845E+03  0.41275425481E+03  0.10072399792E+04  0.25500000920E-02 0.  1.
</event>
<event>
 5   0  0.7857136E-05  0.2037886E+04  0.7818609E-02  0.8589110E-01
        2   -1    0    0  501    0  0.00000000000E+00  0.00000000000E+00  0.10572993611E+04  0.10572993611E+04  0.25500000920E-02 0. -1.
       -2   -1    0    0    0  501  0.00000000000E+00  0.00000000000E+00 -0.98197768251E+03  0.98197768252E+03  0.25500000920E-02 0.  1.
    10030    2    1    2    0    0  0.00000000000E+00  0.00000000000E+00  0.75321678625E+02  0.20392770437E+04  0.20378855477E+04 0.  0.
        4    1    3    3  502    0  0.98288022437E+03  0.26428203203E+03  0.86111205774E+02  0.10214280594E+04  0.12699999809E+01 0. -1.
       -4    1    3    3    0  502 -0.98288022437E+03 -0.26428203203E+03 -0.10789527149E+02  0.10178489842E+04  0.12699999809E+01 0.  1.
</event>
<event>
 5   0  0.8011197E-05  0.2001155E+04  0.7818609E-02  0.8606081E-01
       -2   -1    0    0    0  501  0.00000000000E+00  0.00000000000E+00  0.43328913323E+03  0.43328913324E+03  0.25500000920E-02 0.  1.
        2   -1    0    0  501    0  0.00000000000E+00  0.00000000000E+00 -0.23105949784E+04  0.23105949784E+04  0.25500000920E-02 0. -1.
    10030    2    1    2    0    0  0.00000000000E+00  0.00000000000E+00 -0.18773058451E+04  0.27438841116E+04  0.20011553617E+04 0.  0.
        5    1    3    3  502    0 -0.55635626075E+03  0.74574293063E+03 -0.43398628345E+03  0.10266601150E+04  0.46999998093E+01 0. -1.
       -5    1    3    3    0  502  0.55635626075E+03 -0.74574293063E+03 -0.14433195617E+04  0.17172239966E+04  0.46999998093E+01 0.  1.
</event>
<event>
 5   0  0.7857136E-05  0.1985533E+04  0.7818609E-02  0.8613414E-01
       -2   -1    0    0    0  501  0.00000000000E+00  0.00000000000E+00  0.12755305273E+04  0.12755305273E+04  0.25500000920E-02 0. -1.
        2   -1    0    0  501    0  0.00000000000E+00  0.00000000000E+00 -0.77268693064E+03  0.77268693064E+03  0.25500000920E-02 0.  1.
    10030    2    1    2    0    0  0.00000000000E+00  0.00000000000E+00  0.50284359667E+03  0.20482174579E+04  0.19855334478E+04 0.  0.
        4    1    3    3  502    0  0.79807468366E+03  0.13185369461E+03  0.84515803160E+03  0.11698727746E+04  0.12699999809E+01 0. -1.
       -4    1    3    3    0  502 -0.79807468366E+03 -0.13185369461E+03 -0.34231443493E+03  0.87834468334E+03  0.12699999809E+01 0.  1.
</event>
<event>
 5   0  0.8022574E-05  0.2001714E+04  0.7818609E-02  0.8605820E-01
        2   -1    0    0  501    0  0.00000000000E+00  0.00000000000E+00  0.14360728390E+04  0.14360728390E+04  0.25500000920E-02 0.  1.
       -2   -1    0    0    0  501  0.00000000000E+00  0.00000000000E+00 -0.69753756816E+03  0.69753756817E+03  0.25500000920E-02 0. -1.
    10030    2    1    2    0    0  0.00000000000E+00  0.00000000000E+00  0.73853527088E+03  0.21336104072E+04  0.20017140214E+04 0.  0.
        1    1    3    3  502    0 -0.93241293932E+03  0.95132572363E+02 -0.49661137872E+01  0.93726664191E+03  0.50400001928E-02 0. -1.
       -1    1    3    3    0  502  0.93241293932E+03 -0.95132572363E+02  0.74350138466E+03  0.11963437653E+04  0.50400001928E-02 0.  1.
</event>
<event>
 5   0  0.3772949E-05  0.2015864E+04  0.7818609E-02  0.8599239E-01
        1   -1    0    0  501    0  0.00000000000E+00  0.00000000000E+00  0.19374700457E+04  0.19374700457E+04  0.50400001928E-02 0. -1.
       -1   -1    0    0    0  501  0.00000000000E+00  0.00000000000E+00 -0.52435772624E+03  0.52435772627E+03  0.50400001928E-02 0.  1.
    10030    2    1    2    0    0  0.00000000000E+00  0.00000000000E+00  0.14131123195E+04  0.24618277720E+04  0.20158644675E+04 0.  0.
        2    1    3    3  502    0  0.13492592041E+03  0.90426633261E+03  0.12247144912E+04  0.15283416467E+04  0.25500000920E-02 0.  1.
       -2    1    3    3    0  502 -0.13492592041E+03 -0.90426633261E+03  0.18839782831E+03  0.93348612524E+03  0.25500000920E-02 0. -1.
</event>
<event>
 5   0  0.7843846E-05  0.1975203E+04  0.7818609E-02  0.8618302E-01
       -2   -1    0    0    0  501  0.00000000000E+00  0.00000000000E+00  0.48831214267E+03  0.48831214268E+03  0.25500000920E-02 0.  1.
        2   -1    0    0  501    0  0.00000000000E+00  0.00000000000E+00 -0.19974051064E+04  0.19974051064E+04  0.25500000920E-02 0. -1.
    10030    2    1    2    0    0  0.00000000000E+00  0.00000000000E+00 -0.15090929637E+04  0.24857172491E+04  0.19752034501E+04 0.  0.
        2    1    3    3  502    0  0.62209317749E+03 -0.68790877934E+03 -0.11815688838E+04  0.15021063336E+04  0.25500000920E-02 0.  1.
       -2    1    3    3    0  502 -0.62209317749E+03  0.68790877934E+03 -0.32752407991E+03  0.98361091550E+03  0.25500000920E-02 0. -1.
</event>
<event>
 5   0  0.7935008E-05  0.2005861E+04  0.7818609E-02  0.8603885E-01
       -2   -1    0    0    0  501  0.00000000000E+00  0.00000000000E+00  0.99251977567E+03  0.99251977567E+03  0.25500000920E-02 0. -1.
        2   -1    0    0  501    0  0.00000000000E+00  0.00000000000E+00 -0.10134503423E+04  0.10134503423E+04  0.25500000920E-02 0.  1.
    10030    2    1    2    0    0  0.00000000000E+00  0.00000000000E+00 -0.20930566633E+02  0.20059701180E+04  0.20058609188E+04 0.  0.
        3    1    3    3  502    0  0.10049446759E+03  0.34796036506E+03 -0.94576693620E+03  0.10127441244E+04  0.10100000352E+00 0.  1.
       -3    1    3    3    0  502 -0.10049446759E+03 -0.34796036506E+03  0.92483636956E+03  0.99322599359E+03  0.10100000352E+00 0. -1.
</event>
<event>
 5   0  0.8011197E-05  0.2000574E+04  0.7818609E-02  0.8606352E-01
        2   -1    0    0  501    0  0.00000000000E+00  0.00000000000E+00  0.11688069107E+04  0.11688069107E+04  0.25500000920E-02 0. -1.
       -2   -1    0    0    0  501  0.00000000000E+00  0.00000000000E+00 -0.85606421531E+03  0.85606421531E+03  0.25500000920E-02 0.  1.
    10030    2    1    2    0    0  0.00000000000E+00  0.00000000000E+00  0.31274269535E+03  0.20248711260E+04  0.20005736886E+04 0.  0.
        5    1    3    3  502    0 -0.38619035570E+02  0.50451354929E+03  0.10297103692E+04  0.11473233571E+04  0.46999998093E+01 0. -1.
       -5    1    3    3    0  502  0.38619035570E+02 -0.50451354929E+03 -0.71696767384E+03  0.87754776888E+03  0.46999998093E+01 0.  1.
</event>
<event>
 5   0  0.8022574E-05  0.1998412E+04  0.7818609E-02  0.8607363E-01
        2   -1    0    0  501    0  0.00000000000E+00  0.00000000000E+00  0.16744814756E+04  0.16744814756E+04  0.25500000920E-02 0.  1.
       -2   -1    0    0    0  501  0.00000000000E+00  0.00000000000E+00 -0.59625205452E+03  0.59625205453E+03  0.25500000920E-02 0. -1.
    10030    2    1    2    0    0  0.00000000000E+00  0.00000000000E+00  0.10782294211E+04  0.22707335301E+04  0.19984123900E+04 0.  0.
        1    1    3    3  502    0  0.37719784844E+03  0.77794126137E+02 -0.50852437666E+03  0.63790844532E+03  0.50400001928E-02 0. -1.
       -1    1    3    3    0  502 -0.37719784844E+03 -0.77794126137E+02  0.15867537977E+04  0.16328250848E+04  0.50400001928E-02 0.  1.
</event>
<event>
 5   0  0.3818907E-05  0.2002293E+04  0.7818609E-02  0.8605549E-01
       -1   -1    0    0    0  501  0.00000000000E+00  0.00000000000E+00  0.10085188887E+04  0.10085188887E+04  0.50400001928E-02 0.  1.
        1   -1    0    0  501    0  0.00000000000E+00  0.00000000000E+00 -0.99382800489E+03  0.99382800490E+03  0.50400001928E-02 0. -1.
    10030    2    1    2    0    0  0.00000000000E+00  0.00000000000E+00  0.14690883783E+02  0.20023468936E+04  0.20022930006E+04 0.  0.
        1    1    3    3  502    0  0.41138489957E+03 -0.24006966087E+03 -0.87325950924E+03  0.99471259576E+03  0.50400001928E-02 0. -1.
       -1    1    3    3    0  502 -0.41138489957E+03  0.24006966087E+03  0.88795039302E+03  0.10076342978E+04  0.50400001928E-02 0.  1.
</event>
<event>
 5   0  0.7843846E-05  0.2002290E+04  0.7818609E-02  0.8605551E-01
        2   -1    0    0  501    0  0.00000000000E+00  0.00000000000E+00  0.16508908844E+04  0.16508908844E+04  0.25500000920E-02 0.  1.
       -2   -1    0    0    0  501  0.00000000000E+00  0.00000000000E+00 -0.60712120158E+03  0.60712120159E+03  0.25500000920E-02 0. -1.
    10030    2    1    2    0    0  0.00000000000E+00  0.00000000000E+00  0.10437696828E+04  0.22580120860E+04  0.20022895469E+04 0.  0.
        2    1    3    3  502    0  0.39675517494E+03 -0.22582208224E+02 -0.51436579547E+03  0.64999753578E+03  0.25500000920E-02 0. -1.
       -2    1    3    3    0  502 -0.39675517494E+03  0.22582208224E+02  0.15581354783E+04  0.16080145502E+04  0.25500000920E-02 0.  1.
</event>
<event>
 5   0  0.3970042E-05  0.2053495E+04  0.7818609E-02  0.8582011E-01
        1   -1    0    0  501    0  0.00000000000E+00  0.00000000000E+00  0.13391856516E+04  0.13391856516E+04  0.50400001928E-02 0. -1.
       -1   -1    0    0    0  501  0.00000000000E+00  0.00000000000E+00 -0.78720231433E+03  0.78720231434E+03  0.50400001928E-02 0.  1.
    10030    2    1    2    0    0  0.00000000000E+00  0.00000000000E+00  0.55198333724E+03  0.21263879659E+04  0.20534946255E+04 0.  0.
        3    1    3    3  502    0 -0.37925748892E+03  0.93664626520E+03  0.87691788534E+02  0.10143137232E+04  0.10100000352E+00 0.  1.
       -3    1    3    3    0  502  0.37925748892E+03 -0.93664626520E+03  0.46429154870E+03  0.11120742428E+04  0.10100000352E+00 0. -1.
</event>
<event>
 5   0  0.8011197E-05  0.2002676E+04  0.7818609E-02  0.8605371E-01
        2   -1    0    0  501    0  0.00000000000E+00  0.00000000000E+00  0.84043504790E+03  0.84043504790E+03  0.25500000920E-02 0. -1.
       -2   -1    0    0    0  501  0.00000000000E+00  0.00000000000E+00 -0.11930462310E+04  0.11930462310E+04  0.25500000920E-02 0.  1.
    10030    2    1    2    0    0  0.00000000000E+00  0.00000000000E+00 -0.35261118306E+03  0.20334812789E+04  0.20026760759E+04 0.  0.
        5    1    3    3  502    0 -0.69375560415E+03 -0.67717205385E+03 -0.43075341212E+03  0.10608625834E+04  0.46999998093E+01 0.  1.
       -5    1    3    3    0  502  0.69375560415E+03  0.67717205385E+03  0.78142229064E+02  0.97261869546E+03  0.46999998093E+01 0. -1.
</event>
<event>
 5   0  0.3787698E-05  0.1994202E+04  0.7818609E-02  0.8609336E-01
        1   -1    0    0  501    0  0.00000000000E+00  0.00000000000E+00  0.18681669831E+04  0.18681669831E+04  0.50400001928E-02 0. -1.
       -1   -1    0    0    0  501  0.00000000000E+00  0.00000000000E+00 -0.53218483717E+03  0.53218483720E+03  0.50400001928E-02 0.  1.
    10030    2    1    2    0    0  0.00000000000E+00  0.00000000000E+00  0.13359821459E+04  0.24003518203E+04  0.19942017368E+04 0.  0.
        4    1    3    3  502    0 -0.47796232469E+03 -0.59784141069E+03  0.14371570512E+04  0.16282764934E+04  0.12699999809E+01 0. -1.
       -4    1    3    3    0  502  0.47796232469E+03  0.59784141069E+03 -0.10117490525E+03  0.77207532696E+03  0.12699999809E+01 0.  1.
</event>
<event>
 5   0  0.7857136E-05  0.2027304E+04  0.7818609E-02  0.8593960E-01
       -2   -1    0    0    0  501  0.00000000000E+00  0.00000000000E+00  0.75592176201E+03  0.75592176201E+03  0.25500000920E-02 0.  1.
        2   -1    0    0  501    0  0.00000000000E+00  0.00000000000E+00 -0.13592551488E+04  0.13592551488E+04  0.25500000920E-02 0. -1.
    10030    2    1    2    0    0  0.00000000000E+00  0.00000000000E+00 -0.60333338675E+03  0.21151769108E+04  0.20273041677E+04 0.  0.
        4    1    3    3  502    0 -0.32068135475E+03  0.60742441782E+03  0.47608915425E+03  0.83574125801E+03  0.12699999809E+01 0.  1.
       -4    1    3    3    0  502  0.32068135475E+03 -0.60742441782E+03 -0.10794225410E+04  0.12794356528E+04  0.12699999809E+01 0. -1.
</event>
<event>
 5   0  0.3818907E-05  0.1981560E+04  0.7818609E-02  0.8615291E-01
        1   -1    0    0  501    0  0.00000000000E+00  0.00000000000E+00  0.15843326654E+04  0.15843326654E+04  0.50400001928E-02 0. -1.
       -1   -1    0    0    0  501  0.00000000000E+00  0.00000000000E+00 -0.61959519129E+03  0.61959519131E+03  0.50400001928E-02 0.  1.
    10030    2    1    2    0    0  0.00000000000E+00  0.00000000000E+00  0.96473747408E+03  0.22039278567E+04  0.19815598915E+04 0.  0.
        1    1    3    3  502    0  0.30620216083E+03  0.39722111589E+03  0.14327141891E+04  0.15179638751E+04  0.50400001928E-02 0. -1.
       -1    1    3    3    0  502 -0.30620216083E+03 -0.39722111589E+03 -0.46797671507E+03  0.68596398162E+03  0.50400001928E-02 0.  1.
</event>
<event>
 5   0  0.8022574E-05  0.2011476E+04  0.7818609E-02  0.8601274E-01
        2   -1    0    0  501    0  0.00000000000E+00  0.00000000000E+00  0.19413129717E+04  0.19413129717E+04  0.25500000920E-02 0. -1.
       -2   -1    0    0    0  501  0.00000000000E+00  0.00000000000E+00 -0.52104396205E+03  0.52104396205E+03  0.25500000920E-02 0.  1.
    10030    2    1    2    0    0  0.00000000000E+00  0.00000000000E+00  0.14202690097E+04  0.24623569338E+04  0.20114764750E+04 0.  0.
        1    1    3    3  502    0  0.46360953438E+03 -0.71410893254E+02  0.17992023808E+04  0.18593446488E+04  0.50400001928E-02 0. -1.
       -1    1    3    3    0  502 -0.46360953438E+03  0.71410893254E+02 -0.37893337111E+03  0.60301228496E+03  0.50400001928E-02 0.  1.
</event>
<event>
 5   0  0.3787698E-05  0.1999965E+04  0.7818609E-02  0.8606637E-01
        1   -1    0    0  501    0  0.00000000000E+00  0.00000000000E+00  0.47785741688E+03  0.47785741691E+03  0.50400001928E-02 0. -1.
       -1   -1    0    0    0  501  0.00000000000E+00  0.00000000000E+00 -0.20926019270E+04  0.20926019270E+04  0.50400001928E-02 0.  1.
    10030    2    1    2    0    0  0.00000000000E+00  0.00000000000E+00 -0.16147445101E+04  0.25704593439E+04  0.19999653511E+04 0.  0.
        4    1    3    3  502    0 -0.77352939375E+03 -0.56230646633E+03 -0.11830253728E+04  0.15212123227E+04  0.12699999809E+01 0. -1.
       -4    1    3    3    0  502  0.77352939375E+03  0.56230646633E+03 -0.43171913725E+03  0.10492470212E+04  0.12699999809E+01 0.  1.
</event>
<event>
 5   0  0.2859625E-05  0.1995375E+04  0.7818609E-02  0.8608786E-01
        3   -1    0    0  501    0  0.00000000000E+00  0.00000000000E+00  0.14656544311E+04  0.14656544346E+04  0.10100000352E+00 0. -1.
       -3   -1    0    0    0  501  0.00000000000E+00  0.00000000000E+00 -0.67913737208E+03  0.67913737959E+03  0.10100000352E+00 0.  1.
    10030    2    1    2    0    0  0.00000000000E+00  0.00000000000E+00  0.78651705902E+03  0.21447918142E+04  0.19953753637E+04 0.  0.
        5    1    3    3  502    0 -0.72388087658E+03  0.53208402349E+03 -0.73098409460E+02  0.90137805554E+03  0.46999998093E+01 0.  1.
       -5    1    3    3    0  502  0.72388087658E+03 -0.53208402349E+03  0.85961546848E+03  0.12434137586E+04  0.46999998093E+01 0. -1.
</event>
<event>
 5   0  0.7935008E-05  0.2031003E+04  0.7818609E-02  0.8592262E-01
        2   -1    0    0  501    0  0.00000000000E+00  0.00000000000E+00  0.17990450682E+04  0.17990450682E+04  0.25500000920E-02 0. -1.
       -2   -1    0    0    0  501  0.00000000000E+00  0.00000000000E+00 -0.57321687853E+03  0.57321687853E+03  0.25500000920E-02 0.  1.
    10030    2    1    2    0    0  0.00000000000E+00  0.00000000000E+00  0.12258281897E+04  0.23722619468E+04  0.20310027064E+04 0.  0.
        3    1    3    3  502    0  0.56553084748E+03  0.77601604118E+03  0.22690532872E+03  0.98666715462E+03  0.10100000352E+00 0.  1.
       -3    1    3    3    0  502 -0.56553084748E+03 -0.77601604118E+03  0.99892286099E+03  0.13855947921E+04  0.10100000352E+00 0. -1.
</event>
<event>
 5   0  0.3970042E-05  0.1966039E+04  0.7818609E-02  0.8622665E-01
       -1   -1    0    0    0  501  0.00000000000E+00  0.00000000000E+00  0.10551195348E+04  0.10551195349E+04  0.50400001928E-02 0. -1.
        1   -1    0    0  501    0  0.00000000000E+00  0.00000000000E+00 -0.91584647506E+03  0.91584647507E+03  0.50400001928E-02 0.  1.
    10030    2    1    2    0    0  0.00000000000E+00  0.00000000000E+00  0.13927305979E+03  0.19709660099E+04  0.19660391723E+04 0.  0.
        3    1    3    3  502    0  0.80711918296E+03  0.25061443021E+03 -0.43369587970E+03  0.94991636180E+03  0.10100000352E+00 0.  1.
       -3    1    3    3    0  502 -0.80711918296E+03 -0.25061443021E+03  0.57296893949E+03  0.10210496481E+04  0.10100000352E+00 0. -1.
</event>
<event>
 5   0  0.8022574E-05  0.1972126E+04  0.7818609E-02  0.8619765E-01
       -2   -1    0    0    0  501  0.00000000000E+00  0.00000000000E+00  0.51992881971E+03  0.51992881972E+03  0.25500000920E-02 0. -1.
        2   -1    0    0  501    0  0.00000000000E+00  0.00000000000E+00 -0.18701017670E+04  0.18701017670E+04  0.25500000920E-02 0.  1.
    10030    2    1    2    0    0  0.00000000000E+00  0.00000000000E+00 -0.13501729473E+04  0.23900305867E+04  0.19721255583E+04 0.  0.
        1    1    3    3  502    0  0.77716041079E+03  0.60320534158E+03 -0.75624632125E+03  0.12408640081E+04  0.50400001928E-02 0. -1.
       -1    1    3    3    0  502 -0.77716041079E+03 -0.60320534158E+03 -0.59392662600E+03  0.11491665786E+04  0.50400001928E-02 0.  1.
</event>
<event>
 5   0  0.3787698E-05  0.2010863E+04  0.7818609E-02  0.8601559E-01
        1   -1    0    0  501    0  0.00000000000E+00  0.00000000000E+00  0.16138117115E+04  0.16138117115E+04  0.50400001928E-02 0. -1.
       -1   -1    0    0    0  501  0.00000000000E+00  0.00000000000E+00 -0.62640066470E+03  0.62640066472E+03  0.50400001928E-02 0.  1.
    10030    2    1    2    0    0  0.00000000000E+00  0.00000000000E+00  0.98741104683E+03  0.22402123762E+04  0.20108632264E+04 0.  0.
        4    1    3    3  502    0  0.22449933885E+03 -0.78709620615E+03  0.11442323438E+04  0.14068367569E+04  0.12699999809E+01 0.  1.
       -4    1    3    3    0  502 -0.22449933885E+03  0.78709620615E+03 -0.15682129701E+03  0.83337561938E+03  0.12699999809E+01 0. -1.
</event>
<event>
 5   0  0.7935008E-05  0.2023762E+04  0.7818609E-02  0.8595591E-01
        2   -1    0    0  501    0  0.00000000000E+00  0.00000000000E+00  0.13805296137E+04  0.13805296137E+04  0.25500000920E-02 0. -1.
       -2   -1    0    0    0  501  0.00000000000E+00  0.00000000000E+00 -0.74167421094E+03  0.74167421094E+03  0.25500000920E-02 0.  1.
    10030    2    1    2    0    0  0.00000000000E+00  0.00000000000E+00  0.63885540280E+03  0.21222038247E+04  0.20237620532E+04 0.  0.
        3    1    3    3  502    0 -0.20037753230E+02 -0.66249169462E+03 -0.48236009893E+03  0.81973656271E+03  0.10100000352E+00 0.  1.
       -3    1    3    3    0  502  0.20037753230E+02  0.66249169462E+03  0.11212155017E+04  0.13024672620E+04  0.10100000352E+00 0. -1.
</event>
<event>
 5   0  0.3787698E-05  0.2002765E+04  0.7818609E-02  0.8605329E-01
       -1   -1    0    0    0  501  0.00000000000E+00  0.00000000000E+00  0.85117994252E+03  0.85117994253E+03  0.50400001928E-02 0.  1.
        1   -1    0    0  501    0  0.00000000000E+00  0.00000000000E+00 -0.11780908865E+04  0.11780908865E+04  0.50400001928E-02 0. -1.
    10030    2    1    2    0    0  0.00000000000E+00  0.00000000000E+00 -0.32691094401E+03  0.20292708291E+04  0.20027654212E+04 0.  0.
        4    1    3    3  502    0  0.30325335406E+02 -0.27317507526E+03  0.81221164491E+03  0.85745764720E+03  0.12699999809E+01 0.  1.
       -4    1    3    3    0  502 -0.30325335406E+02  0.27317507526E+03 -0.11391225889E+04  0.11718131819E+04  0.12699999809E+01 0. -1.
</event>
<event>
 5   0  0.3549426E-05  0.1931956E+04  0.7818609E-02  0.8639111E-01
       -1   -1    0    0    0  501  0.00000000000E+00  0.00000000000E+00  0.97576827347E+03  0.97576827349E+03  0.50400001928E-02 0.  1.
        1   -1    0    0  501    0  0.00000000000E+00  0.00000000000E+00 -0.95628641358E+03  0.95628641360E+03  0.50400001928E-02 0. -1.
    10030    2    1    2    0    0  0.00000000000E+00  0.00000000000E+00  0.19481859888E+02  0.19320546871E+04  0.19319564620E+04 0.  0.
        5    1    3    3  502    0 -0.92307700391E+02  0.24497368372E+02  0.97102391437E+03  0.97572043377E+03  0.46999998093E+01 0.  1.
       -5    1    3    3    0  502  0.92307700391E+02 -0.24497368372E+02 -0.95154205448E+03  0.95633425331E+03  0.46999998093E+01 0. -1.
</event>
<event>
 5   0  0.3787698E-05  0.2003005E+04  0.7818609E-02  0.8605217E-01
        1   -1    0    0  501    0  0.00000000000E+00  0.00000000000E+00  0.92060525851E+03  0.92060525853E+03  0.50400001928E-02 0.  1.
       -1   -1    0    0    0  501  0.00000000000E+00  0.00000000000E+00 -0.10895082506E+04  0.10895082506E+04  0.50400001928E-02 0. -1.
    10030    2    1    2    0    0  0.00000000000E+00  0.00000000000E+00 -0.16890299210E+03  0.20101135092E+04  0.20030047676E+04 0.  0.
        4    1    3    3  502    0  0.21755651275E+03  0.37432905837E+02 -0.10647876012E+04  0.10874310587E+04  0.12699999809E+01 0. -1.
       -4    1    3    3    0  502 -0.21755651275E+03 -0.37432905837E+02  0.89588460914E+03  0.92268245050E+03  0.12699999809E+01 0.  1.
</event>
<event>
 5   0  0.3549426E-05  0.1962940E+04  0.7818609E-02  0.8624146E-01
        1   -1    0    0  501    0  0.00000000000E+00  0.00000000000E+00  0.58254277643E+03  0.58254277645E+03  0.50400001928E-02 0. -1.
       -1   -1    0    0    0  501  0.00000000000E+00  0.00000000000E+00 -0.16535841133E+04  0.16535841133E+04  0.50400001928E-02 0.  1.
    10030    2    1    2    0    0  0.00000000000E+00  0.00000000000E+00 -0.10710413369E+04  0.22361268897E+04  0.19629401218E+04 0.  0.
        5    1    3    3  502    0 -0.67675794983E+03 -0.69343395283E+03 -0.35754192758E+03  0.10328166776E+04  0.46999998093E+01 0. -1.
       -5    1    3    3    0  502  0.67675794983E+03  0.69343395283E+03 -0.71349940927E+03  0.12033102121E+04  0.46999998093E+01 0.  1.
</event>
<event>
 5   0  0.7843846E-05  0.2009159E+04  0.7818609E-02  0.8602351E-01
       -2   -1    0    0    0  501  0.00000000000E+00  0.00000000000E+00  0.44487771815E+03  0.44487771816E+03  0.25500000920E-02 0. -1.
        2   -1    0    0  501    0  0.00000000000E+00  0.00000000000E+00 -0.22684428725E+04  0.22684428725E+04  0.25500000920E-02 0.  1.
    10030    2    1    2    0    0  0.00000000000E+00  0.00000000000E+00 -0.18235651544E+04  0.27133205907E+04  0.20091587184E+04 0.  0.
        2    1    3    3  502    0 -0.57916525388E+03  0.22476318499E+03  0.15434855243E+03  0.64013620135E+03  0.25500000920E-02 0. -1.
       -2    1    3    3    0  502  0.57916525388E+03 -0.22476318499E+03 -0.19779137068E+04  0.20731843893E+04  0.25500000920E-02 0.  1.
</event>
<event>
 5   0  0.7857136E-05  0.1992111E+04  0.7818609E-02  0.8610318E-01
       -2   -1    0    0    0  501  0.00000000000E+00  0.00000000000E+00  0.75692634408E+03  0.75692634409E+03  0.25500000920E-02 0.  1.
        2   -1    0    0  501    0  0.00000000000E+00  0.00000000000E+00 -0.13107310537E+04  0.13107310537E+04  0.25500000920E-02 0. -1.
    10030    2    1    2    0    0  0.00000000000E+00  0.00000000000E+00 -0.55380470964E+03  0.20676573978E+04  0.19921113067E+04 0.  0.
        4    1    3    3  502    0  0.49611041976E+03  0.74560505066E+03  0.17560430832E+03  0.91262858062E+03  0.12699999809E+01 0.  1.
       -4    1    3    3    0  502 -0.49611041976E+03 -0.74560505066E+03 -0.72940901795E+03  0.11550288172E+04  0.12699999809E+01 0. -1.
</event>
<event>
 5   0  0.8011197E-05  0.1998767E+04  0.7818609E-02  0.8607198E-01
        2   -1    0    0  501    0  0.00000000000E+00  0.00000000000E+00  0.11928996817E+04  0.11928996817E+04  0.25500000920E-02 0. -1.
       -2   -1    0    0    0  501  0.00000000000E+00  0.00000000000E+00 -0.83725974805E+03  0.83725974805E+03  0.25500000920E-02 0.  1.
    10030    2    1    2    0    0  0.00000000000E+00  0.00000000000E+00  0.35563993360E+03  0.20301594297E+04  0.19987665065E+04 0.  0.
        5    1    3    3  502    0 -0.12654282134E+03 -0.70684973176E+03  0.88378701144E+03  0.11387498411E+04  0.46999998093E+01 0.  1.
       -5    1    3    3    0  502  0.12654282134E+03  0.70684973176E+03 -0.52814707784E+03  0.89140958865E+03  0.46999998093E+01 0. -1.
</event>
<event>
 5   0  0.8011197E-05  0.2007919E+04  0.7818609E-02  0.8602927E-01
        2   -1    0    0  501    0  0.00000000000E+00  0.00000000000E+00  0.25201946916E+04  0.25201946916E+04  0.25500000920E-02 0. -1.
       -2   -1    0    0    0  501  0.00000000000E+00  0.00000000000E+00 -0.39994321121E+03  0.39994321122E+03  0.25500000920E-02 0.  1.
    10030    2    1    2    0    0  0.00000000000E+00  0.00000000000E+00  0.21202514804E+04  0.29201379028E+04  0.20079190799E+04 0.  0.
        5    1    3    3  502    0 -0.33174064355E+02 -0.82091980474E+03  0.22102154164E+03  0.85081282091E+03  0.46999998093E+01 0.  1.
       -5    1    3    3    0  502  0.33174064355E+02  0.82091980474E+03  0.18992299388E+04  0.20693250819E+04  0.46999998093E+01 0. -1.
</event>
<event>
 5   0  0.3787698E-05  0.1978311E+04  0.7818609E-02  0.8616829E-01
       -1   -1    0    0    0  501  0.00000000000E+00  0.00000000000E+00  0.89788748560E+03  0.89788748561E+03  0.50400001928E-02 0.  1.
        1   -1    0    0  501    0  0.00000000000E+00  0.00000000000E+00 -0.10897005225E+04  0.10897005225E+04  0.50400001928E-02 0. -1.
    10030    2    1    2    0    0  0.00000000000E+00  0.00000000000E+00 -0.19181303692E+03  0.19875880081E+04  0.19783108575E+04 0.  0.
        4    1    3    3  502    0 -0.75964646842E+03 -0.62776371947E+03 -0.18161073675E+03  0.10020649266E+04  0.12699999809E+01 0. -1.
       -4    1    3    3    0  502  0.75964646842E+03  0.62776371947E+03 -0.10202300170E+02  0.98552308156E+03  0.12699999809E+01 0.  1.
</event>
<event>
 5   0  0.3818907E-05  0.1941214E+04  0.7818609E-02  0.8634609E-01
        1   -1    0    0  501    0  0.00000000000E+00  0.00000000000E+00  0.28790483216E+04  0.28790483216E+04  0.50400001928E-02 0. -1.
       -1   -1    0    0    0  501  0.00000000000E+00  0.00000000000E+00 -0.32721838881E+03  0.32721838885E+03  0.50400001928E-02 0.  1.
    10030    2    1    2    0    0  0.00000000000E+00  0.00000000000E+00  0.25518299328E+04  0.32062667105E+04  0.19412135927E+04 0.  0.
        1    1    3    3  502    0 -0.15883867674E+02  0.70906018280E+03  0.23703442910E+04  0.24741767718E+04  0.50400001928E-02 0. -1.
       -1    1    3    3    0  502  0.15883867674E+02 -0.70906018280E+03  0.18148564177E+03  0.73208993866E+03  0.50400001928E-02 0.  1.
</event>
<event>
 5   0  0.7935008E-05  0.1927522E+04  0.7818609E-02  0.8641277E-01
        2   -1    0    0  501    0  0.00000000000E+00  0.00000000000E+00  0.10147474996E+04  0.10147474996E+04  0.25500000920E-02 0.  1.
       -2   -1    0    0    0  501  0.00000000000E+00  0.00000000000E+00 -0.91533673744E+03  0.91533673744E+03  0.25500000920E-02 0. -1.
    10030    2    1    2    0    0  0.00000000000E+00  0.00000000000E+00  0.99410762142E+02  0.19300842370E+04  0.19275224155E+04 0.  0.
        3    1    3    3  502    0  0.21877144367E+02  0.49072273675E+03  0.87999271820E+03  0.10078068307E+04  0.10100000352E+00 0.  1.
       -3    1    3    3    0  502 -0.21877144367E+02 -0.49072273675E+03 -0.78058195606E+03  0.92227740628E+03  0.10100000352E+00 0. -1.
</event>
<event>
 5   0  0.8022574E-05  0.1992790E+04  0.7818609E-02  0.8609999E-01
       -2   -1    0    0    0  501  0.00000000000E+00  0.00000000000E+00  0.11573466809E+04  0.11573466809E+04  0.25500000920E-02 0.  1.
        2   -1    0    0  501    0  0.00000000000E+00  0.00000000000E+00 -0.85782693186E+03  0.85782693186E+03  0.25500000920E-02 0. -1.
    10030    2    1    2    0    0  0.00000000000E+00  0.00000000000E+00  0.29951974906E+03  0.20151736128E+04  0.19927901569E+04 0.  0.
        1    1    3    3  502    0 -0.68034108435E+02 -0.97905878586E+03  0.32379292853E+03  0.10334537274E+04  0.50400001928E-02 0.  1.
       -1    1    3    3    0  502  0.68034108435E+02  0.97905878586E+03 -0.24273179474E+02  0.98171988538E+03  0.50400001928E-02 0. -1.
</event>
<event>
 5   0  0.2859625E-05  0.1994123E+04  0.7818609E-02  0.8609373E-01
       -3   -1    0    0    0  501  0.00000000000E+00  0.00000000000E+00  0.13579391025E+04  0.13579391063E+04  0.10100000352E+00 0.  1.
        3   -1    0    0  501    0  0.00000000000E+00  0.00000000000E+00 -0.73208874125E+03  0.73208874822E+03  0.10100000352E+00 0. -1.
    10030    2    1    2    0    0  0.00000000000E+00  0.00000000000E+00  0.62585036127E+03  0.20900278545E+04  0.19941233056E+04 0.  0.
        3    1    3    3  502    0  0.62760907577E+03  0.77214481117E+03  0.24638016882E+03  0.10250872934E+04  0.10100000352E+00 0. -1.
       -3    1    3    3    0  502 -0.62760907577E+03 -0.77214481117E+03  0.37947019245E+03  0.10649405610E+04  0.10100000352E+00 0.  1.
</event>
<event>
 5   0  0.8011197E-05  0.1974586E+04  0.7818609E-02  0.8618596E-01
       -2   -1    0    0    0  501  0.00000000000E+00  0.00000000000E+00  0.69702580936E+03  0.69702580936E+03  0.25500000920E-02 0. -1.
        2   -1    0    0  501    0  0.00000000000E+00  0.00000000000E+00 -0.13984378491E+04  0.13984378492E+04  0.25500000920E-02 0.  1.
    10030    2    1    2    0    0  0.00000000000E+00  0.00000000000E+00 -0.70141203979E+03  0.20954636585E+04  0.19745858033E+04 0.  0.
        5    1    3    3  502    0  0.27011575002E+03  0.33940650285E+03 -0.12918838267E+04  0.13627711489E+04  0.46999998093E+01 0.  1.
       -5    1    3    3    0  502 -0.27011575002E+03 -0.33940650285E+03  0.59047178688E+03  0.73269250964E+03  0.46999998093E+01 0. -1.
</event>
<event>
 5   0  0.3970042E-05  0.2003912E+04  0.7818609E-02  0.8604794E-01
        1   -1    0    0  501    0  0.00000000000E+00  0.00000000000E+00  0.12043933112E+04  0.12043933112E+04  0.50400001928E-02 0. -1.
       -1   -1    0    0    0  501  0.00000000000E+00  0.00000000000E+00 -0.83354457181E+03  0.83354457183E+03  0.50400001928E-02 0.  1.
    10030    2    1    2    0    0  0.00000000000E+00  0.00000000000E+00  0.37084873941E+03  0.20379378831E+04  0.20039116816E+04 0.  0.
        3    1    3    3  502    0 -0.64872070316E+03  0.63089034132E+03  0.62290817726E+03  0.10985789826E+04  0.10100000352E+00 0. -1.
       -3    1    3    3    0  502  0.64872070316E+03 -0.63089034132E+03 -0.25205943785E+03  0.93935890047E+03  0.10100000352E+00 0.  1.
</event>
<event>
 5   0  0.7843846E-05  0.2008853E+04  0.7818609E-02  0.8602493E-01
        2   -1    0    0  501    0  0.00000000000E+00  0.00000000000E+00  0.63286366024E+03  0.63286366024E+03  0.25500000920E-02 0. -1.
       -2   -1    0    0    0  501  0.00000000000E+00  0.00000000000E+00 -0.15941396820E+04  0.15941396820E+04  0.25500000920E-02 0.  1.
    10030    2    1    2    0    0  0.00000000000E+00  0.00000000000E+00 -0.96127602177E+03  0.22270033423E+04  0.20088534781E+04 0.  0.
        2    1    3    3  502    0 -0.12334567325E+03  0.31058731779E+03 -0.15307023108E+04  0.15667572247E+04  0.25500000920E-02 0.  1.
       -2    1    3    3    0  502  0.12334567325E+03 -0.31058731779E+03  0.56942628900E+03  0.66024611751E+03  0.25500000920E-02 0. -1.
</event>
<event>
 5   0  0.3818907E-05  0.1902320E+04  0.7818609E-02  0.8653703E-01
        1   -1    0    0  501    0  0.00000000000E+00  0.00000000000E+00  0.81373782843E+03  0.81373782845E+03  0.50400001928E-02 0. -1.
       -1   -1    0    0    0  501  0.00000000000E+00  0.00000000000E+00 -0.11117893880E+04  0.11117893880E+04  0.50400001928E-02 0.  1.
    10030    2    1    2    0    0  0.00000000000E+00  0.00000000000E+00 -0.29805155958E+03  0.19255272165E+04  0.19023197232E+04 0.  0.
        1    1    3    3  502    0 -0.31746954572E+03  0.13559258020E+03  0.74808963457E+03  0.82389948516E+03  0.50400001928E-02 0. -1.
       -1    1    3    3    0  502  0.31746954572E+03 -0.13559258020E+03 -0.10461411941E+04  0.11016277313E+04  0.50400001928E-02 0.  1.
</event>
<event>
 5   0  0.7935008E-05  0.2017121E+04  0.7818609E-02  0.8598657E-01
       -2   -1    0    0    0  501  0.00000000000E+00  0.00000000000E+00  0.97580880893E+03  0.97580880894E+03  0.25500000920E-02 0.  1.
        2   -1    0    0  501    0  0.00000000000E+00  0.00000000000E+00 -0.10424118157E+04  0.10424118157E+04  0.25500000920E-02 0. -1.
    10030    2    1    2    0    0  0.00000000000E+00  0.00000000000E+00 -0.66603006727E+02  0.20182206246E+04  0.20171213471E+04 0.  0.
        3    1    3    3  502    0  0.21559314156E+03 -0.82480134166E+03  0.50589566972E+03  0.99131634443E+03  0.10100000352E+00 0.  1.
       -3    1    3    3    0  502 -0.21559314156E+03  0.82480134166E+03 -0.57249867645E+03  0.10269042802E+04  0.10100000352E+00 0. -1.
</event>
<event>
 5   0  0.7843846E-05  0.2016351E+04  0.7818609E-02  0.8599014E-01
       -2   -1    0    0    0  501  0.00000000000E+00  0.00000000000E+00  0.12052175629E+04  0.12052175629E+04  0.25500000920E-02 0. -1.
        2   -1    0    0  501    0  0.00000000000E+00  0.00000000000E+00 -0.84334816777E+03  0.84334816777E+03  0.25500000920E-02 0.  1.
    10030    2    1    2    0    0  0.00000000000E+00  0.00000000000E+00  0.36186939516E+03  0.20485657307E+04  0.20163511832E+04 0.  0.
        2    1    3    3  502    0 -0.97278403031E+03 -0.25910164293E+03  0.12551419587E+03  0.10144930973E+04  0.25500000920E-02 0.  1.
       -2    1    3    3    0  502  0.97278403031E+03  0.25910164293E+03  0.23635519929E+03  0.10340726334E+04  0.25500000920E-02 0. -1.
</event>
<event>
 5   0  0.3818907E-05  0.1992654E+04  0.7818609E-02  0.8610063E-01
        1   -1    0    0  501    0  0.00000000000E+00  0.00000000000E+00  0.14091612762E+04  0.14091612762E+04  0.50400001928E-02 0.  1.
       -1   -1    0    0    0  501  0.00000000000E+00  0.00000000000E+00 -0.70443854321E+03  0.70443854323E+03  0.50400001928E-02 0. -1.
    10030    2    1    2    0    0  0.00000000000E+00  0.00000000000E+00  0.70472273303E+03  0.21135998195E+04  0.19926540258E+04 0.  0.
        1    1    3    3  502    0  0.70882747945E+03 -0.18909386858E+02 -0.39002991063E+03  0.80926960387E+03  0.50400001928E-02 0. -1.
       -1    1    3    3    0  502 -0.70882747945E+03  0.18909386858E+02  0.10947526437E+04  0.13043302156E+04  0.50400001928E-02 0.  1.
</event>
<event>
 5   0  0.8011197E-05  0.2000915E+04  0.7818609E-02  0.8606193E-01
        2   -1    0    0  501    0  0.00000000000E+00  0.00000000000E+00  0.26167541841E+04  0.26167541841E+04  0.25500000920E-02 0.  1.
       -2   -1    0    0    0  501  0.00000000000E+00  0.00000000000E+00 -0.38250262877E+03  0.38250262877E+03  0.25500000920E-02 0. -1.
    10030    2    1    2    0    0  0.00000000000E+00  0.00000000000E+00  0.22342515554E+04  0.29992568129E+04  0.20009151449E+04 0.  0.
        5    1    3    3  502    0  0.71518974593E+03  0.68924100079E+03  0.12966471256E+04  0.16333601526E+04  0.46999998093E+01 0. -1.
       -5    1    3    3    0  502 -0.71518974593E+03 -0.68924100079E+03  0.93760442974E+03  0.13658966603E+04  0.46999998093E+01 0.  1.
</event>
<event>
 5   0  0.7843846E-05  0.1946526E+04  0.7818609E-02  0.8632038E-01
       -2   -1    0    0    0  501  0.00000000000E+00  0.00000000000E+00  0.75591905780E+03  0.75591905780E+03  0.25500000920E-02 0. -1.
        2   -1    0    0  501    0  0.00000000000E+00  0.00000000000E+00 -0.12530980664E+04  0.12530980664E+04  0.25500000920E-02 0.  1.
    10030    2    1    2    0    0  0.00000000000E+00  0.00000000000E+00 -0.49717900861E+03  0.20090171242E+04  0.19465258382E+04 0.  0.
        2    1    3    3  502    0  0.21391159927E+03 -0.76856155006E+03 -0.82397770700E+03  0.11469020404E+04  0.25500000920E-02 0.  1.
       -2    1    3    3    0  502 -0.21391159927E+03  0.76856155006E+03  0.32679869839E+03  0.86211508386E+03  0.25500000920E-02 0. -1.
</event>
<event>
 5   0  0.8011197E-05  0.1972625E+04  0.7818609E-02  0.8619528E-01
        2   -1    0    0  501    0  0.00000000000E+00  0.00000000000E+00  0.15072151165E+04  0.15072151165E+04  0.25500000920E-02 0.  1.
       -2   -1    0    0    0  501  0.00000000000E+00  0.00000000000E+00 -0.64543665979E+03  0.64543665980E+03  0.25500000920E-02 0. -1.
    10030    2    1    2    0    0  0.00000000000E+00  0.00000000000E+00  0.86177845669E+03  0.21526517763E+04  0.19726245364E+04 0.  0.
        5    1    3    3  502    0  0.39158713973E+03  0.75005559846E+02 -0.55356257422E+03  0.68221692707E+03  0.46999998093E+01 0. -1.
       -5    1    3    3    0  502 -0.39158713973E+03 -0.75005559846E+02  0.14153410309E+04  0.14704348492E+04  0.46999998093E+01 0.  1.
</event>
<event>
 5   0  0.3818907E-05  0.2024467E+04  0.7818609E-02  0.8595266E-01
        1   -1    0    0  501    0  0.00000000000E+00  0.00000000000E+00  0.22158648337E+04  0.22158648337E+04  0.50400001928E-02 0. -1.
       -1   -1    0    0    0  501  0.00000000000E+00  0.00000000000E+00 -0.46240015710E+03  0.46240015713E+03  0.50400001928E-02 0.  1.
    10030    2    1    2    0    0  0.00000000000E+00  0.00000000000E+00  0.17534646766E+04  0.26782649908E+04  0.20244665937E+04 0.  0.
        1    1    3    3  502    0 -0.14445946654E+03 -0.10549980228E+03 -0.44132375692E+03  0.47619891243E+03  0.50400001928E-02 0.  1.
       -1    1    3    3    0  502  0.14445946654E+03  0.10549980228E+03  0.21947884335E+04  0.22020660784E+04  0.50400001928E-02 0. -1.
</event>
<event>
 5   0  0.7857136E-05  0.2015798E+04  0.7818609E-02  0.8599270E-01
       -2   -1    0    0    0  501  0.00000000000E+00  0.00000000000E+00  0.62811737043E+03  0.62811737043E+03  0.25500000920E-02 0.  1.
        2   -1    0    0  501    0  0.00000000000E+00  0.00000000000E+00 -0.16173104455E+04  0.16173104455E+04  0.25500000920E-02 0. -1.
    10030    2    1    2    0    0  0.00000000000E+00  0.00000000000E+00 -0.98919307506E+03  0.22454278159E+04  0.20157983869E+04 0.  0.
        4    1    3    3  502    0 -0.22378879299E+03  0.98016069212E+03 -0.41533802978E+03  0.10877976366E+04  0.12699999809E+01 0.  1.
       -4    1    3    3    0  502  0.22378879299E+03 -0.98016069212E+03 -0.57385504528E+03  0.11576301794E+04  0.12699999809E+01 0. -1.
</event>
<event>
 5   0  0.7935008E-05  0.2006137E+04  0.7818609E-02  0.8603757E-01
       -2   -1    0    0    0  501  0.00000000000E+00  0.00000000000E+00  0.57820185030E+03  0.57820185030E+03  0.25500000920E-02 0.  1.
        2   -1    0    0  501    0  0.00000000000E+00  0.00000000000E+00 -0.17401293471E+04  0.17401293471E+04  0.25500000920E-02 0. -1.
    10030    2    1    2    0    0  0.00000000000E+00  0.00000000000E+00 -0.11619274968E+04  0.23183311974E+04  0.20061365938E+04 0.  0.
        3    1    3    3  502    0  0.94313202149E+03 -0.13199315744E+03 -0.21694204968E+03  0.97672107927E+03  0.10100000352E+00 0.  1.
       -3    1    3    3    0  502 -0.94313202149E+03  0.13199315744E+03 -0.94498544709E+03  0.13416101181E+04  0.10100000352E+00 0. -1.
</event>
<event>
 5   0  0.8011197E-05  0.2033914E+04  0.7818609E-02  0.8590927E-01
       -2   -1    0    0    0  501  0.00000000000E+00  0.00000000000E+00  0.59474616201E+03  0.59474616201E+03  0.25500000920E-02 0. -1.
        2   -1    0    0  501    0  0.00000000000E+00  0.00000000000E+00 -0.17388956799E+04  0.17388956799E+04  0.25500000920E-02 0.  1.
    10030    2    1    2    0    0  0.00000000000E+00  0.00000000000E+00 -0.11441495179E+04  0.23336418419E+04  0.20339139920E+04 0.  0.
        5    1    3    3  502    0  0.31197339594E+03 -0.94717562005E+03 -0.34343398716E+03  0.10547217873E+04  0.46999998093E+01 0.  1.
       -5    1    3    3    0  502 -0.31197339594E+03  0.94717562005E+03 -0.80071553069E+03  0.12789200546E+04  0.46999998093E+01 0. -1.
</event>
<event>
 5   0  0.7935008E-05  0.2002570E+04  0.7818609E-02  0.8605420E-01
        2   -1    0    0  501    0  0.00000000000E+00  0.00000000000E+00  0.19426799740E+04  0.19426799740E+04  0.25500000920E-02 0.  1.
       -2   -1    0    0    0  501  0.00000000000E+00  0.00000000000E+00 -0.51607684500E+03  0.51607684501E+03  0.25500000920E-02 0. -1.
    10030    2    1    2    0    0  0.00000000000E+00  0.00000000000E+00  0.14266031290E+04  0.24587568190E+04  0.20025705000E+04 0.  0.
        3    1    3    3  502    0 -0.87267595601E+03 -0.48640465171E+03  0.79492334979E+03  0.12767364456E+04  0.10100000352E+00 0.  1.
       -3    1    3    3    0  502  0.87267595601E+03  0.48640465171E+03  0.63167977922E+03  0.11820203734E+04  0.10100000352E+00 0. -1.
</event>
<event>
 5   0  0.3970042E-05  0.1996125E+04  0.7818609E-02  0.8608435E-01
        1   -1    0    0  501    0  0.00000000000E+00  0.00000000000E+00  0.13136658160E+04  0.13136658160E+04  0.50400001928E-02 0.  1.
       -1   -1    0    0    0  501  0.00000000000E+00  0.00000000000E+00 -0.75828158499E+03  0.75828158500E+03  0.50400001928E-02 0. -1.
    10030    2    1    2    0    0  0.00000000000E+00  0.00000000000E+00  0.55538423100E+03  0.20719474010E+04  0.19961248429E+04 0.  0.
        3    1    3    3  502    0  0.78163031633E+03 -0.55281575505E+03 -0.15117837556E+02  0.95748617204E+03  0.10100000352E+00 0. -1.
       -3    1    3    3    0  502 -0.78163031633E+03  0.55281575505E+03  0.57050206856E+03  0.11144612290E+04  0.10100000352E+00 0.  1.
</event>
<event>
 5   0  0.3970042E-05  0.2000002E+04  0.7818609E-02  0.8606620E-01
        1   -1    0    0  501    0  0.00000000000E+00  0.00000000000E+00  0.74505406363E+03  0.74505406365E+03  0.50400001928E-02 0.  1.
       -1   -1    0    0    0  501  0.00000000000E+00  0.00000000000E+00 -0.13421867511E+04  0.13421867511E+04  0.50400001928E-02 0. -1.
    10030    2    1    2    0    0  0.00000000000E+00  0.00000000000E+00 -0.59713268743E+03  0.20872408147E+04  0.20000016931E+04 0.  0.
        3    1    3    3  502    0 -0.72293369947E+02 -0.39104401737E+03  0.65898509727E+03  0.76967728529E+03  0.10100000352E+00 0.  1.
       -3    1    3    3    0  502  0.72293369947E+02  0.39104401737E+03 -0.12561177847E+04  0.13175635294E+04  0.10100000352E+00 0. -1.
</event>
<event>
 5   0  0.7857136E-05  0.2000792E+04  0.7818609E-02  0.8606250E-01
       -2   -1    0    0    0  501  0.00000000000E+00  0.00000000000E+00  0.14372483436E+04  0.14372483436E+04  0.25500000920E-02 0.  1.
        2   -1    0    0  501    0  0.00000000000E+00  0.00000000000E+00 -0.69632517342E+03  0.69632517342E+03  0.25500000920E-02 0. -1.
    10030    2    1    2    0    0  0.00000000000E+00  0.00000000000E+00  0.74092317020E+03  0.21335735170E+04  0.20007920453E+04 0.  0.
        4    1    3    3  502    0  0.44762673457E+03 -0.61819613922E+02  0.13222175370E+04  0.13973017520E+04  0.12699999809E+01 0.  1.
       -4    1    3    3    0  502 -0.44762673457E+03  0.61819613922E+02 -0.58129436681E+03  0.73627176501E+03  0.12699999809E+01 0. -1.
</event>
<event>
 5   0  0.3549426E-05  0.2192340E+04  0.7818609E-02  0.8521623E-01
       -1   -1    0    0    0  501  0.00000000000E+00  0.00000000000E+00  0.71166795551E+03  0.71166795552E+03  0.50400001928E-02 0. -1.
        1   -1    0    0  501    0  0.00000000000E+00  0.00000000000E+00 -0.16884117183E+04  0.16884117183E+04  0.50400001928E-02 0.  1.
    10030    2    1    2    0    0  0.00000000000E+00  0.00000000000E+00 -0.97674376283E+03  0.24000796739E+04  0.21923398602E+04 0.  0.
        5    1    3    3  502    0 -0.21334182661E+02 -0.78899192610E+03 -0.13211093894E+04  0.15389332394E+04  0.46999998093E+01 0.  1.
       -5    1    3    3    0  502  0.21334182661E+02  0.78899192610E+03  0.34436562653E+03  0.86114643443E+03  0.46999998093E+01 0. -1.
</event>
<event>
 5   0  0.2859625E-05  0.1989158E+04  0.7818609E-02  0.8611707E-01
        3   -1    0    0  501    0  0.00000000000E+00  0.00000000000E+00  0.15599318192E+04  0.15599318225E+04  0.10100000352E+00 0. -1.
       -3   -1    0    0    0  501  0.00000000000E+00  0.00000000000E+00 -0.63412203847E+03  0.63412204651E+03  0.10100000352E+00 0.  1.
    10030    2    1    2    0    0  0.00000000000E+00  0.00000000000E+00  0.92580978077E+03  0.21940538690E+04  0.19891577690E+04 0.  0.
        1    1    3    3  502    0  0.80553117284E+03 -0.56237106666E+03  0.29186606902E+03  0.10248548626E+04  0.50400001928E-02 0.  1.
       -1    1    3    3    0  502 -0.80553117284E+03  0.56237106666E+03  0.63394371175E+03  0.11691990065E+04  0.50400001928E-02 0. -1.
</event>
<event>
 5   0  0.3970042E-05  0.1993675E+04  0.7818609E-02  0.8609583E-01
        1   -1    0    0  501    0  0.00000000000E+00  0.00000000000E+00  0.10340310332E+04  0.10340310333E+04  0.50400001928E-02 0. -1.
       -1   -1    0    0    0  501  0.00000000000E+00  0.00000000000E+00 -0.96098217369E+03  0.96098217370E+03  0.50400001928E-02 0.  1.
    10030    2    1    2    0    0  0.00000000000E+00  0.00000000000E+00  0.73048859550E+02  0.19950132070E+04  0.19936753898E+04 0.  0.
        3    1    3    3  502    0  0.38125508517E+03  0.26222787354E+03  0.92004752459E+03  0.10298574442E+04  0.10100000352E+00 0. -1.
       -3    1    3    3    0  502 -0.38125508517E+03 -0.26222787354E+03 -0.84699866504E+03  0.96515576277E+03  0.10100000352E+00 0.  1.
</event>
<event>
 5   0  0.2859625E-05  0.1959158E+04  0.7818609E-02  0.8625957E-01
       -3   -1    0    0    0  501  0.00000000000E+00  0.00000000000E+00  0.14494355442E+04  0.14494355478E+04  0.10100000352E+00 0.  1.
        3   -1    0    0  501    0  0.00000000000E+00  0.00000000000E+00 -0.66203367143E+03  0.66203367914E+03  0.10100000352E+00 0. -1.
    10030    2    1    2    0    0  0.00000000000E+00  0.00000000000E+00  0.78740187281E+03  0.21114692269E+04  0.19591581322E+04 0.  0.
        2    1    3    3  502    0  0.20020741717E+03 -0.21507001580E+02 -0.63948862889E+03  0.67044109919E+03  0.25500000920E-02 0. -1.
       -2    1    3    3    0  502 -0.20020741717E+03  0.21507001580E+02  0.14268905017E+04  0.14410281277E+04  0.25500000920E-02 0.  1.
</event>
<event>
 5   0  0.3970042E-05  0.2007698E+04  0.7818609E-02  0.8603030E-01
        1   -1    0    0  501    0  0.00000000000E+00  0.00000000000E+00  0.14779717965E+04  0.14779717965E+04  0.50400001928E-02 0.  1.
       -1   -1    0    0    0  501  0.00000000000E+00  0.00000000000E+00 -0.68182147195E+03  0.68182147197E+03  0.50400001928E-02 0. -1.
    10030    2    1    2    0    0  0.00000000000E+00  0.00000000000E+00  0.79615032452E+03  0.21597932685E+04  0.20076980907E+04 0.  0.
        3    1    3    3  502    0  0.25257352881E+03 -0.96739125646E+03  0.30141463898E+03  0.10442653041E+04  0.10100000352E+00 0. -1.
       -3    1    3    3    0  502 -0.25257352881E+03  0.96739125646E+03  0.49473568554E+03  0.11155279644E+04  0.10100000352E+00 0.  1.
</event>
<event>
 5   0  0.8022574E-05  0.1998775E+04  0.7818609E-02  0.8607193E-01
        2   -1    0    0  501    0  0.00000000000E+00  0.00000000000E+00  0.19309413417E+04  0.19309413417E+04  0.25500000920E-02 0. -1.
       -2   -1    0    0    0  501  0.00000000000E+00  0.00000000000E+00 -0.51724816951E+03  0.51724816951E+03  0.25500000920E-02 0.  1.
    10030    2    1    2    0    0  0.00000000000E+00  0.00000000000E+00  0.14136931722E+04  0.24481895112E+04  0.19987754996E+04 0.  0.
        1    1    3    3  502    0  0.12299522618E+03 -0.44479422445E+03 -0.37892563532E+03  0.59712173373E+03  0.50400001928E-02 0.  1.
       -1    1    3    3    0  502 -0.12299522618E+03  0.44479422445E+03  0.17926188075E+04  0.18510677775E+04  0.50400001928E-02 0. -1.
</event>
<event>
 5   0  0.3772949E-05  0.2032666E+04  0.7818609E-02  0.8591499E-01
        1   -1    0    0  501    0  0.00000000000E+00  0.00000000000E+00  0.67739191946E+03  0.67739191948E+03  0.50400001928E-02 0. -1.
       -1   -1    0    0    0  501  0.00000000000E+00  0.00000000000E+00 -0.15248676029E+04  0.15248676029E+04  0.50400001928E-02 0.  1.
    10030    2    1    2    0    0  0.00000000000E+00  0.00000000000E+00 -0.84747568342E+03  0.22022595224E+04  0.20326662220E+04 0.  0.
        2    1    3    3  502    0 -0.57581592674E+03 -0.20681183848E+03 -0.13029882701E+04  0.14394837790E+04  0.25500000920E-02 0.  1.
       -2    1    3    3    0  502  0.57581592674E+03  0.20681183848E+03  0.45551258667E+03  0.76277574336E+03  0.25500000920E-02 0. -1.
</event>
<event>
 5   0  0.3970042E-05  0.2049080E+04  0.7818609E-02  0.8584012E-01
       -1   -1    0    0    0  501  0.00000000000E+00  0.00000000000E+00  0.12752780964E+04  0.12752780965E+04  0.50400001928E-02 0. -1.
        1   -1    0    0  501    0  0.00000000000E+00  0.00000000000E+00 -0.82310053898E+03  0.82310053899E+03  0.50400001928E-02 0.  1.
    10030    2    1    2    0    0  0.00000000000E+00  0.00000000000E+00  0.45217755747E+03  0.20983786354E+04  0.20490798799E+04 0.  0.
        3    1    3    3  502    0 -0.65254747071E+03 -0.14612015870E+02 -0.58262633140E+03  0.87492009051E+03  0.10100000352E+00 0.  1.
       -3    1    3    3    0  502  0.65254747071E+03  0.14612015870E+02  0.10348038889E+04  0.12234585449E+04  0.10100000352E+00 0. -1.
</event>
<event>
 5   0  0.3772949E-05  0.2001152E+04  0.7818609E-02  0.8606082E-01
        1   -1    0    0  501    0  0.00000000000E+00  0.00000000000E+00  0.15089242546E+04  0.15089242546E+04  0.50400001928E-02 0. -1.
       -1   -1    0    0    0  501  0.00000000000E+00  0.00000000000E+00 -0.66348745209E+03  0.66348745211E+03  0.50400001928E-02 0.  1.
    10030    2    1    2    0    0  0.00000000000E+00  0.00000000000E+00  0.84543680255E+03  0.21724117068E+04  0.20011519774E+04 0.  0.
        2    1    3    3  502    0  0.62551617748E+03 -0.51243142857E+03 -0.21703390496E+03  0.83723364312E+03  0.25500000920E-02 0.  1.
       -2    1    3    3    0  502 -0.62551617748E+03  0.51243142857E+03  0.10624707075E+04  0.13351780636E+04  0.25500000920E-02 0. -1.
</event>
<event>
 5   0  0.3970042E-05  0.2034449E+04  0.7818609E-02  0.8590682E-01
        1   -1    0    0  501    0  0.00000000000E+00  0.00000000000E+00  0.10259991995E+04  0.10259991995E+04  0.50400001928E-02 0. -1.
       -1   -1    0    0    0  501  0.00000000000E+00  0.00000000000E+00 -0.10085249245E+04  0.10085249245E+04  0.50400001928E-02 0.  1.
    10030    2    1    2    0    0  0.00000000000E+00  0.00000000000E+00  0.17474275032E+02  0.20345241240E+04  0.20344490804E+04 0.  0.
        3    1    3    3  502    0 -0.18020620041E+03 -0.69669173493E+03 -0.71024147144E+03  0.10110868440E+04  0.10100000352E+00 0.  1.
       -3    1    3    3    0  502  0.18020620041E+03  0.69669173493E+03  0.72771574647E+03  0.10234372800E+04  0.10100000352E+00 0. -1.
</event>
<event>
 5   0  0.8011197E-05  0.1994275E+04  0.7818609E-02  0.8609302E-01
       -2   -1    0    0    0  501  0.00000000000E+00  0.00000000000E+00  0.55386457874E+03  0.55386457874E+03  0.25500000920E-02 0. -1.
        2   -1    0    0  501    0  0.00000000000E+00  0.00000000000E+00 -0.17951734908E+04  0.17951734908E+04  0.25500000920E-02 0.  1.
    10030    2    1    2    0    0  0.00000000000E+00  0.00000000000E+00 -0.12413089121E+04  0.23490380695E+04  0.19942748148E+04 0.  0.
        5    1    3    3  502    0 -0.61878425171E+03 -0.51421688659E+03 -0.13144591301E+04  0.15411482249E+04  0.46999998093E+01 0.  1.
       -5    1    3    3    0  502  0.61878425171E+03  0.51421688659E+03  0.73150218000E+02  0.80788984460E+03  0.46999998093E+01 0. -1.
</event>
<event>
 5   0  0.8022574E-05  0.2040292E+04  0.7818609E-02  0.8588011E-01
        2   -1    0    0  501    0  0.00000000000E+00  0.00000000000E+00  0.80554241838E+03  0.80554241838E+03  0.25500000920E-02 0.  1.
       -2   -1    0    0    0  501  0.00000000000E+00  0.00000000000E+00 -0.12919215084E+04  0.12919215084E+04  0.25500000920E-02 0. -1.
    10030    2    1    2    0    0  0.00000000000E+00  0.00000000000E+00 -0.48637909007E+03  0.20974639268E+04  0.20402917206E+04 0.  0.
        1    1    3    3  502    0 -0.43655306767E+03  0.34779136325E+03  0.63464708673E+03  0.84517118855E+03  0.50400001928E-02 0.  1.
       -1    1    3    3    0  502  0.43655306767E+03 -0.34779136325E+03 -0.11210261768E+04  0.12522927383E+04  0.50400001928E-02 0. -1.
</event>
<event>
 5   0  0.3818907E-05  0.1995545E+04  0.7818609E-02  0.8608706E-01
       -1   -1    0    0    0  501  0.00000000000E+00  0.00000000000E+00  0.88270035229E+03  0.88270035230E+03  0.50400001928E-02 0.  1.
        1   -1    0    0  501    0  0.00000000000E+00  0.00000000000E+00 -0.11278461189E+04  0.11278461189E+04  0.50400001928E-02 0. -1.
    10030    2    1    2    0    0  0.00000000000E+00  0.00000000000E+00 -0.24514576657E+03  0.20105464712E+04  0.19955452052E+04 0.  0.
        1    1    3    3  502    0  0.58551225103E+03  0.80246890509E+03 -0.28224775591E+02  0.99376937855E+03  0.50400001928E-02 0. -1.
       -1    1    3    3    0  502 -0.58551225103E+03 -0.80246890509E+03 -0.21692099098E+03  0.10167770926E+04  0.50400001928E-02 0.  1.
</event>
<event>
 5   0  0.7843846E-05  0.1997252E+04  0.7818609E-02  0.8607907E-01
       -2   -1    0    0    0  501  0.00000000000E+00  0.00000000000E+00  0.11388197065E+04  0.11388197065E+04  0.25500000920E-02 0.  1.
        2   -1    0    0  501    0  0.00000000000E+00  0.00000000000E+00 -0.87569070475E+03  0.87569070475E+03  0.25500000920E-02 0. -1.
    10030    2    1    2    0    0  0.00000000000E+00  0.00000000000E+00  0.26312900172E+03  0.20145104112E+04  0.19972519434E+04 0.  0.
        2    1    3    3  502    0  0.59264600485E+03  0.39760668670E+03  0.83612285257E+03  0.10992823973E+04  0.25500000920E-02 0.  1.
       -2    1    3    3    0  502 -0.59264600485E+03 -0.39760668670E+03 -0.57299385085E+03  0.91522801394E+03  0.25500000920E-02 0. -1.
</event>
<event>
 5   0  0.8011197E-05  0.1915068E+04  0.7818609E-02  0.8647392E-01
       -2   -1    0    0    0  501  0.00000000000E+00  0.00000000000E+00  0.72306147805E+03  0.72306147805E+03  0.25500000920E-02 0.  1.
        2   -1    0    0  501    0  0.00000000000E+00  0.00000000000E+00 -0.12680407568E+04  0.12680407568E+04  0.25500000920E-02 0. -1.
    10030    2    1    2    0    0  0.00000000000E+00  0.00000000000E+00 -0.54497927876E+03  0.19911022349E+04  0.19150680655E+04 0.  0.
        5    1    3    3  502    0  0.15805221672E+03  0.88232590555E+02 -0.12500781118E+04  0.12631242492E+04  0.46999998093E+01 0. -1.
       -5    1    3    3    0  502 -0.15805221672E+03 -0.88232590555E+02  0.70509883306E+03  0.72797798567E+03  0.46999998093E+01 0.  1.
</event>
<event>
 5   0  0.3772949E-05  0.2000429E+04  0.7818609E-02  0.8606420E-01
        1   -1    0    0  501    0  0.00000000000E+00  0.00000000000E+00  0.10065803183E+04  0.10065803183E+04  0.50400001928E-02 0.  1.
       -1   -1    0    0    0  501  0.00000000000E+00  0.00000000000E+00 -0.99388891994E+03  0.99388891996E+03  0.50400001928E-02 0. -1.
    10030    2    1    2    0    0  0.00000000000E+00  0.00000000000E+00  0.12691398315E+02  0.20004692382E+04  0.20004289794E+04 0.  0.
        2    1    3    3  502    0  0.27577664116E+03  0.50424379377E+03 -0.81227597081E+03  0.99504111077E+03  0.25500000920E-02 0. -1.
       -2    1    3    3    0  502 -0.27577664116E+03 -0.50424379377E+03  0.82496736912E+03  0.10054281275E+04  0.25500000920E-02 0.  1.
</event>
<event>
 5   0  0.7843846E-05  0.2003977E+04  0.7818609E-02  0.8604763E-01
        2   -1    0    0  501    0  0.00000000000E+00  0.00000000000E+00  0.21552716208E+04  0.21552716208E+04  0.25500000920E-02 0.  1.
       -2   -1    0    0    0  501  0.00000000000E+00  0.00000000000E+00 -0.46582589659E+03  0.46582589660E+03  0.25500000920E-02 0. -1.
    10030    2    1    2    0    0  0.00000000000E+00  0.00000000000E+00  0.16894457242E+04  0.26210975174E+04  0.20039773803E+04 0.  0.
        2    1    3    3  502    0 -0.86412725503E+02 -0.99825134342E+03  0.84852073248E+03  0.13129967011E+04  0.25500000920E-02 0. -1.
       -2    1    3    3    0  502  0.86412725503E+02  0.99825134342E+03  0.84092499174E+03  0.13081008163E+04  0.25500000920E-02 0.  1.
</event>
<event>
 5   0  0.7935008E-05  0.2000143E+04  0.7818609E-02  0.8606554E-01
       -2   -1    0    0    0  501  0.00000000000E+00  0.00000000000E+00  0.15560540053E+04  0.15560540053E+04  0.25500000920E-02 0. -1.
        2   -1    0    0  501    0  0.00000000000E+00  0.00000000000E+00 -0.64274305549E+03  0.64274305549E+03  0.25500000920E-02 0.  1.
    10030    2    1    2    0    0  0.00000000000E+00  0.00000000000E+00  0.91331094983E+03  0.21987970608E+04  0.20001429008E+04 0.  0.
        3    1    3    3  502    0 -0.59520636505E+03  0.76606477749E+03  0.72371791795E+03  0.12103278462E+04  0.10100000352E+00 0. -1.
       -3    1    3    3    0  502  0.59520636505E+03 -0.76606477749E+03  0.18959303188E+03  0.98846921462E+03  0.10100000352E+00 0.  1.
</event>
<event>
 5   0  0.3549426E-05  0.2090037E+04  0.7818609E-02  0.8565645E-01
        1   -1    0    0  501    0  0.00000000000E+00  0.00000000000E+00  0.85799988071E+03  0.85799988073E+03  0.50400001928E-02 0.  1.
       -1   -1    0    0    0  501  0.00000000000E+00  0.00000000000E+00 -0.12728020771E+04  0.12728020771E+04  0.50400001928E-02 0. -1.
    10030    2    1    2    0    0  0.00000000000E+00  0.00000000000E+00 -0.41480219639E+03  0.21308019578E+04  0.20900373493E+04 0.  0.
        5    1    3    3  502    0 -0.16872427582E+03 -0.57204166895E+03 -0.10822417206E+04  0.12357057838E+04  0.46999998093E+01 0. -1.
       -5    1    3    3    0  502  0.16872427582E+03  0.57204166895E+03  0.66743952424E+03  0.89509617404E+03  0.46999998093E+01 0.  1.
</event>
<event>
 5   0  0.3549426E-05  0.1988819E+04  0.7818609E-02  0.8611866E-01
        1   -1    0    0  501    0  0.00000000000E+00  0.00000000000E+00  0.86183326339E+03  0.86183326341E+03  0.50400001928E-02 0. -1.
       -1   -1    0    0    0  501  0.00000000000E+00  0.00000000000E+00 -0.11473797472E+04  0.11473797472E+04  0.50400001928E-02 0.  1.
    10030    2    1    2    0    0  0.00000000000E+00  0.00000000000E+00 -0.28554648379E+03  0.20092130106E+04  0.19888187770E+04 0.  0.
        5    1    3    3  502    0 -0.16478164439E+03 -0.65646223331E+03 -0.87875749908E+03  0.11092035369E+04  0.46999998093E+01 0.  1.
       -5    1    3    3    0  502  0.16478164439E+03  0.65646223331E+03  0.59321101529E+03  0.90000947370E+03  0.46999998093E+01 0. -1.
</event>
<event>
 5   0  0.8022574E-05  0.1968047E+04  0.7818609E-02  0.8621707E-01
        2   -1    0    0  501    0  0.00000000000E+00  0.00000000000E+00  0.82243598514E+03  0.82243598514E+03  0.25500000920E-02 0.  1.
       -2   -1    0    0    0  501  0.00000000000E+00  0.00000000000E+00 -0.11773584815E+04  0.11773584815E+04  0.25500000920E-02 0. -1.
    10030    2    1    2    0    0  0.00000000000E+00  0.00000000000E+00 -0.35492249639E+03  0.19997944667E+04  0.19680467298E+04 0.  0.
        1    1    3    3  502    0 -0.69243803497E+03 -0.38335606907E+03  0.41666705996E+03  0.89445164589E+03  0.50400001928E-02 0.  1.
       -1    1    3    3    0  502  0.69243803497E+03  0.38335606907E+03 -0.77158955635E+03  0.11053428208E+04  0.50400001928E-02 0. -1.
</event>
<event>
 5   0  0.3787698E-05  0.2003904E+04  0.7818609E-02  0.8604797E-01
        1   -1    0    0  501    0  0.00000000000E+00  0.00000000000E+00  0.94060021032E+03  0.94060021033E+03  0.50400001928E-02 0.  1.
       -1   -1    0    0    0  501  0.00000000000E+00  0.00000000000E+00 -0.10673059672E+04  0.10673059673E+04  0.50400001928E-02 0. -1.
    10030    2    1    2    0    0  0.00000000000E+00  0.00000000000E+00 -0.12670575693E+03  0.20079061776E+04  0.20039044062E+04 0.  0.
        4    1    3    3  502    0  0.37476053714E+03  0.42978777514E+03  0.76215133346E+03  0.95186094565E+03  0.12699999809E+01 0.  1.
       -4    1    3    3    0  502 -0.37476053714E+03 -0.42978777514E+03 -0.88885709039E+03  0.10560452319E+04  0.12699999809E+01 0. -1.
</event>
<event>
 5   0  0.3772949E-05  0.1894449E+04  0.7818609E-02  0.8657624E-01
       -1   -1    0    0    0  501  0.00000000000E+00  0.00000000000E+00  0.50571779485E+03  0.50571779487E+03  0.50400001928E-02 0.  1.
        1   -1    0    0  501    0  0.00000000000E+00  0.00000000000E+00 -0.17741797964E+04  0.17741797964E+04  0.50400001928E-02 0. -1.
    10030    2    1    2    0    0  0.00000000000E+00  0.00000000000E+00 -0.12684620015E+04  0.22798975912E+04  0.18944490432E+04 0.  0.
        2    1    3    3  502    0 -0.49420138876E+03 -0.26166430127E+03 -0.15543335072E+04  0.16518643621E+04  0.25500000920E-02 0. -1.
       -2    1    3    3    0  502  0.49420138876E+03  0.26166430127E+03  0.28587150564E+03  0.62803322918E+03  0.25500000920E-02 0.  1.
</event>
<event>
 5   0  0.7857136E-05  0.1972411E+04  0.7818609E-02  0.8619629E-01
       -2   -1    0    0    0  501  0.00000000000E+00  0.00000000000E+00  0.53398378503E+03  0.53398378504E+03  0.25500000920E-02 0.  1.
        2   -1    0    0  501    0  0.00000000000E+00  0.00000000000E+00 -0.18214066664E+04  0.18214066664E+04  0.25500000920E-02 0. -1.
    10030    2    1    2    0    0  0.00000000000E+00  0.00000000000E+00 -0.12874228814E+04  0.23553904514E+04  0.19724113423E+04 0.  0.
        4    1    3    3  502    0 -0.73698963116E+03 -0.40463062929E+03 -0.12592819805E+04  0.15141573174E+04  0.12699999809E+01 0.  1.
       -4    1    3    3    0  502  0.73698963116E+03  0.40463062929E+03 -0.28140900881E+02  0.84123313403E+03  0.12699999809E+01 0. -1.
</event>
<event>
 5   0  0.7843846E-05  0.1974262E+04  0.7818609E-02  0.8618749E-01
       -2   -1    0    0    0  501  0.00000000000E+00  0.00000000000E+00  0.12479879475E+04  0.12479879475E+04  0.25500000920E-02 0.  1.
        2   -1    0    0  501    0  0.00000000000E+00  0.00000000000E+00 -0.78079890717E+03  0.78079890718E+03  0.25500000920E-02 0. -1.
    10030    2    1    2    0    0  0.00000000000E+00  0.00000000000E+00  0.46718904030E+03  0.20287868547E+04  0.19742620146E+04 0.  0.
        2    1    3    3  502    0 -0.65157921546E+03 -0.45448720505E+03  0.83570625783E+03  0.11530477193E+04  0.25500000920E-02 0.  1.
       -2    1    3    3    0  502  0.65157921546E+03  0.45448720505E+03 -0.36851721753E+03  0.87573913536E+03  0.25500000920E-02 0. -1.
</event>
<event>
 5   0  0.7935008E-05  0.2005449E+04  0.7818609E-02  0.8604077E-01
        2   -1    0    0  501    0  0.00000000000E+00  0.00000000000E+00  0.16490309823E+04  0.16490309823E+04  0.25500000920E-02 0. -1.
       -2   -1    0    0    0  501  0.00000000000E+00  0.00000000000E+00 -0.60972545607E+03  0.60972545608E+03  0.25500000920E-02 0.  1.
    10030    2    1    2    0    0  0.00000000000E+00  0.00000000000E+00  0.10393055262E+04  0.22587564384E+04  0.20054487455E+04 0.  0.
        3    1    3    3  502    0  0.61025907547E+03 -0.28616014995E+03  0.13558210321E+04  0.15141183744E+04  0.10100000352E+00 0. -1.
       -3    1    3    3    0  502 -0.61025907547E+03  0.28616014995E+03 -0.31651550584E+03  0.74463806393E+03  0.10100000352E+00 0.  1.
</event>
<event>
 5   0  0.2859625E-05  0.2013610E+04  0.7818609E-02  0.8600284E-01
       -4   -1    0    0    0  501  0.00000000000E+00  0.00000000000E+00  0.77232648831E+03  0.77232753249E+03  0.12699999809E+01 0.  1.
        4   -1    0    0  501    0  0.00000000000E+00  0.00000000000E+00 -0.13124684910E+04  0.13124691054E+04  0.12699999809E+01 0. -1.
    10030    2    1    2    0    0  0.00000000000E+00  0.00000000000E+00 -0.54014200266E+03  0.20847966379E+04  0.20136096043E+04 0.  0.
        1    1    3    3  502    0 -0.40938806874E+03  0.27750125812E+03  0.63788711850E+03  0.80715891562E+03  0.50400001928E-02 0.  1.
       -1    1    3    3    0  502  0.40938806874E+03 -0.27750125812E+03 -0.11780291212E+04  0.12776377223E+04  0.50400001928E-02 0. -1.
</event>
<event>
 5   0  0.7857136E-05  0.1983503E+04  0.7818609E-02  0.8614372E-01
        2   -1    0    0  501    0  0.00000000000E+00  0.00000000000E+00  0.89349726972E+03  0.89349726972E+03  0.25500000920E-02 0.  1.
       -2   -1    0    0    0  501  0.00000000000E+00  0.00000000000E+00 -0.11008108213E+04  0.11008108213E+04  0.25500000920E-02 0. -1.
    10030    2    1    2    0    0  0.00000000000E+00  0.00000000000E+00 -0.20731355163E+03  0.19943080911E+04  0.19835034291E+04 0.  0.
        4    1    3    3  502    0 -0.52763709513E+03 -0.81076331745E+03 -0.32355291766E+03  0.10200128257E+04  0.12699999809E+01 0. -1.
       -4    1    3    3    0  502  0.52763709513E+03  0.81076331745E+03  0.11623936604E+03  0.97429526541E+03  0.12699999809E+01 0.  1.
</event>
<event>
 5   0  0.7935008E-05  0.2006111E+04  0.7818609E-02  0.8603769E-01
        2   -1    0    0  501    0  0.00000000000E+00  0.00000000000E+00  0.15886990251E+04  0.15886990251E+04  0.25500000920E-02 0. -1.
       -2   -1    0    0    0  501  0.00000000000E+00  0.00000000000E+00 -0.63329824614E+03  0.63329824614E+03  0.25500000920E-02 0.  1.
    10030    2    1    2    0    0  0.00000000000E+00  0.00000000000E+00  0.95540077893E+03  0.22219972712E+04  0.20061109702E+04 0.  0.
        3    1    3    3  502    0  0.59301084248E+03 -0.23865838097E+03 -0.37846515550E+03  0.74286981783E+03  0.10100000352E+00 0.  1.
       -3    1    3    3    0  502 -0.59301084248E+03  0.23865838097E+03  0.13338659344E+04  0.14791274534E+04  0.10100000352E+00 0. -1.
</event>
<event>
 5   0  0.3970042E-05  0.1865548E+04  0.7818609E-02  0.8672198E-01
       -1   -1    0    0    0  501  0.00000000000E+00  0.00000000000E+00  0.67447933051E+03  0.67447933053E+03  0.50400001928E-02 0. -1.
        1   -1    0    0  501    0  0.00000000000E+00  0.00000000000E+00 -0.12899837643E+04  0.12899837643E+04  0.50400001928E-02 0.  1.
    10030    2    1    2    0    0  0.00000000000E+00  0.00000000000E+00 -0.61550443376E+03  0.19644630948E+04  0.18655480543E+04 0.  0.
        3    1    3    3  502    0  0.28526001730E+03  0.75884347348E+03  0.17806729776E+03  0.83001485978E+03  0.10100000352E+00 0. -1.
       -3    1    3    3    0  502 -0.28526001730E+03 -0.75884347348E+03 -0.79357173152E+03  0.11344482350E+04  0.10100000352E+00 0.  1.
</event>
<event>
 5   0  0.7935008E-05  0.2010622E+04  0.7818609E-02  0.8601670E-01
        2   -1    0    0  501    0  0.00000000000E+00  0.00000000000E+00  0.14027771886E+04  0.14027771886E+04  0.25500000920E-02 0. -1.
       -2   -1    0    0    0  501  0.00000000000E+00  0.00000000000E+00 -0.72046417289E+03  0.72046417290E+03  0.25500000920E-02 0.  1.
    10030    2    1    2    0    0  0.00000000000E+00  0.00000000000E+00  0.68231301568E+03  0.21232413615E+04  0.20106224976E+04 0.  0.
        3    1    3    3  502    0  0.57546337770E+03 -0.65916821815E+02  0.12088536811E+04  0.13404590105E+04  0.10100000352E+00 0. -1.
       -3    1    3    3    0  502 -0.57546337770E+03  0.65916821815E+02 -0.52654066538E+03  0.78278235096E+03  0.10100000352E+00 0.  1.
</event>
<event>
 5   0  0.3772949E-05  0.2009174E+04  0.7818609E-02  0.8602343E-01
        1   -1    0    0  501    0  0.00000000000E+00  0.00000000000E+00  0.11707773783E+04  0.11707773783E+04  0.50400001928E-02 0. -1.
       -1   -1    0    0    0  501  0.00000000000E+00  0.00000000000E+00 -0.86198750752E+03  0.86198750753E+03  0.50400001928E-02 0.  1.
    10030    2    1    2    0    0  0.00000000000E+00  0.00000000000E+00  0.30878987075E+03  0.20327648858E+04  0.20091744316E+04 0.  0.
        2    1    3    3  502    0 -0.12182807853E+03 -0.12952697785E+03 -0.84593855125E+03  0.86442544572E+03  0.25500000920E-02 0.  1.
       -2    1    3    3    0  502  0.12182807853E+03  0.12952697785E+03  0.11547284220E+04  0.11683394401E+04  0.25500000920E-02 0. -1.
</event>
<event>
 5   0  0.3818907E-05  0.1984751E+04  0.7818609E-02  0.8613784E-01
        1   -1    0    0  501    0  0.00000000000E+00  0.00000000000E+00  0.20265968965E+04  0.20265968965E+04  0.50400001928E-02 0. -1.
       -1   -1    0    0    0  501  0.00000000000E+00  0.00000000000E+00 -0.48594212225E+03  0.48594212227E+03  0.50400001928E-02 0.  1.
    10030    2    1    2    0    0  0.00000000000E+00  0.00000000000E+00  0.15406547742E+04  0.25125390188E+04  0.19847506613E+04 0.  0.
        1    1    3    3  502    0  0.55144319183E+03 -0.14152255165E+03 -0.25865019674E+03  0.62531444149E+03  0.50400001928E-02 0.  1.
       -1    1    3    3    0  502 -0.55144319183E+03  0.14152255165E+03  0.17993049710E+04  0.18872245773E+04  0.50400001928E-02 0. -1.
</event>
<event>
 5   0  0.7857136E-05  0.1965646E+04  0.7818609E-02  0.8622853E-01
       -2   -1    0    0    0  501  0.00000000000E+00  0.00000000000E+00  0.10387390561E+04  0.10387390561E+04  0.25500000920E-02 0. -1.
        2   -1    0    0  501    0  0.00000000000E+00  0.00000000000E+00 -0.92991698143E+03  0.92991698144E+03  0.25500000920E-02 0.  1.
    10030    2    1    2    0    0  0.00000000000E+00  0.00000000000E+00  0.10882207462E+03  0.19686560375E+04  0.19656460388E+04 0.  0.
        4    1    3    3  502    0 -0.63076706182E+03 -0.22789897566E+03  0.77393613861E+03  0.10241014544E+04  0.12699999809E+01 0. -1.
       -4    1    3    3    0  502  0.63076706182E+03  0.22789897566E+03 -0.66511406399E+03  0.94455458308E+03  0.12699999809E+01 0.  1.
</event>
<event>
 5   0  0.7857136E-05  0.2001494E+04  0.7818609E-02  0.8605923E-01
        2   -1    0    0  501    0  0.00000000000E+00  0.00000000000E+00  0.13675409829E+04  0.13675409829E+04  0.25500000920E-02 0.  1.
       -2   -1    0    0    0  501  0.00000000000E+00  0.00000000000E+00 -0.73233222727E+03  0.73233222727E+03  0.25500000920E-02 0. -1.
    10030    2    1    2    0    0  0.00000000000E+00  0.00000000000E+00  0.63520875564E+03  0.20998732102E+04  0.20014937761E+04 0.  0.
        4    1    3    3  502    0  0.86417096963E+03 -0.49301458887E+03  0.43078591974E+03  0.10841738657E+04  0.12699999809E+01 0. -1.
       -4    1    3    3    0  502 -0.86417096963E+03  0.49301458887E+03  0.20442283590E+03  0.10156993444E+04  0.12699999809E+01 0.  1.
</event>
<event>
 5   0  0.7857136E-05  0.2002332E+04  0.7818609E-02  0.8605531E-01
       -2   -1    0    0    0  501  0.00000000000E+00  0.00000000000E+00  0.10308789396E+04  0.10308789396E+04  0.25500000920E-02 0. -1.
        2   -1    0    0  501    0  0.00000000000E+00  0.00000000000E+00 -0.97230929604E+03  0.97230929604E+03  0.25500000920E-02 0.  1.
    10030    2    1    2    0    0  0.00000000000E+00  0.00000000000E+00  0.58569643524E+02  0.20031882356E+04  0.20023318167E+04 0.  0.
        4    1    3    3  502    0  0.34411869632E+03 -0.34345051919E+03  0.90484805873E+03  0.10271940219E+04  0.12699999809E+01 0. -1.
       -4    1    3    3    0  502 -0.34411869632E+03  0.34345051919E+03 -0.84627841521E+03  0.97599421373E+03  0.12699999809E+01 0.  1.
</event>
<event>
 5   0  0.2859625E-05  0.1987357E+04  0.7818609E-02  0.8612555E-01
       -3   -1    0    0    0  501  0.00000000000E+00  0.00000000000E+00  0.67282619928E+03  0.67282620686E+03  0.10100000352E+00 0.  1.
        3   -1    0    0  501    0  0.00000000000E+00  0.00000000000E+00 -0.14675362199E+04  0.14675362234E+04  0.10100000352E+00 0. -1.
    10030    2    1    2    0    0  0.00000000000E+00  0.00000000000E+00 -0.79471002066E+03  0.21403624303E+04  0.19873568668E+04 0.  0.
        3    1    3    3  502    0 -0.30101378870E+03  0.20666972474E+03 -0.13926676071E+04  0.14397377366E+04  0.10100000352E+00 0. -1.
       -3    1    3    3    0  502  0.30101378870E+03 -0.20666972474E+03  0.59795758640E+03  0.70062469372E+03  0.10100000352E+00 0.  1.
</event>
<event>
 5   0  0.3818907E-05  0.1974180E+04  0.7818609E-02  0.8618788E-01
        1   -1    0    0  501    0  0.00000000000E+00  0.00000000000E+00  0.10350328221E+04  0.10350328221E+04  0.50400001928E-02 0. -1.
       -1   -1    0    0    0  501  0.00000000000E+00  0.00000000000E+00 -0.94136821646E+03  0.94136821647E+03  0.50400001928E-02 0.  1.
    10030    2    1    2    0    0  0.00000000000E+00  0.00000000000E+00  0.93664605614E+02  0.19764010386E+04  0.19741803380E+04 0.  0.
        1    1    3    3  502    0 -0.18124459246E+02 -0.62584471664E+03 -0.71713611430E+03  0.95199491166E+03  0.50400001928E-02 0.  1.
       -1    1    3    3    0  502  0.18124459246E+02  0.62584471664E+03  0.81080071991E+03  0.10244061269E+04  0.50400001928E-02 0. -1.
</event>
<event>
 5   0  0.2859625E-05  0.2180922E+04  0.7818609E-02  0.8526411E-01
        3   -1    0    0  501    0  0.00000000000E+00  0.00000000000E+00  0.49470655007E+03  0.49470656038E+03  0.10100000352E+00 0.  1.
       -3   -1    0    0    0  501  0.00000000000E+00  0.00000000000E+00 -0.24036574740E+04  0.24036574761E+04  0.10100000352E+00 0. -1.
    10030    2    1    2    0    0  0.00000000000E+00  0.00000000000E+00 -0.19089509239E+04  0.28983640365E+04  0.21809219285E+04 0.  0.
        5    1    3    3  502    0 -0.10194237410E+04 -0.14943448191E+03 -0.14290614376E+04  0.17617588116E+04  0.46999998093E+01 0. -1.
       -5    1    3    3    0  502  0.10194237410E+04  0.14943448191E+03 -0.47988948634E+03  0.11366052248E+04  0.46999998093E+01 0.  1.
</event>
<event>
 5   0  0.7935008E-05  0.1988313E+04  0.7818609E-02  0.8612104E-01
       -2   -1    0    0    0  501  0.00000000000E+00  0.00000000000E+00  0.87381266473E+03  0.87381266473E+03  0.25500000920E-02 0.  1.
        2   -1    0    0  501    0  0.00000000000E+00  0.00000000000E+00 -0.11310748361E+04  0.11310748361E+04  0.25500000920E-02 0. -1.
    10030    2    1    2    0    0  0.00000000000E+00  0.00000000000E+00 -0.25726217133E+03  0.20048875008E+04  0.19883133722E+04 0.  0.
        3    1    3    3  502    0 -0.41104889215E+03  0.14162678607E+03  0.77287307156E+03  0.88676498195E+03  0.10100000352E+00 0.  1.
       -3    1    3    3    0  502  0.41104889215E+03 -0.14162678607E+03 -0.10301352429E+04  0.11181225188E+04  0.10100000352E+00 0. -1.
</event>
<event>
 5   0  0.8022574E-05  0.1995198E+04  0.7818609E-02  0.8608869E-01
       -2   -1    0    0    0  501  0.00000000000E+00  0.00000000000E+00  0.51256365937E+03  0.51256365937E+03  0.25500000920E-02 0. -1.
        2   -1    0    0  501    0  0.00000000000E+00  0.00000000000E+00 -0.19416192579E+04  0.19416192579E+04  0.25500000920E-02 0.  1.
    10030    2    1    2    0    0  0.00000000000E+00  0.00000000000E+00 -0.14290555985E+04  0.24541829173E+04  0.19951977064E+04 0.  0.
        1    1    3    3  502    0  0.53719904499E+03 -0.60275040701E+02 -0.17458510699E+04  0.18276246477E+04  0.50400001928E-02 0.  1.
       -1    1    3    3    0  502 -0.53719904499E+03  0.60275040701E+02  0.31679547139E+03  0.62655826959E+03  0.50400001928E-02 0. -1.
</event>
<event>
 5   0  0.2859625E-05  0.2011704E+04  0.7818609E-02  0.8601168E-01
       -4   -1    0    0    0  501  0.00000000000E+00  0.00000000000E+00  0.84596518411E+03  0.84596613740E+03  0.12699999809E+01 0.  1.
        4   -1    0    0  501    0  0.00000000000E+00  0.00000000000E+00 -0.11959556724E+04  0.11959563468E+04  0.12699999809E+01 0. -1.
    10030    2    1    2    0    0  0.00000000000E+00  0.00000000000E+00 -0.34999048834E+03  0.20419224842E+04  0.20117042748E+04 0.  0.
        5    1    3    3  502    0  0.32080520997E+03  0.40924969255E+02  0.79174283020E+03  0.85525998096E+03  0.46999998093E+01 0.  1.
       -5    1    3    3    0  502 -0.32080520997E+03 -0.40924969255E+02 -0.11417333185E+04  0.11866625032E+04  0.46999998093E+01 0. -1.
</event>
<event>
 5   0  0.3818907E-05  0.2004577E+04  0.7818609E-02  0.8604484E-01
       -1   -1    0    0    0  501  0.00000000000E+00  0.00000000000E+00  0.11661299697E+04  0.11661299697E+04  0.50400001928E-02 0.  1.
        1   -1    0    0  501    0  0.00000000000E+00  0.00000000000E+00 -0.86146698107E+03  0.86146698109E+03  0.50400001928E-02 0. -1.
    10030    2    1    2    0    0  0.00000000000E+00  0.00000000000E+00  0.30466298865E+03  0.20275969508E+04  0.20045772268E+04 0.  0.
        1    1    3    3  502    0  0.34633258518E+03 -0.53774088455E+03 -0.62819765279E+03  0.89651760132E+03  0.50400001928E-02 0. -1.
       -1    1    3    3    0  502 -0.34633258518E+03  0.53774088455E+03  0.93286064144E+03  0.11310793495E+04  0.50400001928E-02 0.  1.
</event>
<event>
 5   0  0.3772949E-05  0.2015219E+04  0.7818609E-02  0.8599538E-01
       -1   -1    0    0    0  501  0.00000000000E+00  0.00000000000E+00  0.10111984930E+04  0.10111984930E+04  0.50400001928E-02 0. -1.
        1   -1    0    0  501    0  0.00000000000E+00  0.00000000000E+00 -0.10040333361E+04  0.10040333362E+04  0.50400001928E-02 0.  1.
    10030    2    1    2    0    0  0.00000000000E+00  0.00000000000E+00  0.71651568381E+01  0.20152318292E+04  0.20152190913E+04 0.  0.
        2    1    3    3  502    0 -0.53069784290E+03 -0.53385819172E+03  0.67338695180E+03  0.10099974041E+04  0.25500000920E-02 0. -1.
       -2    1    3    3    0  502  0.53069784290E+03  0.53385819172E+03 -0.66622179496E+03  0.10052344251E+04  0.25500000920E-02 0.  1.
</event>
<event>
 5   0  0.7935008E-05  0.2043341E+04  0.7818609E-02  0.8586621E-01
       -2   -1    0    0    0  501  0.00000000000E+00  0.00000000000E+00  0.15599481716E+04  0.15599481716E+04  0.25500000920E-02 0.  1.
        2   -1    0    0  501    0  0.00000000000E+00  0.00000000000E+00 -0.66913141025E+03  0.66913141025E+03  0.25500000920E-02 0. -1.
    10030    2    1    2    0    0  0.00000000000E+00  0.00000000000E+00  0.89081676139E+03  0.22290795819E+04  0.20433407156E+04 0.  0.
        3    1    3    3  502    0 -0.41782248709E+03  0.57660059320E+03  0.12446488393E+04  0.14339437291E+04  0.10100000352E+00 0.  1.
       -3    1    3    3    0  502  0.41782248709E+03 -0.57660059320E+03 -0.35383207794E+03  0.79513585279E+03  0.10100000352E+00 0. -1.
</event>
<event>
 5   0  0.3772949E-05  0.1997437E+04  0.7818609E-02  0.8607820E-01
        1   -1    0    0  501    0  0.00000000000E+00  0.00000000000E+00  0.18127971020E+04  0.18127971020E+04  0.50400001928E-02 0.  1.
       -1   -1    0    0    0  501  0.00000000000E+00  0.00000000000E+00 -0.55022079200E+03  0.55022079202E+03  0.50400001928E-02 0. -1.
    10030    2    1    2    0    0  0.00000000000E+00  0.00000000000E+00  0.12625763100E+04  0.23630178940E+04  0.19974370150E+04 0.  0.
        2    1    3    3  502    0  0.15963178939E+03  0.21079283844E+03  0.17706356373E+04  0.17902699486E+04  0.25500000920E-02 0.  1.
       -2    1    3    3    0  502 -0.15963178939E+03 -0.21079283844E+03 -0.50805932728E+03  0.57274794541E+03  0.25500000920E-02 0. -1.
</event>
<event>
 5   0  0.7843846E-05  0.1968867E+04  0.7818609E-02  0.8621316E-01
        2   -1    0    0  501    0  0.00000000000E+00  0.00000000000E+00  0.12196676241E+04  0.12196676241E+04  0.25500000920E-02 0. -1.
       -2   -1    0    0    0  501  0.00000000000E+00  0.00000000000E+00 -0.79456870980E+03  0.79456870981E+03  0.25500000920E-02 0.  1.
    10030    2    1    2    0    0  0.00000000000E+00  0.00000000000E+00  0.42509891428E+03  0.20142363339E+04  0.19688674211E+04 0.  0.
        2    1    3    3  502    0 -0.87179407154E+02  0.67663573963E+03 -0.51350388444E+03  0.85388665085E+03  0.25500000920E-02 0.  1.
       -2    1    3    3    0  502  0.87179407154E+02 -0.67663573963E+03  0.93860279872E+03  0.11603496830E+04  0.25500000920E-02 0. -1.
</event>
<event>
 5   0  0.3970042E-05  0.2011607E+04  0.7818609E-02  0.8601213E-01
        1   -1    0    0  501    0  0.00000000000E+00  0.00000000000E+00  0.21782096752E+04  0.21782096752E+04  0.50400001928E-02 0.  1.
       -1   -1    0    0    0  501  0.00000000000E+00  0.00000000000E+00 -0.46443678152E+03  0.46443678154E+03  0.50400001928E-02 0. -1.
    10030    2    1    2    0    0  0.00000000000E+00  0.00000000000E+00  0.17137728937E+04  0.26426464568E+04  0.20116070104E+04 0.  0.
        3    1    3    3  502    0  0.24364492303E+03 -0.18493389194E+03  0.21156250368E+04  0.21376231425E+04  0.10100000352E+00 0.  1.
       -3    1    3    3    0  502 -0.24364492303E+03  0.18493389194E+03 -0.40185214305E+03  0.50502331429E+03  0.10100000352E+00 0. -1.
</event>
<event>
 5   0  0.3818907E-05  0.1952788E+04  0.7818609E-02  0.8629017E-01
        1   -1    0    0  501    0  0.00000000000E+00  0.00000000000E+00  0.11084396534E+04  0.11084396534E+04  0.50400001928E-02 0.  1.
       -1   -1    0    0    0  501  0.00000000000E+00  0.00000000000E+00 -0.86007898909E+03  0.86007898910E+03  0.50400001928E-02 0. -1.
    10030    2    1    2    0    0  0.00000000000E+00  0.00000000000E+00  0.24836066428E+03  0.19685186425E+04  0.19527884233E+04 0.  0.
        1    1    3    3  502    0 -0.96803042457E+02 -0.12540855291E+03  0.10953972516E+04  0.11067941421E+04  0.50400001928E-02 0.  1.
       -1    1    3    3    0  502  0.96803042457E+02  0.12540855291E+03 -0.84703658734E+03  0.86172450034E+03  0.50400001928E-02 0. -1.
</event>
<event>
 5   0  0.7857136E-05  0.1998238E+04  0.7818609E-02  0.8607445E-01
        2   -1    0    0  501    0  0.00000000000E+00  0.00000000000E+00  0.25964068171E+04  0.25964068171E+04  0.25500000920E-02 0. -1.
       -2   -1    0    0    0  501  0.00000000000E+00  0.00000000000E+00 -0.38446920304E+03  0.38446920305E+03  0.25500000920E-02 0.  1.
    10030    2    1    2    0    0  0.00000000000E+00  0.00000000000E+00  0.22119376141E+04  0.29808760202E+04  0.19982376833E+04 0.  0.
        4    1    3    3  502    0  0.47529952825E+02 -0.44982647745E+02 -0.38126750185E+03  0.38684500240E+03  0.12699999809E+01 0.  1.
       -4    1    3    3    0  502 -0.47529952825E+02  0.44982647745E+02  0.25932051159E+04  0.25940310178E+04  0.12699999809E+01 0. -1.
</event>
<event>
 5   0  0.8011197E-05  0.2052912E+04  0.7818609E-02  0.8582274E-01
       -2   -1    0    0    0  501  0.00000000000E+00  0.00000000000E+00  0.41581455786E+03  0.41581455786E+03  0.25500000920E-02 0. -1.
        2   -1    0    0  501    0  0.00000000000E+00  0.00000000000E+00 -0.25338507284E+04  0.25338507284E+04  0.25500000920E-02 0.  1.
    10030    2    1    2    0    0  0.00000000000E+00  0.00000000000E+00 -0.21180361706E+04  0.29496652863E+04  0.20529120978E+04 0.  0.
        5    1    3    3  502    0  0.52128799706E+03 -0.72595256955E+03 -0.17843512958E+04  0.19956652890E+04  0.46999998093E+01 0.  1.
       -5    1    3    3    0  502 -0.52128799706E+03  0.72595256955E+03 -0.33368487480E+03  0.95399999726E+03  0.46999998093E+01 0. -1.
</event>
<event>
 5   0  0.3772949E-05  0.1997437E+04  0.7818609E-02  0.8607820E-01
        1   -1    0    0  501    0  0.00000000000E+00  0.00000000000E+00  0.65220770087E+03  0.65220770089E+03  0.50400001928E-02 0. -1.
       -1   -1    0    0    0  501  0.00000000000E+00  0.00000000000E+00 -0.15293262406E+04  0.15293262406E+04  0.50400001928E-02 0.  1.
    10030    2    1    2    0    0  0.00000000000E+00  0.00000000000E+00 -0.87711853969E+03  0.21815339415E+04  0.19974367086E+04 0.  0.
        2    1    3    3  502    0  0.43492022276E+03 -0.88234443163E+03 -0.25017695328E+03  0.10150250264E+04  0.25500000920E-02 0. -1.
       -2    1    3    3    0  502 -0.43492022276E+03  0.88234443163E+03 -0.62694158642E+03  0.11665089151E+04  0.25500000920E-02 0.  1.
</event>
<event>
 5   0  0.3772949E-05  0.2035134E+04  0.7818609E-02  0.8590368E-01
        1   -1    0    0  501    0  0.00000000000E+00  0.00000000000E+00  0.12189866673E+04  0.12189866673E+04  0.50400001928E-02 0.  1.
       -1   -1    0    0    0  501  0.00000000000E+00  0.00000000000E+00 -0.84942893095E+03  0.84942893097E+03  0.50400001928E-02 0. -1.
    10030    2    1    2    0    0  0.00000000000E+00  0.00000000000E+00  0.36955773630E+03  0.20684155982E+04  0.20351339432E+04 0.  0.
        2    1    3    3  502    0 -0.11335714510E+03 -0.59213643121E+03  0.10179204805E+04  0.11830627626E+04  0.25500000920E-02 0.  1.
       -2    1    3    3    0  502  0.11335714510E+03  0.59213643121E+03 -0.64836274422E+03  0.88535283566E+03  0.25500000920E-02 0. -1.
</event>
<event>
 5   0  0.3818907E-05  0.1997900E+04  0.7818609E-02  0.8607603E-01
       -1   -1    0    0    0  501  0.00000000000E+00  0.00000000000E+00  0.91123702514E+03  0.91123702516E+03  0.50400001928E-02 0.  1.
        1   -1    0    0  501    0  0.00000000000E+00  0.00000000000E+00 -0.10951057010E+04  0.10951057010E+04  0.50400001928E-02 0. -1.
    10030    2    1    2    0    0  0.00000000000E+00  0.00000000000E+00 -0.18386867587E+03  0.20063427262E+04  0.19978997585E+04 0.  0.
        1    1    3    3  502    0 -0.56446359912E+03 -0.96204922956E+02 -0.91394482585E+03  0.10785034477E+04  0.50400001928E-02 0. -1.
       -1    1    3    3    0  502  0.56446359912E+03  0.96204922956E+02  0.73007614998E+03  0.92783927850E+03  0.50400001928E-02 0.  1.
</event>
<event>
 5   0  0.3549426E-05  0.2010572E+04  0.7818609E-02  0.8601694E-01
       -1   -1    0    0    0  501  0.00000000000E+00  0.00000000000E+00  0.11856744162E+04  0.11856744162E+04  0.50400001928E-02 0.  1.
        1   -1    0    0  501    0  0.00000000000E+00  0.00000000000E+00 -0.85234226336E+03  0.85234226337E+03  0.50400001928E-02 0. -1.
    10030    2    1    2    0    0  0.00000000000E+00  0.00000000000E+00  0.33333215285E+03  0.20380166796E+04  0.20105724713E+04 0.  0.
        5    1    3    3  502    0  0.54985713953E+03  0.46218977459E+03  0.87955540006E+03  0.11356064694E+04  0.46999998093E+01 0.  1.
       -5    1    3    3    0  502 -0.54985713953E+03 -0.46218977459E+03 -0.54622324721E+03  0.90241021017E+03  0.46999998093E+01 0. -1.
</event>
<event>
 5   0  0.3970042E-05  0.1997814E+04  0.7818609E-02  0.8607643E-01
       -1   -1    0    0    0  501  0.00000000000E+00  0.00000000000E+00  0.13455557238E+04  0.13455557238E+04  0.50400001928E-02 0.  1.
        1   -1    0    0  501    0  0.00000000000E+00  0.00000000000E+00 -0.74156370098E+03  0.74156370100E+03  0.50400001928E-02 0. -1.
    10030    2    1    2    0    0  0.00000000000E+00  0.00000000000E+00  0.60399202280E+03  0.20871194248E+04  0.19978140879E+04 0.  0.
        3    1    3    3  502    0  0.60746405085E+02 -0.42893057244E+02 -0.73866794903E+03  0.74240170340E+03  0.10100000352E+00 0. -1.
       -3    1    3    3    0  502 -0.60746405085E+02  0.42893057244E+02  0.13426599718E+04  0.13447177214E+04  0.10100000352E+00 0.  1.
</event>
<event>
 5   0  0.8022574E-05  0.1982338E+04  0.7818609E-02  0.8614923E-01
        2   -1    0    0  501    0  0.00000000000E+00  0.00000000000E+00  0.21884928091E+04  0.21884928091E+04  0.25500000920E-02 0. -1.
       -2   -1    0    0    0  501  0.00000000000E+00  0.00000000000E+00 -0.44890074607E+03  0.44890074608E+03  0.25500000920E-02 0.  1.
    10030    2    1    2    0    0  0.00000000000E+00  0.00000000000E+00  0.17395920630E+04  0.26373935551E+04  0.19823380688E+04 0.  0.
        1    1    3    3  502    0 -0.27916138479E+03  0.93109510360E+03  0.11275967777E+04  0.14887389508E+04  0.50400001928E-02 0. -1.
       -1    1    3    3    0  502  0.27916138479E+03 -0.93109510360E+03  0.61199528531E+03  0.11486546043E+04  0.50400001928E-02 0.  1.
</event>
<event>
 5   0  0.3549426E-05  0.2021030E+04  0.7818609E-02  0.8596851E-01
        1   -1    0    0  501    0  0.00000000000E+00  0.00000000000E+00  0.10490392294E+04  0.10490392294E+04  0.50400001928E-02 0.  1.
       -1   -1    0    0    0  501  0.00000000000E+00  0.00000000000E+00 -0.97340565232E+03  0.97340565233E+03  0.50400001928E-02 0. -1.
    10030    2    1    2    0    0  0.00000000000E+00  0.00000000000E+00  0.75633577053E+02  0.20224448817E+04  0.20210301486E+04 0.  0.
        5    1    3    3  502    0 -0.33194080124E+03 -0.75680900754E+03  0.61975120869E+03  0.10329851016E+04  0.46999998093E+01 0.  1.
       -5    1    3    3    0  502  0.33194080124E+03  0.75680900754E+03 -0.54411763163E+03  0.98945978012E+03  0.46999998093E+01 0. -1.
</event>
<event>
 5   0  0.3818907E-05  0.2015083E+04  0.7818609E-02  0.8599601E-01
        1   -1    0    0  501    0  0.00000000000E+00  0.00000000000E+00  0.23869430067E+04  0.23869430067E+04  0.50400001928E-02 0. -1.
       -1   -1    0    0    0  501  0.00000000000E+00  0.00000000000E+00 -0.42528856835E+03  0.42528856838E+03  0.50400001928E-02 0.  1.
    10030    2    1    2    0    0  0.00000000000E+00  0.00000000000E+00  0.19616544383E+04  0.28122315751E+04  0.20150827021E+04 0.  0.
        1    1    3    3  502    0  0.61119810378E+02 -0.66634099430E+03 -0.70409276927E+02  0.67283238493E+03  0.50400001928E-02 0.  1.
       -1    1    3    3    0  502 -0.61119810378E+02  0.66634099430E+03  0.20320637153E+04  0.21393991901E+04  0.50400001928E-02 0. -1.
</event>
<event>
 5   0  0.3818907E-05  0.1990903E+04  0.7818609E-02  0.8610886E-01
        1   -1    0    0  501    0  0.00000000000E+00  0.00000000000E+00  0.99404127717E+03  0.99404127719E+03  0.50400001928E-02 0. -1.
       -1   -1    0    0    0  501  0.00000000000E+00  0.00000000000E+00 -0.99686345745E+03  0.99686345746E+03  0.50400001928E-02 0.  1.
    10030    2    1    2    0    0  0.00000000000E+00  0.00000000000E+00 -0.28221802751E+01  0.19909047346E+04  0.19909027344E+04 0.  0.
        1    1    3    3  502    0 -0.11565084054E+02  0.77546847088E+03  0.62263947388E+03  0.99456775283E+03  0.50400001928E-02 0. -1.
       -1    1    3    3    0  502  0.11565084054E+02 -0.77546847088E+03 -0.62546165416E+03  0.99633698182E+03  0.50400001928E-02 0.  1.
</event>
<event>
 5   0  0.3772949E-05  0.2006997E+04  0.7818609E-02  0.8603356E-01
        1   -1    0    0  501    0  0.00000000000E+00  0.00000000000E+00  0.69750897357E+03  0.69750897358E+03  0.50400001928E-02 0. -1.
       -1   -1    0    0    0  501  0.00000000000E+00  0.00000000000E+00 -0.14437228067E+04  0.14437228067E+04  0.50400001928E-02 0.  1.
    10030    2    1    2    0    0  0.00000000000E+00  0.00000000000E+00 -0.74621383309E+03  0.21412317803E+04  0.20069973722E+04 0.  0.
        2    1    3    3  502    0  0.37566945517E+03 -0.30942286426E+03 -0.13093779650E+04  0.13969039708E+04  0.25500000920E-02 0.  1.
       -2    1    3    3    0  502 -0.37566945517E+03  0.30942286426E+03  0.56316413188E+03  0.74432780945E+03  0.25500000920E-02 0. -1.
</event>
<event>
 5   0  0.3970042E-05  0.2019529E+04  0.7818609E-02  0.8597544E-01
        1   -1    0    0  501    0  0.00000000000E+00  0.00000000000E+00  0.12834292094E+04  0.12834292094E+04  0.50400001928E-02 0.  1.
       -1   -1    0    0    0  501  0.00000000000E+00  0.00000000000E+00 -0.79445308388E+03  0.79445308390E+03  0.50400001928E-02 0. -1.
    10030    2    1    2    0    0  0.00000000000E+00  0.00000000000E+00  0.48897612554E+03  0.20778822933E+04  0.20195289484E+04 0.  0.
        3    1    3    3  502    0 -0.94750583514E+03  0.34165646178E+03  0.31816609102E+03  0.10562793746E+04  0.10100000352E+00 0.  1.
       -3    1    3    3    0  502  0.94750583514E+03 -0.34165646178E+03  0.17081003452E+03  0.10216029187E+04  0.10100000352E+00 0. -1.
</event>
<event>
 5   0  0.8022574E-05  0.1966239E+04  0.7818609E-02  0.8622570E-01
       -2   -1    0    0    0  501  0.00000000000E+00  0.00000000000E+00  0.60545147137E+03  0.60545147138E+03  0.25500000920E-02 0. -1.
        2   -1    0    0  501    0  0.00000000000E+00  0.00000000000E+00 -0.15963687562E+04  0.15963687562E+04  0.25500000920E-02 0.  1.
    10030    2    1    2    0    0  0.00000000000E+00  0.00000000000E+00 -0.99091728486E+03  0.22018202276E+04  0.19662388587E+04 0.  0.
        1    1    3    3  502    0  0.47858851958E+03 -0.31236330077E+02 -0.14564783460E+04  0.15334118337E+04  0.50400001928E-02 0.  1.
       -1    1    3    3    0  502 -0.47858851958E+03  0.31236330077E+02  0.46556106113E+03  0.66840839391E+03  0.50400001928E-02 0. -1.
</event>
<event>
 5   0  0.7935008E-05  0.2000139E+04  0.7818609E-02  0.8606555E-01
        2   -1    0    0  501    0  0.00000000000E+00  0.00000000000E+00  0.11941123358E+04  0.11941123358E+04  0.25500000920E-02 0.  1.
       -2   -1    0    0    0  501  0.00000000000E+00  0.00000000000E+00 -0.83755897360E+03  0.83755897361E+03  0.25500000920E-02 0. -1.
    10030    2    1    2    0    0  0.00000000000E+00  0.00000000000E+00  0.35655336216E+03  0.20316713094E+04  0.20001394975E+04 0.  0.
        3    1    3    3  502    0  0.39706551430E+03  0.46612016846E+03  0.98144446223E+03  0.11567896424E+04  0.10100000352E+00 0.  1.
       -3    1    3    3    0  502 -0.39706551430E+03 -0.46612016846E+03 -0.62489110006E+03  0.87488166699E+03  0.10100000352E+00 0. -1.
</event>
<event>
 5   0  0.3970042E-05  0.1964335E+04  0.7818609E-02  0.8623479E-01
        1   -1    0    0  501    0  0.00000000000E+00  0.00000000000E+00  0.76365554075E+03  0.76365554077E+03  0.50400001928E-02 0. -1.
       -1   -1    0    0    0  501  0.00000000000E+00  0.00000000000E+00 -0.12632041203E+04  0.12632041203E+04  0.50400001928E-02 0.  1.
    10030    2    1    2    0    0  0.00000000000E+00  0.00000000000E+00 -0.49954857953E+03  0.20268596611E+04  0.19643348244E+04 0.  0.
        3    1    3    3  502    0 -0.82413549011E+03  0.15544763680E+03 -0.77720957036E+03  0.11434238061E+04  0.10100000352E+00 0.  1.
       -3    1    3    3    0  502  0.82413549011E+03 -0.15544763680E+03  0.27766099083E+03  0.88343585499E+03  0.10100000352E+00 0. -1.
</event>
<event>
 5   0  0.8011197E-05  0.1995423E+04  0.7818609E-02  0.8608763E-01
        2   -1    0    0  501    0  0.00000000000E+00  0.00000000000E+00  0.99540610825E+03  0.99540610826E+03  0.25500000920E-02 0. -1.
       -2   -1    0    0    0  501  0.00000000000E+00  0.00000000000E+00 -0.10000223718E+04  0.10000223718E+04  0.25500000920E-02 0.  1.
    10030    2    1    2    0    0  0.00000000000E+00  0.00000000000E+00 -0.46162635934E+01  0.19954284801E+04  0.19954231404E+04 0.  0.
        5    1    3    3  502    0 -0.27601051305E+03 -0.81244131012E+03  0.50677436512E+03  0.99653651857E+03  0.46999998093E+01 0. -1.
       -5    1    3    3    0  502  0.27601051305E+03  0.81244131012E+03 -0.51139062871E+03  0.99889196154E+03  0.46999998093E+01 0.  1.
</event>
<event>
 5   0  0.3787698E-05  0.2000509E+04  0.7818609E-02  0.8606383E-01
       -1   -1    0    0    0  501  0.00000000000E+00  0.00000000000E+00  0.48009244893E+03  0.48009244896E+03  0.50400001928E-02 0. -1.
        1   -1    0    0  501    0  0.00000000000E+00  0.00000000000E+00 -0.20839919422E+04  0.20839919422E+04  0.50400001928E-02 0.  1.
    10030    2    1    2    0    0  0.00000000000E+00  0.00000000000E+00 -0.16038994932E+04  0.25640843911E+04  0.20005087304E+04 0.  0.
        4    1    3    3  502    0  0.71033188613E+03 -0.69848677683E+03 -0.68693747332E+03  0.12100991162E+04  0.12699999809E+01 0.  1.
       -4    1    3    3    0  502 -0.71033188613E+03  0.69848677683E+03 -0.91696201992E+03  0.13539852749E+04  0.12699999809E+01 0. -1.
</event>
<event>
 5   0  0.3772949E-05  0.2007558E+04  0.7818609E-02  0.8603095E-01
        1   -1    0    0  501    0  0.00000000000E+00  0.00000000000E+00  0.72134163544E+03  0.72134163546E+03  0.50400001928E-02 0.  1.
       -1   -1    0    0    0  501  0.00000000000E+00  0.00000000000E+00 -0.13968033049E+04  0.13968033049E+04  0.50400001928E-02 0. -1.
    10030    2    1    2    0    0  0.00000000000E+00  0.00000000000E+00 -0.67546166944E+03  0.21181449403E+04  0.20075580991E+04 0.  0.
        2    1    3    3  502    0 -0.52122423528E+03 -0.25477005079E+03  0.52653141323E+03  0.78346525854E+03  0.25500000920E-02 0.  1.
       -2    1    3    3    0  502  0.52122423528E+03  0.25477005079E+03 -0.12019930827E+04  0.13346796818E+04  0.25500000920E-02 0. -1.
</event>
<event>
 5   0  0.3818907E-05  0.1995760E+04  0.7818609E-02  0.8608605E-01
       -1   -1    0    0    0  501  0.00000000000E+00  0.00000000000E+00  0.99584967093E+03  0.99584967094E+03  0.50400001928E-02 0. -1.
        1   -1    0    0  501    0  0.00000000000E+00  0.00000000000E+00 -0.99991484651E+03  0.99991484652E+03  0.50400001928E-02 0.  1.
    10030    2    1    2    0    0  0.00000000000E+00  0.00000000000E+00 -0.40651755836E+01  0.19957645175E+04  0.19957603773E+04 0.  0.
        1    1    3    3  502    0  0.28316628555E+03  0.83593402599E+03 -0.46764715935E+03  0.99883066972E+03  0.50400001928E-02 0. -1.
       -1    1    3    3    0  502 -0.28316628555E+03 -0.83593402599E+03  0.46358198377E+03  0.99693384775E+03  0.50400001928E-02 0.  1.
</event>
<event>
 5   0  0.3549426E-05  0.1995849E+04  0.7818609E-02  0.8608564E-01
       -1   -1    0    0    0  501  0.00000000000E+00  0.00000000000E+00  0.48526770407E+03  0.48526770409E+03  0.50400001928E-02 0.  1.
        1   -1    0    0  501    0  0.00000000000E+00  0.00000000000E+00 -0.20521722925E+04  0.20521722925E+04  0.50400001928E-02 0. -1.
    10030    2    1    2    0    0  0.00000000000E+00  0.00000000000E+00 -0.15669045884E+04  0.25374399966E+04  0.19958486283E+04 0.  0.
        5    1    3    3  502    0 -0.80088713944E+02  0.20731715118E+03 -0.20202932647E+04  0.20324865482E+04  0.46999998093E+01 0. -1.
       -5    1    3    3    0  502  0.80088713944E+02 -0.20731715118E+03  0.45338867626E+03  0.50495344839E+03  0.46999998093E+01 0.  1.
</event>
<event>
 5   0  0.8011197E-05  0.1954751E+04  0.7818609E-02  0.8628073E-01
       -2   -1    0    0    0  501  0.00000000000E+00  0.00000000000E+00  0.48715630730E+03  0.48715630731E+03  0.25500000920E-02 0. -1.
        2   -1    0    0  501    0  0.00000000000E+00  0.00000000000E+00 -0.19608967905E+04  0.19608967905E+04  0.25500000920E-02 0.  1.
    10030    2    1    2    0    0  0.00000000000E+00  0.00000000000E+00 -0.14737404832E+04  0.24480530978E+04  0.19547513801E+04 0.  0.
        5    1    3    3  502    0  0.50146547536E+03  0.65967893772E+03 -0.87817384264E+02  0.83329340981E+03  0.46999998093E+01 0. -1.
       -5    1    3    3    0  502 -0.50146547536E+03 -0.65967893772E+03 -0.13859230990E+04  0.16147596880E+04  0.46999998093E+01 0.  1.
</event>
<event>
 5   0  0.7857136E-05  0.1998747E+04  0.7818609E-02  0.8607207E-01
        2   -1    0    0  501    0  0.00000000000E+00  0.00000000000E+00  0.17297478608E+04  0.17297478608E+04  0.25500000920E-02 0.  1.
       -2   -1    0    0    0  501  0.00000000000E+00  0.00000000000E+00 -0.57739464745E+03  0.57739464745E+03  0.25500000920E-02 0. -1.
    10030    2    1    2    0    0  0.00000000000E+00  0.00000000000E+00  0.11523532133E+04  0.23071425082E+04  0.19987467636E+04 0.  0.
        4    1    3    3  502    0 -0.77220726862E+03  0.23353495979E+03 -0.10466434801E+03  0.81351022231E+03  0.12699999809E+01 0. -1.
       -4    1    3    3    0  502  0.77220726862E+03 -0.23353495979E+03  0.12570175613E+04  0.14936322859E+04  0.12699999809E+01 0.  1.
</event>
<event>
 5   0  0.3549426E-05  0.2001393E+04  0.7818609E-02  0.8605970E-01
       -1   -1    0    0    0  501  0.00000000000E+00  0.00000000000E+00  0.58673561637E+03  0.58673561639E+03  0.50400001928E-02 0.  1.
        1   -1    0    0  501    0  0.00000000000E+00  0.00000000000E+00 -0.17067199946E+04  0.17067199946E+04  0.50400001928E-02 0. -1.
    10030    2    1    2    0    0  0.00000000000E+00  0.00000000000E+00 -0.11199843782E+04  0.22934556110E+04  0.20013929230E+04 0.  0.
        5    1    3    3  502    0 -0.51948458823E+03 -0.85494428202E+03 -0.58752683813E+03  0.11601740552E+04  0.46999998093E+01 0.  1.
       -5    1    3    3    0  502  0.51948458823E+03  0.85494428202E+03 -0.53245754010E+03  0.11332815558E+04  0.46999998093E+01 0. -1.
</event>
<event>
 5   0  0.3549426E-05  0.1999442E+04  0.7818609E-02  0.8606882E-01
       -1   -1    0    0    0  501  0.00000000000E+00  0.00000000000E+00  0.77440196265E+03  0.77440196267E+03  0.50400001928E-02 0.  1.
        1   -1    0    0  501    0  0.00000000000E+00  0.00000000000E+00 -0.12905981609E+04  0.12905981609E+04  0.50400001928E-02 0. -1.
    10030    2    1    2    0    0  0.00000000000E+00  0.00000000000E+00 -0.51619619823E+03  0.20650001236E+04  0.19994416709E+04 0.  0.
        5    1    3    3  502    0 -0.55984396975E+03 -0.82819005304E+03 -0.24799869648E+03  0.10299754744E+04  0.46999998093E+01 0.  1.
       -5    1    3    3    0  502  0.55984396975E+03  0.82819005304E+03 -0.26819750175E+03  0.10350246492E+04  0.46999998093E+01 0. -1.
</event>
<event>
 5   0  0.8022574E-05  0.1991833E+04  0.7818609E-02  0.8610449E-01
       -2   -1    0    0    0  501  0.00000000000E+00  0.00000000000E+00  0.44593478618E+03  0.44593478619E+03  0.25500000920E-02 0. -1.
        2   -1    0    0  501    0  0.00000000000E+00  0.00000000000E+00 -0.22242029126E+04  0.22242029126E+04  0.25500000920E-02 0.  1.
    10030    2    1    2    0    0  0.00000000000E+00  0.00000000000E+00 -0.17782681264E+04  0.26701376988E+04  0.19918327744E+04 0.  0.
        1    1    3    3  502    0 -0.65943100516E+03  0.52854453484E+03 -0.18277993766E+03  0.86464853062E+03  0.50400001928E-02 0. -1.
       -1    1    3    3    0  502  0.65943100516E+03 -0.52854453484E+03 -0.15954881887E+04  0.18054891681E+04  0.50400001928E-02 0.  1.
</event>
<event>
 5   0  0.7857136E-05  0.1998055E+04  0.7818609E-02  0.8607530E-01
       -2   -1    0    0    0  501  0.00000000000E+00  0.00000000000E+00  0.80591213642E+03  0.80591213643E+03  0.25500000920E-02 0. -1.
        2   -1    0    0  501    0  0.00000000000E+00  0.00000000000E+00 -0.12384184181E+04  0.12384184181E+04  0.25500000920E-02 0.  1.
    10030    2    1    2    0    0  0.00000000000E+00  0.00000000000E+00 -0.43250628165E+03  0.20443305545E+04  0.19980554878E+04 0.  0.
        4    1    3    3  502    0  0.60485153129E+03  0.71403473095E+03  0.14165381452E+03  0.94644513205E+03  0.12699999809E+01 0. -1.
       -4    1    3    3    0  502 -0.60485153129E+03 -0.71403473095E+03 -0.57416009617E+03  0.10978854225E+04  0.12699999809E+01 0.  1.
</event>
<event>
 5   0  0.7857136E-05  0.2012817E+04  0.7818609E-02  0.8600651E-01
       -2   -1    0    0    0  501  0.00000000000E+00  0.00000000000E+00  0.91784322318E+03  0.91784322318E+03  0.25500000920E-02 0.  1.
        2   -1    0    0  501    0  0.00000000000E+00  0.00000000000E+00 -0.11035200568E+04  0.11035200568E+04  0.25500000920E-02 0. -1.
    10030    2    1    2    0    0  0.00000000000E+00  0.00000000000E+00 -0.18567683358E+03  0.20213632799E+04  0.20128173347E+04 0.  0.
        4    1    3    3  502    0  0.12587414566E+03 -0.86367058212E+03  0.41037351081E+03  0.96445798573E+03  0.12699999809E+01 0.  1.
       -4    1    3    3    0  502 -0.12587414566E+03  0.86367058212E+03 -0.59605034439E+03  0.10569052942E+04  0.12699999809E+01 0. -1.
</event>
<event>
 5   0  0.3787698E-05  0.2138967E+04  0.7818609E-02  0.8544270E-01
        1   -1    0    0  501    0  0.00000000000E+00  0.00000000000E+00  0.82944098399E+03  0.82944098401E+03  0.50400001928E-02 0. -1.
       -1   -1    0    0    0  501  0.00000000000E+00  0.00000000000E+00 -0.13789952125E+04  0.13789952125E+04  0.50400001928E-02 0.  1.
    10030    2    1    2    0    0  0.00000000000E+00  0.00000000000E+00 -0.54955422846E+03  0.22084361965E+04  0.21389671769E+04 0.  0.
        4    1    3    3  502    0 -0.41096115212E+03 -0.60606132494E+03 -0.10795762899E+04  0.13044868634E+04  0.12699999809E+01 0.  1.
       -4    1    3    3    0  502  0.41096115212E+03  0.60606132494E+03  0.53002206149E+03  0.90394933304E+03  0.12699999809E+01 0. -1.
</event>
<event>
 5   0  0.3970042E-05  0.1976085E+04  0.7818609E-02  0.8617884E-01
        1   -1    0    0  501    0  0.00000000000E+00  0.00000000000E+00  0.61696682936E+03  0.61696682938E+03  0.50400001928E-02 0.  1.
       -1   -1    0    0    0  501  0.00000000000E+00  0.00000000000E+00 -0.15823028261E+04  0.15823028261E+04  0.50400001928E-02 0. -1.
    10030    2    1    2    0    0  0.00000000000E+00  0.00000000000E+00 -0.96533599674E+03  0.21992696555E+04  0.19760853805E+04 0.  0.
        3    1    3    3  502    0 -0.19534032481E+03 -0.21345023176E+03  0.56875918633E+03  0.63812684176E+03  0.10100000352E+00 0.  1.
       -3    1    3    3    0  502  0.19534032481E+03  0.21345023176E+03 -0.15340951831E+04  0.15611428137E+04  0.10100000352E+00 0. -1.
</event>
<event>
 5   0  0.3970042E-05  0.1999698E+04  0.7818609E-02  0.8606762E-01
        1   -1    0    0  501    0  0.00000000000E+00  0.00000000000E+00  0.29513688912E+04  0.29513688912E+04  0.50400001928E-02 0. -1.
       -1   -1    0    0    0  501  0.00000000000E+00  0.00000000000E+00 -0.33872367287E+03  0.33872367290E+03  0.50400001928E-02 0.  1.
    10030    2    1    2    0    0  0.00000000000E+00  0.00000000000E+00  0.26126452183E+04  0.32900925641E+04  0.19996984882E+04 0.  0.
        3    1    3    3  502    0 -0.24461122018E+03 -0.92072445136E+03  0.80692676187E+03  0.12484786637E+04  0.10100000352E+00 0. -1.
       -3    1    3    3    0  502  0.24461122018E+03  0.92072445136E+03  0.18057184565E+04  0.20416139005E+04  0.10100000352E+00 0.  1.
</event>
<event>
 5   0  0.7857136E-05  0.1978932E+04  0.7818609E-02  0.8616534E-01
       -2   -1    0    0    0  501  0.00000000000E+00  0.00000000000E+00  0.79859594376E+03  0.79859594377E+03  0.25500000920E-02 0.  1.
        2   -1    0    0  501    0  0.00000000000E+00  0.00000000000E+00 -0.12259555013E+04  0.12259555013E+04  0.25500000920E-02 0. -1.
    10030    2    1    2    0    0  0.00000000000E+00  0.00000000000E+00 -0.42735955756E+03  0.20245514451E+04  0.19789321268E+04 0.  0.
        4    1    3    3  502    0  0.87576913954E+03  0.13443105086E+03  0.23692599343E+03  0.91715801936E+03  0.12699999809E+01 0. -1.
       -4    1    3    3    0  502 -0.87576913954E+03 -0.13443105086E+03 -0.66428555099E+03  0.11073934257E+04  0.12699999809E+01 0.  1.
</event>
<event>
 5   0  0.3787698E-05  0.1999939E+04  0.7818609E-02  0.8606649E-01
        1   -1    0    0  501    0  0.00000000000E+00  0.00000000000E+00  0.10512332185E+04  0.10512332185E+04  0.50400001928E-02 0.  1.
       -1   -1    0    0    0  501  0.00000000000E+00  0.00000000000E+00 -0.95120535674E+03  0.95120535676E+03  0.50400001928E-02 0. -1.
    10030    2    1    2    0    0  0.00000000000E+00  0.00000000000E+00  0.10002786176E+03  0.20024385753E+04  0.19999386677E+04 0.  0.
        4    1    3    3  502    0  0.24980087697E+03 -0.92960461522E+03 -0.22119702035E+03  0.98767148054E+03  0.12699999809E+01 0. -1.
       -4    1    3    3    0  502 -0.24980087697E+03  0.92960461522E+03  0.32122488211E+03  0.10147670947E+04  0.12699999809E+01 0.  1.
</event>
<event>
 5   0  0.8022574E-05  0.2062935E+04  0.7818609E-02  0.8577749E-01
       -2   -1    0    0    0  501  0.00000000000E+00  0.00000000000E+00  0.94504078148E+03  0.94504078149E+03  0.25500000920E-02 0. -1.
        2   -1    0    0  501    0  0.00000000000E+00  0.00000000000E+00 -0.11257977049E+04  0.11257977049E+04  0.25500000920E-02 0.  1.
    10030    2    1    2    0    0  0.00000000000E+00  0.00000000000E+00 -0.18075692346E+03  0.20708384864E+04  0.20629345534E+04 0.  0.
        1    1    3    3  502    0  0.74849146034E+03 -0.57844574209E+03  0.32239745061E+03  0.99938934302E+03  0.50400001928E-02 0. -1.
       -1    1    3    3    0  502 -0.74849146034E+03  0.57844574209E+03 -0.50315437407E+03  0.10714491434E+04  0.50400001928E-02 0.  1.
</event>
<event>
 5   0  0.3549426E-05  0.1988151E+04  0.7818609E-02  0.8612180E-01
       -1   -1    0    0    0  501  0.00000000000E+00  0.00000000000E+00  0.80942804214E+03  0.80942804216E+03  0.50400001928E-02 0.  1.
        1   -1    0    0  501    0  0.00000000000E+00  0.00000000000E+00 -0.12208450875E+04  0.12208450875E+04  0.50400001928E-02 0. -1.
    10030    2    1    2    0    0  0.00000000000E+00  0.00000000000E+00 -0.41141704532E+03  0.20302731296E+04  0.19881511501E+04 0.  0.
        5    1    3    3  502    0 -0.61433403630E+03  0.42298268820E+03 -0.87677919561E+03  0.11511231518E+04  0.46999998093E+01 0. -1.
       -5    1    3    3    0  502  0.61433403630E+03 -0.42298268820E+03  0.46536215029E+03  0.87914997787E+03  0.46999998093E+01 0.  1.
</event>
<event>
 5   0  0.7935008E-05  0.2004725E+04  0.7818609E-02  0.8604415E-01
       -2   -1    0    0    0  501  0.00000000000E+00  0.00000000000E+00  0.14170871083E+04  0.14170871083E+04  0.25500000920E-02 0.  1.
        2   -1    0    0  501    0  0.00000000000E+00  0.00000000000E+00 -0.70901123771E+03  0.70901123771E+03  0.25500000920E-02 0. -1.
    10030    2    1    2    0    0  0.00000000000E+00  0.00000000000E+00  0.70807587055E+03  0.21260983460E+04  0.20047251029E+04 0.  0.
        3    1    3    3  502    0 -0.96537430732E+03 -0.10590066517E+03  0.61718991677E+03  0.11506893185E+04  0.10100000352E+00 0.  1.
       -3    1    3    3    0  502  0.96537430732E+03  0.10590066517E+03  0.90885953783E+02  0.97540902749E+03  0.10100000352E+00 0. -1.
</event>
<event>
 5   0  0.8022574E-05  0.2008220E+04  0.7818609E-02  0.8602787E-01
       -2   -1    0    0    0  501  0.00000000000E+00  0.00000000000E+00  0.91640004596E+03  0.91640004596E+03  0.25500000920E-02 0. -1.
        2   -1    0    0  501    0  0.00000000000E+00  0.00000000000E+00 -0.11002142698E+04  0.11002142698E+04  0.25500000920E-02 0.  1.
    10030    2    1    2    0    0  0.00000000000E+00  0.00000000000E+00 -0.18381422385E+03  0.20166143158E+04  0.20082195173E+04 0.  0.
        1    1    3    3  502    0  0.80613797270E+03  0.52996089763E+03 -0.37149408295E+03  0.10337914866E+04  0.50400001928E-02 0.  1.
       -1    1    3    3    0  502 -0.80613797270E+03 -0.52996089763E+03  0.18767985910E+03  0.98282282919E+03  0.50400001928E-02 0. -1.
</event>
<event>
 5   0  0.3549426E-05  0.2004410E+04  0.7818609E-02  0.8604562E-01
        1   -1    0    0  501    0  0.00000000000E+00  0.00000000000E+00  0.12700416764E+04  0.12700416764E+04  0.50400001928E-02 0. -1.
       -1   -1    0    0    0  501  0.00000000000E+00  0.00000000000E+00 -0.79085181990E+03  0.79085181991E+03  0.50400001928E-02 0.  1.
    10030    2    1    2    0    0  0.00000000000E+00  0.00000000000E+00  0.47918985651E+03  0.20608934963E+04  0.20044099093E+04 0.  0.
        5    1    3    3  502    0 -0.53378629371E+03 -0.57993736896E+03  0.87601863769E+03  0.11784251791E+04  0.46999998093E+01 0. -1.
       -5    1    3    3    0  502  0.53378629371E+03  0.57993736896E+03 -0.39682878118E+03  0.88246831718E+03  0.46999998093E+01 0.  1.
</event>
<event>
 5   0  0.3772949E-05  0.1964679E+04  0.7818609E-02  0.8623315E-01
        1   -1    0    0  501    0  0.00000000000E+00  0.00000000000E+00  0.96353487085E+03  0.96353487086E+03  0.50400001928E-02 0. -1.
       -1   -1    0    0    0  501  0.00000000000E+00  0.00000000000E+00 -0.10015107783E+04  0.10015107783E+04  0.50400001928E-02 0.  1.
    10030    2    1    2    0    0  0.00000000000E+00  0.00000000000E+00 -0.37975907465E+02  0.19650456492E+04  0.19646786592E+04 0.  0.
        2    1    3    3  502    0  0.85045063687E+03  0.33336563548E+03 -0.38043008989E+03  0.98950795144E+03  0.25500000920E-02 0.  1.
       -2    1    3    3    0  502 -0.85045063687E+03 -0.33336563548E+03  0.34245418242E+03  0.97553769775E+03  0.25500000920E-02 0. -1.
</event>
<event>
 5   0  0.7843846E-05  0.2006465E+04  0.7818609E-02  0.8603604E-01
        2   -1    0    0  501    0  0.00000000000E+00  0.00000000000E+00  0.15329766798E+04  0.15329766798E+04  0.25500000920E-02 0.  1.
       -2   -1    0    0    0  501  0.00000000000E+00  0.00000000000E+00 -0.65654962878E+03  0.65654962879E+03  0.25500000920E-02 0. -1.
    10030    2    1    2    0    0  0.00000000000E+00  0.00000000000E+00  0.87642705103E+03  0.21895263086E+04  0.20064648216E+04 0.  0.
        2    1    3    3  502    0 -0.76544854596E+03  0.57198008259E+03  0.77171522491E+03  0.12282577416E+04  0.25500000920E-02 0.  1.
       -2    1    3    3    0  502  0.76544854596E+03 -0.57198008259E+03  0.10471182612E+03  0.96126856702E+03  0.25500000920E-02 0. -1.
</event>
<event>
 5   0  0.7843846E-05  0.2008721E+04  0.7818609E-02  0.8602554E-01
        2   -1    0    0  501    0  0.00000000000E+00  0.00000000000E+00  0.18760116156E+04  0.18760116156E+04  0.25500000920E-02 0.  1.
       -2   -1    0    0    0  501  0.00000000000E+00  0.00000000000E+00 -0.53770441451E+03  0.53770441452E+03  0.25500000920E-02 0. -1.
    10030    2    1    2    0    0  0.00000000000E+00  0.00000000000E+00  0.13383072010E+04  0.24137160301E+04  0.20087207147E+04 0.  0.
        2    1    3    3  502    0  0.78867970701E+01  0.10042855766E+04  0.65788101273E+03  0.12006078244E+04  0.25500000920E-02 0.  1.
       -2    1    3    3    0  502 -0.78867970701E+01 -0.10042855766E+04  0.68042618831E+03  0.12131082057E+04  0.25500000920E-02 0. -1.
</event>
<event>
 5   0  0.3970042E-05  0.1958288E+04  0.7818609E-02  0.8626375E-01
        1   -1    0    0  501    0  0.00000000000E+00  0.00000000000E+00  0.10393466749E+04  0.10393466749E+04  0.50400001928E-02 0. -1.
       -1   -1    0    0    0  501  0.00000000000E+00  0.00000000000E+00 -0.92242831207E+03  0.92242831209E+03  0.50400001928E-02 0.  1.
    10030    2    1    2    0    0  0.00000000000E+00  0.00000000000E+00  0.11691836281E+03  0.19617749870E+04  0.19582878226E+04 0.  0.
        3    1    3    3  502    0  0.34124362045E+03  0.74712552782E+03 -0.47548056970E+03  0.94906561690E+03  0.10100000352E+00 0.  1.
       -3    1    3    3    0  502 -0.34124362045E+03 -0.74712552782E+03  0.59239893251E+03  0.10127093701E+04  0.10100000352E+00 0. -1.
</event>
<event>
 5   0  0.3772949E-05  0.2029917E+04  0.7818609E-02  0.8592760E-01
        1   -1    0    0  501    0  0.00000000000E+00  0.00000000000E+00  0.14206726436E+04  0.14206726436E+04  0.50400001928E-02 0. -1.
       -1   -1    0    0    0  501  0.00000000000E+00  0.00000000000E+00 -0.72510772940E+03  0.72510772942E+03  0.50400001928E-02 0.  1.
    10030    2    1    2    0    0  0.00000000000E+00  0.00000000000E+00  0.69556491421E+03  0.21457803730E+04  0.20299169588E+04 0.  0.
        2    1    3    3  502    0 -0.51879335732E+03  0.59199651973E+03 -0.32951853908E+03  0.85333984706E+03  0.25500000920E-02 0.  1.
       -2    1    3    3    0  502  0.51879335732E+03 -0.59199651973E+03  0.10250834533E+04  0.12924405260E+04  0.25500000920E-02 0. -1.
</event>
<event>
 5   0  0.8022574E-05  0.2006127E+04  0.7818609E-02  0.8603761E-01
       -2   -1    0    0    0  501  0.00000000000E+00  0.00000000000E+00  0.70159570886E+03  0.70159570887E+03  0.25500000920E-02 0. -1.
        2   -1    0    0  501    0  0.00000000000E+00  0.00000000000E+00 -0.14340692513E+04  0.14340692513E+04  0.25500000920E-02 0.  1.
    10030    2    1    2    0    0  0.00000000000E+00  0.00000000000E+00 -0.73247354243E+03  0.21356649602E+04  0.20061274465E+04 0.  0.
        1    1    3    3  502    0  0.77766803263E+03  0.15172297600E+03 -0.10210555549E+04  0.12924170676E+04  0.50400001928E-02 0.  1.
       -1    1    3    3    0  502 -0.77766803263E+03 -0.15172297600E+03  0.28858201243E+03  0.84324789258E+03  0.50400001928E-02 0. -1.
</event>
<event>
 5   0  0.3787698E-05  0.2025315E+04  0.7818609E-02  0.8594876E-01
       -1   -1    0    0    0  501  0.00000000000E+00  0.00000000000E+00  0.65127415661E+03  0.65127415663E+03  0.50400001928E-02 0.  1.
        1   -1    0    0  501    0  0.00000000000E+00  0.00000000000E+00 -0.15745679920E+04  0.15745679920E+04  0.50400001928E-02 0. -1.
    10030    2    1    2    0    0  0.00000000000E+00  0.00000000000E+00 -0.92329383540E+03  0.22258421486E+04  0.20253152259E+04 0.  0.
        4    1    3    3  502    0  0.31426368944E+03 -0.37880680142E+03 -0.14342663556E+04  0.15163699585E+04  0.12699999809E+01 0. -1.
       -4    1    3    3    0  502 -0.31426368944E+03  0.37880680142E+03  0.51097252020E+03  0.70947219016E+03  0.12699999809E+01 0.  1.
</event>
<event>
 5   0  0.8022574E-05  0.1987395E+04  0.7818609E-02  0.8612537E-01
       -2   -1    0    0    0  501  0.00000000000E+00  0.00000000000E+00  0.50941404477E+03  0.50941404477E+03  0.25500000920E-02 0.  1.
        2   -1    0    0  501    0  0.00000000000E+00  0.00000000000E+00 -0.19383742391E+04  0.19383742391E+04  0.25500000920E-02 0. -1.
    10030    2    1    2    0    0  0.00000000000E+00  0.00000000000E+00 -0.14289601944E+04  0.24477882839E+04  0.19873953421E+04 0.  0.
        1    1    3    3  502    0 -0.61412989658E+03  0.61767513319E+03 -0.12539675292E+03  0.88000138961E+03  0.50400001928E-02 0.  1.
       -1    1    3    3    0  502  0.61412989658E+03 -0.61767513319E+03 -0.13035634415E+04  0.15677868943E+04  0.50400001928E-02 0. -1.
</event>
<event>
 5   0  0.3818907E-05  0.2009397E+04  0.7818609E-02  0.8602240E-01
        1   -1    0    0  501    0  0.00000000000E+00  0.00000000000E+00  0.15794380865E+04  0.15794380865E+04  0.50400001928E-02 0. -1.
       -1   -1    0    0    0  501  0.00000000000E+00  0.00000000000E+00 -0.63910004979E+03  0.63910004981E+03  0.50400001928E-02 0.  1.
    10030    2    1    2    0    0  0.00000000000E+00  0.00000000000E+00  0.94033803674E+03  0.22185381363E+04  0.20093968844E+04 0.  0.
        1    1    3    3  502    0 -0.58479481701E+03 -0.11363370173E+03 -0.42306054236E+03  0.73066943189E+03  0.50400001928E-02 0.  1.
       -1    1    3    3    0  502  0.58479481701E+03  0.11363370173E+03  0.13633985791E+04  0.14878687045E+04  0.50400001928E-02 0. -1.
</event>
<event>
 5   0  0.7857136E-05  0.1988300E+04  0.7818609E-02  0.8612111E-01
        2   -1    0    0  501    0  0.00000000000E+00  0.00000000000E+00  0.60018006316E+03  0.60018006316E+03  0.25500000920E-02 0. -1.
       -2   -1    0    0    0  501  0.00000000000E+00  0.00000000000E+00 -0.16467290357E+04  0.16467290357E+04  0.25500000920E-02 0.  1.
    10030    2    1    2    0    0  0.00000000000E+00  0.00000000000E+00 -0.10465489725E+04  0.22469090988E+04  0.19882997125E+04 0.  0.
        4    1    3    3  502    0  0.22770389673E+03 -0.55180987025E+03  0.37510216524E+03  0.70501520888E+03  0.12699999809E+01 0. -1.
       -4    1    3    3    0  502 -0.22770389673E+03  0.55180987025E+03 -0.14216511377E+04  0.15418938899E+04  0.12699999809E+01 0.  1.
</event>
<event>
 5   0  0.3549426E-05  0.2025341E+04  0.7818609E-02  0.8594864E-01
       -1   -1    0    0    0  501  0.00000000000E+00  0.00000000000E+00  0.81534405920E+03  0.81534405922E+03  0.50400001928E-02 0.  1.
        1   -1    0    0  501    0  0.00000000000E+00  0.00000000000E+00 -0.12577526680E+04  0.12577526680E+04  0.50400001928E-02 0. -1.
    10030    2    1    2    0    0  0.00000000000E+00  0.00000000000E+00 -0.44240860877E+03  0.20730967272E+04  0.20253406289E+04 0.  0.
        5    1    3    3  502    0 -0.21784860719E+03  0.94213293191E+03  0.86562345010E+02  0.97086951061E+03  0.46999998093E+01 0. -1.
       -5    1    3    3    0  502  0.21784860719E+03 -0.94213293191E+03 -0.52897095378E+03  0.11022272166E+04  0.46999998093E+01 0.  1.
</event>
<event>
 5   0  0.7935008E-05  0.2001568E+04  0.7818609E-02  0.8605888E-01
        2   -1    0    0  501    0  0.00000000000E+00  0.00000000000E+00  0.15130727929E+04  0.15130727929E+04  0.25500000920E-02 0. -1.
       -2   -1    0    0    0  501  0.00000000000E+00  0.00000000000E+00 -0.66194363585E+03  0.66194363585E+03  0.25500000920E-02 0.  1.
    10030    2    1    2    0    0  0.00000000000E+00  0.00000000000E+00  0.85112915704E+03  0.21750164287E+04  0.20015682910E+04 0.  0.
        3    1    3    3  502    0  0.92903994117E+03 -0.29910718230E+03  0.66607812431E+03  0.11816261662E+04  0.10100000352E+00 0. -1.
       -3    1    3    3    0  502 -0.92903994117E+03  0.29910718230E+03  0.18505103273E+03  0.99339026253E+03  0.10100000352E+00 0.  1.
</event>
<event>
 5   0  0.7843846E-05  0.2000369E+04  0.7818609E-02  0.8606448E-01
        2   -1    0    0  501    0  0.00000000000E+00  0.00000000000E+00  0.13234551397E+04  0.13234551397E+04  0.25500000920E-02 0.  1.
       -2   -1    0    0    0  501  0.00000000000E+00  0.00000000000E+00 -0.75587662368E+03  0.75587662368E+03  0.25500000920E-02 0. -1.
    10030    2    1    2    0    0  0.00000000000E+00  0.00000000000E+00  0.56757851604E+03  0.20793317634E+04  0.20003687686E+04 0.  0.
        2    1    3    3  502    0  0.94029870140E+03  0.25790289193E+03  0.51550867996E+03  0.11029164740E+04  0.25500000920E-02 0.  1.
       -2    1    3    3    0  502 -0.94029870140E+03 -0.25790289193E+03  0.52069836084E+02  0.97641528939E+03  0.25500000920E-02 0. -1.
</event>
<event>
 5   0  0.8022574E-05  0.1991914E+04  0.7818609E-02  0.8610411E-01
        2   -1    0    0  501    0  0.00000000000E+00  0.00000000000E+00  0.12219707821E+04  0.12219707821E+04  0.25500000920E-02 0. -1.
       -2   -1    0    0    0  501  0.00000000000E+00  0.00000000000E+00 -0.81174629125E+03  0.81174629125E+03  0.25500000920E-02 0.  1.
    10030    2    1    2    0    0  0.00000000000E+00  0.00000000000E+00  0.41022449086E+03  0.20337170734E+04  0.19919139042E+04 0.  0.
        1    1    3    3  502    0 -0.28976900817E+03 -0.58922670137E+03  0.96967776196E+03  0.11710803328E+04  0.50400001928E-02 0. -1.
       -1    1    3    3    0  502  0.28976900817E+03  0.58922670137E+03 -0.55945327109E+03  0.86263674062E+03  0.50400001928E-02 0.  1.
</event>
<event>
 5   0  0.3772949E-05  0.1997718E+04  0.7818609E-02  0.8607688E-01
       -1   -1    0    0    0  501  0.00000000000E+00  0.00000000000E+00  0.44424569367E+03  0.44424569370E+03  0.50400001928E-02 0. -1.
        1   -1    0    0  501    0  0.00000000000E+00  0.00000000000E+00 -0.22458732366E+04  0.22458732366E+04  0.50400001928E-02 0.  1.
    10030    2    1    2    0    0  0.00000000000E+00  0.00000000000E+00 -0.18016275429E+04  0.26901189303E+04  0.19977182123E+04 0.  0.
        2    1    3    3  502    0  0.80626007004E+03 -0.43144304912E+03 -0.14420064283E+04  0.17075072312E+04  0.25500000920E-02 0.  1.
       -2    1    3    3    0  502 -0.80626007004E+03  0.43144304912E+03 -0.35962111459E+03  0.98261169912E+03  0.25500000920E-02 0. -1.
</event>
<event>
 5   0  0.7843846E-05  0.2002789E+04  0.7818609E-02  0.8605318E-01
        2   -1    0    0  501    0  0.00000000000E+00  0.00000000000E+00  0.13643809161E+04  0.13643809161E+04  0.25500000920E-02 0. -1.
       -2   -1    0    0    0  501  0.00000000000E+00  0.00000000000E+00 -0.73497905356E+03  0.73497905356E+03  0.25500000920E-02 0.  1.
    10030    2    1    2    0    0  0.00000000000E+00  0.00000000000E+00  0.62940186252E+03  0.20993599696E+04  0.20027894491E+04 0.  0.
        2    1    3    3  502    0  0.74208351982E+02 -0.75042236618E+03 -0.37597116971E+03  0.84261196741E+03  0.25500000920E-02 0.  1.
       -2    1    3    3    0  502 -0.74208351982E+02  0.75042236618E+03  0.10053730322E+04  0.12567480022E+04  0.25500000920E-02 0. -1.
</event>
<event>
 5   0  0.3970042E-05  0.1974566E+04  0.7818609E-02  0.8618605E-01
        1   -1    0    0  501    0  0.00000000000E+00  0.00000000000E+00  0.77007617931E+03  0.77007617933E+03  0.50400001928E-02 0. -1.
       -1   -1    0    0    0  501  0.00000000000E+00  0.00000000000E+00 -0.12657549648E+04  0.12657549648E+04  0.50400001928E-02 0.  1.
    10030    2    1    2    0    0  0.00000000000E+00  0.00000000000E+00 -0.49567878548E+03  0.20358311441E+04  0.19745660255E+04 0.  0.
        3    1    3    3  502    0  0.32226471988E+03  0.18927775937E+03  0.69432260778E+03  0.78852045868E+03  0.10100000352E+00 0. -1.
       -3    1    3    3    0  502 -0.32226471988E+03 -0.18927775937E+03 -0.11900013933E+04  0.12473106855E+04  0.10100000352E+00 0.  1.
</event>
<event>
 5   0  0.3787698E-05  0.1989863E+04  0.7818609E-02  0.8611375E-01
       -1   -1    0    0    0  501  0.00000000000E+00  0.00000000000E+00  0.14588412391E+04  0.14588412391E+04  0.50400001928E-02 0.  1.
        1   -1    0    0  501    0  0.00000000000E+00  0.00000000000E+00 -0.67854460885E+03  0.67854460887E+03  0.50400001928E-02 0. -1.
    10030    2    1    2    0    0  0.00000000000E+00  0.00000000000E+00  0.78029663026E+03  0.21373858480E+04  0.19898631692E+04 0.  0.
        4    1    3    3  502    0  0.44161566943E+03  0.38462331235E+03 -0.47379969218E+03  0.75329094851E+03  0.12699999809E+01 0. -1.
       -4    1    3    3    0  502 -0.44161566943E+03 -0.38462331235E+03  0.12540963224E+04  0.13840948995E+04  0.12699999809E+01 0.  1.
</event>
<event>
 5   0  0.3772949E-05  0.2000112E+04  0.7818609E-02  0.8606568E-01
       -1   -1    0    0    0  501  0.00000000000E+00  0.00000000000E+00  0.66329676742E+03  0.66329676744E+03  0.50400001928E-02 0. -1.
        1   -1    0    0  501    0  0.00000000000E+00  0.00000000000E+00 -0.15077891602E+04  0.15077891602E+04  0.50400001928E-02 0.  1.
    10030    2    1    2    0    0  0.00000000000E+00  0.00000000000E+00 -0.84449239276E+03  0.21710859276E+04  0.20001116728E+04 0.  0.
        2    1    3    3  502    0  0.69590405433E+02 -0.14328811189E+03 -0.14939297745E+04  0.15023982424E+04  0.25500000920E-02 0.  1.
       -2    1    3    3    0  502 -0.69590405433E+02  0.14328811189E+03  0.64943738176E+03  0.66868768523E+03  0.25500000920E-02 0. -1.
</event>
<event>
 5   0  0.3549426E-05  0.1980246E+04  0.7818609E-02  0.8615913E-01
       -1   -1    0    0    0  501  0.00000000000E+00  0.00000000000E+00  0.95202508362E+03  0.95202508364E+03  0.50400001928E-02 0.  1.
        1   -1    0    0  501    0  0.00000000000E+00  0.00000000000E+00 -0.10297449964E+04  0.10297449964E+04  0.50400001928E-02 0. -1.
    10030    2    1    2    0    0  0.00000000000E+00  0.00000000000E+00 -0.77719912770E+02  0.19817700800E+04  0.19802455063E+04 0.  0.
        5    1    3    3  502    0  0.12593958995E+03 -0.96486452282E+03  0.14430184646E+03  0.98370190638E+03  0.46999998093E+01 0.  1.
       -5    1    3    3    0  502 -0.12593958995E+03  0.96486452282E+03 -0.22202175923E+03  0.99806817367E+03  0.46999998093E+01 0. -1.
</event>
<event>
 5   0  0.8022574E-05  0.1995379E+04  0.7818609E-02  0.8608784E-01
        2   -1    0    0  501    0  0.00000000000E+00  0.00000000000E+00  0.18343132599E+04  0.18343132599E+04  0.25500000920E-02 0.  1.
       -2   -1    0    0    0  501  0.00000000000E+00  0.00000000000E+00 -0.54264666187E+03  0.54264666188E+03  0.25500000920E-02 0. -1.
    10030    2    1    2    0    0  0.00000000000E+00  0.00000000000E+00  0.12916665980E+04  0.23769599218E+04  0.19953786281E+04 0.  0.
        1    1    3    3  502    0 -0.25125400715E+01  0.55317942792E+03 -0.34322704157E+03  0.65101351324E+03  0.50400001928E-02 0. -1.
       -1    1    3    3    0  502  0.25125400715E+01 -0.55317942792E+03  0.16348936396E+04  0.17259464085E+04  0.50400001928E-02 0.  1.
</event>
<event>
 5   0  0.7857136E-05  0.1975981E+04  0.7818609E-02  0.8617933E-01
       -2   -1    0    0    0  501  0.00000000000E+00  0.00000000000E+00  0.10814779680E+04  0.10814779680E+04  0.25500000920E-02 0. -1.
        2   -1    0    0  501    0  0.00000000000E+00  0.00000000000E+00 -0.90258450514E+03  0.90258450514E+03  0.25500000920E-02 0.  1.
    10030    2    1    2    0    0  0.00000000000E+00  0.00000000000E+00  0.17889346281E+03  0.19840624731E+04  0.19759810288E+04 0.  0.
        4    1    3    3  502    0 -0.58886010228E+03  0.72890957342E+03  0.40386998517E+03  0.10203812837E+04  0.12699999809E+01 0. -1.
       -4    1    3    3    0  502  0.58886010228E+03 -0.72890957342E+03 -0.22497652236E+03  0.96368118940E+03  0.12699999809E+01 0.  1.
</event>
<event>
 5   0  0.7935008E-05  0.1955300E+04  0.7818609E-02  0.8627809E-01
        2   -1    0    0  501    0  0.00000000000E+00  0.00000000000E+00  0.84541767433E+03  0.84541767433E+03  0.25500000920E-02 0. -1.
       -2   -1    0    0    0  501  0.00000000000E+00  0.00000000000E+00 -0.11305644143E+04  0.11305644143E+04  0.25500000920E-02 0.  1.
    10030    2    1    2    0    0  0.00000000000E+00  0.00000000000E+00 -0.28514674002E+03  0.19759820887E+04  0.19552996066E+04 0.  0.
        3    1    3    3  502    0  0.23807659359E+03 -0.94030932893E+02  0.81095195082E+03  0.85039129669E+03  0.10100000352E+00 0. -1.
       -3    1    3    3    0  502 -0.23807659359E+03  0.94030932893E+02 -0.10960986908E+04  0.11255907920E+04  0.10100000352E+00 0.  1.
</event>
<event>
 5   0  0.3772949E-05  0.1975030E+04  0.7818609E-02  0.8618385E-01
        1   -1    0    0  501    0  0.00000000000E+00  0.00000000000E+00  0.14020918230E+04  0.14020918230E+04  0.50400001928E-02 0.  1.
       -1   -1    0    0    0  501  0.00000000000E+00  0.00000000000E+00 -0.69552204568E+03  0.69552204570E+03  0.50400001928E-02 0. -1.
    10030    2    1    2    0    0  0.00000000000E+00  0.00000000000E+00  0.70656977732E+03  0.20976138687E+04  0.19750298965E+04 0.  0.
        2    1    3    3  502    0 -0.40676744286E+03 -0.20025364161E+03  0.12850175374E+04  0.13626559892E+04  0.25500000920E-02 0.  1.
       -2    1    3    3    0  502  0.40676744286E+03  0.20025364161E+03 -0.57844776005E+03  0.73495787951E+03  0.25500000920E-02 0. -1.
</event>
<event>
 5   0  0.2859625E-05  0.1998218E+04  0.7818609E-02  0.8607454E-01
        4   -1    0    0  501    0  0.00000000000E+00  0.00000000000E+00  0.13213805275E+04  0.13213811378E+04  0.12699999809E+01 0. -1.
       -4   -1    0    0    0  501  0.00000000000E+00  0.00000000000E+00 -0.75543529263E+03  0.75543636016E+03  0.12699999809E+01 0.  1.
    10030    2    1    2    0    0  0.00000000000E+00  0.00000000000E+00  0.56594523485E+03  0.20768174980E+04  0.19982184342E+04 0.  0.
        3    1    3    3  502    0 -0.54515991471E+03  0.48418466506E+03  0.99291124013E+03  0.12318712853E+04  0.10100000352E+00 0. -1.
       -3    1    3    3    0  502  0.54515991471E+03 -0.48418466506E+03 -0.42696600527E+03  0.84494621269E+03  0.10100000352E+00 0.  1.
</event>
<event>
 5   0  0.2859625E-05  0.1996125E+04  0.7818609E-02  0.8608435E-01
       -3   -1    0    0    0  501  0.00000000000E+00  0.00000000000E+00  0.12653138064E+04  0.12653138104E+04  0.10100000352E+00 0. -1.
        3   -1    0    0  501    0  0.00000000000E+00  0.00000000000E+00 -0.78725798313E+03  0.78725798961E+03  0.10100000352E+00 0.  1.
    10030    2    1    2    0    0  0.00000000000E+00  0.00000000000E+00  0.47805582328E+03  0.20525718000E+04  0.19961246515E+04 0.  0.
        4    1    3    3  502    0  0.38397199126E+03  0.91881266141E+03  0.30781962917E+03  0.10423078882E+04  0.12699999809E+01 0.  1.
       -4    1    3    3    0  502 -0.38397199126E+03 -0.91881266141E+03  0.17023619411E+03  0.10102639118E+04  0.12699999809E+01 0. -1.
</event>
<event>
 5   0  0.3549426E-05  0.1994924E+04  0.7818609E-02  0.8608998E-01
        1   -1    0    0  501    0  0.00000000000E+00  0.00000000000E+00  0.91572894213E+03  0.91572894215E+03  0.50400001928E-02 0.  1.
       -1   -1    0    0    0  501  0.00000000000E+00  0.00000000000E+00 -0.10864895951E+04  0.10864895951E+04  0.50400001928E-02 0. -1.
    10030    2    1    2    0    0  0.00000000000E+00  0.00000000000E+00 -0.17076065299E+03  0.20022185373E+04  0.19949235250E+04 0.  0.
        5    1    3    3  502    0  0.13457308246E+03 -0.41187937078E+03  0.81632212866E+03  0.92420692398E+03  0.46999998093E+01 0.  1.
       -5    1    3    3    0  502 -0.13457308246E+03  0.41187937078E+03 -0.98708278165E+03  0.10780116133E+04  0.46999998093E+01 0. -1.
</event>
<event>
 5   0  0.3787698E-05  0.2013159E+04  0.7818609E-02  0.8600493E-01
        1   -1    0    0  501    0  0.00000000000E+00  0.00000000000E+00  0.13077911526E+04  0.13077911526E+04  0.50400001928E-02 0.  1.
       -1   -1    0    0    0  501  0.00000000000E+00  0.00000000000E+00 -0.77474281190E+03  0.77474281191E+03  0.50400001928E-02 0. -1.
    10030    2    1    2    0    0  0.00000000000E+00  0.00000000000E+00  0.53304834073E+03  0.20825339645E+04  0.20131585084E+04 0.  0.
        4    1    3    3  502    0  0.18709907771E+03 -0.74015940226E+03 -0.41209973094E+03  0.86756544812E+03  0.12699999809E+01 0. -1.
       -4    1    3    3    0  502 -0.18709907771E+03  0.74015940226E+03  0.94514807167E+03  0.12149685164E+04  0.12699999809E+01 0.  1.
</event>
<event>
 5   0  0.3818907E-05  0.2013573E+04  0.7818609E-02  0.8600301E-01
       -1   -1    0    0    0  501  0.00000000000E+00  0.00000000000E+00  0.12698667867E+04  0.12698667868E+04  0.50400001928E-02 0.  1.
        1   -1    0    0  501    0  0.00000000000E+00  0.00000000000E+00 -0.79820898551E+03  0.79820898552E+03  0.50400001928E-02 0. -1.
    10030    2    1    2    0    0  0.00000000000E+00  0.00000000000E+00  0.47165780124E+03  0.20680757723E+04  0.20135730229E+04 0.  0.
        1    1    3    3  502    0  0.81723433317E+03 -0.55366304441E+03  0.32468572781E+02  0.98765830645E+03  0.50400001928E-02 0.  1.
       -1    1    3    3    0  502 -0.81723433317E+03  0.55366304441E+03  0.43918922846E+03  0.10804174658E+04  0.50400001928E-02 0. -1.
</event>
<event>
 5   0  0.7857136E-05  0.2004204E+04  0.7818609E-02  0.8604658E-01
       -2   -1    0    0    0  501  0.00000000000E+00  0.00000000000E+00  0.84026076671E+03  0.84026076672E+03  0.25500000920E-02 0. -1.
        2   -1    0    0  501    0  0.00000000000E+00  0.00000000000E+00 -0.11951146633E+04  0.11951146633E+04  0.25500000920E-02 0.  1.
    10030    2    1    2    0    0  0.00000000000E+00  0.00000000000E+00 -0.35485389655E+03  0.20353754300E+04  0.20042035458E+04 0.  0.
        4    1    3    3  502    0 -0.10109143975E+03  0.28844404178E+03 -0.11466217824E+04  0.11866602585E+04  0.12699999809E+01 0.  1.
       -4    1    3    3    0  502  0.10109143975E+03 -0.28844404178E+03  0.79176788580E+03  0.84871517149E+03  0.12699999809E+01 0. -1.
</event>
<event>
 5   0  0.8011197E-05  0.1992038E+04  0.7818609E-02  0.8610352E-01
        2   -1    0    0  501    0  0.00000000000E+00  0.00000000000E+00  0.17037707130E+04  0.17037707130E+04  0.25500000920E-02 0. -1.
       -2   -1    0    0    0  501  0.00000000000E+00  0.00000000000E+00 -0.58226942107E+03  0.58226942107E+03  0.25500000920E-02 0.  1.
    10030    2    1    2    0    0  0.00000000000E+00  0.00000000000E+00  0.11215012919E+04  0.22860401341E+04  0.19920377373E+04 0.  0.
        5    1    3    3  502    0  0.12924483739E+03 -0.10757790585E+03 -0.56584857144E+03  0.59032527442E+03  0.46999998093E+01 0.  1.
       -5    1    3    3    0  502 -0.12924483739E+03  0.10757790585E+03  0.16873498634E+04  0.16957148596E+04  0.46999998093E+01 0. -1.
</event>
<event>
 5   0  0.3549426E-05  0.1993568E+04  0.7818609E-02  0.8609634E-01
       -1   -1    0    0    0  501  0.00000000000E+00  0.00000000000E+00  0.11301827706E+04  0.11301827706E+04  0.50400001928E-02 0.  1.
        1   -1    0    0  501    0  0.00000000000E+00  0.00000000000E+00 -0.87913090484E+03  0.87913090486E+03  0.50400001928E-02 0. -1.
    10030    2    1    2    0    0  0.00000000000E+00  0.00000000000E+00  0.25105186579E+03  0.20093136755E+04  0.19935682600E+04 0.  0.
        5    1    3    3  502    0 -0.26154816495E+02 -0.14280113536E+03  0.11194587491E+04  0.11288428675E+04  0.46999998093E+01 0.  1.
       -5    1    3    3    0  502  0.26154816495E+02  0.14280113536E+03 -0.86840688331E+03  0.88047080795E+03  0.46999998093E+01 0. -1.
</event>
<event>
 5   0  0.8022574E-05  0.2022394E+04  0.7818609E-02  0.8596222E-01
       -2   -1    0    0    0  501  0.00000000000E+00  0.00000000000E+00  0.74103507527E+03  0.74103507527E+03  0.25500000920E-02 0. -1.
        2   -1    0    0  501    0  0.00000000000E+00  0.00000000000E+00 -0.13798532827E+04  0.13798532827E+04  0.25500000920E-02 0.  1.
    10030    2    1    2    0    0  0.00000000000E+00  0.00000000000E+00 -0.63881820744E+03  0.21208883580E+04  0.20223943050E+04 0.  0.
        1    1    3    3  502    0 -0.76155945600E+03 -0.29199001149E+03 -0.94625620325E+03  0.12492524861E+04  0.50400001928E-02 0.  1.
       -1    1    3    3    0  502  0.76155945600E+03  0.29199001149E+03  0.30743799581E+03  0.87163587187E+03  0.50400001928E-02 0. -1.
</event>
<event>
 5   0  0.7843846E-05  0.2006374E+04  0.7818609E-02  0.8603646E-01
       -2   -1    0    0    0  501  0.00000000000E+00  0.00000000000E+00  0.11285817875E+04  0.11285817875E+04  0.25500000920E-02 0. -1.
        2   -1    0    0  501    0  0.00000000000E+00  0.00000000000E+00 -0.89172454835E+03  0.89172454835E+03  0.25500000920E-02 0.  1.
    10030    2    1    2    0    0  0.00000000000E+00  0.00000000000E+00  0.23685723917E+03  0.20203063359E+04  0.20063739280E+04 0.  0.
        2    1    3    3  502    0  0.97818003455E+03 -0.51511549219E+02 -0.99626427445E+02  0.98458876936E+03  0.25500000920E-02 0.  1.
       -2    1    3    3    0  502 -0.97818003455E+03  0.51511549219E+02  0.33648366661E+03  0.10357175665E+04  0.25500000920E-02 0. -1.
</event>
<event>
 5   0  0.7843846E-05  0.2019107E+04  0.7818609E-02  0.8597739E-01
       -2   -1    0    0    0  501  0.00000000000E+00  0.00000000000E+00  0.68840422970E+03  0.68840422970E+03  0.25500000920E-02 0.  1.
        2   -1    0    0  501    0  0.00000000000E+00  0.00000000000E+00 -0.14805230427E+04  0.14805230427E+04  0.25500000920E-02 0. -1.
    10030    2    1    2    0    0  0.00000000000E+00  0.00000000000E+00 -0.79211881304E+03  0.21689272724E+04  0.20191070549E+04 0.  0.
        2    1    3    3  502    0  0.49073543572E+03  0.87030987672E+03 -0.24062365693E+03  0.10276965961E+04  0.25500000920E-02 0.  1.
       -2    1    3    3    0  502 -0.49073543572E+03 -0.87030987672E+03 -0.55149515612E+03  0.11412306763E+04  0.25500000920E-02 0. -1.
</event>
<event>
 5   0  0.3787698E-05  0.1990505E+04  0.7818609E-02  0.8611073E-01
       -1   -1    0    0    0  501  0.00000000000E+00  0.00000000000E+00  0.75299612730E+03  0.75299612732E+03  0.50400001928E-02 0. -1.
        1   -1    0    0  501    0  0.00000000000E+00  0.00000000000E+00 -0.13154485187E+04  0.13154485187E+04  0.50400001928E-02 0.  1.
    10030    2    1    2    0    0  0.00000000000E+00  0.00000000000E+00 -0.56245239140E+03  0.20684446460E+04  0.19905051020E+04 0.  0.
        4    1    3    3  502    0  0.39103870469E+03  0.73433784193E+03  0.28638750165E+03  0.87987655308E+03  0.12699999809E+01 0. -1.
       -4    1    3    3    0  502 -0.39103870469E+03 -0.73433784193E+03 -0.84883989305E+03  0.11885680930E+04  0.12699999809E+01 0.  1.
</event>
<event>
 5   0  0.3818907E-05  0.1997733E+04  0.7818609E-02  0.8607681E-01
        1   -1    0    0  501    0  0.00000000000E+00  0.00000000000E+00  0.64616435602E+03  0.64616435603E+03  0.50400001928E-02 0. -1.
       -1   -1    0    0    0  501  0.00000000000E+00  0.00000000000E+00 -0.15440872929E+04  0.15440872929E+04  0.50400001928E-02 0.  1.
    10030    2    1    2    0    0  0.00000000000E+00  0.00000000000E+00 -0.89792293684E+03  0.21902516489E+04  0.19977328863E+04 0.  0.
        1    1    3    3  502    0 -0.13918286941E+03 -0.72435942673E+03  0.28949445693E+03  0.79238594817E+03  0.50400001928E-02 0. -1.
       -1    1    3    3    0  502  0.13918286941E+03  0.72435942673E+03 -0.11874173938E+04  0.13978657007E+04  0.50400001928E-02 0.  1.
</event>
<event>
 5   0  0.8011197E-05  0.1998993E+04  0.7818609E-02  0.8607091E-01
       -2   -1    0    0    0  501  0.00000000000E+00  0.00000000000E+00  0.12721135766E+04  0.12721135766E+04  0.25500000920E-02 0. -1.
        2   -1    0    0  501    0  0.00000000000E+00  0.00000000000E+00 -0.78530231269E+03  0.78530231270E+03  0.25500000920E-02 0.  1.
    10030    2    1    2    0    0  0.00000000000E+00  0.00000000000E+00  0.48681126386E+03  0.20574158893E+04  0.19989934804E+04 0.  0.
        5    1    3    3  502    0 -0.47343487821E+03 -0.24202445049E+03  0.11144586973E+04  0.12348103889E+04  0.46999998093E+01 0. -1.
       -5    1    3    3    0  502  0.47343487821E+03  0.24202445049E+03 -0.62764743343E+03  0.82260550037E+03  0.46999998093E+01 0.  1.
</event>
<event>
 5   0  0.3549426E-05  0.2017938E+04  0.7818609E-02  0.8598280E-01
       -1   -1    0    0    0  501  0.00000000000E+00  0.00000000000E+00  0.87041735789E+03  0.87041735791E+03  0.50400001928E-02 0.  1.
        1   -1    0    0  501    0  0.00000000000E+00  0.00000000000E+00 -0.11695752781E+04  0.11695752781E+04  0.50400001928E-02 0. -1.
    10030    2    1    2    0    0  0.00000000000E+00  0.00000000000E+00 -0.29915792018E+03  0.20399926360E+04  0.20179381789E+04 0.  0.
        5    1    3    3  502    0 -0.31079175063E+03  0.47464225503E+03 -0.99303552067E+03  0.11436863284E+04  0.46999998093E+01 0. -1.
       -5    1    3    3    0  502  0.31079175063E+03 -0.47464225503E+03  0.69387760049E+03  0.89630630756E+03  0.46999998093E+01 0.  1.
</event>
<event>
 5   0  0.7843846E-05  0.2062559E+04  0.7818609E-02  0.8577918E-01
       -2   -1    0    0    0  501  0.00000000000E+00  0.00000000000E+00  0.63774721710E+03  0.63774721711E+03  0.25500000920E-02 0.  1.
        2   -1    0    0  501    0  0.00000000000E+00  0.00000000000E+00 -0.16676480739E+04  0.16676480739E+04  0.25500000920E-02 0. -1.
    10030    2    1    2    0    0  0.00000000000E+00  0.00000000000E+00 -0.10299008568E+04  0.23053952910E+04  0.20625594956E+04 0.  0.
        2    1    3    3  502    0  0.79224411317E+03  0.42909644514E+03 -0.10757855916E+04  0.14032423644E+04  0.25500000920E-02 0.  1.
       -2    1    3    3    0  502 -0.79224411317E+03 -0.42909644514E+03  0.45884734820E+02  0.90215292661E+03  0.25500000920E-02 0. -1.
</event>
<event>
 5   0  0.7857136E-05  0.1996121E+04  0.7818609E-02  0.8608436E-01
       -2   -1    0    0    0  501  0.00000000000E+00  0.00000000000E+00  0.39047636789E+03  0.39047636790E+03  0.25500000920E-02 0.  1.
        2   -1    0    0  501    0  0.00000000000E+00  0.00000000000E+00 -0.25510504832E+04  0.25510504832E+04  0.25500000920E-02 0. -1.
    10030    2    1    2    0    0  0.00000000000E+00  0.00000000000E+00 -0.21605741153E+04  0.29415268511E+04  0.19961211657E+04 0.  0.
        4    1    3    3  502    0 -0.75033167233E+03 -0.13967777007E+03 -0.20280167474E+04  0.21668781781E+04  0.12699999809E+01 0. -1.
       -4    1    3    3    0  502  0.75033167233E+03  0.13967777007E+03 -0.13255736792E+03  0.77464867304E+03  0.12699999809E+01 0.  1.
</event>
<event>
 5   0  0.3787698E-05  0.1992011E+04  0.7818609E-02  0.8610365E-01
        1   -1    0    0  501    0  0.00000000000E+00  0.00000000000E+00  0.15228473849E+04  0.15228473849E+04  0.50400001928E-02 0.  1.
       -1   -1    0    0    0  501  0.00000000000E+00  0.00000000000E+00 -0.65142914804E+03  0.65142914806E+03  0.50400001928E-02 0. -1.
    10030    2    1    2    0    0  0.00000000000E+00  0.00000000000E+00  0.87141823685E+03  0.21742765330E+04  0.19920112194E+04 0.  0.
        4    1    3    3  502    0  0.44366598528E+03  0.88251987685E+03  0.57525331168E+03  0.11430655384E+04  0.12699999809E+01 0.  1.
       -4    1    3    3    0  502 -0.44366598528E+03 -0.88251987685E+03  0.29616492516E+03  0.10312109946E+04  0.12699999809E+01 0. -1.
</event>
<event>
 5   0  0.8011197E-05  0.2004472E+04  0.7818609E-02  0.8604533E-01
       -2   -1    0    0    0  501  0.00000000000E+00  0.00000000000E+00  0.35573084310E+03  0.35573084311E+03  0.25500000920E-02 0.  1.
        2   -1    0    0  501    0  0.00000000000E+00  0.00000000000E+00 -0.28236994916E+04  0.28236994916E+04  0.25500000920E-02 0. -1.
    10030    2    1    2    0    0  0.00000000000E+00  0.00000000000E+00 -0.24679686485E+04  0.31794303347E+04  0.20044720011E+04 0.  0.
        5    1    3    3  502    0  0.29704046701E+03 -0.60993238480E+03 -0.63864528370E+02  0.68143328438E+03  0.46999998093E+01 0.  1.
       -5    1    3    3    0  502 -0.29704046701E+03  0.60993238480E+03 -0.24041041201E+04  0.24979970503E+04  0.46999998093E+01 0. -1.
</event>
<event>
 5   0  0.7935008E-05  0.1991462E+04  0.7818609E-02  0.8610623E-01
        2   -1    0    0  501    0  0.00000000000E+00  0.00000000000E+00  0.11821734105E+04  0.11821734105E+04  0.25500000920E-02 0. -1.
       -2   -1    0    0    0  501  0.00000000000E+00  0.00000000000E+00 -0.83869296217E+03  0.83869296218E+03  0.25500000920E-02 0.  1.
    10030    2    1    2    0    0  0.00000000000E+00  0.00000000000E+00  0.34348044835E+03  0.20208663727E+04  0.19914622964E+04 0.  0.
        3    1    3    3  502    0 -0.94674424033E+03 -0.19057324674E+03 -0.74406078582E+02  0.96859645554E+03  0.10100000352E+00 0.  1.
       -3    1    3    3    0  502  0.94674424033E+03  0.19057324674E+03  0.41788652693E+03  0.10522699172E+04  0.10100000352E+00 0. -1.
</event>
<event>
 5   0  0.7857136E-05  0.2001732E+04  0.7818609E-02  0.8605811E-01
       -2   -1    0    0    0  501  0.00000000000E+00  0.00000000000E+00  0.57603934861E+03  0.57603934862E+03  0.25500000920E-02 0. -1.
        2   -1    0    0  501    0  0.00000000000E+00  0.00000000000E+00 -0.17390014054E+04  0.17390014054E+04  0.25500000920E-02 0.  1.
    10030    2    1    2    0    0  0.00000000000E+00  0.00000000000E+00 -0.11629620568E+04  0.23150407540E+04  0.20017324864E+04 0.  0.
        4    1    3    3  502    0  0.58508139277E+03  0.46268902009E+02  0.35613430017E+03  0.68650877643E+03  0.12699999809E+01 0. -1.
       -4    1    3    3    0  502 -0.58508139277E+03 -0.46268902009E+02 -0.15190963570E+04  0.16285319776E+04  0.12699999809E+01 0.  1.
</event>
<event>
 5   0  0.3772949E-05  0.2006542E+04  0.7818609E-02  0.8603568E-01
        1   -1    0    0  501    0  0.00000000000E+00  0.00000000000E+00  0.14617439709E+04  0.14617439709E+04  0.50400001928E-02 0.  1.
       -1   -1    0    0    0  501  0.00000000000E+00  0.00000000000E+00 -0.68859686422E+03  0.68859686424E+03  0.50400001928E-02 0. -1.
    10030    2    1    2    0    0  0.00000000000E+00  0.00000000000E+00  0.77314710667E+03  0.21503408351E+04  0.20065416165E+04 0.  0.
        2    1    3    3  502    0 -0.50644758558E+03  0.37318699741E+03  0.12241158203E+04  0.13763056469E+04  0.25500000920E-02 0.  1.
       -2    1    3    3    0  502  0.50644758558E+03 -0.37318699741E+03 -0.45096871366E+03  0.77403518827E+03  0.25500000920E-02 0. -1.
</event>
<event>
 5   0  0.7935008E-05  0.2003127E+04  0.7818609E-02  0.8605160E-01
       -2   -1    0    0    0  501  0.00000000000E+00  0.00000000000E+00  0.97656945344E+03  0.97656945345E+03  0.25500000920E-02 0.  1.
        2   -1    0    0  501    0  0.00000000000E+00  0.00000000000E+00 -0.10271975619E+04  0.10271975619E+04  0.25500000920E-02 0. -1.
    10030    2    1    2    0    0  0.00000000000E+00  0.00000000000E+00 -0.50628108436E+02  0.20037670153E+04  0.20031273166E+04 0.  0.
        3    1    3    3  502    0  0.21276870228E+02  0.91222364380E+03 -0.43839274119E+03  0.10123205457E+04  0.10100000352E+00 0. -1.
       -3    1    3    3    0  502 -0.21276870228E+02 -0.91222364380E+03  0.38776463275E+03  0.99144646963E+03  0.10100000352E+00 0.  1.
</event>
<event>
 5   0  0.3549426E-05  0.1983290E+04  0.7818609E-02  0.8614473E-01
        1   -1    0    0  501    0  0.00000000000E+00  0.00000000000E+00  0.16462375412E+04  0.16462375412E+04  0.50400001928E-02 0. -1.
       -1   -1    0    0    0  501  0.00000000000E+00  0.00000000000E+00 -0.59733748785E+03  0.59733748787E+03  0.50400001928E-02 0.  1.
    10030    2    1    2    0    0  0.00000000000E+00  0.00000000000E+00  0.10489000534E+04  0.22435750291E+04  0.19832895878E+04 0.  0.
        5    1    3    3  502    0 -0.64732843841E+03 -0.17045159146E+03  0.13520730864E+04  0.15087118921E+04  0.46999998093E+01 0. -1.
       -5    1    3    3    0  502  0.64732843841E+03  0.17045159146E+03 -0.30317303306E+03  0.73486313704E+03  0.46999998093E+01 0.  1.
</event>
<event>
 5   0  0.7857136E-05  0.1993922E+04  0.7818609E-02  0.8609468E-01
       -2   -1    0    0    0  501  0.00000000000E+00  0.00000000000E+00  0.63208898146E+03  0.63208898146E+03  0.25500000920E-02 0.  1.
        2   -1    0    0  501    0  0.00000000000E+00  0.00000000000E+00 -0.15724541566E+04  0.15724541566E+04  0.25500000920E-02 0. -1.
    10030    2    1    2    0    0  0.00000000000E+00  0.00000000000E+00 -0.94036517515E+03  0.22045431381E+04  0.19939217098E+04 0.  0.
        4    1    3    3  502    0 -0.50247624070E+00 -0.71093303851E+03 -0.12429419018E+04  0.14318981186E+04  0.12699999809E+01 0. -1.
       -4    1    3    3    0  502  0.50247624070E+00  0.71093303851E+03  0.30257672669E+03  0.77264501950E+03  0.12699999809E+01 0.  1.
</event>
<event>
 5   0  0.3818907E-05  0.1990082E+04  0.7818609E-02  0.8611272E-01
        1   -1    0    0  501    0  0.00000000000E+00  0.00000000000E+00  0.17187679265E+04  0.17187679265E+04  0.50400001928E-02 0. -1.
       -1   -1    0    0    0  501  0.00000000000E+00  0.00000000000E+00 -0.57605589134E+03  0.57605589136E+03  0.50400001928E-02 0.  1.
    10030    2    1    2    0    0  0.00000000000E+00  0.00000000000E+00  0.11427120351E+04  0.22948238178E+04  0.19900817972E+04 0.  0.
        1    1    3    3  502    0  0.53510082378E+03 -0.30049114206E+03  0.14745439376E+04  0.15971561107E+04  0.50400001928E-02 0. -1.
       -1    1    3    3    0  502 -0.53510082378E+03  0.30049114206E+03 -0.33183190246E+03  0.69766770713E+03  0.50400001928E-02 0.  1.
</event>
<event>
 5   0  0.8011197E-05  0.1998920E+04  0.7818609E-02  0.8607126E-01
       -2   -1    0    0    0  501  0.00000000000E+00  0.00000000000E+00  0.73449072691E+03  0.73449072691E+03  0.25500000920E-02 0. -1.
        2   -1    0    0  501    0  0.00000000000E+00  0.00000000000E+00 -0.13600180657E+04  0.13600180657E+04  0.25500000920E-02 0.  1.
    10030    2    1    2    0    0  0.00000000000E+00  0.00000000000E+00 -0.62552733878E+03  0.20945087926E+04  0.19989203663E+04 0.  0.
        5    1    3    3  502    0  0.78980710402E+03 -0.20175338661E+03  0.29316164963E+03  0.86629413792E+03  0.46999998093E+01 0.  1.
       -5    1    3    3    0  502 -0.78980710402E+03  0.20175338661E+03 -0.91868898841E+03  0.12282146547E+04  0.46999998093E+01 0. -1.
</event>
<event>
 5   0  0.3549426E-05  0.2240968E+04  0.7818609E-02  0.8501567E-01
       -1   -1    0    0    0  501  0.00000000000E+00  0.00000000000E+00  0.96981935882E+03  0.96981935884E+03  0.50400001928E-02 0.  1.
        1   -1    0    0  501    0  0.00000000000E+00  0.00000000000E+00 -0.12945552947E+04  0.12945552947E+04  0.50400001928E-02 0. -1.
    10030    2    1    2    0    0  0.00000000000E+00  0.00000000000E+00 -0.32473593591E+03  0.22643746536E+04  0.22409683496E+04 0.  0.
        5    1    3    3  502    0 -0.71574417998E+03  0.11888827984E+03 -0.10251236067E+04  0.12559158623E+04  0.46999998093E+01 0. -1.
       -5    1    3    3    0  502  0.71574417998E+03 -0.11888827984E+03  0.70038767078E+03  0.10084587912E+04  0.46999998093E+01 0.  1.
</event>
<event>
 5   0  0.3549426E-05  0.1989963E+04  0.7818609E-02  0.8611327E-01
        1   -1    0    0  501    0  0.00000000000E+00  0.00000000000E+00  0.11785779788E+04  0.11785779788E+04  0.50400001928E-02 0. -1.
       -1   -1    0    0    0  501  0.00000000000E+00  0.00000000000E+00 -0.83998569730E+03  0.83998569731E+03  0.50400001928E-02 0.  1.
    10030    2    1    2    0    0  0.00000000000E+00  0.00000000000E+00  0.33859228154E+03  0.20185636762E+04  0.19899634624E+04 0.  0.
        5    1    3    3  502    0  0.65875885791E+03  0.73600193615E+03  0.29061638483E+03  0.10296320003E+04  0.46999998093E+01 0. -1.
       -5    1    3    3    0  502 -0.65875885791E+03 -0.73600193615E+03  0.47975896705E+02  0.98893167587E+03  0.46999998093E+01 0.  1.
</event>
<event>
 5   0  0.8011197E-05  0.2016771E+04  0.7818609E-02  0.8598820E-01
        2   -1    0    0  501    0  0.00000000000E+00  0.00000000000E+00  0.20554415449E+04  0.20554415449E+04  0.25500000920E-02 0.  1.
       -2   -1    0    0    0  501  0.00000000000E+00  0.00000000000E+00 -0.49470701844E+03  0.49470701845E+03  0.25500000920E-02 0. -1.
    10030    2    1    2    0    0  0.00000000000E+00  0.00000000000E+00  0.15607345264E+04  0.25501485633E+04  0.20167710413E+04 0.  0.
        5    1    3    3  502    0  0.23819870715E+03 -0.97959819707E+03  0.80772243551E+03  0.12918161149E+04  0.46999998093E+01 0.  1.
       -5    1    3    3    0  502 -0.23819870715E+03  0.97959819707E+03  0.75301209091E+03  0.12583324485E+04  0.46999998093E+01 0. -1.
</event>
<event>
 5   0  0.3787698E-05  0.1999406E+04  0.7818609E-02  0.8606898E-01
        1   -1    0    0  501    0  0.00000000000E+00  0.00000000000E+00  0.20549340524E+04  0.20549340524E+04  0.50400001928E-02 0. -1.
       -1   -1    0    0    0  501  0.00000000000E+00  0.00000000000E+00 -0.48634479064E+03  0.48634479067E+03  0.50400001928E-02 0.  1.
    10030    2    1    2    0    0  0.00000000000E+00  0.00000000000E+00  0.15685892618E+04  0.25412788431E+04  0.19994063835E+04 0.  0.
        4    1    3    3  502    0  0.12002835800E+03 -0.53243550353E+03 -0.28026092346E+03  0.61354883282E+03  0.12699999809E+01 0.  1.
       -4    1    3    3    0  502 -0.12002835800E+03  0.53243550353E+03  0.18488501852E+04  0.19277300103E+04  0.12699999809E+01 0. -1.
</event>
<event>
 5   0  0.3787698E-05  0.1980934E+04  0.7818609E-02  0.8615587E-01
        1   -1    0    0  501    0  0.00000000000E+00  0.00000000000E+00  0.17359444639E+04  0.17359444639E+04  0.50400001928E-02 0. -1.
       -1   -1    0    0    0  501  0.00000000000E+00  0.00000000000E+00 -0.56512476989E+03  0.56512476991E+03  0.50400001928E-02 0.  1.
    10030    2    1    2    0    0  0.00000000000E+00  0.00000000000E+00  0.11708196940E+04  0.23010692338E+04  0.19809343409E+04 0.  0.
        4    1    3    3  502    0  0.27504630241E+03  0.85843442910E+03  0.10863595026E+03  0.90794466799E+03  0.12699999809E+01 0.  1.
       -4    1    3    3    0  502 -0.27504630241E+03 -0.85843442910E+03  0.10621837437E+04  0.13931245658E+04  0.12699999809E+01 0. -1.
</event>
<event>
 5   0  0.3549426E-05  0.1973327E+04  0.7818609E-02  0.8619194E-01
       -1   -1    0    0    0  501  0.00000000000E+00  0.00000000000E+00  0.15851293437E+04  0.15851293437E+04  0.50400001928E-02 0. -1.
        1   -1    0    0  501    0  0.00000000000E+00  0.00000000000E+00 -0.61414833643E+03  0.61414833645E+03  0.50400001928E-02 0.  1.
    10030    2    1    2    0    0  0.00000000000E+00  0.00000000000E+00  0.97098100724E+03  0.21992776801E+04  0.19733266830E+04 0.  0.
        5    1    3    3  502    0 -0.55111167982E+03 -0.73032526714E+03  0.89707764954E+03  0.12813545484E+04  0.46999998093E+01 0. -1.
       -5    1    3    3    0  502  0.55111167982E+03  0.73032526714E+03  0.73903357701E+02  0.91792313171E+03  0.46999998093E+01 0.  1.
</event>
<event>
 5   0  0.3787698E-05  0.2001669E+04  0.7818609E-02  0.8605841E-01
       -1   -1    0    0    0  501  0.00000000000E+00  0.00000000000E+00  0.95099004913E+03  0.95099004914E+03  0.50400001928E-02 0. -1.
        1   -1    0    0  501    0  0.00000000000E+00  0.00000000000E+00 -0.10532917051E+04  0.10532917051E+04  0.50400001928E-02 0.  1.
    10030    2    1    2    0    0  0.00000000000E+00  0.00000000000E+00 -0.10230165599E+03  0.20042817543E+04  0.20016692338E+04 0.  0.
        4    1    3    3  502    0 -0.41922706245E+02 -0.53873102361E+01  0.95009515456E+03  0.95103572595E+03  0.12699999809E+01 0. -1.
       -4    1    3    3    0  502  0.41922706245E+02  0.53873102361E+01 -0.10523968106E+04  0.10532460283E+04  0.12699999809E+01 0.  1.
</event>
<event>
 5   0  0.3787698E-05  0.1994396E+04  0.7818609E-02  0.8609245E-01
       -1   -1    0    0    0  501  0.00000000000E+00  0.00000000000E+00  0.10998362827E+04  0.10998362827E+04  0.50400001928E-02 0. -1.
        1   -1    0    0  501    0  0.00000000000E+00  0.00000000000E+00 -0.90413761584E+03  0.90413761586E+03  0.50400001928E-02 0.  1.
    10030    2    1    2    0    0  0.00000000000E+00  0.00000000000E+00  0.19569866687E+03  0.20039738986E+04  0.19943955019E+04 0.  0.
        4    1    3    3  502    0  0.21849659023E+03 -0.54453581048E+03 -0.71233678318E+03  0.92286798319E+03  0.12699999809E+01 0.  1.
       -4    1    3    3    0  502 -0.21849659023E+03  0.54453581048E+03  0.90803545005E+03  0.10811059154E+04  0.12699999809E+01 0. -1.
</event>
<event>
 5   0  0.3787698E-05  0.2046037E+04  0.7818609E-02  0.8585394E-01
       -1   -1    0    0    0  501  0.00000000000E+00  0.00000000000E+00  0.17832335921E+04  0.17832335921E+04  0.50400001928E-02 0.  1.
        1   -1    0    0  501    0  0.00000000000E+00  0.00000000000E+00 -0.58689301317E+03  0.58689301319E+03  0.50400001928E-02 0. -1.
    10030    2    1    2    0    0  0.00000000000E+00  0.00000000000E+00  0.11963405789E+04  0.23701266053E+04  0.20460374738E+04 0.  0.
        4    1    3    3  502    0  0.25728699754E+03 -0.85619934415E+03  0.11742237977E+04  0.14758309713E+04  0.12699999809E+01 0. -1.
       -4    1    3    3    0  502 -0.25728699754E+03  0.85619934415E+03  0.22116781261E+02  0.89429563397E+03  0.12699999809E+01 0.  1.
</event>
<event>
 5   0  0.3818907E-05  0.2016785E+04  0.7818609E-02  0.8598813E-01
       -1   -1    0    0    0  501  0.00000000000E+00  0.00000000000E+00  0.89571604222E+03  0.89571604223E+03  0.50400001928E-02 0. -1.
        1   -1    0    0  501    0  0.00000000000E+00  0.00000000000E+00 -0.11352427839E+04  0.11352427839E+04  0.50400001928E-02 0.  1.
    10030    2    1    2    0    0  0.00000000000E+00  0.00000000000E+00 -0.23952674171E+03  0.20309588262E+04  0.20167847415E+04 0.  0.
        1    1    3    3  502    0  0.16106087950E+03  0.99538882309E+03 -0.10893337820E+03  0.10142021480E+04  0.50400001928E-02 0. -1.
       -1    1    3    3    0  502 -0.16106087950E+03 -0.99538882309E+03 -0.13059336351E+03  0.10167566782E+04  0.50400001928E-02 0.  1.
</event>
<event>
 5   0  0.7843846E-05  0.1985623E+04  0.7818609E-02  0.8613372E-01
       -2   -1    0    0    0  501  0.00000000000E+00  0.00000000000E+00  0.63747461136E+03  0.63747461136E+03  0.25500000920E-02 0. -1.
        2   -1    0    0  501    0  0.00000000000E+00  0.00000000000E+00 -0.15462174266E+04  0.15462174267E+04  0.25500000920E-02 0.  1.
    10030    2    1    2    0    0  0.00000000000E+00  0.00000000000E+00 -0.90874281529E+03  0.21836920380E+04  0.19856226763E+04 0.  0.
        2    1    3    3  502    0 -0.98121167755E+03  0.10328771863E+03 -0.33275236605E+03  0.10412342897E+04  0.25500000920E-02 0. -1.
       -2    1    3    3    0  502  0.98121167755E+03 -0.10328771863E+03 -0.57599044925E+03  0.11424577483E+04  0.25500000920E-02 0.  1.
</event>
<event>
 5   0  0.3818907E-05  0.1998752E+04  0.7818609E-02  0.8607204E-01
       -1   -1    0    0    0  501  0.00000000000E+00  0.00000000000E+00  0.47596641531E+03  0.47596641534E+03  0.50400001928E-02 0. -1.
        1   -1    0    0  501    0  0.00000000000E+00  0.00000000000E+00 -0.20983668751E+04  0.20983668751E+04  0.50400001928E-02 0.  1.
    10030    2    1    2    0    0  0.00000000000E+00  0.00000000000E+00 -0.16224004598E+04  0.25743332904E+04  0.19987517701E+04 0.  0.
        1    1    3    3  502    0  0.65743599386E+03  0.49933373067E+03 -0.85813354781E+02  0.83001216407E+03  0.50400001928E-02 0. -1.
       -1    1    3    3    0  502 -0.65743599386E+03 -0.49933373067E+03 -0.15365871050E+04  0.17443211264E+04  0.50400001928E-02 0.  1.
</event>
<event>
 5   0  0.3787698E-05  0.2060335E+04  0.7818609E-02  0.8578920E-01
        1   -1    0    0  501    0  0.00000000000E+00  0.00000000000E+00  0.22990921262E+04  0.22990921262E+04  0.50400001928E-02 0.  1.
       -1   -1    0    0    0  501  0.00000000000E+00  0.00000000000E+00 -0.46159289220E+03  0.46159289222E+03  0.50400001928E-02 0. -1.
    10030    2    1    2    0    0  0.00000000000E+00  0.00000000000E+00  0.18374992340E+04  0.27606850184E+04  0.20603345204E+04 0.  0.
        4    1    3    3  502    0 -0.64255974922E+03 -0.77281109677E+03  0.61578837945E+03  0.11786929048E+04  0.12699999809E+01 0. -1.
       -4    1    3    3    0  502  0.64255974922E+03  0.77281109677E+03  0.12217108545E+04  0.15819921136E+04  0.12699999809E+01 0.  1.
</event>
<event>
 5   0  0.8011197E-05  0.1993830E+04  0.7818609E-02  0.8609511E-01
       -2   -1    0    0    0  501  0.00000000000E+00  0.00000000000E+00  0.11032334373E+04  0.11032334373E+04  0.25500000920E-02 0.  1.
        2   -1    0    0  501    0  0.00000000000E+00  0.00000000000E+00 -0.90084212904E+03  0.90084212904E+03  0.25500000920E-02 0. -1.
    10030    2    1    2    0    0  0.00000000000E+00  0.00000000000E+00  0.20239130829E+03  0.20040755664E+04  0.19938296402E+04 0.  0.
        5    1    3    3  502    0 -0.35998513435E+03 -0.66500941935E+03  0.75414163118E+03  0.10679787052E+04  0.46999998093E+01 0.  1.
       -5    1    3    3    0  502  0.35998513435E+03  0.66500941935E+03 -0.55175032289E+03  0.93609686122E+03  0.46999998093E+01 0. -1.
</event>
<event>
 5   0  0.8011197E-05  0.1991539E+04  0.7818609E-02  0.8610587E-01
       -2   -1    0    0    0  501  0.00000000000E+00  0.00000000000E+00  0.14007811168E+04  0.14007811168E+04  0.25500000920E-02 0. -1.
        2   -1    0    0  501    0  0.00000000000E+00  0.00000000000E+00 -0.70785965369E+03  0.70785965369E+03  0.25500000920E-02 0.  1.
    10030    2    1    2    0    0  0.00000000000E+00  0.00000000000E+00  0.69292146308E+03  0.21086407705E+04  0.19915385371E+04 0.  0.
        5    1    3    3  502    0 -0.57569842896E+02  0.39579713465E+03 -0.61906066863E+03  0.73703993111E+03  0.46999998093E+01 0.  1.
       -5    1    3    3    0  502  0.57569842896E+02 -0.39579713465E+03  0.13119821317E+04  0.13716008394E+04  0.46999998093E+01 0. -1.
</event>
<event>
 5   0  0.3970042E-05  0.2020375E+04  0.7818609E-02  0.8597153E-01
       -1   -1    0    0    0  501  0.00000000000E+00  0.00000000000E+00  0.76323355797E+03  0.76323355798E+03  0.50400001928E-02 0. -1.
        1   -1    0    0  501    0  0.00000000000E+00  0.00000000000E+00 -0.13370470016E+04  0.13370470016E+04  0.50400001928E-02 0.  1.
    10030    2    1    2    0    0  0.00000000000E+00  0.00000000000E+00 -0.57381344364E+03  0.21002805596E+04  0.20203753515E+04 0.  0.
        3    1    3    3  502    0  0.93135976565E+02 -0.67028043503E+02 -0.13302501097E+04  0.13351900364E+04  0.10100000352E+00 0.  1.
       -3    1    3    3    0  502 -0.93135976565E+02  0.67028043503E+02  0.75643666605E+03  0.76509052321E+03  0.10100000352E+00 0. -1.
</event>
<event>
 5   0  0.3787698E-05  0.1909227E+04  0.7818609E-02  0.8650277E-01
       -1   -1    0    0    0  501  0.00000000000E+00  0.00000000000E+00  0.99972507228E+03  0.99972507229E+03  0.50400001928E-02 0. -1.
        1   -1    0    0  501    0  0.00000000000E+00  0.00000000000E+00 -0.91153756147E+03  0.91153756148E+03  0.50400001928E-02 0.  1.
    10030    2    1    2    0    0  0.00000000000E+00  0.00000000000E+00  0.88187510815E+02  0.19112626338E+04  0.19092270211E+04 0.  0.
        4    1    3    3  502    0  0.30345252583E+03  0.79235139434E+03  0.48203152706E+03  0.97583819023E+03  0.12699999809E+01 0. -1.
       -4    1    3    3    0  502 -0.30345252583E+03 -0.79235139434E+03 -0.39384401625E+03  0.93542444354E+03  0.12699999809E+01 0.  1.
</event>
<event>
 5   0  0.3787698E-05  0.2012749E+04  0.7818609E-02  0.8600683E-01
        1   -1    0    0  501    0  0.00000000000E+00  0.00000000000E+00  0.26023314398E+04  0.26023314398E+04  0.50400001928E-02 0. -1.
       -1   -1    0    0    0  501  0.00000000000E+00  0.00000000000E+00 -0.38918533912E+03  0.38918533915E+03  0.50400001928E-02 0.  1.
    10030    2    1    2    0    0  0.00000000000E+00  0.00000000000E+00  0.22131461007E+04  0.29915167789E+04  0.20127486122E+04 0.  0.
        4    1    3    3  502    0 -0.78450729916E+03  0.59972769662E+03  0.81813193714E+03  0.12823675339E+04  0.12699999809E+01 0.  1.
       -4    1    3    3    0  502  0.78450729916E+03 -0.59972769662E+03  0.13950141635E+04  0.17091492451E+04  0.12699999809E+01 0. -1.
</event>
<event>
 5   0  0.7857136E-05  0.2009488E+04  0.7818609E-02  0.8602197E-01
       -2   -1    0    0    0  501  0.00000000000E+00  0.00000000000E+00  0.80927638699E+03  0.80927638699E+03  0.25500000920E-02 0. -1.
        2   -1    0    0  501    0  0.00000000000E+00  0.00000000000E+00 -0.12474238254E+04  0.12474238254E+04  0.25500000920E-02 0.  1.
    10030    2    1    2    0    0  0.00000000000E+00  0.00000000000E+00 -0.43814743842E+03  0.20567002124E+04  0.20094881403E+04 0.  0.
        4    1    3    3  502    0  0.38382619320E+03 -0.21260025621E+03  0.70603608337E+03  0.83127010017E+03  0.12699999809E+01 0. -1.
       -4    1    3    3    0  502 -0.38382619320E+03  0.21260025621E+03 -0.11441835218E+04  0.12254301122E+04  0.12699999809E+01 0.  1.
</event>
<event>
 5   0  0.2859625E-05  0.1994993E+04  0.7818609E-02  0.8608965E-01
        3   -1    0    0  501    0  0.00000000000E+00  0.00000000000E+00  0.85207956071E+03  0.85207956670E+03  0.10100000352E+00 0. -1.
       -3   -1    0    0    0  501  0.00000000000E+00  0.00000000000E+00 -0.11677300194E+04  0.11677300238E+04  0.10100000352E+00 0.  1.
    10030    2    1    2    0    0  0.00000000000E+00  0.00000000000E+00 -0.31565045873E+03  0.20198095905E+04  0.19949926240E+04 0.  0.
        2    1    3    3  502    0  0.64336240389E+03 -0.39050374766E+03 -0.82063732074E+03  0.11134873021E+04  0.25500000920E-02 0.  1.
       -2    1    3    3    0  502 -0.64336240389E+03  0.39050374766E+03  0.50498686202E+03  0.90632228842E+03  0.25500000920E-02 0. -1.
</event>
<event>
 5   0  0.3970042E-05  0.1990610E+04  0.7818609E-02  0.8611023E-01
        1   -1    0    0  501    0  0.00000000000E+00  0.00000000000E+00  0.80727364936E+03  0.80727364937E+03  0.50400001928E-02 0. -1.
       -1   -1    0    0    0  501  0.00000000000E+00  0.00000000000E+00 -0.12271330197E+04  0.12271330197E+04  0.50400001928E-02 0.  1.
    10030    2    1    2    0    0  0.00000000000E+00  0.00000000000E+00 -0.41985937030E+03  0.20344066690E+04  0.19906101085E+04 0.  0.
        3    1    3    3  502    0 -0.30898111279E+02 -0.73821871923E+02 -0.12238396115E+04  0.12264533285E+04  0.10100000352E+00 0.  1.
       -3    1    3    3    0  502  0.30898111279E+02  0.73821871923E+02  0.80398024121E+03  0.80795334055E+03  0.10100000352E+00 0. -1.
</event>
<event>
 5   0  0.7843846E-05  0.2014061E+04  0.7818609E-02  0.8600075E-01
       -2   -1    0    0    0  501  0.00000000000E+00  0.00000000000E+00  0.82825503979E+03  0.82825503980E+03  0.25500000920E-02 0. -1.
        2   -1    0    0  501    0  0.00000000000E+00  0.00000000000E+00 -0.12243935184E+04  0.12243935184E+04  0.25500000920E-02 0.  1.
    10030    2    1    2    0    0  0.00000000000E+00  0.00000000000E+00 -0.39613847859E+03  0.20526485582E+04  0.20140606766E+04 0.  0.
        2    1    3    3  502    0 -0.60767925591E+03  0.37693036034E+03 -0.92070958185E+03  0.11657858760E+04  0.25500000920E-02 0.  1.
       -2    1    3    3    0  502  0.60767925591E+03 -0.37693036034E+03  0.52457110327E+03  0.88686268215E+03  0.25500000920E-02 0. -1.
</event>
<event>
 5   0  0.8011197E-05  0.1993431E+04  0.7818609E-02  0.8609698E-01
       -2   -1    0    0    0  501  0.00000000000E+00  0.00000000000E+00  0.10424606633E+04  0.10424606633E+04  0.25500000920E-02 0. -1.
        2   -1    0    0  501    0  0.00000000000E+00  0.00000000000E+00 -0.95297784528E+03  0.95297784528E+03  0.25500000920E-02 0.  1.
    10030    2    1    2    0    0  0.00000000000E+00  0.00000000000E+00  0.89482817990E+02  0.19954385085E+04  0.19934311292E+04 0.  0.
        5    1    3    3  502    0 -0.91282847207E+03  0.39187049937E+03  0.12607295934E+03  0.10013664608E+04  0.46999998093E+01 0.  1.
       -5    1    3    3    0  502  0.91282847207E+03 -0.39187049937E+03 -0.36590141349E+02  0.99407204777E+03  0.46999998093E+01 0. -1.
</event>
<event>
 5   0  0.7935008E-05  0.2001611E+04  0.7818609E-02  0.8605868E-01
        2   -1    0    0  501    0  0.00000000000E+00  0.00000000000E+00  0.86295760188E+03  0.86295760188E+03  0.25500000920E-02 0. -1.
       -2   -1    0    0    0  501  0.00000000000E+00  0.00000000000E+00 -0.11606734374E+04  0.11606734374E+04  0.25500000920E-02 0.  1.
    10030    2    1    2    0    0  0.00000000000E+00  0.00000000000E+00 -0.29771583552E+03  0.20236310393E+04  0.20016113170E+04 0.  0.
        3    1    3    3  502    0 -0.20576059383E+02 -0.88031500075E+03  0.33201531066E+03  0.94106963158E+03  0.10100000352E+00 0. -1.
       -3    1    3    3    0  502  0.20576059383E+02  0.88031500075E+03 -0.62973114618E+03  0.10825614077E+04  0.10100000352E+00 0.  1.
</event>
<event>
 5   0  0.3772949E-05  0.2001677E+04  0.7818609E-02  0.8605837E-01
       -1   -1    0    0    0  501  0.00000000000E+00  0.00000000000E+00  0.66567400843E+03  0.66567400845E+03  0.50400001928E-02 0.  1.
        1   -1    0    0  501    0  0.00000000000E+00  0.00000000000E+00 -0.15047575135E+04  0.15047575135E+04  0.50400001928E-02 0. -1.
    10030    2    1    2    0    0  0.00000000000E+00  0.00000000000E+00 -0.83908350510E+03  0.21704315220E+04  0.20016772625E+04 0.  0.
        2    1    3    3  502    0 -0.73644909103E+03  0.43708173810E+03 -0.98116669689E+03  0.13023385875E+04  0.25500000920E-02 0. -1.
       -2    1    3    3    0  502  0.73644909103E+03 -0.43708173810E+03  0.14208319179E+03  0.86809293446E+03  0.25500000920E-02 0.  1.
</event>
<event>
 5   0  0.7935008E-05  0.1985485E+04  0.7818609E-02  0.8613437E-01
       -2   -1    0    0    0  501  0.00000000000E+00  0.00000000000E+00  0.71558722235E+03  0.71558722236E+03  0.25500000920E-02 0.  1.
        2   -1    0    0  501    0  0.00000000000E+00  0.00000000000E+00 -0.13772427513E+04  0.13772427513E+04  0.25500000920E-02 0. -1.
    10030    2    1    2    0    0  0.00000000000E+00  0.00000000000E+00 -0.66165552899E+03  0.20928299737E+04  0.19854846410E+04 0.  0.
        3    1    3    3  502    0  0.14408950740E+03 -0.21899337284E+03 -0.13401012018E+04  0.13655003203E+04  0.10100000352E+00 0. -1.
       -3    1    3    3    0  502 -0.14408950740E+03  0.21899337284E+03  0.67844567283E+03  0.72732965337E+03  0.10100000352E+00 0.  1.
</event>
<event>
 5   0  0.3549426E-05  0.1998305E+04  0.7818609E-02  0.8607413E-01
       -1   -1    0    0    0  501  0.00000000000E+00  0.00000000000E+00  0.99889197257E+03  0.99889197258E+03  0.50400001928E-02 0.  1.
        1   -1    0    0  501    0  0.00000000000E+00  0.00000000000E+00 -0.99941342822E+03  0.99941342823E+03  0.50400001928E-02 0. -1.
    10030    2    1    2    0    0  0.00000000000E+00  0.00000000000E+00 -0.52145565093E+00  0.19983054008E+04  0.19983053328E+04 0.  0.
        5    1    3    3  502    0  0.37502348305E+03 -0.17132080706E+03  0.90984398340E+03  0.99891520956E+03  0.46999998093E+01 0.  1.
       -5    1    3    3    0  502 -0.37502348305E+03  0.17132080706E+03 -0.91036543905E+03  0.99939019126E+03  0.46999998093E+01 0. -1.
</event>
<event>
 5   0  0.3970042E-05  0.1989539E+04  0.7818609E-02  0.8611527E-01
        1   -1    0    0  501    0  0.00000000000E+00  0.00000000000E+00  0.14018750994E+04  0.14018750994E+04  0.50400001928E-02 0.  1.
       -1   -1    0    0    0  501  0.00000000000E+00  0.00000000000E+00 -0.70588795155E+03  0.70588795156E+03  0.50400001928E-02 0. -1.
    10030    2    1    2    0    0  0.00000000000E+00  0.00000000000E+00  0.69598714789E+03  0.21077630510E+04  0.19895393862E+04 0.  0.
        3    1    3    3  502    0  0.23233940769E+03  0.96319009098E+03  0.44185854077E+03  0.10848759063E+04  0.10100000352E+00 0.  1.
       -3    1    3    3    0  502 -0.23233940769E+03 -0.96319009098E+03  0.25412860712E+03  0.10228871447E+04  0.10100000352E+00 0. -1.
</event>
<event>
 5   0  0.3787698E-05  0.2031391E+04  0.7818609E-02  0.8592084E-01
        1   -1    0    0  501    0  0.00000000000E+00  0.00000000000E+00  0.99976399060E+03  0.99976399061E+03  0.50400001928E-02 0. -1.
       -1   -1    0    0    0  501  0.00000000000E+00  0.00000000000E+00 -0.10318805355E+04  0.10318805355E+04  0.50400001928E-02 0.  1.
    10030    2    1    2    0    0  0.00000000000E+00  0.00000000000E+00 -0.32116544934E+02  0.20316445262E+04  0.20313906587E+04 0.  0.
        4    1    3    3  502    0 -0.46517200993E+03 -0.62371420256E+03  0.63688699676E+03  0.10055004052E+04  0.12699999809E+01 0. -1.
       -4    1    3    3    0  502  0.46517200993E+03  0.62371420256E+03 -0.66900354169E+03  0.10261441210E+04  0.12699999809E+01 0.  1.
</event>
<event>
 5   0  0.7857136E-05  0.2010931E+04  0.7818609E-02  0.8601527E-01
        2   -1    0    0  501    0  0.00000000000E+00  0.00000000000E+00  0.11212475572E+04  0.11212475572E+04  0.25500000920E-02 0. -1.
       -2   -1    0    0    0  501  0.00000000000E+00  0.00000000000E+00 -0.90163921354E+03  0.90163921355E+03  0.25500000920E-02 0.  1.
    10030    2    1    2    0    0  0.00000000000E+00  0.00000000000E+00  0.21960834361E+03  0.20228867707E+04  0.20109308945E+04 0.  0.
        4    1    3    3  502    0 -0.41779921403E+02  0.41094055098E+03  0.10319557670E+04  0.11115538746E+04  0.12699999809E+01 0. -1.
       -4    1    3    3    0  502  0.41779921403E+02 -0.41094055098E+03 -0.81234742339E+03  0.91133289607E+03  0.12699999809E+01 0.  1.
</event>
<event>
 5   0  0.3787698E-05  0.1980707E+04  0.7818609E-02  0.8615694E-01
       -1   -1    0    0    0  501  0.00000000000E+00  0.00000000000E+00  0.74364839843E+03  0.74364839845E+03  0.50400001928E-02 0.  1.
        1   -1    0    0  501    0  0.00000000000E+00  0.00000000000E+00 -0.13189023196E+04  0.13189023197E+04  0.50400001928E-02 0. -1.
    10030    2    1    2    0    0  0.00000000000E+00  0.00000000000E+00 -0.57525392122E+03  0.20625507181E+04  0.19807065383E+04 0.  0.
        4    1    3    3  502    0  0.55106930823E+03 -0.18578470316E+03 -0.11223769692E+04  0.12640905870E+04  0.12699999809E+01 0. -1.
       -4    1    3    3    0  502 -0.55106930823E+03  0.18578470316E+03  0.54712304796E+03  0.79846013107E+03  0.12699999809E+01 0.  1.
</event>
<event>
 5   0  0.8011197E-05  0.1992574E+04  0.7818609E-02  0.8610101E-01
       -2   -1    0    0    0  501  0.00000000000E+00  0.00000000000E+00  0.12311730533E+04  0.12311730533E+04  0.25500000920E-02 0.  1.
        2   -1    0    0  501    0  0.00000000000E+00  0.00000000000E+00 -0.80621266631E+03  0.80621266631E+03  0.25500000920E-02 0. -1.
    10030    2    1    2    0    0  0.00000000000E+00  0.00000000000E+00  0.42496038698E+03  0.20373857196E+04  0.19925735218E+04 0.  0.
        5    1    3    3  502    0  0.37857543644E+03 -0.70498279018E+03  0.81933025201E+03  0.11452703818E+04  0.46999998093E+01 0.  1.
       -5    1    3    3    0  502 -0.37857543644E+03  0.70498279018E+03 -0.39436986504E+03  0.89211533782E+03  0.46999998093E+01 0. -1.
</event>
<event>
 5   0  0.3970042E-05  0.2004956E+04  0.7818609E-02  0.8604307E-01
       -1   -1    0    0    0  501  0.00000000000E+00  0.00000000000E+00  0.54073844321E+03  0.54073844324E+03  0.50400001928E-02 0.  1.
        1   -1    0    0  501    0  0.00000000000E+00  0.00000000000E+00 -0.18584996897E+04  0.18584996897E+04  0.50400001928E-02 0. -1.
    10030    2    1    2    0    0  0.00000000000E+00  0.00000000000E+00 -0.13177612465E+04  0.23992381330E+04  0.20049560883E+04 0.  0.
        3    1    3    3  502    0  0.63731083936E+03 -0.10724170486E+03  0.25817807266E+03  0.69593233625E+03  0.10100000352E+00 0.  1.
       -3    1    3    3    0  502 -0.63731083936E+03  0.10724170486E+03 -0.15759393192E+04  0.17033057967E+04  0.10100000352E+00 0. -1.
</event>
<event>
 5   0  0.7843846E-05  0.1966712E+04  0.7818609E-02  0.8622344E-01
        2   -1    0    0  501    0  0.00000000000E+00  0.00000000000E+00  0.24053717379E+04  0.24053717379E+04  0.25500000920E-02 0.  1.
       -2   -1    0    0    0  501  0.00000000000E+00  0.00000000000E+00 -0.40201214361E+03  0.40201214362E+03  0.25500000920E-02 0. -1.
    10030    2    1    2    0    0  0.00000000000E+00  0.00000000000E+00  0.20033595943E+04  0.28073838816E+04  0.19667116195E+04 0.  0.
        2    1    3    3  502    0  0.56017775874E+03  0.59685191214E+03  0.22380779980E+03  0.84859958618E+03  0.25500000920E-02 0. -1.
       -2    1    3    3    0  502 -0.56017775874E+03 -0.59685191214E+03  0.17795517945E+04  0.19587842954E+04  0.25500000920E-02 0.  1.
</event>
<event>
 5   0  0.7857136E-05  0.2014291E+04  0.7818609E-02  0.8599968E-01
       -2   -1    0    0    0  501  0.00000000000E+00  0.00000000000E+00  0.81953973927E+03  0.81953973928E+03  0.25500000920E-02 0.  1.
        2   -1    0    0  501    0  0.00000000000E+00  0.00000000000E+00 -0.12376974526E+04  0.12376974526E+04  0.25500000920E-02 0. -1.
    10030    2    1    2    0    0  0.00000000000E+00  0.00000000000E+00 -0.41815771330E+03  0.20572371919E+04  0.20142911881E+04 0.  0.
        4    1    3    3  502    0  0.12963067092E+03 -0.65160153244E+03  0.56399541793E+03  0.87148213536E+03  0.12699999809E+01 0.  1.
       -4    1    3    3    0  502 -0.12963067092E+03  0.65160153244E+03 -0.98215313123E+03  0.11857550565E+04  0.12699999809E+01 0. -1.
</event>
<event>
 5   0  0.7843846E-05  0.2005836E+04  0.7818609E-02  0.8603897E-01
       -2   -1    0    0    0  501  0.00000000000E+00  0.00000000000E+00  0.39946618196E+03  0.39946618196E+03  0.25500000920E-02 0.  1.
        2   -1    0    0  501    0  0.00000000000E+00  0.00000000000E+00 -0.25179708120E+04  0.25179708120E+04  0.25500000920E-02 0. -1.
    10030    2    1    2    0    0  0.00000000000E+00  0.00000000000E+00 -0.21185046300E+04  0.29174369939E+04  0.20058356728E+04 0.  0.
        2    1    3    3  502    0 -0.98295351371E+03  0.19749881478E+03 -0.10960707690E+04  0.14854543152E+04  0.25500000920E-02 0.  1.
       -2    1    3    3    0  502  0.98295351371E+03 -0.19749881478E+03 -0.10224338610E+04  0.14319826787E+04  0.25500000920E-02 0. -1.
</event>
<event>
 5   0  0.3787698E-05  0.1997352E+04  0.7818609E-02  0.8607860E-01
        1   -1    0    0  501    0  0.00000000000E+00  0.00000000000E+00  0.15862330017E+04  0.15862330017E+04  0.50400001928E-02 0. -1.
       -1   -1    0    0    0  501  0.00000000000E+00  0.00000000000E+00 -0.62875618904E+03  0.62875618906E+03  0.50400001928E-02 0.  1.
    10030    2    1    2    0    0  0.00000000000E+00  0.00000000000E+00  0.95747681270E+03  0.22149891908E+04  0.19973520642E+04 0.  0.
        4    1    3    3  502    0  0.42443840344E+03 -0.63444814533E+02 -0.52128477209E+03  0.67521302514E+03  0.12699999809E+01 0.  1.
       -4    1    3    3    0  502 -0.42443840344E+03  0.63444814533E+02  0.14787615848E+04  0.15397761657E+04  0.12699999809E+01 0. -1.
</event>
<event>
 5   0  0.8011197E-05  0.2002122E+04  0.7818609E-02  0.8605629E-01
        2   -1    0    0  501    0  0.00000000000E+00  0.00000000000E+00  0.23136641800E+04  0.23136641800E+04  0.25500000920E-02 0. -1.
       -2   -1    0    0    0  501  0.00000000000E+00  0.00000000000E+00 -0.43313231089E+03  0.43313231090E+03  0.25500000920E-02 0.  1.
    10030    2    1    2    0    0  0.00000000000E+00  0.00000000000E+00  0.18805318691E+04  0.27467964909E+04  0.20021215876E+04 0.  0.
        5    1    3    3  502    0  0.85698475832E+03  0.30135967705E+03  0.36329895493E+03  0.97839089918E+03  0.46999998093E+01 0.  1.
       -5    1    3    3    0  502 -0.85698475832E+03 -0.30135967705E+03  0.15172329141E+04  0.17684055917E+04  0.46999998093E+01 0. -1.
</event>
<event>
 5   0  0.3772949E-05  0.1986574E+04  0.7818609E-02  0.8612923E-01
       -1   -1    0    0    0  501  0.00000000000E+00  0.00000000000E+00  0.18562350756E+04  0.18562350756E+04  0.50400001928E-02 0. -1.
        1   -1    0    0  501    0  0.00000000000E+00  0.00000000000E+00 -0.53151642275E+03  0.53151642277E+03  0.50400001928E-02 0.  1.
    10030    2    1    2    0    0  0.00000000000E+00  0.00000000000E+00  0.13247186529E+04  0.23877514984E+04  0.19865743653E+04 0.  0.
        2    1    3    3  502    0  0.48049669188E+03 -0.69214390079E+02  0.17039337540E+04  0.17717386774E+04  0.25500000920E-02 0. -1.
       -2    1    3    3    0  502 -0.48049669188E+03  0.69214390079E+02 -0.37921510118E+03  0.61601282102E+03  0.25500000920E-02 0.  1.
</event>
<event>
 5   0  0.3818907E-05  0.1990096E+04  0.7818609E-02  0.8611265E-01
       -1   -1    0    0    0  501  0.00000000000E+00  0.00000000000E+00  0.86582607891E+03  0.86582607892E+03  0.50400001928E-02 0. -1.
        1   -1    0    0  501    0  0.00000000000E+00  0.00000000000E+00 -0.11435558646E+04  0.11435558646E+04  0.50400001928E-02 0.  1.
    10030    2    1    2    0    0  0.00000000000E+00  0.00000000000E+00 -0.27772978568E+03  0.20093819435E+04  0.19900959678E+04 0.  0.
        1    1    3    3  502    0 -0.16997457834E+03  0.20075957896E+03 -0.11078130520E+04  0.11386156173E+04  0.50400001928E-02 0.  1.
       -1    1    3    3    0  502  0.16997457834E+03 -0.20075957896E+03  0.83008326630E+03  0.87076632620E+03  0.50400001928E-02 0. -1.
</event>
<event>
 5   0  0.3549426E-05  0.2021645E+04  0.7818609E-02  0.8596567E-01
       -1   -1    0    0    0  501  0.00000000000E+00  0.00000000000E+00  0.52941293751E+03  0.52941293754E+03  0.50400001928E-02 0. -1.
        1   -1    0    0  501    0  0.00000000000E+00  0.00000000000E+00 -0.19299902030E+04  0.19299902030E+04  0.50400001928E-02 0.  1.
    10030    2    1    2    0    0  0.00000000000E+00  0.00000000000E+00 -0.14005772654E+04  0.24594031405E+04  0.20216446599E+04 0.  0.
        5    1    3    3  502    0  0.49306779170E+03  0.26982424672E+03 -0.17223370902E+04  0.18117362152E+04  0.46999998093E+01 0.  1.
       -5    1    3    3    0  502 -0.49306779170E+03 -0.26982424672E+03  0.32175982471E+03  0.64766692530E+03  0.46999998093E+01 0. -1.
</event>
<event>
 5   0  0.3787698E-05  0.1991355E+04  0.7818609E-02  0.8610673E-01
       -1   -1    0    0    0  501  0.00000000000E+00  0.00000000000E+00  0.11205040257E+04  0.11205040257E+04  0.50400001928E-02 0. -1.
        1   -1    0    0  501    0  0.00000000000E+00  0.00000000000E+00 -0.88475707420E+03  0.88475707422E+03  0.50400001928E-02 0.  1.
    10030    2    1    2    0    0  0.00000000000E+00  0.00000000000E+00  0.23574695147E+03  0.20052610999E+04  0.19913551802E+04 0.  0.
        4    1    3    3  502    0 -0.12443333098E+03  0.94255655917E+03  0.41570179261E+03  0.10376445029E+04  0.12699999809E+01 0. -1.
       -4    1    3    3    0  502  0.12443333098E+03 -0.94255655917E+03 -0.17995484113E+03  0.96761659702E+03  0.12699999809E+01 0.  1.
</event>
<event>
 5   0  0.8022574E-05  0.1965501E+04  0.7818609E-02  0.8622922E-01
        2   -1    0    0  501    0  0.00000000000E+00  0.00000000000E+00  0.11656526587E+04  0.11656526587E+04  0.25500000920E-02 0. -1.
       -2   -1    0    0    0  501  0.00000000000E+00  0.00000000000E+00 -0.82854710425E+03  0.82854710425E+03  0.25500000920E-02 0.  1.
    10030    2    1    2    0    0  0.00000000000E+00  0.00000000000E+00  0.33710555446E+03  0.19941997630E+04  0.19655005825E+04 0.  0.
        1    1    3    3  502    0 -0.32751768298E+03 -0.92268360129E+03  0.25455648112E+03  0.10116382075E+04  0.50400001928E-02 0. -1.
       -1    1    3    3    0  502  0.32751768298E+03  0.92268360129E+03  0.82549073340E+02  0.98256155547E+03  0.50400001928E-02 0.  1.
</event>
<event>
 5   0  0.3818907E-05  0.1997430E+04  0.7818609E-02  0.8607823E-01
        1   -1    0    0  501    0  0.00000000000E+00  0.00000000000E+00  0.48529924130E+03  0.48529924133E+03  0.50400001928E-02 0. -1.
       -1   -1    0    0    0  501  0.00000000000E+00  0.00000000000E+00 -0.20552921446E+04  0.20552921446E+04  0.50400001928E-02 0.  1.
    10030    2    1    2    0    0  0.00000000000E+00  0.00000000000E+00 -0.15699929033E+04  0.25405913860E+04  0.19974300673E+04 0.  0.
        1    1    3    3  502    0 -0.46481731621E+03 -0.64693158659E+03 -0.18817081087E+02  0.79682475974E+03  0.50400001928E-02 0. -1.
       -1    1    3    3    0  502  0.46481731621E+03  0.64693158659E+03 -0.15511758222E+04  0.17437666262E+04  0.50400001928E-02 0.  1.
</event>
<event>
 5   0  0.7935008E-05  0.1984581E+04  0.7818609E-02  0.8613863E-01
        2   -1    0    0  501    0  0.00000000000E+00  0.00000000000E+00  0.70274127946E+03  0.70274127946E+03  0.25500000920E-02 0. -1.
       -2   -1    0    0    0  501  0.00000000000E+00  0.00000000000E+00 -0.14011426543E+04  0.14011426543E+04  0.25500000920E-02 0.  1.
    10030    2    1    2    0    0  0.00000000000E+00  0.00000000000E+00 -0.69840137479E+03  0.21038839337E+04  0.19845813479E+04 0.  0.
        3    1    3    3  502    0 -0.51274350842E+03  0.55636524598E+03 -0.10298179440E+04  0.12778783981E+04  0.10100000352E+00 0.  1.
       -3    1    3    3    0  502  0.51274350842E+03 -0.55636524598E+03  0.33141656919E+03  0.82600553563E+03  0.10100000352E+00 0. -1.
</event>
<event>
 5   0  0.8022574E-05  0.1993504E+04  0.7818609E-02  0.8609664E-01
        2   -1    0    0  501    0  0.00000000000E+00  0.00000000000E+00  0.12192493885E+04  0.12192493885E+04  0.25500000920E-02 0. -1.
       -2   -1    0    0    0  501  0.00000000000E+00  0.00000000000E+00 -0.81485735844E+03  0.81485735845E+03  0.25500000920E-02 0.  1.
    10030    2    1    2    0    0  0.00000000000E+00  0.00000000000E+00  0.40439203006E+03  0.20341067470E+04  0.19935037858E+04 0.  0.
        1    1    3    3  502    0  0.70932034376E+03 -0.59806213701E+03 -0.16950455500E+03  0.94315717884E+03  0.50400001928E-02 0. -1.
       -1    1    3    3    0  502 -0.70932034376E+03  0.59806213701E+03  0.57389658506E+03  0.10909495681E+04  0.50400001928E-02 0.  1.
</event>
<event>
 5   0  0.8022574E-05  0.2003214E+04  0.7818609E-02  0.8605119E-01
       -2   -1    0    0    0  501  0.00000000000E+00  0.00000000000E+00  0.60240945489E+03  0.60240945489E+03  0.25500000920E-02 0. -1.
        2   -1    0    0  501    0  0.00000000000E+00  0.00000000000E+00 -0.16653400738E+04  0.16653400738E+04  0.25500000920E-02 0.  1.
    10030    2    1    2    0    0  0.00000000000E+00  0.00000000000E+00 -0.10629306189E+04  0.22677495287E+04  0.20032140236E+04 0.  0.
        1    1    3    3  502    0  0.43992321631E+03 -0.65465795179E+03  0.16739644455E+03  0.80630703814E+03  0.50400001928E-02 0. -1.
       -1    1    3    3    0  502 -0.43992321631E+03  0.65465795179E+03 -0.12303270635E+04  0.14614424906E+04  0.50400001928E-02 0.  1.
</event>
<event>
 5   0  0.8011197E-05  0.2001422E+04  0.7818609E-02  0.8605956E-01
        2   -1    0    0  501    0  0.00000000000E+00  0.00000000000E+00  0.18493475544E+04  0.18493475544E+04  0.25500000920E-02 0.  1.
       -2   -1    0    0    0  501  0.00000000000E+00  0.00000000000E+00 -0.54150055216E+03  0.54150055217E+03  0.25500000920E-02 0. -1.
    10030    2    1    2    0    0  0.00000000000E+00  0.00000000000E+00  0.13078470022E+04  0.23908481065E+04  0.20014222162E+04 0.  0.
        5    1    3    3  502    0  0.76201564614E+03  0.64555639307E+03  0.72937798211E+03  0.12366993298E+04  0.46999998093E+01 0.  1.
       -5    1    3    3    0  502 -0.76201564614E+03 -0.64555639307E+03  0.57846902010E+03  0.11541487767E+04  0.46999998093E+01 0. -1.
</event>
<event>
 5   0  0.3549426E-05  0.2004384E+04  0.7818609E-02  0.8604574E-01
       -1   -1    0    0    0  501  0.00000000000E+00  0.00000000000E+00  0.84337861722E+03  0.84337861723E+03  0.50400001928E-02 0. -1.
        1   -1    0    0  501    0  0.00000000000E+00  0.00000000000E+00 -0.11909104979E+04  0.11909104979E+04  0.50400001928E-02 0.  1.
    10030    2    1    2    0    0  0.00000000000E+00  0.00000000000E+00 -0.34753188071E+03  0.20342891152E+04  0.20043836449E+04 0.  0.
        5    1    3    3  502    0 -0.45763101182E+03  0.84494105140E+03 -0.46264369691E+03  0.10664955713E+04  0.46999998093E+01 0.  1.
       -5    1    3    3    0  502  0.45763101182E+03 -0.84494105140E+03  0.11511181621E+03  0.96779354386E+03  0.46999998093E+01 0. -1.
</event>
<event>
 5   0  0.7935008E-05  0.1997627E+04  0.7818609E-02  0.8607731E-01
        2   -1    0    0  501    0  0.00000000000E+00  0.00000000000E+00  0.17762257251E+04  0.17762257251E+04  0.25500000920E-02 0. -1.
       -2   -1    0    0    0  501  0.00000000000E+00  0.00000000000E+00 -0.56165633567E+03  0.56165633568E+03  0.25500000920E-02 0.  1.
    10030    2    1    2    0    0  0.00000000000E+00  0.00000000000E+00  0.12145693894E+04  0.23378820608E+04  0.19976270243E+04 0.  0.
        3    1    3    3  502    0 -0.55260760633E+03 -0.79662326758E+03  0.32629680508E+03  0.10229630552E+04  0.10100000352E+00 0. -1.
       -3    1    3    3    0  502  0.55260760633E+03  0.79662326758E+03  0.88827258435E+03  0.13149190056E+04  0.10100000352E+00 0.  1.
</event>
<event>
 5   0  0.3772949E-05  0.1996386E+04  0.7818609E-02  0.8608312E-01
       -1   -1    0    0    0  501  0.00000000000E+00  0.00000000000E+00  0.55138260543E+03  0.55138260546E+03  0.50400001928E-02 0. -1.
        1   -1    0    0  501    0  0.00000000000E+00  0.00000000000E+00 -0.18070741884E+04  0.18070741884E+04  0.50400001928E-02 0.  1.
    10030    2    1    2    0    0  0.00000000000E+00  0.00000000000E+00 -0.12556915829E+04  0.23584567938E+04  0.19963860090E+04 0.  0.
        2    1    3    3  502    0  0.61282180664E+03 -0.28251558713E+03 -0.14967892780E+04  0.16418720311E+04  0.25500000920E-02 0.  1.
       -2    1    3    3    0  502 -0.61282180664E+03  0.28251558713E+03  0.24109769506E+03  0.71658476277E+03  0.25500000920E-02 0. -1.
</event>
<event>
 5   0  0.3818907E-05  0.2005562E+04  0.7818609E-02  0.8604025E-01
        1   -1    0    0  501    0  0.00000000000E+00  0.00000000000E+00  0.92135371225E+03  0.92135371227E+03  0.50400001928E-02 0.  1.
       -1   -1    0    0    0  501  0.00000000000E+00  0.00000000000E+00 -0.10914042774E+04  0.10914042774E+04  0.50400001928E-02 0. -1.
    10030    2    1    2    0    0  0.00000000000E+00  0.00000000000E+00 -0.17005056518E+03  0.20127579897E+04  0.20055616496E+04 0.  0.
        1    1    3    3  502    0  0.18523705601E+03  0.54203284514E+03  0.74100584535E+03  0.93659064430E+03  0.50400001928E-02 0.  1.
       -1    1    3    3    0  502 -0.18523705601E+03 -0.54203284514E+03 -0.91105641054E+03  0.10761673454E+04  0.50400001928E-02 0. -1.
</event>
<event>
 5   0  0.3970042E-05  0.2003365E+04  0.7818609E-02  0.8605049E-01
       -1   -1    0    0    0  501  0.00000000000E+00  0.00000000000E+00  0.49099197600E+03  0.49099197603E+03  0.50400001928E-02 0. -1.
        1   -1    0    0  501    0  0.00000000000E+00  0.00000000000E+00 -0.20435526443E+04  0.20435526443E+04  0.50400001928E-02 0.  1.
    10030    2    1    2    0    0  0.00000000000E+00  0.00000000000E+00 -0.15525606683E+04  0.25345446203E+04  0.20033651199E+04 0.  0.
        3    1    3    3  502    0 -0.22051497604E+03 -0.43683385495E+03  0.32948506748E+03  0.58992464890E+03  0.10100000352E+00 0. -1.
       -3    1    3    3    0  502  0.22051497604E+03  0.43683385495E+03 -0.18820457358E+04  0.19446199714E+04  0.10100000352E+00 0.  1.
</event>
<event>
 5   0  0.3970042E-05  0.2030103E+04  0.7818609E-02  0.8592674E-01
        1   -1    0    0  501    0  0.00000000000E+00  0.00000000000E+00  0.10729893438E+04  0.10729893438E+04  0.50400001928E-02 0. -1.
       -1   -1    0    0    0  501  0.00000000000E+00  0.00000000000E+00 -0.96024230329E+03  0.96024230330E+03  0.50400001928E-02 0.  1.
    10030    2    1    2    0    0  0.00000000000E+00  0.00000000000E+00  0.11274704050E+03  0.20332316471E+04  0.20301032081E+04 0.  0.
        3    1    3    3  502    0 -0.16668095674E+03  0.10958468035E+03 -0.94041815587E+03  0.96134159465E+03  0.10100000352E+00 0.  1.
       -3    1    3    3    0  502  0.16668095674E+03 -0.10958468035E+03  0.10531651964E+04  0.10718900525E+04  0.10100000352E+00 0. -1.
</event>
<event>
 5   0  0.7843846E-05  0.2009125E+04  0.7818609E-02  0.8602366E-01
        2   -1    0    0  501    0  0.00000000000E+00  0.00000000000E+00  0.17163475897E+04  0.17163475897E+04  0.25500000920E-02 0. -1.
       -2   -1    0    0    0  501  0.00000000000E+00  0.00000000000E+00 -0.58796114956E+03  0.58796114956E+03  0.25500000920E-02 0.  1.
    10030    2    1    2    0    0  0.00000000000E+00  0.00000000000E+00  0.11283864401E+04  0.23043087392E+04  0.20091248860E+04 0.  0.
        2    1    3    3  502    0  0.28240541999E+03 -0.60114174766E+02  0.16677315833E+04  0.16925410392E+04  0.25500000920E-02 0. -1.
       -2    1    3    3    0  502 -0.28240541999E+03  0.60114174766E+02 -0.53934514325E+03  0.61176770003E+03  0.25500000920E-02 0.  1.
</event>
<event>
 5   0  0.3549426E-05  0.2034906E+04  0.7818609E-02  0.8590473E-01
        1   -1    0    0  501    0  0.00000000000E+00  0.00000000000E+00  0.20079807302E+04  0.20079807302E+04  0.50400001928E-02 0.  1.
       -1   -1    0    0    0  501  0.00000000000E+00  0.00000000000E+00 -0.51554803002E+03  0.51554803004E+03  0.50400001928E-02 0. -1.
    10030    2    1    2    0    0  0.00000000000E+00  0.00000000000E+00  0.14924327002E+04  0.25235287603E+04  0.20349059043E+04 0.  0.
        5    1    3    3  502    0  0.27318759470E+03 -0.89557799915E+03  0.12399292302E+04  0.15537496582E+04  0.46999998093E+01 0. -1.
       -5    1    3    3    0  502 -0.27318759470E+03  0.89557799915E+03  0.25250347001E+03  0.96977910208E+03  0.46999998093E+01 0.  1.
</event>
<event>
 5   0  0.8011197E-05  0.1977893E+04  0.7818609E-02  0.8617027E-01
       -2   -1    0    0    0  501  0.00000000000E+00  0.00000000000E+00  0.53376533047E+03  0.53376533047E+03  0.25500000920E-02 0.  1.
        2   -1    0    0  501    0  0.00000000000E+00  0.00000000000E+00 -0.18322939417E+04  0.18322939417E+04  0.25500000920E-02 0. -1.
    10030    2    1    2    0    0  0.00000000000E+00  0.00000000000E+00 -0.12985286112E+04  0.23660592722E+04  0.19778927992E+04 0.  0.
        5    1    3    3  502    0  0.41349215045E+03  0.71268575030E+03 -0.13034910367E+04  0.15420790219E+04  0.46999998093E+01 0. -1.
       -5    1    3    3    0  502 -0.41349215045E+03 -0.71268575030E+03  0.49624254221E+01  0.82398025027E+03  0.46999998093E+01 0.  1.
</event>
<event>
 5   0  0.3772949E-05  0.1995616E+04  0.7818609E-02  0.8608673E-01
        1   -1    0    0  501    0  0.00000000000E+00  0.00000000000E+00  0.17036009868E+04  0.17036009868E+04  0.50400001928E-02 0.  1.
       -1   -1    0    0    0  501  0.00000000000E+00  0.00000000000E+00 -0.58442106932E+03  0.58442106934E+03  0.50400001928E-02 0. -1.
    10030    2    1    2    0    0  0.00000000000E+00  0.00000000000E+00  0.11191799175E+04  0.22880220562E+04  0.19956155045E+04 0.  0.
        2    1    3    3  502    0  0.68404713373E+03 -0.23874324640E+03 -0.22701399409E+03  0.75924579181E+03  0.25500000920E-02 0. -1.
       -2    1    3    3    0  502 -0.68404713373E+03  0.23874324640E+03  0.13461939116E+04  0.15287762644E+04  0.25500000920E-02 0.  1.
</event>
<event>
 5   0  0.2859625E-05  0.2005052E+04  0.7818609E-02  0.8604262E-01
        4   -1    0    0  501    0  0.00000000000E+00  0.00000000000E+00  0.75267925364E+03  0.75268032508E+03  0.12699999809E+01 0.  1.
       -4   -1    0    0    0  501  0.00000000000E+00  0.00000000000E+00 -0.13353053130E+04  0.13353059170E+04  0.12699999809E+01 0. -1.
    10030    2    1    2    0    0  0.00000000000E+00  0.00000000000E+00 -0.58262605941E+03  0.20879862421E+04  0.20050519749E+04 0.  0.
        4    1    3    3  502    0 -0.42199611397E+03  0.26127695778E+03  0.61575531070E+03  0.79088721347E+03  0.12699999809E+01 0.  1.
       -4    1    3    3    0  502  0.42199611397E+03 -0.26127695778E+03 -0.11983813701E+04  0.12970990286E+04  0.12699999809E+01 0. -1.
</event>
<event>
 5   0  0.3818907E-05  0.1963659E+04  0.7818609E-02  0.8623803E-01
        1   -1    0    0  501    0  0.00000000000E+00  0.00000000000E+00  0.70714296062E+03  0.70714296064E+03  0.50400001928E-02 0. -1.
       -1   -1    0    0    0  501  0.00000000000E+00  0.00000000000E+00 -0.13632161190E+04  0.13632161190E+04  0.50400001928E-02 0.  1.
    10030    2    1    2    0    0  0.00000000000E+00  0.00000000000E+00 -0.65607315842E+03  0.20703590797E+04  0.19636585064E+04 0.  0.
        1    1    3    3  502    0 -0.77263409677E+03 -0.57884988949E+03 -0.13955462222E+03  0.97545175927E+03  0.50400001928E-02 0. -1.
       -1    1    3    3    0  502  0.77263409677E+03  0.57884988949E+03 -0.51651853620E+03  0.10949073204E+04  0.50400001928E-02 0.  1.
</event>
<event>
 5   0  0.3772949E-05  0.1992087E+04  0.7818609E-02  0.8610329E-01
        1   -1    0    0  501    0  0.00000000000E+00  0.00000000000E+00  0.14644528754E+04  0.14644528754E+04  0.50400001928E-02 0. -1.
       -1   -1    0    0    0  501  0.00000000000E+00  0.00000000000E+00 -0.67745588461E+03  0.67745588463E+03  0.50400001928E-02 0.  1.
    10030    2    1    2    0    0  0.00000000000E+00  0.00000000000E+00  0.78699699080E+03  0.21419087600E+04  0.19920865626E+04 0.  0.
        2    1    3    3  502    0 -0.42578455995E+03  0.89509001133E+03  0.49897640278E+03  0.11097099037E+04  0.25500000920E-02 0. -1.
       -2    1    3    3    0  502  0.42578455995E+03 -0.89509001133E+03  0.28802058802E+03  0.10321988563E+04  0.25500000920E-02 0.  1.
</event>
<event>
 5   0  0.8022574E-05  0.1940739E+04  0.7818609E-02  0.8634840E-01
        2   -1    0    0  501    0  0.00000000000E+00  0.00000000000E+00  0.16146436077E+04  0.16146436077E+04  0.25500000920E-02 0.  1.
       -2   -1    0    0    0  501  0.00000000000E+00  0.00000000000E+00 -0.58317318277E+03  0.58317318277E+03  0.25500000920E-02 0. -1.
    10030    2    1    2    0    0  0.00000000000E+00  0.00000000000E+00  0.10314704249E+04  0.21978167905E+04  0.19407388817E+04 0.  0.
        1    1    3    3  502    0 -0.42082178395E+03 -0.54359583216E+03  0.12913113455E+04  0.14628986273E+04  0.50400001928E-02 0.  1.
       -1    1    3    3    0  502  0.42082178395E+03  0.54359583216E+03 -0.25984092058E+03  0.73491816321E+03  0.50400001928E-02 0. -1.
</event>
<event>
 5   0  0.8022574E-05  0.1961888E+04  0.7818609E-02  0.8624650E-01
        2   -1    0    0  501    0  0.00000000000E+00  0.00000000000E+00  0.82004655257E+03  0.82004655257E+03  0.25500000920E-02 0.  1.
       -2   -1    0    0    0  501  0.00000000000E+00  0.00000000000E+00 -0.11734098051E+04  0.11734098051E+04  0.25500000920E-02 0. -1.
    10030    2    1    2    0    0  0.00000000000E+00  0.00000000000E+00 -0.35336325256E+03  0.19934563577E+04  0.19618875253E+04 0.  0.
        1    1    3    3  502    0 -0.17538891715E+03  0.80915648603E+03  0.35785873289E+03  0.90197470246E+03  0.50400001928E-02 0.  1.
       -1    1    3    3    0  502  0.17538891715E+03 -0.80915648603E+03 -0.71122198545E+03  0.10914816553E+04  0.50400001928E-02 0. -1.
</event>
<event>
 5   0  0.2859625E-05  0.1974368E+04  0.7818609E-02  0.8618699E-01
       -3   -1    0    0    0  501  0.00000000000E+00  0.00000000000E+00  0.10659043414E+04  0.10659043461E+04  0.10100000352E+00 0. -1.
        3   -1    0    0  501    0  0.00000000000E+00  0.00000000000E+00 -0.91427750173E+03  0.91427750731E+03  0.10100000352E+00 0.  1.
    10030    2    1    2    0    0  0.00000000000E+00  0.00000000000E+00  0.15162683963E+03  0.19801818535E+04  0.19743681202E+04 0.  0.
        4    1    3    3  502    0 -0.30332442212E+03 -0.92362095093E+03  0.24792698279E+03  0.10032700373E+04  0.12699999809E+01 0. -1.
       -4    1    3    3    0  502  0.30332442212E+03  0.92362095093E+03 -0.96300143166E+02  0.97691181615E+03  0.12699999809E+01 0.  1.
</event>
<event>
 5   0  0.3787698E-05  0.1999004E+04  0.7818609E-02  0.8607086E-01
        1   -1    0    0  501    0  0.00000000000E+00  0.00000000000E+00  0.23544854727E+04  0.23544854727E+04  0.50400001928E-02 0.  1.
       -1   -1    0    0    0  501  0.00000000000E+00  0.00000000000E+00 -0.42429838331E+03  0.42429838334E+03  0.50400001928E-02 0. -1.
    10030    2    1    2    0    0  0.00000000000E+00  0.00000000000E+00  0.19301870894E+04  0.27787838560E+04  0.19990041317E+04 0.  0.
        4    1    3    3  502    0 -0.97341109197E+03  0.16759815903E+03  0.75252214131E+03  0.12417364789E+04  0.12699999809E+01 0.  1.
       -4    1    3    3    0  502  0.97341109197E+03 -0.16759815903E+03  0.11776649480E+04  0.15370473772E+04  0.12699999809E+01 0. -1.
</event>
<event>
 5   0  0.8011197E-05  0.1996121E+04  0.7818609E-02  0.8608437E-01
        2   -1    0    0  501    0  0.00000000000E+00  0.00000000000E+00  0.10105192579E+04  0.10105192579E+04  0.25500000920E-02 0.  1.
       -2   -1    0    0    0  501  0.00000000000E+00  0.00000000000E+00 -0.98575502101E+03  0.98575502101E+03  0.25500000920E-02 0. -1.
    10030    2    1    2    0    0  0.00000000000E+00  0.00000000000E+00  0.24764236921E+02  0.19962742789E+04  0.19961206700E+04 0.  0.
        5    1    3    3  502    0  0.61341546075E+03 -0.22732942736E+03 -0.74142992139E+03  0.98878592949E+03  0.46999998093E+01 0. -1.
       -5    1    3    3    0  502 -0.61341546075E+03  0.22732942736E+03  0.76619415831E+03  0.10074883494E+04  0.46999998093E+01 0.  1.
</event>
<event>
 5   0  0.3549426E-05  0.1981625E+04  0.7818609E-02  0.8615260E-01
       -1   -1    0    0    0  501  0.00000000000E+00  0.00000000000E+00  0.96399232043E+03  0.96399232044E+03  0.50400001928E-02 0. -1.
        1   -1    0    0  501    0  0.00000000000E+00  0.00000000000E+00 -0.10183788562E+04  0.10183788562E+04  0.50400001928E-02 0.  1.
    10030    2    1    2    0    0  0.00000000000E+00  0.00000000000E+00 -0.54386535764E+02  0.19823711766E+04  0.19816249864E+04 0.  0.
        5    1    3    3  502    0 -0.22880920538E+03  0.20958438047E+03  0.91412228834E+03  0.96536050937E+03  0.46999998093E+01 0. -1.
       -5    1    3    3    0  502  0.22880920538E+03 -0.20958438047E+03 -0.96850882410E+03  0.10170106673E+04  0.46999998093E+01 0.  1.
</event>
<event>
 5   0  0.3772949E-05  0.1990335E+04  0.7818609E-02  0.8611153E-01
       -1   -1    0    0    0  501  0.00000000000E+00  0.00000000000E+00  0.76556531238E+03  0.76556531240E+03  0.50400001928E-02 0. -1.
        1   -1    0    0  501    0  0.00000000000E+00  0.00000000000E+00 -0.12936297468E+04  0.12936297468E+04  0.50400001928E-02 0.  1.
    10030    2    1    2    0    0  0.00000000000E+00  0.00000000000E+00 -0.52806443442E+03  0.20591950592E+04  0.19903347068E+04 0.  0.
        2    1    3    3  502    0  0.29835633730E+03 -0.14609386135E+03 -0.12345695568E+04  0.12784842240E+04  0.25500000920E-02 0.  1.
       -2    1    3    3    0  502 -0.29835633730E+03  0.14609386135E+03  0.70650512238E+03  0.78071083525E+03  0.25500000920E-02 0. -1.
</event>
<event>
 5   0  0.8011197E-05  0.2002773E+04  0.7818609E-02  0.8605325E-01
        2   -1    0    0  501    0  0.00000000000E+00  0.00000000000E+00  0.70410134362E+03  0.70410134362E+03  0.25500000920E-02 0.  1.
       -2   -1    0    0    0  501  0.00000000000E+00  0.00000000000E+00 -0.14241908281E+04  0.14241908281E+04  0.25500000920E-02 0. -1.
    10030    2    1    2    0    0  0.00000000000E+00  0.00000000000E+00 -0.72008948447E+03  0.21282921717E+04  0.20027727536E+04 0.  0.
        5    1    3    3  502    0 -0.43530180524E+03 -0.53414418631E+03  0.41209870584E+03  0.80289794293E+03  0.46999998093E+01 0.  1.
       -5    1    3    3    0  502  0.43530180524E+03  0.53414418631E+03 -0.11321881903E+04  0.13253942288E+04  0.46999998093E+01 0. -1.
</event>
<event>
 5   0  0.8022574E-05  0.1981559E+04  0.7818609E-02  0.8615291E-01
       -2   -1    0    0    0  501  0.00000000000E+00  0.00000000000E+00  0.58264837636E+03  0.58264837637E+03  0.25500000920E-02 0.  1.
        2   -1    0    0  501    0  0.00000000000E+00  0.00000000000E+00 -0.16847964818E+04  0.16847964818E+04  0.25500000920E-02 0. -1.
    10030    2    1    2    0    0  0.00000000000E+00  0.00000000000E+00 -0.11021481054E+04  0.22674448582E+04  0.19815589162E+04 0.  0.
        1    1    3    3  502    0  0.29556415054E+03  0.76051579548E+03  0.92066039592E+02  0.82110815240E+03  0.50400001928E-02 0.  1.
       -1    1    3    3    0  502 -0.29556415054E+03 -0.76051579548E+03 -0.11942141450E+04  0.14463367058E+04  0.50400001928E-02 0. -1.
</event>
<event>
 5   0  0.3772949E-05  0.2012215E+04  0.7818609E-02  0.8600931E-01
       -1   -1    0    0    0  501  0.00000000000E+00  0.00000000000E+00  0.87481433012E+03  0.87481433014E+03  0.50400001928E-02 0.  1.
        1   -1    0    0  501    0  0.00000000000E+00  0.00000000000E+00 -0.11571055345E+04  0.11571055345E+04  0.50400001928E-02 0. -1.
    10030    2    1    2    0    0  0.00000000000E+00  0.00000000000E+00 -0.28229120437E+03  0.20319198646E+04  0.20122152003E+04 0.  0.
        2    1    3    3  502    0  0.16912402910E+01  0.54342543384E+03  0.71386811889E+03  0.89717431618E+03  0.25500000920E-02 0.  1.
       -2    1    3    3    0  502 -0.16912402910E+01 -0.54342543384E+03 -0.99615932325E+03  0.11347455485E+04  0.25500000920E-02 0. -1.
</event>
<event>
 5   0  0.3549426E-05  0.1984021E+04  0.7818609E-02  0.8614128E-01
        1   -1    0    0  501    0  0.00000000000E+00  0.00000000000E+00  0.21716725541E+04  0.21716725541E+04  0.50400001928E-02 0.  1.
       -1   -1    0    0    0  501  0.00000000000E+00  0.00000000000E+00 -0.45314622567E+03  0.45314622570E+03  0.50400001928E-02 0. -1.
    10030    2    1    2    0    0  0.00000000000E+00  0.00000000000E+00  0.17185263284E+04  0.26248187798E+04  0.19840213924E+04 0.  0.
        5    1    3    3  502    0  0.88623622699E+03 -0.44261651129E+03  0.79002312057E+03  0.12670764172E+04  0.46999998093E+01 0.  1.
       -5    1    3    3    0  502 -0.88623622699E+03  0.44261651129E+03  0.92850320785E+03  0.13577423626E+04  0.46999998093E+01 0. -1.
</event>
<event>
 5   0  0.3970042E-05  0.1931854E+04  0.7818609E-02  0.8639161E-01
       -1   -1    0    0    0  501  0.00000000000E+00  0.00000000000E+00  0.53789240946E+03  0.53789240948E+03  0.50400001928E-02 0. -1.
        1   -1    0    0  501    0  0.00000000000E+00  0.00000000000E+00 -0.17345759190E+04  0.17345759191E+04  0.50400001928E-02 0.  1.
    10030    2    1    2    0    0  0.00000000000E+00  0.00000000000E+00 -0.11966835096E+04  0.22724683285E+04  0.19318542600E+04 0.  0.
        3    1    3    3  502    0 -0.69110505688E+03 -0.44966541589E+03 -0.64438882957E+01  0.82454030816E+03  0.10100000352E+00 0. -1.
       -3    1    3    3    0  502  0.69110505688E+03  0.44966541589E+03 -0.11902396213E+04  0.14479280204E+04  0.10100000352E+00 0.  1.
</event>
<event>
 5   0  0.3970042E-05  0.1970270E+04  0.7818609E-02  0.8620648E-01
       -1   -1    0    0    0  501  0.00000000000E+00  0.00000000000E+00  0.10206684058E+04  0.10206684059E+04  0.50400001928E-02 0. -1.
        1   -1    0    0  501    0  0.00000000000E+00  0.00000000000E+00 -0.95083900732E+03  0.95083900733E+03  0.50400001928E-02 0.  1.
    10030    2    1    2    0    0  0.00000000000E+00  0.00000000000E+00  0.69829398519E+02  0.19715074132E+04  0.19702703711E+04 0.  0.
        3    1    3    3  502    0 -0.29037781213E+03 -0.13138965352E+03 -0.89782333846E+03  0.95271678484E+03  0.10100000352E+00 0.  1.
       -3    1    3    3    0  502  0.29037781213E+03  0.13138965352E+03  0.96765273698E+03  0.10187906283E+04  0.10100000352E+00 0. -1.
</event>
<event>
 5   0  0.3549426E-05  0.1993944E+04  0.7818609E-02  0.8609457E-01
       -1   -1    0    0    0  501  0.00000000000E+00  0.00000000000E+00  0.10095301021E+04  0.10095301021E+04  0.50400001928E-02 0.  1.
        1   -1    0    0  501    0  0.00000000000E+00  0.00000000000E+00 -0.98457043622E+03  0.98457043623E+03  0.50400001928E-02 0. -1.
    10030    2    1    2    0    0  0.00000000000E+00  0.00000000000E+00  0.24959665861E+02  0.19941005383E+04  0.19939443252E+04 0.  0.
        5    1    3    3  502    0 -0.35829313546E+03  0.19905196725E+03  0.92136110424E+03  0.10084265124E+04  0.46999998093E+01 0.  1.
       -5    1    3    3    0  502  0.35829313546E+03 -0.19905196725E+03 -0.89640143838E+03  0.98567402588E+03  0.46999998093E+01 0. -1.
</event>
<event>
 5   0  0.3787698E-05  0.1990726E+04  0.7818609E-02  0.8610969E-01
       -1   -1    0    0    0  501  0.00000000000E+00  0.00000000000E+00  0.45526994331E+03  0.45526994334E+03  0.50400001928E-02 0. -1.
        1   -1    0    0  501    0  0.00000000000E+00  0.00000000000E+00 -0.21761755502E+04  0.21761755502E+04  0.50400001928E-02 0.  1.
    10030    2    1    2    0    0  0.00000000000E+00  0.00000000000E+00 -0.17209056069E+04  0.26314454936E+04  0.19907258168E+04 0.  0.
        4    1    3    3  502    0  0.11614915579E+03 -0.93941996073E+03 -0.12673283400E+04  0.15818101098E+04  0.12699999809E+01 0.  1.
       -4    1    3    3    0  502 -0.11614915579E+03  0.93941996073E+03 -0.45357726688E+03  0.10496353838E+04  0.12699999809E+01 0. -1.
</event>
<event>
 5   0  0.3549426E-05  0.2000083E+04  0.7818609E-02  0.8606582E-01
        1   -1    0    0  501    0  0.00000000000E+00  0.00000000000E+00  0.13099416317E+04  0.13099416317E+04  0.50400001928E-02 0.  1.
       -1   -1    0    0    0  501  0.00000000000E+00  0.00000000000E+00 -0.76345613988E+03  0.76345613990E+03  0.50400001928E-02 0. -1.
    10030    2    1    2    0    0  0.00000000000E+00  0.00000000000E+00  0.54648549183E+03  0.20733977716E+04  0.20000829799E+04 0.  0.
        5    1    3    3  502    0 -0.30916622245E+03 -0.22479561273E+03 -0.68472155923E+03  0.78420821488E+03  0.46999998093E+01 0. -1.
       -5    1    3    3    0  502  0.30916622245E+03  0.22479561273E+03  0.12312070511E+04  0.12891895567E+04  0.46999998093E+01 0.  1.
</event>
<event>
 5   0  0.7857136E-05  0.2001254E+04  0.7818609E-02  0.8606035E-01
        2   -1    0    0  501    0  0.00000000000E+00  0.00000000000E+00  0.14748286306E+04  0.14748286306E+04  0.25500000920E-02 0.  1.
       -2   -1    0    0    0  501  0.00000000000E+00  0.00000000000E+00 -0.67889553687E+03  0.67889553687E+03  0.25500000920E-02 0. -1.
    10030    2    1    2    0    0  0.00000000000E+00  0.00000000000E+00  0.79593309370E+03  0.21537241674E+04  0.20012541817E+04 0.  0.
        4    1    3    3  502    0 -0.58157279201E+03 -0.26269057124E+03 -0.43147972216E+03  0.77033084591E+03  0.12699999809E+01 0. -1.
       -4    1    3    3    0  502  0.58157279201E+03  0.26269057124E+03  0.12274128159E+04  0.13833933215E+04  0.12699999809E+01 0.  1.
</event>
<event>
 5   0  0.3549426E-05  0.2124761E+04  0.7818609E-02  0.8550414E-01
        1   -1    0    0  501    0  0.00000000000E+00  0.00000000000E+00  0.97293319755E+03  0.97293319757E+03  0.50400001928E-02 0. -1.
       -1   -1    0    0    0  501  0.00000000000E+00  0.00000000000E+00 -0.11600511211E+04  0.11600511211E+04  0.50400001928E-02 0.  1.
    10030    2    1    2    0    0  0.00000000000E+00  0.00000000000E+00 -0.18711792354E+03  0.21329843187E+04  0.21247609245E+04 0.  0.
        5    1    3    3  502    0  0.23811841790E+03  0.10336989495E+04 -0.35055993658E+02  0.10613599351E+04  0.46999998093E+01 0.  1.
       -5    1    3    3    0  502 -0.23811841790E+03 -0.10336989495E+04 -0.15206192988E+03  0.10716243836E+04  0.46999998093E+01 0. -1.
</event>
<event>
 5   0  0.7935008E-05  0.1998152E+04  0.7818609E-02  0.8607485E-01
        2   -1    0    0  501    0  0.00000000000E+00  0.00000000000E+00  0.89532312459E+03  0.89532312459E+03  0.25500000920E-02 0. -1.
       -2   -1    0    0    0  501  0.00000000000E+00  0.00000000000E+00 -0.11148517364E+04  0.11148517364E+04  0.25500000920E-02 0.  1.
    10030    2    1    2    0    0  0.00000000000E+00  0.00000000000E+00 -0.21952861178E+03  0.20101748610E+04  0.19981516860E+04 0.  0.
        3    1    3    3  502    0  0.27845475776E+03 -0.86905171795E+03 -0.51886163291E+03  0.10497644235E+04  0.10100000352E+00 0. -1.
       -3    1    3    3    0  502 -0.27845475776E+03  0.86905171795E+03  0.29933302113E+03  0.96041043743E+03  0.10100000352E+00 0.  1.
</event>
<event>
 5   0  0.7935008E-05  0.2004974E+04  0.7818609E-02  0.8604299E-01
        2   -1    0    0  501    0  0.00000000000E+00  0.00000000000E+00  0.12952603705E+04  0.12952603705E+04  0.25500000920E-02 0. -1.
       -2   -1    0    0    0  501  0.00000000000E+00  0.00000000000E+00 -0.77589025805E+03  0.77589025806E+03  0.25500000920E-02 0.  1.
    10030    2    1    2    0    0  0.00000000000E+00  0.00000000000E+00  0.51937011248E+03  0.20711506286E+04  0.20049737187E+04 0.  0.
        3    1    3    3  502    0  0.79363199259E+03 -0.94659290320E+02  0.88477578783E+03  0.11923255956E+04  0.10100000352E+00 0. -1.
       -3    1    3    3    0  502 -0.79363199259E+03  0.94659290320E+02 -0.36540567534E+03  0.87882503303E+03  0.10100000352E+00 0.  1.
</event>
<event>
 5   0  0.2859625E-05  0.1982746E+04  0.7818609E-02  0.8614730E-01
        4   -1    0    0  501    0  0.00000000000E+00  0.00000000000E+00  0.89740825293E+03  0.89740915157E+03  0.12699999809E+01 0.  1.
       -4   -1    0    0    0  501  0.00000000000E+00  0.00000000000E+00 -0.10951746644E+04  0.10951754007E+04  0.12699999809E+01 0. -1.
    10030    2    1    2    0    0  0.00000000000E+00  0.00000000000E+00 -0.19776641145E+03  0.19925845523E+04  0.19827459859E+04 0.  0.
        4    1    3    3  502    0  0.44866728161E+03  0.88180383258E+03 -0.16195183968E+03  0.10025519139E+04  0.12699999809E+01 0.  1.
       -4    1    3    3    0  502 -0.44866728161E+03 -0.88180383258E+03 -0.35814571770E+02  0.99003263845E+03  0.12699999809E+01 0. -1.
</event>
<event>
 5   0  0.8011197E-05  0.1993844E+04  0.7818609E-02  0.8609504E-01
       -2   -1    0    0    0  501  0.00000000000E+00  0.00000000000E+00  0.87100724753E+03  0.87100724754E+03  0.25500000920E-02 0. -1.
        2   -1    0    0  501    0  0.00000000000E+00  0.00000000000E+00 -0.11410391198E+04  0.11410391198E+04  0.25500000920E-02 0.  1.
    10030    2    1    2    0    0  0.00000000000E+00  0.00000000000E+00 -0.27003187222E+03  0.20120463673E+04  0.19938438685E+04 0.  0.
        5    1    3    3  502    0  0.75140004741E+03 -0.49273389942E+03  0.30071593488E+03  0.94754466406E+03  0.46999998093E+01 0.  1.
       -5    1    3    3    0  502 -0.75140004741E+03  0.49273389942E+03 -0.57074780710E+03  0.10645017032E+04  0.46999998093E+01 0. -1.
</event>
<event>
 5   0  0.3549426E-05  0.2010129E+04  0.7818609E-02  0.8601900E-01
       -1   -1    0    0    0  501  0.00000000000E+00  0.00000000000E+00  0.81567241887E+03  0.81567241888E+03  0.50400001928E-02 0.  1.
        1   -1    0    0  501    0  0.00000000000E+00  0.00000000000E+00 -0.12384317028E+04  0.12384317028E+04  0.50400001928E-02 0. -1.
    10030    2    1    2    0    0  0.00000000000E+00  0.00000000000E+00 -0.42275928395E+03  0.20541041217E+04  0.20101289338E+04 0.  0.
        5    1    3    3  502    0  0.11355854771E+03 -0.83728968810E+03  0.34475320876E+03  0.91259324483E+03  0.46999998093E+01 0.  1.
       -5    1    3    3    0  502 -0.11355854771E+03  0.83728968810E+03 -0.76751249272E+03  0.11415108769E+04  0.46999998093E+01 0. -1.
</event>
<event>
 5   0  0.3772949E-05  0.1991107E+04  0.7818609E-02  0.8610790E-01
       -1   -1    0    0    0  501  0.00000000000E+00  0.00000000000E+00  0.86942865422E+03  0.86942865424E+03  0.50400001928E-02 0. -1.
        1   -1    0    0  501    0  0.00000000000E+00  0.00000000000E+00 -0.11399743110E+04  0.11399743110E+04  0.50400001928E-02 0.  1.
    10030    2    1    2    0    0  0.00000000000E+00  0.00000000000E+00 -0.27054565675E+03  0.20094029652E+04  0.19911065577E+04 0.  0.
        2    1    3    3  502    0  0.12495543812E+03  0.93549854264E+03  0.18442664983E+03  0.96165720190E+03  0.25500000920E-02 0. -1.
       -2    1    3    3    0  502 -0.12495543812E+03 -0.93549854264E+03 -0.45497230658E+03  0.10477457633E+04  0.25500000920E-02 0.  1.
</event>
<event>
 5   0  0.8011197E-05  0.2002961E+04  0.7818609E-02  0.8605237E-01
        2   -1    0    0  501    0  0.00000000000E+00  0.00000000000E+00  0.15605607630E+04  0.15605607630E+04  0.25500000920E-02 0.  1.
       -2   -1    0    0    0  501  0.00000000000E+00  0.00000000000E+00 -0.64269419596E+03  0.64269419597E+03  0.25500000920E-02 0. -1.
    10030    2    1    2    0    0  0.00000000000E+00  0.00000000000E+00  0.91786656704E+03  0.22032549590E+04  0.20029611527E+04 0.  0.
        5    1    3    3  502    0 -0.62198288220E+03  0.65279002635E+03 -0.20474092599E+02  0.90190842258E+03  0.46999998093E+01 0. -1.
       -5    1    3    3    0  502  0.62198288220E+03 -0.65279002635E+03  0.93834065964E+03  0.13013465364E+04  0.46999998093E+01 0.  1.
</event>
<event>
 5   0  0.8022574E-05  0.1978094E+04  0.7818609E-02  0.8616931E-01
        2   -1    0    0  501    0  0.00000000000E+00  0.00000000000E+00  0.18920597985E+04  0.18920597986E+04  0.25500000920E-02 0.  1.
       -2   -1    0    0    0  501  0.00000000000E+00  0.00000000000E+00 -0.51701009723E+03  0.51701009723E+03  0.25500000920E-02 0. -1.
    10030    2    1    2    0    0  0.00000000000E+00  0.00000000000E+00  0.13750497013E+04  0.24090698958E+04  0.19780940528E+04 0.  0.
        1    1    3    3  502    0 -0.64785612444E+03 -0.26585715471E+02  0.15970981307E+04  0.17237014815E+04  0.50400001928E-02 0.  1.
       -1    1    3    3    0  502  0.64785612444E+03  0.26585715471E+02 -0.22204842940E+03  0.68536841426E+03  0.50400001928E-02 0. -1.
</event>
<event>
 5   0  0.3772949E-05  0.2021183E+04  0.7818609E-02  0.8596780E-01
        1   -1    0    0  501    0  0.00000000000E+00  0.00000000000E+00  0.85057725086E+03  0.85057725087E+03  0.50400001928E-02 0. -1.
       -1   -1    0    0    0  501  0.00000000000E+00  0.00000000000E+00 -0.12007083375E+04  0.12007083376E+04  0.50400001928E-02 0.  1.
    10030    2    1    2    0    0  0.00000000000E+00  0.00000000000E+00 -0.35013108668E+03  0.20512855884E+04  0.20211830168E+04 0.  0.
        2    1    3    3  502    0  0.41319584695E+02  0.94014083181E+03  0.19882749763E+03  0.96182351060E+03  0.25500000920E-02 0.  1.
       -2    1    3    3    0  502 -0.41319584695E+02 -0.94014083181E+03 -0.54895858431E+03  0.10894620778E+04  0.25500000920E-02 0. -1.
</event>
<event>
 5   0  0.8022574E-05  0.2006246E+04  0.7818609E-02  0.8603706E-01
        2   -1    0    0  501    0  0.00000000000E+00  0.00000000000E+00  0.97618500937E+03  0.97618500937E+03  0.25500000920E-02 0. -1.
       -2   -1    0    0    0  501  0.00000000000E+00  0.00000000000E+00 -0.10308041769E+04  0.10308041769E+04  0.25500000920E-02 0.  1.
    10030    2    1    2    0    0  0.00000000000E+00  0.00000000000E+00 -0.54619167528E+02  0.20069891863E+04  0.20062458325E+04 0.  0.
        1    1    3    3  502    0  0.12036702071E+03 -0.79055840861E+03 -0.63316156268E+03  0.10199825398E+04  0.50400001928E-02 0.  1.
       -1    1    3    3    0  502 -0.12036702071E+03  0.79055840861E+03  0.57854239515E+03  0.98700664643E+03  0.50400001928E-02 0. -1.
</event>
<event>
 5   0  0.3787698E-05  0.1998323E+04  0.7818609E-02  0.8607405E-01
        1   -1    0    0  501    0  0.00000000000E+00  0.00000000000E+00  0.10492101267E+04  0.10492101267E+04  0.50400001928E-02 0. -1.
       -1   -1    0    0    0  501  0.00000000000E+00  0.00000000000E+00 -0.95150026109E+03  0.95150026111E+03  0.50400001928E-02 0.  1.
    10030    2    1    2    0    0  0.00000000000E+00  0.00000000000E+00  0.97709865597E+02  0.20007103878E+04  0.19983230064E+04 0.  0.
        4    1    3    3  502    0 -0.94655326965E+03 -0.25139588911E+03 -0.14926809300E+03  0.99067934360E+03  0.12699999809E+01 0.  1.
       -4    1    3    3    0  502  0.94655326965E+03  0.25139588911E+03  0.24697795860E+03  0.10100310442E+04  0.12699999809E+01 0. -1.
</event>
<event>
 5   0  0.7935008E-05  0.1992984E+04  0.7818609E-02  0.8609908E-01
        2   -1    0    0  501    0  0.00000000000E+00  0.00000000000E+00  0.16378541528E+04  0.16378541528E+04  0.25500000920E-02 0.  1.
       -2   -1    0    0    0  501  0.00000000000E+00  0.00000000000E+00 -0.60627855276E+03  0.60627855277E+03  0.25500000920E-02 0. -1.
    10030    2    1    2    0    0  0.00000000000E+00  0.00000000000E+00  0.10315756000E+04  0.22441327055E+04  0.19929835377E+04 0.  0.
        3    1    3    3  502    0 -0.36625089386E+03 -0.91742294718E+02  0.15541922190E+04  0.15993967080E+04  0.10100000352E+00 0.  1.
       -3    1    3    3    0  502  0.36625089386E+03  0.91742294718E+02 -0.52261661896E+03  0.64473599753E+03  0.10100000352E+00 0. -1.
</event>
<event>
 5   0  0.3787698E-05  0.2004057E+04  0.7818609E-02  0.8604726E-01
       -1   -1    0    0    0  501  0.00000000000E+00  0.00000000000E+00  0.42059201325E+03  0.42059201328E+03  0.50400001928E-02 0.  1.
        1   -1    0    0  501    0  0.00000000000E+00  0.00000000000E+00 -0.23872561843E+04  0.23872561843E+04  0.50400001928E-02 0. -1.
    10030    2    1    2    0    0  0.00000000000E+00  0.00000000000E+00 -0.19666641710E+04  0.28078481976E+04  0.20040567704E+04 0.  0.
        4    1    3    3  502    0  0.84922289438E+03  0.32274882576E+03 -0.15756319154E+04  0.18187808759E+04  0.12699999809E+01 0. -1.
       -4    1    3    3    0  502 -0.84922289438E+03 -0.32274882576E+03 -0.39103225558E+03  0.98906732161E+03  0.12699999809E+01 0.  1.
</event>
<event>
 5   0  0.7935008E-05  0.2012106E+04  0.7818609E-02  0.8600982E-01
       -2   -1    0    0    0  501  0.00000000000E+00  0.00000000000E+00  0.36331385367E+03  0.36331385368E+03  0.25500000920E-02 0.  1.
        2   -1    0    0  501    0  0.00000000000E+00  0.00000000000E+00 -0.27858632598E+04  0.27858632598E+04  0.25500000920E-02 0. -1.
    10030    2    1    2    0    0  0.00000000000E+00  0.00000000000E+00 -0.24225494061E+04  0.31491771135E+04  0.20121060775E+04 0.  0.
        3    1    3    3  502    0  0.94055725595E+03  0.31369594096E+03 -0.14782156359E+04  0.17799366763E+04  0.10100000352E+00 0. -1.
       -3    1    3    3    0  502 -0.94055725595E+03 -0.31369594096E+03 -0.94433377021E+03  0.13692404372E+04  0.10100000352E+00 0.  1.
</event>
<event>
 5   0  0.7857136E-05  0.1934849E+04  0.7818609E-02  0.8637701E-01
        2   -1    0    0  501    0  0.00000000000E+00  0.00000000000E+00  0.22442611114E+04  0.22442611114E+04  0.25500000920E-02 0.  1.
       -2   -1    0    0    0  501  0.00000000000E+00  0.00000000000E+00 -0.41702393704E+03  0.41702393705E+03  0.25500000920E-02 0. -1.
    10030    2    1    2    0    0  0.00000000000E+00  0.00000000000E+00  0.18272371744E+04  0.26612850485E+04  0.19348494561E+04 0.  0.
        4    1    3    3  502    0 -0.22623689322E+03 -0.89323871949E+03  0.13189686551E+04  0.16089557072E+04  0.12699999809E+01 0.  1.
       -4    1    3    3    0  502  0.22623689322E+03  0.89323871949E+03  0.50826851933E+03  0.10523293413E+04  0.12699999809E+01 0. -1.
</event>
<event>
 5   0  0.7843846E-05  0.2004670E+04  0.7818609E-02  0.8604440E-01
       -2   -1    0    0    0  501  0.00000000000E+00  0.00000000000E+00  0.82092051602E+03  0.82092051602E+03  0.25500000920E-02 0.  1.
        2   -1    0    0  501    0  0.00000000000E+00  0.00000000000E+00 -0.12238402421E+04  0.12238402421E+04  0.25500000920E-02 0. -1.
    10030    2    1    2    0    0  0.00000000000E+00  0.00000000000E+00 -0.40291972611E+03  0.20447607582E+04  0.20046701106E+04 0.  0.
        2    1    3    3  502    0  0.15838071553E+03 -0.75074075785E+03  0.45640321486E+03  0.89274858224E+03  0.25500000920E-02 0.  1.
       -2    1    3    3    0  502 -0.15838071553E+03  0.75074075785E+03 -0.85932294097E+03  0.11520121759E+04  0.25500000920E-02 0. -1.
</event>
<event>
 5   0  0.7843846E-05  0.2000034E+04  0.7818609E-02  0.8606605E-01
       -2   -1    0    0    0  501  0.00000000000E+00  0.00000000000E+00  0.10572010957E+04  0.10572010957E+04  0.25500000920E-02 0.  1.
        2   -1    0    0  501    0  0.00000000000E+00  0.00000000000E+00 -0.94592625618E+03  0.94592625619E+03  0.25500000920E-02 0. -1.
    10030    2    1    2    0    0  0.00000000000E+00  0.00000000000E+00  0.11127483955E+03  0.20031273519E+04  0.20000342742E+04 0.  0.
        2    1    3    3  502    0 -0.20993388766E+03  0.31604633396E+02 -0.92309604403E+03  0.94719448718E+03  0.25500000920E-02 0. -1.
       -2    1    3    3    0  502  0.20993388766E+03 -0.31604633396E+02  0.10343708836E+04  0.10559328647E+04  0.25500000920E-02 0.  1.
</event>
<event>
 5   0  0.3787698E-05  0.2005709E+04  0.7818609E-02  0.8603956E-01
        1   -1    0    0  501    0  0.00000000000E+00  0.00000000000E+00  0.10739663276E+04  0.10739663276E+04  0.50400001928E-02 0. -1.
       -1   -1    0    0    0  501  0.00000000000E+00  0.00000000000E+00 -0.93645105527E+03  0.93645105528E+03  0.50400001928E-02 0.  1.
    10030    2    1    2    0    0  0.00000000000E+00  0.00000000000E+00  0.13751527233E+03  0.20104173829E+04  0.20057087534E+04 0.  0.
        4    1    3    3  502    0  0.32697560338E+03  0.39954790145E+03  0.93052229823E+03  0.10641545617E+04  0.12699999809E+01 0. -1.
       -4    1    3    3    0  502 -0.32697560338E+03 -0.39954790145E+03 -0.79300702590E+03  0.94626282120E+03  0.12699999809E+01 0.  1.
</event>
<event>
 5   0  0.7843846E-05  0.1992766E+04  0.7818609E-02  0.8610010E-01
        2   -1    0    0  501    0  0.00000000000E+00  0.00000000000E+00  0.24541318925E+04  0.24541318925E+04  0.25500000920E-02 0. -1.
       -2   -1    0    0    0  501  0.00000000000E+00  0.00000000000E+00 -0.40453379959E+03  0.40453379960E+03  0.25500000920E-02 0.  1.
    10030    2    1    2    0    0  0.00000000000E+00  0.00000000000E+00  0.20495980929E+04  0.28586656921E+04  0.19927662173E+04 0.  0.
        2    1    3    3  502    0 -0.73239836831E+03  0.61787091360E+03  0.14166294710E+04  0.17102663225E+04  0.25500000920E-02 0. -1.
       -2    1    3    3    0  502  0.73239836831E+03 -0.61787091360E+03  0.63296862193E+03  0.11483993696E+04  0.25500000920E-02 0.  1.
</event>
<event>
 5   0  0.8011197E-05  0.2011498E+04  0.7818609E-02  0.8601264E-01
        2   -1    0    0  501    0  0.00000000000E+00  0.00000000000E+00  0.18551801172E+04  0.18551801172E+04  0.25500000920E-02 0. -1.
       -2   -1    0    0    0  501  0.00000000000E+00  0.00000000000E+00 -0.54524683588E+03  0.54524683589E+03  0.25500000920E-02 0.  1.
    10030    2    1    2    0    0  0.00000000000E+00  0.00000000000E+00  0.13099332813E+04  0.24004269531E+04  0.20114980377E+04 0.  0.
        5    1    3    3  502    0  0.47066874574E+03  0.69431813669E+03 -0.72122267310E+01  0.83885687061E+03  0.46999998093E+01 0.  1.
       -5    1    3    3    0  502 -0.47066874574E+03 -0.69431813669E+03  0.13171455080E+04  0.15615700825E+04  0.46999998093E+01 0. -1.
</event>
<event>
 5   0  0.8011197E-05  0.1994902E+04  0.7818609E-02  0.8609008E-01
       -2   -1    0    0    0  501  0.00000000000E+00  0.00000000000E+00  0.49537872179E+03  0.49537872180E+03  0.25500000920E-02 0. -1.
        2   -1    0    0  501    0  0.00000000000E+00  0.00000000000E+00 -0.20083798014E+04  0.20083798014E+04  0.25500000920E-02 0.  1.
    10030    2    1    2    0    0  0.00000000000E+00  0.00000000000E+00 -0.15130010796E+04  0.25037585232E+04  0.19949021218E+04 0.  0.
        5    1    3    3  502    0  0.59831137648E+03 -0.75029213628E+03 -0.41514751649E+03  0.10456023831E+04  0.46999998093E+01 0. -1.
       -5    1    3    3    0  502 -0.59831137648E+03  0.75029213628E+03 -0.10978535631E+04  0.14581561402E+04  0.46999998093E+01 0.  1.
</event>
<event>
 5   0  0.7935008E-05  0.2000725E+04  0.7818609E-02  0.8606282E-01
       -2   -1    0    0    0  501  0.00000000000E+00  0.00000000000E+00  0.10511452257E+04  0.10511452257E+04  0.25500000920E-02 0.  1.
        2   -1    0    0  501    0  0.00000000000E+00  0.00000000000E+00 -0.95203347061E+03  0.95203347061E+03  0.25500000920E-02 0. -1.
    10030    2    1    2    0    0  0.00000000000E+00  0.00000000000E+00  0.99111755137E+02  0.20031786964E+04  0.20007253059E+04 0.  0.
        3    1    3    3  502    0  0.13176356397E+03  0.69454880239E+03  0.75821314582E+03  0.10366517546E+04  0.10100000352E+00 0.  1.
       -3    1    3    3    0  502 -0.13176356397E+03 -0.69454880239E+03 -0.65910139068E+03  0.96652694173E+03  0.10100000352E+00 0. -1.
</event>
<event>
 5   0  0.3549426E-05  0.2001990E+04  0.7818609E-02  0.8605691E-01
       -1   -1    0    0    0  501  0.00000000000E+00  0.00000000000E+00  0.11711196467E+04  0.11711196467E+04  0.50400001928E-02 0. -1.
        1   -1    0    0  501    0  0.00000000000E+00  0.00000000000E+00 -0.85558416204E+03  0.85558416206E+03  0.50400001928E-02 0.  1.
    10030    2    1    2    0    0  0.00000000000E+00  0.00000000000E+00  0.31553548465E+03  0.20267038088E+04  0.20019904311E+04 0.  0.
        5    1    3    3  502    0  0.73238664960E+03  0.55136361190E+03  0.56469656538E+03  0.10767062450E+04  0.46999998093E+01 0. -1.
       -5    1    3    3    0  502 -0.73238664960E+03 -0.55136361190E+03 -0.24916108073E+03  0.94999756378E+03  0.46999998093E+01 0.  1.
</event>
<event>
 5   0  0.3818907E-05  0.2030310E+04  0.7818609E-02  0.8592579E-01
       -1   -1    0    0    0  501  0.00000000000E+00  0.00000000000E+00  0.57392830073E+03  0.57392830075E+03  0.50400001928E-02 0. -1.
        1   -1    0    0  501    0  0.00000000000E+00  0.00000000000E+00 -0.17955900417E+04  0.17955900417E+04  0.50400001928E-02 0.  1.
    10030    2    1    2    0    0  0.00000000000E+00  0.00000000000E+00 -0.12216617410E+04  0.23695183425E+04  0.20303102635E+04 0.  0.
        1    1    3    3  502    0 -0.29614274312E+03  0.50763483543E+03  0.35519625297E+03  0.68670082903E+03  0.50400001928E-02 0. -1.
       -1    1    3    3    0  502  0.29614274312E+03 -0.50763483543E+03 -0.15768579940E+04  0.16828175135E+04  0.50400001928E-02 0.  1.
</event>
<event>
 5   0  0.7935008E-05  0.2013523E+04  0.7818609E-02  0.8600324E-01
       -2   -1    0    0    0  501  0.00000000000E+00  0.00000000000E+00  0.50605266093E+03  0.50605266093E+03  0.25500000920E-02 0.  1.
        2   -1    0    0  501    0  0.00000000000E+00  0.00000000000E+00 -0.20028924894E+04  0.20028924894E+04  0.25500000920E-02 0. -1.
    10030    2    1    2    0    0  0.00000000000E+00  0.00000000000E+00 -0.14968398285E+04  0.25089451503E+04  0.20135233536E+04 0.  0.
        3    1    3    3  502    0 -0.16753741567E+03 -0.70530837570E+03 -0.16189070777E+04  0.17738063104E+04  0.10100000352E+00 0. -1.
       -3    1    3    3    0  502  0.16753741567E+03  0.70530837570E+03  0.12206724918E+03  0.73513883995E+03  0.10100000352E+00 0.  1.
</event>
<event>
 5   0  0.3772949E-05  0.1994801E+04  0.7818609E-02  0.8609055E-01
        1   -1    0    0  501    0  0.00000000000E+00  0.00000000000E+00  0.15846528164E+04  0.15846528164E+04  0.50400001928E-02 0. -1.
       -1   -1    0    0    0  501  0.00000000000E+00  0.00000000000E+00 -0.62777632779E+03  0.62777632781E+03  0.50400001928E-02 0.  1.
    10030    2    1    2    0    0  0.00000000000E+00  0.00000000000E+00  0.95687648865E+03  0.22124291442E+04  0.19948007679E+04 0.  0.
        2    1    3    3  502    0  0.53846790209E+03  0.16588738516E+03  0.13912339680E+04  0.15009990872E+04  0.25500000920E-02 0. -1.
       -2    1    3    3    0  502 -0.53846790209E+03 -0.16588738516E+03 -0.43435747937E+03  0.71143005701E+03  0.25500000920E-02 0.  1.
</event>
<event>
 5   0  0.7857136E-05  0.1993812E+04  0.7818609E-02  0.8609519E-01
       -2   -1    0    0    0  501  0.00000000000E+00  0.00000000000E+00  0.52193085523E+03  0.52193085524E+03  0.25500000920E-02 0.  1.
        2   -1    0    0  501    0  0.00000000000E+00  0.00000000000E+00 -0.19041247197E+04  0.19041247198E+04  0.25500000920E-02 0. -1.
    10030    2    1    2    0    0  0.00000000000E+00  0.00000000000E+00 -0.13821938645E+04  0.24260555750E+04  0.19938118702E+04 0.  0.
        4    1    3    3  502    0  0.92040239933E+02  0.16431873626E+03 -0.18822789759E+04  0.18916785691E+04  0.12699999809E+01 0. -1.
       -4    1    3    3    0  502 -0.92040239933E+02 -0.16431873626E+03  0.50008511139E+03  0.53437700586E+03  0.12699999809E+01 0.  1.
</event>
<event>
 5   0  0.3787698E-05  0.2003525E+04  0.7818609E-02  0.8604974E-01
       -1   -1    0    0    0  501  0.00000000000E+00  0.00000000000E+00  0.11216405248E+04  0.11216405248E+04  0.50400001928E-02 0. -1.
        1   -1    0    0  501    0  0.00000000000E+00  0.00000000000E+00 -0.89469696292E+03  0.89469696293E+03  0.50400001928E-02 0.  1.
    10030    2    1    2    0    0  0.00000000000E+00  0.00000000000E+00  0.22694356191E+03  0.20163374878E+04  0.20035252642E+04 0.  0.
        4    1    3    3  502    0  0.36224765530E+02  0.73873075076E+03 -0.56649031296E+03  0.93163739906E+03  0.12699999809E+01 0.  1.
       -4    1    3    3    0  502 -0.36224765530E+02 -0.73873075076E+03  0.79343387487E+03  0.10847000887E+04  0.12699999809E+01 0. -1.
</event>
<event>
 5   0  0.7857136E-05  0.2002368E+04  0.7818609E-02  0.8605514E-01
        2   -1    0    0  501    0  0.00000000000E+00  0.00000000000E+00  0.19576662812E+04  0.19576662812E+04  0.25500000920E-02 0.  1.
       -2   -1    0    0    0  501  0.00000000000E+00  0.00000000000E+00 -0.51202249972E+03  0.51202249972E+03  0.25500000920E-02 0. -1.
    10030    2    1    2    0    0  0.00000000000E+00  0.00000000000E+00  0.14456437815E+04  0.24696887809E+04  0.20023677813E+04 0.  0.
        4    1    3    3  502    0 -0.57702315927E+03  0.13803915030E+03  0.17174810861E+04  0.18170727634E+04  0.12699999809E+01 0.  1.
       -4    1    3    3    0  502  0.57702315927E+03 -0.13803915030E+03 -0.27183730459E+03  0.65261601759E+03  0.12699999809E+01 0. -1.
</event>
<event>
 5   0  0.8022574E-05  0.1980248E+04  0.7818609E-02  0.8615912E-01
       -2   -1    0    0    0  501  0.00000000000E+00  0.00000000000E+00  0.66922572017E+03  0.66922572018E+03  0.25500000920E-02 0. -1.
        2   -1    0    0  501    0  0.00000000000E+00  0.00000000000E+00 -0.14648948434E+04  0.14648948434E+04  0.25500000920E-02 0.  1.
    10030    2    1    2    0    0  0.00000000000E+00  0.00000000000E+00 -0.79566912325E+03  0.21341205636E+04  0.19802477689E+04 0.  0.
        1    1    3    3  502    0 -0.78681177646E+03  0.49016989657E+03 -0.77272372240E+03  0.12068310778E+04  0.50400001928E-02 0.  1.
       -1    1    3    3    0  502  0.78681177646E+03 -0.49016989657E+03 -0.22945400854E+02  0.92728948583E+03  0.50400001928E-02 0. -1.
</event>
<event>
 5   0  0.7843846E-05  0.1996517E+04  0.7818609E-02  0.8608251E-01
       -2   -1    0    0    0  501  0.00000000000E+00  0.00000000000E+00  0.13245551354E+04  0.13245551354E+04  0.25500000920E-02 0.  1.
        2   -1    0    0  501    0  0.00000000000E+00  0.00000000000E+00 -0.75234333203E+03  0.75234333203E+03  0.25500000920E-02 0. -1.
    10030    2    1    2    0    0  0.00000000000E+00  0.00000000000E+00  0.57221180338E+03  0.20768984674E+04  0.19965171915E+04 0.  0.
        2    1    3    3  502    0 -0.28678654981E+03  0.39255689221E+03 -0.62087547665E+03  0.78856438943E+03  0.25500000920E-02 0. -1.
       -2    1    3    3    0  502  0.28678654981E+03 -0.39255689221E+03  0.11930872800E+04  0.12883340780E+04  0.25500000920E-02 0.  1.
</event>
<event>
 5   0  0.3970042E-05  0.1998147E+04  0.7818609E-02  0.8607488E-01
       -1   -1    0    0    0  501  0.00000000000E+00  0.00000000000E+00  0.11514012996E+04  0.11514012996E+04  0.50400001928E-02 0. -1.
        1   -1    0    0  501    0  0.00000000000E+00  0.00000000000E+00 -0.86689791533E+03  0.86689791535E+03  0.50400001928E-02 0.  1.
    10030    2    1    2    0    0  0.00000000000E+00  0.00000000000E+00  0.28450338428E+03  0.20182992150E+04  0.19981465275E+04 0.  0.
        3    1    3    3  502    0 -0.47640511487E+03 -0.56775561092E+03  0.81896320384E+03  0.11045401788E+04  0.10100000352E+00 0.  1.
       -3    1    3    3    0  502  0.47640511487E+03  0.56775561092E+03 -0.53445981956E+03  0.91375903614E+03  0.10100000352E+00 0. -1.
</event>
<event>
 5   0  0.2859625E-05  0.1960998E+04  0.7818609E-02  0.8625075E-01
        3   -1    0    0  501    0  0.00000000000E+00  0.00000000000E+00  0.62096205015E+03  0.62096205836E+03  0.10100000352E+00 0.  1.
       -3   -1    0    0    0  501  0.00000000000E+00  0.00000000000E+00 -0.15482084618E+04  0.15482084651E+04  0.10100000352E+00 0. -1.
    10030    2    1    2    0    0  0.00000000000E+00  0.00000000000E+00 -0.92724641169E+03  0.21691705235E+04  0.19609984324E+04 0.  0.
        3    1    3    3  502    0 -0.52291963203E+03 -0.28193737915E+01 -0.13810834419E+04  0.14767682195E+04  0.10100000352E+00 0. -1.
       -3    1    3    3    0  502  0.52291963203E+03  0.28193737915E+01  0.45383703019E+03  0.69240230401E+03  0.10100000352E+00 0.  1.
</event>
<event>
 5   0  0.3818907E-05  0.2000513E+04  0.7818609E-02  0.8606381E-01
       -1   -1    0    0    0  501  0.00000000000E+00  0.00000000000E+00  0.15441403891E+04  0.15441403891E+04  0.50400001928E-02 0.  1.
        1   -1    0    0  501    0  0.00000000000E+00  0.00000000000E+00 -0.64794151313E+03  0.64794151315E+03  0.50400001928E-02 0. -1.
    10030    2    1    2    0    0  0.00000000000E+00  0.00000000000E+00  0.89619887598E+03  0.21920819023E+04  0.20005125945E+04 0.  0.
        1    1    3    3  502    0  0.28780709592E+03 -0.17645863126E+03  0.14798273159E+04  0.15178469811E+04  0.50400001928E-02 0.  1.
       -1    1    3    3    0  502 -0.28780709592E+03  0.17645863126E+03 -0.58362843994E+03  0.67423492118E+03  0.50400001928E-02 0. -1.
</event>
<event>
 5   0  0.3772949E-05  0.1984321E+04  0.7818609E-02  0.8613986E-01
        1   -1    0    0  501    0  0.00000000000E+00  0.00000000000E+00  0.26242770347E+04  0.26242770347E+04  0.50400001928E-02 0. -1.
       -1   -1    0    0    0  501  0.00000000000E+00  0.00000000000E+00 -0.37510611694E+03  0.37510611698E+03  0.50400001928E-02 0.  1.
    10030    2    1    2    0    0  0.00000000000E+00  0.00000000000E+00  0.22491709178E+04  0.29993831517E+04  0.19843209099E+04 0.  0.
        2    1    3    3  502    0  0.53769856384E+03  0.91034296778E+02 -0.12824015860E+03  0.56022542519E+03  0.25500000920E-02 0.  1.
       -2    1    3    3    0  502 -0.53769856384E+03 -0.91034296778E+02  0.23774110764E+04  0.24391577265E+04  0.25500000920E-02 0. -1.
</event>
<event>
 5   0  0.7843846E-05  0.1982412E+04  0.7818609E-02  0.8614888E-01
       -2   -1    0    0    0  501  0.00000000000E+00  0.00000000000E+00  0.14498099834E+04  0.14498099834E+04  0.25500000920E-02 0. -1.
        2   -1    0    0  501    0  0.00000000000E+00  0.00000000000E+00 -0.67766780340E+03  0.67766780340E+03  0.25500000920E-02 0.  1.
    10030    2    1    2    0    0  0.00000000000E+00  0.00000000000E+00  0.77214218004E+03  0.21274777868E+04  0.19824122143E+04 0.  0.
        2    1    3    3  502    0  0.67799559401E+03  0.16208055037E+03 -0.37015004131E+03  0.78927763392E+03  0.25500000920E-02 0.  1.
       -2    1    3    3    0  502 -0.67799559401E+03 -0.16208055037E+03  0.11422922214E+04  0.13382001529E+04  0.25500000920E-02 0. -1.
</event>
<event>
 5   0  0.8011197E-05  0.2027346E+04  0.7818609E-02  0.8593941E-01
       -2   -1    0    0    0  501  0.00000000000E+00  0.00000000000E+00  0.37002452759E+03  0.37002452760E+03  0.25500000920E-02 0.  1.
        2   -1    0    0  501    0  0.00000000000E+00  0.00000000000E+00 -0.27769325739E+04  0.27769325739E+04  0.25500000920E-02 0. -1.
    10030    2    1    2    0    0  0.00000000000E+00  0.00000000000E+00 -0.24069080463E+04  0.31469571015E+04  0.20273462100E+04 0.  0.
        5    1    3    3  502    0 -0.16195265968E+03  0.19358665299E+03 -0.27273588870E+04  0.27390168025E+04  0.46999998093E+01 0. -1.
       -5    1    3    3    0  502  0.16195265968E+03 -0.19358665299E+03  0.32045084069E+03  0.40794029893E+03  0.46999998093E+01 0.  1.
</event>
<event>
 5   0  0.3818907E-05  0.1995955E+04  0.7818609E-02  0.8608514E-01
       -1   -1    0    0    0  501  0.00000000000E+00  0.00000000000E+00  0.82607418974E+03  0.82607418976E+03  0.50400001928E-02 0. -1.
        1   -1    0    0  501    0  0.00000000000E+00  0.00000000000E+00 -0.12056531855E+04  0.12056531856E+04  0.50400001928E-02 0.  1.
    10030    2    1    2    0    0  0.00000000000E+00  0.00000000000E+00 -0.37957899580E+03  0.20317273753E+04  0.19959548877E+04 0.  0.
        1    1    3    3  502    0  0.74425934068E+03 -0.39832563417E+03 -0.73165871814E+03  0.11170988125E+04  0.50400001928E-02 0.  1.
       -1    1    3    3    0  502 -0.74425934068E+03  0.39832563417E+03  0.35207972234E+03  0.91462856282E+03  0.50400001928E-02 0. -1.
</event>
<event>
 5   0  0.8022574E-05  0.1988630E+04  0.7818609E-02  0.8611955E-01
        2   -1    0    0  501    0  0.00000000000E+00  0.00000000000E+00  0.20756203481E+04  0.20756203481E+04  0.25500000920E-02 0. -1.
       -2   -1    0    0    0  501  0.00000000000E+00  0.00000000000E+00 -0.47632149738E+03  0.47632149739E+03  0.25500000920E-02 0.  1.
    10030    2    1    2    0    0  0.00000000000E+00  0.00000000000E+00  0.15992988507E+04  0.25519418455E+04  0.19886302745E+04 0.  0.
        1    1    3    3  502    0 -0.67596896639E+03  0.53302765450E+03  0.14382081991E+04  0.16761549296E+04  0.50400001928E-02 0. -1.
       -1    1    3    3    0  502  0.67596896639E+03 -0.53302765450E+03  0.16109065160E+03  0.87578691589E+03  0.50400001928E-02 0.  1.
</event>
<event>
 5   0  0.3818907E-05  0.1999772E+04  0.7818609E-02  0.8606727E-01
       -1   -1    0    0    0  501  0.00000000000E+00  0.00000000000E+00  0.18200977846E+04  0.18200977846E+04  0.50400001928E-02 0. -1.
        1   -1    0    0  501    0  0.00000000000E+00  0.00000000000E+00 -0.54929593137E+03  0.54929593139E+03  0.50400001928E-02 0.  1.
    10030    2    1    2    0    0  0.00000000000E+00  0.00000000000E+00  0.12708018532E+04  0.23693937160E+04  0.19997722948E+04 0.  0.
        1    1    3    3  502    0 -0.97679193310E+03 -0.19123890297E+03  0.74828691335E+03  0.12452421866E+04  0.50400001928E-02 0. -1.
       -1    1    3    3    0  502  0.97679193310E+03  0.19123890297E+03  0.52251493985E+03  0.11241515294E+04  0.50400001928E-02 0.  1.
</event>
<event>
 5   0  0.8011197E-05  0.2007834E+04  0.7818609E-02  0.8602967E-01
       -2   -1    0    0    0  501  0.00000000000E+00  0.00000000000E+00  0.11301093323E+04  0.11301093323E+04  0.25500000920E-02 0.  1.
        2   -1    0    0  501    0  0.00000000000E+00  0.00000000000E+00 -0.89181602093E+03  0.89181602094E+03  0.25500000920E-02 0. -1.
    10030    2    1    2    0    0  0.00000000000E+00  0.00000000000E+00  0.23829331132E+03  0.20219253532E+04  0.20078342640E+04 0.  0.
        5    1    3    3  502    0  0.21786457267E+03  0.19011339105E+03  0.10872568813E+04  0.11250589715E+04  0.46999998093E+01 0.  1.
       -5    1    3    3    0  502 -0.21786457267E+03 -0.19011339105E+03 -0.84896356996E+03  0.89686638169E+03  0.46999998093E+01 0. -1.
</event>
<event>
 5   0  0.7857136E-05  0.1998226E+04  0.7818609E-02  0.8607451E-01
        2   -1    0    0  501    0  0.00000000000E+00  0.00000000000E+00  0.14220908742E+04  0.14220908742E+04  0.25500000920E-02 0.  1.
       -2   -1    0    0    0  501  0.00000000000E+00  0.00000000000E+00 -0.70194276998E+03  0.70194276998E+03  0.25500000920E-02 0. -1.
    10030    2    1    2    0    0  0.00000000000E+00  0.00000000000E+00  0.72014810421E+03  0.21240336442E+04  0.19982256203E+04 0.  0.
        4    1    3    3  502    0 -0.75062456192E+03 -0.62027863289E+03  0.12228924246E+03  0.98139649842E+03  0.12699999809E+01 0.  1.
       -4    1    3    3    0  502  0.75062456192E+03  0.62027863289E+03  0.59785886175E+03  0.11426371458E+04  0.12699999809E+01 0. -1.
</event>
<event>
 5   0  0.8011197E-05  0.1999196E+04  0.7818609E-02  0.8606997E-01
        2   -1    0    0  501    0  0.00000000000E+00  0.00000000000E+00  0.20335422221E+04  0.20335422221E+04  0.25500000920E-02 0. -1.
       -2   -1    0    0    0  501  0.00000000000E+00  0.00000000000E+00 -0.49135745689E+03  0.49135745689E+03  0.25500000920E-02 0.  1.
    10030    2    1    2    0    0  0.00000000000E+00  0.00000000000E+00  0.15421847653E+04  0.25248996790E+04  0.19991959731E+04 0.  0.
        5    1    3    3  502    0  0.71867282677E+03  0.70170807380E+02 -0.10186574175E+03  0.72925530062E+03  0.46999998093E+01 0.  1.
       -5    1    3    3    0  502 -0.71867282677E+03 -0.70170807380E+02  0.16440505070E+04  0.17956443784E+04  0.46999998093E+01 0. -1.
</event>
<event>
 5   0  0.8011197E-05  0.2001337E+04  0.7818609E-02  0.8605996E-01
        2   -1    0    0  501    0  0.00000000000E+00  0.00000000000E+00  0.15641119064E+04  0.15641119064E+04  0.25500000920E-02 0.  1.
       -2   -1    0    0    0  501  0.00000000000E+00  0.00000000000E+00 -0.64019570249E+03  0.64019570250E+03  0.25500000920E-02 0. -1.
    10030    2    1    2    0    0  0.00000000000E+00  0.00000000000E+00  0.92391620395E+03  0.22043076089E+04  0.20013372737E+04 0.  0.
        5    1    3    3  502    0 -0.30642475689E+03  0.95258506504E+03  0.46316109840E+03  0.11026580299E+04  0.46999998093E+01 0.  1.
       -5    1    3    3    0  502  0.30642475689E+03 -0.95258506504E+03  0.46075510555E+03  0.11016495791E+04  0.46999998093E+01 0. -1.
</event>
<event>
 5   0  0.2859625E-05  0.1972002E+04  0.7818609E-02  0.8619824E-01
        4   -1    0    0  501    0  0.00000000000E+00  0.00000000000E+00  0.13570305175E+04  0.13570311118E+04  0.12699999809E+01 0.  1.
       -4   -1    0    0    0  501  0.00000000000E+00  0.00000000000E+00 -0.71641432748E+03  0.71641545315E+03  0.12699999809E+01 0. -1.
    10030    2    1    2    0    0  0.00000000000E+00  0.00000000000E+00  0.64061619004E+03  0.20734465649E+04  0.19720019155E+04 0.  0.
        4    1    3    3  502    0  0.25365479180E+03 -0.12808541796E+03 -0.67242825448E+03  0.73000547808E+03  0.12699999809E+01 0. -1.
       -4    1    3    3    0  502 -0.25365479180E+03  0.12808541796E+03  0.13130444445E+04  0.13434410869E+04  0.12699999809E+01 0.  1.
</event>
<event>
 5   0  0.8022574E-05  0.1992224E+04  0.7818609E-02  0.8610265E-01
       -2   -1    0    0    0  501  0.00000000000E+00  0.00000000000E+00  0.82523055709E+03  0.82523055710E+03  0.25500000920E-02 0. -1.
        2   -1    0    0  501    0  0.00000000000E+00  0.00000000000E+00 -0.12023784805E+04  0.12023784805E+04  0.25500000920E-02 0.  1.
    10030    2    1    2    0    0  0.00000000000E+00  0.00000000000E+00 -0.37714792338E+03  0.20276090376E+04  0.19922243481E+04 0.  0.
        1    1    3    3  502    0  0.88453461830E+03 -0.43368913686E+03 -0.33867808614E+03  0.10417248219E+04  0.50400001928E-02 0.  1.
       -1    1    3    3    0  502 -0.88453461830E+03  0.43368913686E+03 -0.38469837243E+02  0.98588421572E+03  0.50400001928E-02 0. -1.
</event>
<event>
 5   0  0.3772949E-05  0.2005066E+04  0.7818609E-02  0.8604256E-01
        1   -1    0    0  501    0  0.00000000000E+00  0.00000000000E+00  0.83925589985E+03  0.83925589986E+03  0.50400001928E-02 0.  1.
       -1   -1    0    0    0  501  0.00000000000E+00  0.00000000000E+00 -0.11975752102E+04  0.11975752102E+04  0.50400001928E-02 0. -1.
    10030    2    1    2    0    0  0.00000000000E+00  0.00000000000E+00 -0.35831931037E+03  0.20368311101E+04  0.20050656455E+04 0.  0.
        2    1    3    3  502    0 -0.86167280633E+03  0.34434976619E+03  0.20634595388E+03  0.95059741180E+03  0.25500000920E-02 0. -1.
       -2    1    3    3    0  502  0.86167280633E+03 -0.34434976619E+03 -0.56466526426E+03  0.10862336983E+04  0.25500000920E-02 0.  1.
</event>
<event>
 5   0  0.7857136E-05  0.1983945E+04  0.7818609E-02  0.8614164E-01
       -2   -1    0    0    0  501  0.00000000000E+00  0.00000000000E+00  0.84990558068E+03  0.84990558068E+03  0.25500000920E-02 0. -1.
        2   -1    0    0  501    0  0.00000000000E+00  0.00000000000E+00 -0.11577864848E+04  0.11577864848E+04  0.25500000920E-02 0.  1.
    10030    2    1    2    0    0  0.00000000000E+00  0.00000000000E+00 -0.30788090415E+03  0.20076920655E+04  0.19839447519E+04 0.  0.
        4    1    3    3  502    0 -0.44119815486E+03  0.88841910532E+03 -0.16198947713E+03  0.10050803561E+04  0.12699999809E+01 0. -1.
       -4    1    3    3    0  502  0.44119815486E+03 -0.88841910532E+03 -0.14589142702E+03  0.10026117094E+04  0.12699999809E+01 0.  1.
</event>
<event>
 5   0  0.3970042E-05  0.2126146E+04  0.7818609E-02  0.8549812E-01
        1   -1    0    0  501    0  0.00000000000E+00  0.00000000000E+00  0.12120785944E+04  0.12120785944E+04  0.50400001928E-02 0. -1.
       -1   -1    0    0    0  501  0.00000000000E+00  0.00000000000E+00 -0.93238552675E+03  0.93238552676E+03  0.50400001928E-02 0.  1.
    10030    2    1    2    0    0  0.00000000000E+00  0.00000000000E+00  0.27969306767E+03  0.21444641212E+04  0.21261463155E+04 0.  0.
        3    1    3    3  502    0 -0.32585463732E+03 -0.93856281830E+03  0.52131542187E+03  0.11219853777E+04  0.10100000352E+00 0. -1.
       -3    1    3    3    0  502  0.32585463732E+03  0.93856281830E+03 -0.24162235420E+03  0.10224787435E+04  0.10100000352E+00 0.  1.
</event>
<event>
 5   0  0.7935008E-05  0.2015544E+04  0.7818609E-02  0.8599388E-01
       -2   -1    0    0    0  501  0.00000000000E+00  0.00000000000E+00  0.11994259539E+04  0.11994259539E+04  0.25500000920E-02 0.  1.
        2   -1    0    0  501    0  0.00000000000E+00  0.00000000000E+00 -0.84674169587E+03  0.84674169588E+03  0.25500000920E-02 0. -1.
    10030    2    1    2    0    0  0.00000000000E+00  0.00000000000E+00  0.35268425801E+03  0.20461676498E+04  0.20155435657E+04 0.  0.
        3    1    3    3  502    0 -0.90214662764E+02 -0.48843339457E+03  0.10665335720E+04  0.11765201812E+04  0.10100000352E+00 0.  1.
       -3    1    3    3    0  502  0.90214662764E+02  0.48843339457E+03 -0.71384931400E+03  0.86964746858E+03  0.10100000352E+00 0. -1.
</event>
<event>
 5   0  0.3787698E-05  0.1993555E+04  0.7818609E-02  0.8609640E-01
        1   -1    0    0  501    0  0.00000000000E+00  0.00000000000E+00  0.16361767515E+04  0.16361767515E+04  0.50400001928E-02 0. -1.
       -1   -1    0    0    0  501  0.00000000000E+00  0.00000000000E+00 -0.60724791157E+03  0.60724791159E+03  0.50400001928E-02 0.  1.
    10030    2    1    2    0    0  0.00000000000E+00  0.00000000000E+00  0.10289288399E+04  0.22434246631E+04  0.19935545293E+04 0.  0.
        4    1    3    3  502    0  0.87154361846E+03 -0.41053282478E+03  0.80233533815E+03  0.12537420336E+04  0.12699999809E+01 0. -1.
       -4    1    3    3    0  502 -0.87154361846E+03  0.41053282478E+03  0.22659350173E+03  0.98968262944E+03  0.12699999809E+01 0.  1.
</event>
<event>
 5   0  0.8022574E-05  0.2007047E+04  0.7818609E-02  0.8603333E-01
        2   -1    0    0  501    0  0.00000000000E+00  0.00000000000E+00  0.17148493399E+04  0.17148493399E+04  0.25500000920E-02 0. -1.
       -2   -1    0    0    0  501  0.00000000000E+00  0.00000000000E+00 -0.58725836395E+03  0.58725836396E+03  0.25500000920E-02 0.  1.
    10030    2    1    2    0    0  0.00000000000E+00  0.00000000000E+00  0.11275909760E+04  0.23021077039E+04  0.20070472020E+04 0.  0.
        1    1    3    3  502    0  0.85744024501E+03  0.48027088957E+03  0.33098953410E+03  0.10370236125E+04  0.50400001928E-02 0.  1.
       -1    1    3    3    0  502 -0.85744024501E+03 -0.48027088957E+03  0.79660144187E+03  0.12650840914E+04  0.50400001928E-02 0. -1.
</event>
<event>
 5   0  0.3549426E-05  0.1991929E+04  0.7818609E-02  0.8610403E-01
       -1   -1    0    0    0  501  0.00000000000E+00  0.00000000000E+00  0.40546889611E+03  0.40546889614E+03  0.50400001928E-02 0. -1.
        1   -1    0    0  501    0  0.00000000000E+00  0.00000000000E+00 -0.24464148673E+04  0.24464148673E+04  0.50400001928E-02 0.  1.
    10030    2    1    2    0    0  0.00000000000E+00  0.00000000000E+00 -0.20409459711E+04  0.28518837634E+04  0.19919288498E+04 0.  0.
        5    1    3    3  502    0  0.50428201668E+01  0.59757218292E+03 -0.21611907455E+04  0.22422946890E+04  0.46999998093E+01 0.  1.
       -5    1    3    3    0  502 -0.50428201668E+01 -0.59757218292E+03  0.12024477438E+03  0.60958907438E+03  0.46999998093E+01 0. -1.
</event>
<event>
 5   0  0.3787698E-05  0.2001243E+04  0.7818609E-02  0.8606040E-01
       -1   -1    0    0    0  501  0.00000000000E+00  0.00000000000E+00  0.62391093296E+03  0.62391093298E+03  0.50400001928E-02 0.  1.
        1   -1    0    0  501    0  0.00000000000E+00  0.00000000000E+00 -0.16047858947E+04  0.16047858947E+04  0.50400001928E-02 0. -1.
    10030    2    1    2    0    0  0.00000000000E+00  0.00000000000E+00 -0.98087496172E+03  0.22286968277E+04  0.20012430785E+04 0.  0.
        4    1    3    3  502    0  0.22421221893E+02  0.85863110951E+02  0.61951897988E+03  0.62584388176E+03  0.12699999809E+01 0.  1.
       -4    1    3    3    0  502 -0.22421221893E+02 -0.85863110951E+02 -0.16003939416E+04  0.16028529459E+04  0.12699999809E+01 0. -1.
</event>
<event>
 5   0  0.7935008E-05  0.2006047E+04  0.7818609E-02  0.8603799E-01
       -2   -1    0    0    0  501  0.00000000000E+00  0.00000000000E+00  0.72426712420E+03  0.72426712420E+03  0.25500000920E-02 0. -1.
        2   -1    0    0  501    0  0.00000000000E+00  0.00000000000E+00 -0.13890679217E+04  0.13890679217E+04  0.25500000920E-02 0.  1.
    10030    2    1    2    0    0  0.00000000000E+00  0.00000000000E+00 -0.66480079749E+03  0.21133350459E+04  0.20060470871E+04 0.  0.
        3    1    3    3  502    0  0.28005405152E+03  0.75069140975E+03 -0.96806880409E+03  0.12566324379E+04  0.10100000352E+00 0.  1.
       -3    1    3    3    0  502 -0.28005405152E+03 -0.75069140975E+03  0.30326800660E+03  0.85670260795E+03  0.10100000352E+00 0. -1.
</event>
<event>
 5   0  0.3549426E-05  0.1994622E+04  0.7818609E-02  0.8609139E-01
       -1   -1    0    0    0  501  0.00000000000E+00  0.00000000000E+00  0.10986438490E+04  0.10986438490E+04  0.50400001928E-02 0. -1.
        1   -1    0    0  501    0  0.00000000000E+00  0.00000000000E+00 -0.90532475738E+03  0.90532475739E+03  0.50400001928E-02 0.  1.
    10030    2    1    2    0    0  0.00000000000E+00  0.00000000000E+00  0.19331909161E+03  0.20039686064E+04  0.19946222460E+04 0.  0.
        5    1    3    3  502    0  0.21288750034E+03 -0.43502963896E+03 -0.77922567335E+03  0.91748929944E+03  0.46999998093E+01 0.  1.
       -5    1    3    3    0  502 -0.21288750034E+03  0.43502963896E+03  0.97254476497E+03  0.10864793070E+04  0.46999998093E+01 0. -1.
</event>
<event>
 5   0  0.3970042E-05  0.2046097E+04  0.7818609E-02  0.8585367E-01
       -1   -1    0    0    0  501  0.00000000000E+00  0.00000000000E+00  0.12838837677E+04  0.12838837677E+04  0.50400001928E-02 0.  1.
        1   -1    0    0  501    0  0.00000000000E+00  0.00000000000E+00 -0.81520454285E+03  0.81520454286E+03  0.50400001928E-02 0. -1.
    10030    2    1    2    0    0  0.00000000000E+00  0.00000000000E+00  0.46867922485E+03  0.20990883106E+04  0.20460966546E+04 0.  0.
        3    1    3    3  502    0 -0.28776436275E+03  0.26780254155E+03  0.12033125788E+04  0.12658940327E+04  0.10100000352E+00 0.  1.
       -3    1    3    3    0  502  0.28776436275E+03 -0.26780254155E+03 -0.73463335391E+03  0.83319427783E+03  0.10100000352E+00 0. -1.
</event>
<event>
 5   0  0.3772949E-05  0.1978369E+04  0.7818609E-02  0.8616801E-01
        1   -1    0    0  501    0  0.00000000000E+00  0.00000000000E+00  0.18521241998E+04  0.18521241998E+04  0.50400001928E-02 0.  1.
       -1   -1    0    0    0  501  0.00000000000E+00  0.00000000000E+00 -0.52830488505E+03  0.52830488507E+03  0.50400001928E-02 0. -1.
    10030    2    1    2    0    0  0.00000000000E+00  0.00000000000E+00  0.13238193147E+04  0.23804290849E+04  0.19783692906E+04 0.  0.
        2    1    3    3  502    0 -0.80780931356E+03  0.42532720923E+03  0.20369125370E+03  0.93538721866E+03  0.25500000920E-02 0. -1.
       -2    1    3    3    0  502  0.80780931356E+03 -0.42532720923E+03  0.11201280610E+04  0.14450418662E+04  0.25500000920E-02 0.  1.
</event>
<event>
 5   0  0.7843846E-05  0.2003093E+04  0.7818609E-02  0.8605176E-01
       -2   -1    0    0    0  501  0.00000000000E+00  0.00000000000E+00  0.80984898640E+03  0.80984898641E+03  0.25500000920E-02 0.  1.
        2   -1    0    0  501    0  0.00000000000E+00  0.00000000000E+00 -0.12386202801E+04  0.12386202801E+04  0.25500000920E-02 0. -1.
    10030    2    1    2    0    0  0.00000000000E+00  0.00000000000E+00 -0.42877129370E+03  0.20484692665E+04  0.20030929867E+04 0.  0.
        2    1    3    3  502    0  0.29867696889E+03 -0.52565540126E+03 -0.10309559637E+04  0.11951534344E+04  0.25500000920E-02 0. -1.
       -2    1    3    3    0  502 -0.29867696889E+03  0.52565540126E+03  0.60218466998E+03  0.85331583214E+03  0.25500000920E-02 0.  1.
</event>
<event>
 5   0  0.3772949E-05  0.1993018E+04  0.7818609E-02  0.8609892E-01
       -1   -1    0    0    0  501  0.00000000000E+00  0.00000000000E+00  0.85179763079E+03  0.85179763081E+03  0.50400001928E-02 0. -1.
        1   -1    0    0  501    0  0.00000000000E+00  0.00000000000E+00 -0.11658056334E+04  0.11658056334E+04  0.50400001928E-02 0.  1.
    10030    2    1    2    0    0  0.00000000000E+00  0.00000000000E+00 -0.31400800263E+03  0.20176032642E+04  0.19930182905E+04 0.  0.
        2    1    3    3  502    0 -0.95525163746E+03 -0.24553376584E+03 -0.30101902684E+03  0.10312152906E+04  0.25500000920E-02 0.  1.
       -2    1    3    3    0  502  0.95525163746E+03  0.24553376584E+03 -0.12988975781E+02  0.98638797364E+03  0.25500000920E-02 0. -1.
</event>
<event>
 5   0  0.3772949E-05  0.2069686E+04  0.7818609E-02  0.8574716E-01
        1   -1    0    0  501    0  0.00000000000E+00  0.00000000000E+00  0.12898558690E+04  0.12898558690E+04  0.50400001928E-02 0.  1.
       -1   -1    0    0    0  501  0.00000000000E+00  0.00000000000E+00 -0.83024822099E+03  0.83024822100E+03  0.50400001928E-02 0. -1.
    10030    2    1    2    0    0  0.00000000000E+00  0.00000000000E+00  0.45960764798E+03  0.21201040900E+04  0.20696864889E+04 0.  0.
        2    1    3    3  502    0  0.19328138202E+03 -0.99645843611E+03  0.23366856779E+02  0.10152995211E+04  0.25500000920E-02 0. -1.
       -2    1    3    3    0  502 -0.19328138202E+03  0.99645843611E+03  0.43624079120E+03  0.11048045689E+04  0.25500000920E-02 0.  1.
</event>
<event>
 5   0  0.3970042E-05  0.2003545E+04  0.7818609E-02  0.8604965E-01
       -1   -1    0    0    0  501  0.00000000000E+00  0.00000000000E+00  0.79870446967E+03  0.79870446969E+03  0.50400001928E-02 0. -1.
        1   -1    0    0  501    0  0.00000000000E+00  0.00000000000E+00 -0.12564693140E+04  0.12564693140E+04  0.50400001928E-02 0.  1.
    10030    2    1    2    0    0  0.00000000000E+00  0.00000000000E+00 -0.45776484428E+03  0.20551737836E+04  0.20035445162E+04 0.  0.
        3    1    3    3  502    0 -0.98721086413E+03  0.16522357039E+03 -0.27071982019E+03  0.10369056609E+04  0.10100000352E+00 0. -1.
       -3    1    3    3    0  502  0.98721086413E+03 -0.16522357039E+03 -0.18704502409E+03  0.10182681227E+04  0.10100000352E+00 0.  1.
</event>
<event>
 5   0  0.8022574E-05  0.1747612E+04  0.7818609E-02  0.8734666E-01
       -2   -1    0    0    0  501  0.00000000000E+00  0.00000000000E+00  0.47522803796E+03  0.47522803797E+03  0.25500000920E-02 0.  1.
        2   -1    0    0  501    0  0.00000000000E+00  0.00000000000E+00 -0.16066751293E+04  0.16066751293E+04  0.25500000920E-02 0. -1.
    10030    2    1    2    0    0  0.00000000000E+00  0.00000000000E+00 -0.11314470913E+04  0.20819031673E+04  0.17476121645E+04 0.  0.
        1    1    3    3  502    0 -0.74472408950E+03 -0.30035216992E+03 -0.97617536141E+03  0.12640188811E+04  0.50400001928E-02 0. -1.
       -1    1    3    3    0  502  0.74472408950E+03  0.30035216992E+03 -0.15527172993E+03  0.81788428619E+03  0.50400001928E-02 0.  1.
</event>
<event>
 5   0  0.7857136E-05  0.2002910E+04  0.7818609E-02  0.8605261E-01
       -2   -1    0    0    0  501  0.00000000000E+00  0.00000000000E+00  0.57903712674E+03  0.57903712675E+03  0.25500000920E-02 0.  1.
        2   -1    0    0  501    0  0.00000000000E+00  0.00000000000E+00 -0.17320348222E+04  0.17320348222E+04  0.25500000920E-02 0. -1.
    10030    2    1    2    0    0  0.00000000000E+00  0.00000000000E+00 -0.11529976955E+04  0.23110719490E+04  0.20029103494E+04 0.  0.
        4    1    3    3  502    0 -0.21747551349E+03  0.81740461915E+03  0.42150273883E+02  0.84689088368E+03  0.12699999809E+01 0.  1.
       -4    1    3    3    0  502  0.21747551349E+03 -0.81740461915E+03 -0.11951479694E+04  0.14641810653E+04  0.12699999809E+01 0. -1.
</event>
<event>
 5   0  0.3818907E-05  0.2004152E+04  0.7818609E-02  0.8604682E-01
       -1   -1    0    0    0  501  0.00000000000E+00  0.00000000000E+00  0.54958537700E+03  0.54958537702E+03  0.50400001928E-02 0.  1.
        1   -1    0    0  501    0  0.00000000000E+00  0.00000000000E+00 -0.18271162209E+04  0.18271162209E+04  0.50400001928E-02 0. -1.
    10030    2    1    2    0    0  0.00000000000E+00  0.00000000000E+00 -0.12775308439E+04  0.23767015979E+04  0.20041520473E+04 0.  0.
        1    1    3    3  502    0  0.10133509458E+03  0.71537091716E+03  0.18466512325E+03  0.74573826392E+03  0.50400001928E-02 0.  1.
       -1    1    3    3    0  502 -0.10133509458E+03 -0.71537091716E+03 -0.14621959672E+04  0.16309633340E+04  0.50400001928E-02 0. -1.
</event>
<event>
 5   0  0.8022574E-05  0.1988348E+04  0.7818609E-02  0.8612088E-01
        2   -1    0    0  501    0  0.00000000000E+00  0.00000000000E+00  0.21614319437E+04  0.21614319437E+04  0.25500000920E-02 0. -1.
       -2   -1    0    0    0  501  0.00000000000E+00  0.00000000000E+00 -0.45728097468E+03  0.45728097469E+03  0.25500000920E-02 0.  1.
    10030    2    1    2    0    0  0.00000000000E+00  0.00000000000E+00  0.17041509691E+04  0.26187129184E+04  0.19883477623E+04 0.  0.
        1    1    3    3  502    0  0.27098703090E+03  0.50135136947E+03 -0.22079413509E+03  0.61117691113E+03  0.50400001928E-02 0.  1.
       -1    1    3    3    0  502 -0.27098703090E+03 -0.50135136947E+03  0.19249451042E+04  0.20075360073E+04  0.50400001928E-02 0. -1.
</event>
<event>
 5   0  0.7857136E-05  0.2010380E+04  0.7818609E-02  0.8601783E-01
       -2   -1    0    0    0  501  0.00000000000E+00  0.00000000000E+00  0.39177342117E+03  0.39177342117E+03  0.25500000920E-02 0.  1.
        2   -1    0    0  501    0  0.00000000000E+00  0.00000000000E+00 -0.25790592935E+04  0.25790592935E+04  0.25500000920E-02 0. -1.
    10030    2    1    2    0    0  0.00000000000E+00  0.00000000000E+00 -0.21872858724E+04  0.29708327147E+04  0.20103799470E+04 0.  0.
        4    1    3    3  502    0  0.80787929199E+03  0.59030190672E+03 -0.95128767008E+03  0.13806067998E+04  0.12699999809E+01 0. -1.
       -4    1    3    3    0  502 -0.80787929199E+03 -0.59030190672E+03 -0.12359982023E+04  0.15902259149E+04  0.12699999809E+01 0.  1.
</event>
<event>
 5   0  0.8011197E-05  0.1992737E+04  0.7818609E-02  0.8610024E-01
        2   -1    0    0  501    0  0.00000000000E+00  0.00000000000E+00  0.10470614418E+04  0.10470614419E+04  0.25500000920E-02 0. -1.
       -2   -1    0    0    0  501  0.00000000000E+00  0.00000000000E+00 -0.94812979553E+03  0.94812979553E+03  0.25500000920E-02 0.  1.
    10030    2    1    2    0    0  0.00000000000E+00  0.00000000000E+00  0.98931646321E+02  0.19951912374E+04  0.19927369628E+04 0.  0.
        5    1    3    3  502    0  0.58491994461E+03 -0.61815712494E+03  0.56825307900E+03  0.10233197079E+04  0.46999998093E+01 0. -1.
       -5    1    3    3    0  502 -0.58491994461E+03  0.61815712494E+03 -0.46932143268E+03  0.97187152952E+03  0.46999998093E+01 0.  1.
</event>
<event>
 5   0  0.8022574E-05  0.1995588E+04  0.7818609E-02  0.8608686E-01
       -2   -1    0    0    0  501  0.00000000000E+00  0.00000000000E+00  0.66554335454E+03  0.66554335454E+03  0.25500000920E-02 0. -1.
        2   -1    0    0  501    0  0.00000000000E+00  0.00000000000E+00 -0.14959093735E+04  0.14959093735E+04  0.25500000920E-02 0.  1.
    10030    2    1    2    0    0  0.00000000000E+00  0.00000000000E+00 -0.83036601896E+03  0.21614527280E+04  0.19955876754E+04 0.  0.
        1    1    3    3  502    0 -0.81827003912E+02  0.58545911767E+03  0.45545253928E+03  0.74625401346E+03  0.50400001928E-02 0. -1.
       -1    1    3    3    0  502  0.81827003912E+02 -0.58545911767E+03 -0.12858185582E+04  0.14151987146E+04  0.50400001928E-02 0.  1.
</event>
<event>
 5   0  0.8011197E-05  0.1996055E+04  0.7818609E-02  0.8608468E-01
       -2   -1    0    0    0  501  0.00000000000E+00  0.00000000000E+00  0.71271786217E+03  0.71271786218E+03  0.25500000920E-02 0. -1.
        2   -1    0    0  501    0  0.00000000000E+00  0.00000000000E+00 -0.13975493672E+04  0.13975493672E+04  0.25500000920E-02 0.  1.
    10030    2    1    2    0    0  0.00000000000E+00  0.00000000000E+00 -0.68483150503E+03  0.21102672294E+04  0.19960545055E+04 0.  0.
        5    1    3    3  502    0 -0.35272962039E+02 -0.60299210639E+03 -0.11823514192E+04  0.13277125558E+04  0.46999998093E+01 0.  1.
       -5    1    3    3    0  502  0.35272962039E+02  0.60299210639E+03  0.49751991418E+03  0.78255467363E+03  0.46999998093E+01 0. -1.
</event>
<event>
 5   0  0.8022574E-05  0.2005724E+04  0.7818609E-02  0.8603949E-01
        2   -1    0    0  501    0  0.00000000000E+00  0.00000000000E+00  0.16602781454E+04  0.16602781454E+04  0.25500000920E-02 0.  1.
       -2   -1    0    0    0  501  0.00000000000E+00  0.00000000000E+00 -0.60576125958E+03  0.60576125959E+03  0.25500000920E-02 0. -1.
    10030    2    1    2    0    0  0.00000000000E+00  0.00000000000E+00  0.10545168858E+04  0.22660394050E+04  0.20057239896E+04 0.  0.
        1    1    3    3  502    0 -0.47196846941E+03 -0.25821796596E+03  0.14834484414E+04  0.15779892371E+04  0.50400001928E-02 0.  1.
       -1    1    3    3    0  502  0.47196846941E+03  0.25821796596E+03 -0.42893155562E+03  0.68805016786E+03  0.50400001928E-02 0. -1.
</event>
<event>
 5   0  0.3787698E-05  0.1992826E+04  0.7818609E-02  0.8609982E-01
        1   -1    0    0  501    0  0.00000000000E+00  0.00000000000E+00  0.11328677700E+04  0.11328677700E+04  0.50400001928E-02 0. -1.
       -1   -1    0    0    0  501  0.00000000000E+00  0.00000000000E+00 -0.87639436047E+03  0.87639436049E+03  0.50400001928E-02 0.  1.
    10030    2    1    2    0    0  0.00000000000E+00  0.00000000000E+00  0.25647340953E+03  0.20092621305E+04  0.19928260585E+04 0.  0.
        4    1    3    3  502    0  0.40434352578E+03 -0.71099430463E+03 -0.44551796178E+03  0.93139382391E+03  0.12699999809E+01 0.  1.
       -4    1    3    3    0  502 -0.40434352578E+03  0.71099430463E+03  0.70199137130E+03  0.10778683066E+04  0.12699999809E+01 0. -1.
</event>
<event>
 5   0  0.3970042E-05  0.2013609E+04  0.7818609E-02  0.8600284E-01
       -1   -1    0    0    0  501  0.00000000000E+00  0.00000000000E+00  0.62652517460E+03  0.62652517462E+03  0.50400001928E-02 0. -1.
        1   -1    0    0  501    0  0.00000000000E+00  0.00000000000E+00 -0.16179008406E+04  0.16179008406E+04  0.50400001928E-02 0.  1.
    10030    2    1    2    0    0  0.00000000000E+00  0.00000000000E+00 -0.99137566599E+03  0.22444260152E+04  0.20136093034E+04 0.  0.
        3    1    3    3  502    0  0.32130793232E+03 -0.52058382222E+03  0.39560324030E+03  0.72852469915E+03  0.10100000352E+00 0. -1.
       -3    1    3    3    0  502 -0.32130793232E+03  0.52058382222E+03 -0.13869789063E+04  0.15159013161E+04  0.10100000352E+00 0.  1.
</event>
<event>
 5   0  0.8022574E-05  0.2069207E+04  0.7818609E-02  0.8574931E-01
        2   -1    0    0  501    0  0.00000000000E+00  0.00000000000E+00  0.13481462206E+04  0.13481462206E+04  0.25500000920E-02 0. -1.
       -2   -1    0    0    0  501  0.00000000000E+00  0.00000000000E+00 -0.79398249245E+03  0.79398249245E+03  0.25500000920E-02 0.  1.
    10030    2    1    2    0    0  0.00000000000E+00  0.00000000000E+00  0.55416372819E+03  0.21421287131E+04  0.20692070911E+04 0.  0.
        1    1    3    3  502    0  0.19792486771E+03 -0.78099912394E+03 -0.39484528043E+03  0.89723836318E+03  0.50400001928E-02 0.  1.
       -1    1    3    3    0  502 -0.19792486771E+03  0.78099912394E+03  0.94900900863E+03  0.12448903499E+04  0.50400001928E-02 0. -1.
</event>
<event>
 5   0  0.3772949E-05  0.1965344E+04  0.7818609E-02  0.8622997E-01
       -1   -1    0    0    0  501  0.00000000000E+00  0.00000000000E+00  0.79845719632E+03  0.79845719634E+03  0.50400001928E-02 0. -1.
        1   -1    0    0  501    0  0.00000000000E+00  0.00000000000E+00 -0.12093878893E+04  0.12093878893E+04  0.50400001928E-02 0.  1.
    10030    2    1    2    0    0  0.00000000000E+00  0.00000000000E+00 -0.41093069295E+03  0.20078450856E+04  0.19653442074E+04 0.  0.
        2    1    3    3  502    0 -0.41840315063E+03 -0.82785861829E+03 -0.53687742197E+03  0.10717501829E+04  0.25500000920E-02 0.  1.
       -2    1    3    3    0  502  0.41840315063E+03  0.82785861829E+03  0.12594672903E+03  0.93609490272E+03  0.25500000920E-02 0. -1.
</event>
<event>
 5   0  0.7843846E-05  0.2047435E+04  0.7818609E-02  0.8584759E-01
       -2   -1    0    0    0  501  0.00000000000E+00  0.00000000000E+00  0.79479511794E+03  0.79479511795E+03  0.25500000920E-02 0. -1.
        2   -1    0    0  501    0  0.00000000000E+00  0.00000000000E+00 -0.13185759092E+04  0.13185759092E+04  0.25500000920E-02 0.  1.
    10030    2    1    2    0    0  0.00000000000E+00  0.00000000000E+00 -0.52378079126E+03  0.21133710272E+04  0.20474351714E+04 0.  0.
        2    1    3    3  502    0 -0.99584259728E+02  0.41109335231E+03 -0.12241587393E+04  0.12951754276E+04  0.25500000920E-02 0.  1.
       -2    1    3    3    0  502  0.99584259728E+02 -0.41109335231E+03  0.70037794805E+03  0.81819559961E+03  0.25500000920E-02 0. -1.
</event>
<event>
 5   0  0.3787698E-05  0.1990865E+04  0.7818609E-02  0.8610904E-01
        1   -1    0    0  501    0  0.00000000000E+00  0.00000000000E+00  0.12574987264E+04  0.12574987264E+04  0.50400001928E-02 0. -1.
       -1   -1    0    0    0  501  0.00000000000E+00  0.00000000000E+00 -0.78798142885E+03  0.78798142886E+03  0.50400001928E-02 0.  1.
    10030    2    1    2    0    0  0.00000000000E+00  0.00000000000E+00  0.46951729754E+03  0.20454801553E+04  0.19908647802E+04 0.  0.
        4    1    3    3  502    0 -0.69534112633E+03  0.31361454423E+01  0.96660178097E+03  0.11907265569E+04  0.12699999809E+01 0. -1.
       -4    1    3    3    0  502  0.69534112633E+03 -0.31361454423E+01 -0.49708448344E+03  0.85475359838E+03  0.12699999809E+01 0.  1.
</event>
<event>
 5   0  0.8011197E-05  0.2000460E+04  0.7818609E-02  0.8606406E-01
        2   -1    0    0  501    0  0.00000000000E+00  0.00000000000E+00  0.15121643410E+04  0.15121643410E+04  0.25500000920E-02 0.  1.
       -2   -1    0    0    0  501  0.00000000000E+00  0.00000000000E+00 -0.66160774080E+03  0.66160774081E+03  0.25500000920E-02 0. -1.
    10030    2    1    2    0    0  0.00000000000E+00  0.00000000000E+00  0.85055660017E+03  0.21737720818E+04  0.20004595806E+04 0.  0.
        5    1    3    3  502    0  0.89792149029E+03 -0.34009351200E+03  0.72975167751E+03  0.12060208126E+04  0.46999998093E+01 0.  1.
       -5    1    3    3    0  502 -0.89792149029E+03  0.34009351200E+03  0.12080492265E+03  0.96775126916E+03  0.46999998093E+01 0. -1.
</event>
<event>
 5   0  0.3787698E-05  0.2000436E+04  0.7818609E-02  0.8606417E-01
        1   -1    0    0  501    0  0.00000000000E+00  0.00000000000E+00  0.74591793813E+03  0.74591793815E+03  0.50400001928E-02 0.  1.
       -1   -1    0    0    0  501  0.00000000000E+00  0.00000000000E+00 -0.13412146886E+04  0.13412146886E+04  0.50400001928E-02 0. -1.
    10030    2    1    2    0    0  0.00000000000E+00  0.00000000000E+00 -0.59529675047E+03  0.20871326268E+04  0.20004360476E+04 0.  0.
        4    1    3    3  502    0 -0.97456113598E+03  0.15738939760E+03 -0.46553729273E+03  0.10914519751E+04  0.12699999809E+01 0.  1.
       -4    1    3    3    0  502  0.97456113598E+03 -0.15738939760E+03 -0.12975945775E+03  0.99568065162E+03  0.12699999809E+01 0. -1.
</event>
<event>
 5   0  0.8022574E-05  0.2006105E+04  0.7818609E-02  0.8603772E-01
       -2   -1    0    0    0  501  0.00000000000E+00  0.00000000000E+00  0.13231503709E+04  0.13231503709E+04  0.25500000920E-02 0. -1.
        2   -1    0    0  501    0  0.00000000000E+00  0.00000000000E+00 -0.76039326968E+03  0.76039326968E+03  0.25500000920E-02 0.  1.
    10030    2    1    2    0    0  0.00000000000E+00  0.00000000000E+00  0.56275710127E+03  0.20835436406E+04  0.20061053181E+04 0.  0.
        1    1    3    3  502    0  0.43161660932E+03 -0.88274732857E+03  0.49059651452E+03  0.10982807854E+04  0.50400001928E-02 0. -1.
       -1    1    3    3    0  502 -0.43161660932E+03  0.88274732857E+03  0.72160586749E+02  0.98526285521E+03  0.50400001928E-02 0.  1.
</event>
<event>
 5   0  0.3772949E-05  0.1944721E+04  0.7818609E-02  0.8632911E-01
        1   -1    0    0  501    0  0.00000000000E+00  0.00000000000E+00  0.71664251646E+03  0.71664251648E+03  0.50400001928E-02 0.  1.
       -1   -1    0    0    0  501  0.00000000000E+00  0.00000000000E+00 -0.13193251495E+04  0.13193251495E+04  0.50400001928E-02 0. -1.
    10030    2    1    2    0    0  0.00000000000E+00  0.00000000000E+00 -0.60268263303E+03  0.20359676660E+04  0.19447205405E+04 0.  0.
        2    1    3    3  502    0  0.73940449194E+03 -0.22413041271E+03  0.31672405631E+03  0.83502549210E+03  0.25500000920E-02 0.  1.
       -2    1    3    3    0  502 -0.73940449194E+03  0.22413041271E+03 -0.91940668934E+03  0.12009421739E+04  0.25500000920E-02 0. -1.
</event>
<event>
 5   0  0.3772949E-05  0.2014723E+04  0.7818609E-02  0.8599768E-01
        1   -1    0    0  501    0  0.00000000000E+00  0.00000000000E+00  0.19969727941E+04  0.19969727941E+04  0.50400001928E-02 0. -1.
       -1   -1    0    0    0  501  0.00000000000E+00  0.00000000000E+00 -0.50815755022E+03  0.50815755025E+03  0.50400001928E-02 0.  1.
    10030    2    1    2    0    0  0.00000000000E+00  0.00000000000E+00  0.14888152439E+04  0.25051303444E+04  0.20147226141E+04 0.  0.
        2    1    3    3  502    0  0.68771793242E+03 -0.32421398796E+03  0.15661008630E+04  0.17409028053E+04  0.25500000920E-02 0. -1.
       -2    1    3    3    0  502 -0.68771793242E+03  0.32421398796E+03 -0.77285619053E+02  0.76422753908E+03  0.25500000920E-02 0.  1.
</event>
<event>
 5   0  0.3970042E-05  0.1966269E+04  0.7818609E-02  0.8622556E-01
       -1   -1    0    0    0  501  0.00000000000E+00  0.00000000000E+00  0.70887092124E+03  0.70887092126E+03  0.50400001928E-02 0.  1.
        1   -1    0    0  501    0  0.00000000000E+00  0.00000000000E+00 -0.13635106259E+04  0.13635106259E+04  0.50400001928E-02 0. -1.
    10030    2    1    2    0    0  0.00000000000E+00  0.00000000000E+00 -0.65463970470E+03  0.20723815472E+04  0.19662685814E+04 0.  0.
        3    1    3    3  502    0  0.24104373416E+03  0.52472786379E+03  0.51130362405E+03  0.77127998742E+03  0.10100000352E+00 0.  1.
       -3    1    3    3    0  502 -0.24104373416E+03 -0.52472786379E+03 -0.11659433288E+04  0.13011015598E+04  0.10100000352E+00 0. -1.
</event>
<event>
 5   0  0.3549426E-05  0.2001538E+04  0.7818609E-02  0.8605902E-01
       -1   -1    0    0    0  501  0.00000000000E+00  0.00000000000E+00  0.65065593116E+03  0.65065593118E+03  0.50400001928E-02 0.  1.
        1   -1    0    0  501    0  0.00000000000E+00  0.00000000000E+00 -0.15392760348E+04  0.15392760348E+04  0.50400001928E-02 0. -1.
    10030    2    1    2    0    0  0.00000000000E+00  0.00000000000E+00 -0.88862010364E+03  0.21899319660E+04  0.20015384900E+04 0.  0.
        5    1    3    3  502    0  0.13452160174E+03 -0.38048068293E+03 -0.14462886507E+04  0.15015440595E+04  0.46999998093E+01 0. -1.
       -5    1    3    3    0  502 -0.13452160174E+03  0.38048068293E+03  0.55766854708E+03  0.68838790650E+03  0.46999998093E+01 0.  1.
</event>
<event>
 5   0  0.3787698E-05  0.2003321E+04  0.7818609E-02  0.8605069E-01
        1   -1    0    0  501    0  0.00000000000E+00  0.00000000000E+00  0.79800015881E+03  0.79800015882E+03  0.50400001928E-02 0. -1.
       -1   -1    0    0    0  501  0.00000000000E+00  0.00000000000E+00 -0.12572980948E+04  0.12572980948E+04  0.50400001928E-02 0.  1.
    10030    2    1    2    0    0  0.00000000000E+00  0.00000000000E+00 -0.45929793601E+03  0.20552982537E+04  0.20033213216E+04 0.  0.
        4    1    3    3  502    0  0.94545074132E+03 -0.33049175493E+03 -0.21441231021E+03  0.10242441877E+04  0.12699999809E+01 0.  1.
       -4    1    3    3    0  502 -0.94545074132E+03  0.33049175493E+03 -0.24488562580E+03  0.10310540660E+04  0.12699999809E+01 0. -1.
</event>
<event>
 5   0  0.7857136E-05  0.1948457E+04  0.7818609E-02  0.8631105E-01
       -2   -1    0    0    0  501  0.00000000000E+00  0.00000000000E+00  0.91393748315E+03  0.91393748316E+03  0.25500000920E-02 0. -1.
        2   -1    0    0  501    0  0.00000000000E+00  0.00000000000E+00 -0.10384963232E+04  0.10384963232E+04  0.25500000920E-02 0.  1.
    10030    2    1    2    0    0  0.00000000000E+00  0.00000000000E+00 -0.12455884001E+03  0.19524338063E+04  0.19484565336E+04 0.  0.
        4    1    3    3  502    0 -0.22516267079E+03  0.11280759965E+03 -0.10053143339E+04  0.10363794216E+04  0.12699999809E+01 0.  1.
       -4    1    3    3    0  502  0.22516267079E+03 -0.11280759965E+03  0.88075549384E+03  0.91605438468E+03  0.12699999809E+01 0. -1.
</event>
<event>
 5   0  0.8022574E-05  0.1998981E+04  0.7818609E-02  0.8607097E-01
        2   -1    0    0  501    0  0.00000000000E+00  0.00000000000E+00  0.11082716096E+04  0.11082716096E+04  0.25500000920E-02 0.  1.
       -2   -1    0    0    0  501  0.00000000000E+00  0.00000000000E+00 -0.90138636090E+03  0.90138636091E+03  0.25500000920E-02 0. -1.
    10030    2    1    2    0    0  0.00000000000E+00  0.00000000000E+00  0.20688524873E+03  0.20096579705E+04  0.19989806533E+04 0.  0.
        1    1    3    3  502    0 -0.36971183113E+03  0.58613114403E+03 -0.62064354414E+03  0.93028757112E+03  0.50400001928E-02 0. -1.
       -1    1    3    3    0  502  0.36971183113E+03 -0.58613114403E+03  0.82752879287E+03  0.10793703994E+04  0.50400001928E-02 0.  1.
</event>
<event>
 5   0  0.8011197E-05  0.1947281E+04  0.7818609E-02  0.8631673E-01
       -2   -1    0    0    0  501  0.00000000000E+00  0.00000000000E+00  0.30956635207E+03  0.30956635208E+03  0.25500000920E-02 0. -1.
        2   -1    0    0  501    0  0.00000000000E+00  0.00000000000E+00 -0.30622704084E+04  0.30622704084E+04  0.25500000920E-02 0.  1.
    10030    2    1    2    0    0  0.00000000000E+00  0.00000000000E+00 -0.27527040563E+04  0.33718367604E+04  0.19472810577E+04 0.  0.
        5    1    3    3  502    0  0.51502337226E+03 -0.12070154118E+03  0.39018964100E+02  0.53043614655E+03  0.46999998093E+01 0. -1.
       -5    1    3    3    0  502 -0.51502337226E+03  0.12070154118E+03 -0.27917230204E+04  0.28414006139E+04  0.46999998093E+01 0.  1.
</event>
<event>
 5   0  0.7843846E-05  0.1998147E+04  0.7818609E-02  0.8607488E-01
        2   -1    0    0  501    0  0.00000000000E+00  0.00000000000E+00  0.11460479170E+04  0.11460479170E+04  0.25500000920E-02 0.  1.
       -2   -1    0    0    0  501  0.00000000000E+00  0.00000000000E+00 -0.87094752230E+03  0.87094752230E+03  0.25500000920E-02 0. -1.
    10030    2    1    2    0    0  0.00000000000E+00  0.00000000000E+00  0.27510039467E+03  0.20169954393E+04  0.19981467351E+04 0.  0.
        2    1    3    3  502    0  0.61741930351E+03  0.23223265174E+03  0.89496746919E+03  0.11118027576E+04  0.25500000920E-02 0.  1.
       -2    1    3    3    0  502 -0.61741930351E+03 -0.23223265174E+03 -0.61986707452E+03  0.90519268168E+03  0.25500000920E-02 0. -1.
</event>
<event>
 5   0  0.3772949E-05  0.2000567E+04  0.7818609E-02  0.8606356E-01
        1   -1    0    0  501    0  0.00000000000E+00  0.00000000000E+00  0.13413575001E+04  0.13413575002E+04  0.50400001928E-02 0.  1.
       -1   -1    0    0    0  501  0.00000000000E+00  0.00000000000E+00 -0.74593625841E+03  0.74593625843E+03  0.50400001928E-02 0. -1.
    10030    2    1    2    0    0  0.00000000000E+00  0.00000000000E+00  0.59542124174E+03  0.20872937586E+04  0.20005671145E+04 0.  0.
        2    1    3    3  502    0 -0.47659074956E+02  0.55831960264E+03 -0.56680819675E+03  0.79703431421E+03  0.25500000920E-02 0. -1.
       -2    1    3    3    0  502  0.47659074956E+02 -0.55831960264E+03  0.11622294385E+04  0.12902594444E+04  0.25500000920E-02 0.  1.
</event>
<event>
 5   0  0.3818907E-05  0.1996521E+04  0.7818609E-02  0.8608249E-01
        1   -1    0    0  501    0  0.00000000000E+00  0.00000000000E+00  0.10633859787E+04  0.10633859787E+04  0.50400001928E-02 0.  1.
       -1   -1    0    0    0  501  0.00000000000E+00  0.00000000000E+00 -0.93712329152E+03  0.93712329154E+03  0.50400001928E-02 0. -1.
    10030    2    1    2    0    0  0.00000000000E+00  0.00000000000E+00  0.12626268719E+03  0.20005092703E+04  0.19965207423E+04 0.  0.
        1    1    3    3  502    0  0.51104199374E+03 -0.33208052266E+03  0.85533231154E+03  0.10502546149E+04  0.50400001928E-02 0.  1.
       -1    1    3    3    0  502 -0.51104199374E+03  0.33208052266E+03 -0.72906962435E+03  0.95025465538E+03  0.50400001928E-02 0. -1.
</event>
<event>
 5   0  0.8011197E-05  0.1956175E+04  0.7818609E-02  0.8627389E-01
       -2   -1    0    0    0  501  0.00000000000E+00  0.00000000000E+00  0.51147090833E+03  0.51147090833E+03  0.25500000920E-02 0. -1.
        2   -1    0    0  501    0  0.00000000000E+00  0.00000000000E+00 -0.18703999504E+04  0.18703999504E+04  0.25500000920E-02 0.  1.
    10030    2    1    2    0    0  0.00000000000E+00  0.00000000000E+00 -0.13589290421E+04  0.23818708587E+04  0.19561750040E+04 0.  0.
        5    1    3    3  502    0 -0.22924614407E+03 -0.40986294886E+03  0.36519904538E+03  0.59492341033E+03  0.46999998093E+01 0. -1.
       -5    1    3    3    0  502  0.22924614407E+03  0.40986294886E+03 -0.17241280875E+04  0.17869474484E+04  0.46999998093E+01 0.  1.
</event>
<event>
 5   0  0.8022574E-05  0.1997229E+04  0.7818609E-02  0.8607917E-01
       -2   -1    0    0    0  501  0.00000000000E+00  0.00000000000E+00  0.11795422219E+04  0.11795422219E+04  0.25500000920E-02 0. -1.
        2   -1    0    0  501    0  0.00000000000E+00  0.00000000000E+00 -0.84543901985E+03  0.84543901985E+03  0.25500000920E-02 0.  1.
    10030    2    1    2    0    0  0.00000000000E+00  0.00000000000E+00  0.33410320201E+03  0.20249812417E+04  0.19972291004E+04 0.  0.
        1    1    3    3  502    0  0.62755913880E+03 -0.24489339460E+03 -0.58036722747E+03  0.88917341737E+03  0.50400001928E-02 0.  1.
       -1    1    3    3    0  502 -0.62755913880E+03  0.24489339460E+03  0.91447042948E+03  0.11358078243E+04  0.50400001928E-02 0. -1.
</event>
<event>
 5   0  0.3549426E-05  0.1994338E+04  0.7818609E-02  0.8609272E-01
        1   -1    0    0  501    0  0.00000000000E+00  0.00000000000E+00  0.93847070714E+03  0.93847070715E+03  0.50400001928E-02 0.  1.
       -1   -1    0    0    0  501  0.00000000000E+00  0.00000000000E+00 -0.10595391921E+04  0.10595391921E+04  0.50400001928E-02 0. -1.
    10030    2    1    2    0    0  0.00000000000E+00  0.00000000000E+00 -0.12106848499E+03  0.19980098993E+04  0.19943384817E+04 0.  0.
        5    1    3    3  502    0 -0.75601514058E+03 -0.70581857583E+02 -0.70808604902E+03  0.10382430516E+04  0.46999998093E+01 0. -1.
       -5    1    3    3    0  502  0.75601514058E+03  0.70581857583E+02  0.58701756403E+03  0.95976684767E+03  0.46999998093E+01 0.  1.
</event>
<event>
 5   0  0.3970042E-05  0.2065925E+04  0.7818609E-02  0.8576404E-01
       -1   -1    0    0    0  501  0.00000000000E+00  0.00000000000E+00  0.77737066876E+03  0.77737066877E+03  0.50400001928E-02 0.  1.
        1   -1    0    0  501    0  0.00000000000E+00  0.00000000000E+00 -0.13725899098E+04  0.13725899098E+04  0.50400001928E-02 0. -1.
    10030    2    1    2    0    0  0.00000000000E+00  0.00000000000E+00 -0.59521924101E+03  0.21499605786E+04  0.20659246222E+04 0.  0.
        3    1    3    3  502    0 -0.29446728144E+03  0.91586406447E+03 -0.68906633824E+03  0.11833555650E+04  0.10100000352E+00 0. -1.
       -3    1    3    3    0  502  0.29446728144E+03 -0.91586406447E+03  0.93847097227E+02  0.96660501359E+03  0.10100000352E+00 0.  1.
</event>
<event>
 5   0  0.8011197E-05  0.1992759E+04  0.7818609E-02  0.8610014E-01
       -2   -1    0    0    0  501  0.00000000000E+00  0.00000000000E+00  0.79348443839E+03  0.79348443839E+03  0.25500000920E-02 0. -1.
        2   -1    0    0  501    0  0.00000000000E+00  0.00000000000E+00 -0.12511548367E+04  0.12511548367E+04  0.25500000920E-02 0.  1.
    10030    2    1    2    0    0  0.00000000000E+00  0.00000000000E+00 -0.45767039832E+03  0.20446392751E+04  0.19927587841E+04 0.  0.
        5    1    3    3  502    0 -0.13117809984E+03 -0.22231208490E+03 -0.12162405316E+04  0.12433396470E+04  0.46999998093E+01 0.  1.
       -5    1    3    3    0  502  0.13117809984E+03  0.22231208490E+03  0.75857013328E+03  0.80129962815E+03  0.46999998093E+01 0. -1.
</event>
<event>
 5   0  0.3970042E-05  0.1989922E+04  0.7818609E-02  0.8611347E-01
       -1   -1    0    0    0  501  0.00000000000E+00  0.00000000000E+00  0.95984799382E+03  0.95984799383E+03  0.50400001928E-02 0.  1.
        1   -1    0    0  501    0  0.00000000000E+00  0.00000000000E+00 -0.10313589768E+04  0.10313589769E+04  0.50400001928E-02 0. -1.
    10030    2    1    2    0    0  0.00000000000E+00  0.00000000000E+00 -0.71510983025E+02  0.19912069707E+04  0.19899224556E+04 0.  0.
        3    1    3    3  502    0  0.45822858743E+03 -0.84408959814E+03 -0.29570606760E+03  0.10049391905E+04  0.10100000352E+00 0. -1.
       -3    1    3    3    0  502 -0.45822858743E+03  0.84408959814E+03  0.22419508458E+03  0.98626778016E+03  0.10100000352E+00 0.  1.
</event>
<event>
 5   0  0.7935008E-05  0.2005197E+04  0.7818609E-02  0.8604195E-01
        2   -1    0    0  501    0  0.00000000000E+00  0.00000000000E+00  0.13525628785E+04  0.13525628785E+04  0.25500000920E-02 0. -1.
       -2   -1    0    0    0  501  0.00000000000E+00  0.00000000000E+00 -0.74318460127E+03  0.74318460128E+03  0.25500000920E-02 0.  1.
    10030    2    1    2    0    0  0.00000000000E+00  0.00000000000E+00  0.60937827719E+03  0.20957474797E+04  0.20051971509E+04 0.  0.
        3    1    3    3  502    0 -0.42485417400E+03  0.88617360632E+03  0.97233437103E+02  0.98755206506E+03  0.10100000352E+00 0.  1.
       -3    1    3    3    0  502  0.42485417400E+03 -0.88617360632E+03  0.51214484009E+03  0.11081954147E+04  0.10100000352E+00 0. -1.
</event>
<event>
 5   0  0.3772949E-05  0.1984547E+04  0.7818609E-02  0.8613880E-01
       -1   -1    0    0    0  501  0.00000000000E+00  0.00000000000E+00  0.10004787005E+04  0.10004787005E+04  0.50400001928E-02 0.  1.
        1   -1    0    0  501    0  0.00000000000E+00  0.00000000000E+00 -0.98413522249E+03  0.98413522250E+03  0.50400001928E-02 0. -1.
    10030    2    1    2    0    0  0.00000000000E+00  0.00000000000E+00  0.16343478010E+02  0.19846139230E+04  0.19845466269E+04 0.  0.
        2    1    3    3  502    0 -0.47225395679E+03 -0.40729612780E+01  0.88087878621E+03  0.99949378423E+03  0.25500000920E-02 0.  1.
       -2    1    3    3    0  502  0.47225395679E+03  0.40729612780E+01 -0.86453530820E+03  0.98512013879E+03  0.25500000920E-02 0. -1.
</event>
<event>
 5   0  0.8022574E-05  0.1902563E+04  0.7818609E-02  0.8653581E-01
       -2   -1    0    0    0  501  0.00000000000E+00  0.00000000000E+00  0.23852959449E+04  0.23852959449E+04  0.25500000920E-02 0.  1.
        2   -1    0    0  501    0  0.00000000000E+00  0.00000000000E+00 -0.37938136176E+03  0.37938136177E+03  0.25500000920E-02 0. -1.
    10030    2    1    2    0    0  0.00000000000E+00  0.00000000000E+00  0.20059145831E+04  0.27646773067E+04  0.19025633485E+04 0.  0.
        1    1    3    3  502    0 -0.11062545423E+03 -0.19734286391E+03 -0.33972065809E+03  0.40815722782E+03  0.50400001928E-02 0. -1.
       -1    1    3    3    0  502  0.11062545423E+03  0.19734286391E+03  0.23456352412E+04  0.23565200788E+04  0.50400001928E-02 0.  1.
</event>
<event>
 5   0  0.3772949E-05  0.1975679E+04  0.7818609E-02  0.8618077E-01
        1   -1    0    0  501    0  0.00000000000E+00  0.00000000000E+00  0.24161192671E+04  0.24161192671E+04  0.50400001928E-02 0.  1.
       -1   -1    0    0    0  501  0.00000000000E+00  0.00000000000E+00 -0.40388172185E+03  0.40388172189E+03  0.50400001928E-02 0. -1.
    10030    2    1    2    0    0  0.00000000000E+00  0.00000000000E+00  0.20122375453E+04  0.28200009890E+04  0.19756785263E+04 0.  0.
        2    1    3    3  502    0 -0.47237954481E+03  0.56790541447E+03  0.69955203965E+02  0.74199240205E+03  0.25500000920E-02 0. -1.
       -2    1    3    3    0  502  0.47237954481E+03 -0.56790541447E+03  0.19422823413E+04  0.20780085870E+04  0.25500000920E-02 0.  1.
</event>
<event>
 5   0  0.7857136E-05  0.1982953E+04  0.7818609E-02  0.8614632E-01
        2   -1    0    0  501    0  0.00000000000E+00  0.00000000000E+00  0.22810993434E+04  0.22810993434E+04  0.25500000920E-02 0.  1.
       -2   -1    0    0    0  501  0.00000000000E+00  0.00000000000E+00 -0.43094387121E+03  0.43094387122E+03  0.25500000920E-02 0. -1.
    10030    2    1    2    0    0  0.00000000000E+00  0.00000000000E+00  0.18501554721E+04  0.27120432146E+04  0.19829531327E+04 0.  0.
        4    1    3    3  502    0  0.77143604694E+03 -0.56712672635E+03  0.57297578731E+03  0.11158177109E+04  0.12699999809E+01 0. -1.
       -4    1    3    3    0  502 -0.77143604694E+03  0.56712672635E+03  0.12771796848E+04  0.15962255037E+04  0.12699999809E+01 0.  1.
</event>
<event>
 5   0  0.3787698E-05  0.1992137E+04  0.7818609E-02  0.8610306E-01
       -1   -1    0    0    0  501  0.00000000000E+00  0.00000000000E+00  0.96725572284E+03  0.96725572285E+03  0.50400001928E-02 0.  1.
        1   -1    0    0  501    0  0.00000000000E+00  0.00000000000E+00 -0.10257390968E+04  0.10257390969E+04  0.50400001928E-02 0. -1.
    10030    2    1    2    0    0  0.00000000000E+00  0.00000000000E+00 -0.58483374003E+02  0.19929948197E+04  0.19921365531E+04 0.  0.
        4    1    3    3  502    0 -0.45332736859E+03 -0.88288260258E+03  0.55429317525E+02  0.99401278422E+03  0.12699999809E+01 0.  1.
       -4    1    3    3    0  502  0.45332736859E+03  0.88288260258E+03 -0.11391269153E+03  0.99898203549E+03  0.12699999809E+01 0. -1.
</event>
<event>
 5   0  0.2859625E-05  0.2011555E+04  0.7818609E-02  0.8601237E-01
       -4   -1    0    0    0  501  0.00000000000E+00  0.00000000000E+00  0.65949715616E+03  0.65949837898E+03  0.12699999809E+01 0. -1.
        4   -1    0    0  501    0  0.00000000000E+00  0.00000000000E+00 -0.15338751379E+04  0.15338756636E+04  0.12699999809E+01 0.  1.
    10030    2    1    2    0    0  0.00000000000E+00  0.00000000000E+00 -0.87437798172E+03  0.21933740426E+04  0.20115548304E+04 0.  0.
        3    1    3    3  502    0 -0.71483983337E+03  0.30469543808E+03 -0.11334616704E+04  0.13742527663E+04  0.10100000352E+00 0.  1.
       -3    1    3    3    0  502  0.71483983337E+03 -0.30469543808E+03  0.25908368865E+03  0.81912127629E+03  0.10100000352E+00 0. -1.
</event>
<event>
 5   0  0.3549426E-05  0.1963343E+04  0.7818609E-02  0.8623954E-01
        1   -1    0    0  501    0  0.00000000000E+00  0.00000000000E+00  0.17621694508E+04  0.17621694508E+04  0.50400001928E-02 0. -1.
       -1   -1    0    0    0  501  0.00000000000E+00  0.00000000000E+00 -0.54687047552E+03  0.54687047554E+03  0.50400001928E-02 0.  1.
    10030    2    1    2    0    0  0.00000000000E+00  0.00000000000E+00  0.12152989753E+04  0.23090399263E+04  0.19633425025E+04 0.  0.
        5    1    3    3  502    0  0.47348963321E+03 -0.29054907072E+03 -0.34420595022E+03  0.65353731448E+03  0.46999998093E+01 0.  1.
       -5    1    3    3    0  502 -0.47348963321E+03  0.29054907072E+03  0.15595049255E+04  0.16555026119E+04  0.46999998093E+01 0. -1.
</event>
<event>
 5   0  0.3772949E-05  0.1999614E+04  0.7818609E-02  0.8606801E-01
       -1   -1    0    0    0  501  0.00000000000E+00  0.00000000000E+00  0.13551555949E+04  0.13551555949E+04  0.50400001928E-02 0. -1.
        1   -1    0    0  501    0  0.00000000000E+00  0.00000000000E+00 -0.73763753673E+03  0.73763753675E+03  0.50400001928E-02 0.  1.
    10030    2    1    2    0    0  0.00000000000E+00  0.00000000000E+00  0.61751805817E+03  0.20927931317E+04  0.19996135976E+04 0.  0.
        2    1    3    3  502    0 -0.22268488182E+03  0.91671213129E+03 -0.37827880672E+02  0.94412956569E+03  0.25500000920E-02 0. -1.
       -2    1    3    3    0  502  0.22268488182E+03 -0.91671213129E+03  0.65534593885E+03  0.11486635660E+04  0.25500000920E-02 0.  1.
</event>
<event>
 5   0  0.3970042E-05  0.1994271E+04  0.7818609E-02  0.8609304E-01
       -1   -1    0    0    0  501  0.00000000000E+00  0.00000000000E+00  0.63923663405E+03  0.63923663407E+03  0.50400001928E-02 0. -1.
        1   -1    0    0  501    0  0.00000000000E+00  0.00000000000E+00 -0.15554163607E+04  0.15554163607E+04  0.50400001928E-02 0.  1.
    10030    2    1    2    0    0  0.00000000000E+00  0.00000000000E+00 -0.91617972666E+03  0.21946529948E+04  0.19942709134E+04 0.  0.
        3    1    3    3  502    0 -0.51500179638E+02 -0.56811612199E+02 -0.15521669365E+04  0.15540598563E+04  0.10100000352E+00 0.  1.
       -3    1    3    3    0  502  0.51500179638E+02  0.56811612199E+02  0.63598720988E+03  0.64059313852E+03  0.10100000352E+00 0. -1.
</event>
<event>
 5   0  0.3549426E-05  0.2009121E+04  0.7818609E-02  0.8602368E-01
       -1   -1    0    0    0  501  0.00000000000E+00  0.00000000000E+00  0.57986914948E+03  0.57986914950E+03  0.50400001928E-02 0. -1.
        1   -1    0    0  501    0  0.00000000000E+00  0.00000000000E+00 -0.17402929936E+04  0.17402929936E+04  0.50400001928E-02 0.  1.
    10030    2    1    2    0    0  0.00000000000E+00  0.00000000000E+00 -0.11604238441E+04  0.23201621431E+04  0.20091214180E+04 0.  0.
        5    1    3    3  502    0 -0.81291377743E+03  0.11330353957E+03  0.88637565321E+02  0.82555751441E+03  0.46999998093E+01 0. -1.
       -5    1    3    3    0  502  0.81291377743E+03 -0.11330353957E+03 -0.12490614094E+04  0.14946046287E+04  0.46999998093E+01 0.  1.
</event>
<event>
 5   0  0.3549426E-05  0.2020865E+04  0.7818609E-02  0.8596927E-01
        1   -1    0    0  501    0  0.00000000000E+00  0.00000000000E+00  0.13256029377E+04  0.13256029377E+04  0.50400001928E-02 0. -1.
       -1   -1    0    0    0  501  0.00000000000E+00  0.00000000000E+00 -0.77019558101E+03  0.77019558102E+03  0.50400001928E-02 0.  1.
    10030    2    1    2    0    0  0.00000000000E+00  0.00000000000E+00  0.55540735670E+03  0.20957985187E+04  0.20208646910E+04 0.  0.
        5    1    3    3  502    0 -0.18116024805E+03 -0.31200994882E+03 -0.70110555194E+03  0.78850512275E+03  0.46999998093E+01 0.  1.
       -5    1    3    3    0  502  0.18116024805E+03  0.31200994882E+03  0.12565129086E+04  0.13072933960E+04  0.46999998093E+01 0. -1.
</event>
<event>
 5   0  0.3549426E-05  0.2003765E+04  0.7818609E-02  0.8604863E-01
        1   -1    0    0  501    0  0.00000000000E+00  0.00000000000E+00  0.13520685707E+04  0.13520685707E+04  0.50400001928E-02 0. -1.
       -1   -1    0    0    0  501  0.00000000000E+00  0.00000000000E+00 -0.74239438291E+03  0.74239438293E+03  0.50400001928E-02 0.  1.
    10030    2    1    2    0    0  0.00000000000E+00  0.00000000000E+00  0.60967418776E+03  0.20944629536E+04  0.20037645692E+04 0.  0.
        5    1    3    3  502    0 -0.95016362293E+03  0.24909552291E+03  0.51095968749E+03  0.11072314040E+04  0.46999998093E+01 0.  1.
       -5    1    3    3    0  502  0.95016362293E+03 -0.24909552291E+03  0.98714500269E+02  0.98723154956E+03  0.46999998093E+01 0. -1.
</event>
<event>
 5   0  0.7857136E-05  0.1994953E+04  0.7818609E-02  0.8608984E-01
        2   -1    0    0  501    0  0.00000000000E+00  0.00000000000E+00  0.10992876413E+04  0.10992876413E+04  0.25500000920E-02 0. -1.
       -2   -1    0    0    0  501  0.00000000000E+00  0.00000000000E+00 -0.90509474976E+03  0.90509474976E+03  0.25500000920E-02 0.  1.
    10030    2    1    2    0    0  0.00000000000E+00  0.00000000000E+00  0.19419289151E+03  0.20043823910E+04  0.19949531048E+04 0.  0.
        4    1    3    3  502    0 -0.79994847221E+02  0.64094702908E+03 -0.66659197729E+03  0.92820188901E+03  0.12699999809E+01 0.  1.
       -4    1    3    3    0  502  0.79994847221E+02 -0.64094702908E+03  0.86078486880E+03  0.10761805020E+04  0.12699999809E+01 0. -1.
</event>
<event>
 5   0  0.3787698E-05  0.1983661E+04  0.7818609E-02  0.8614298E-01
       -1   -1    0    0    0  501  0.00000000000E+00  0.00000000000E+00  0.39841133556E+03  0.39841133559E+03  0.50400001928E-02 0.  1.
        1   -1    0    0  501    0  0.00000000000E+00  0.00000000000E+00 -0.24691263803E+04  0.24691263803E+04  0.50400001928E-02 0. -1.
    10030    2    1    2    0    0  0.00000000000E+00  0.00000000000E+00 -0.20707150447E+04  0.28675377159E+04  0.19836611998E+04 0.  0.
        4    1    3    3  502    0  0.35721808147E+03 -0.91215290465E+03 -0.12597653327E+04  0.15958189075E+04  0.12699999809E+01 0. -1.
       -4    1    3    3    0  502 -0.35721808147E+03  0.91215290465E+03 -0.81094971195E+03  0.12717188083E+04  0.12699999809E+01 0.  1.
</event>
<event>
 5   0  0.7935008E-05  0.2001421E+04  0.7818609E-02  0.8605957E-01
       -2   -1    0    0    0  501  0.00000000000E+00  0.00000000000E+00  0.80500585470E+03  0.80500585470E+03  0.25500000920E-02 0. -1.
        2   -1    0    0  501    0  0.00000000000E+00  0.00000000000E+00 -0.12439922041E+04  0.12439922041E+04  0.25500000920E-02 0.  1.
    10030    2    1    2    0    0  0.00000000000E+00  0.00000000000E+00 -0.43898634938E+03  0.20489980588E+04  0.20014205030E+04 0.  0.
        3    1    3    3  502    0 -0.31679164343E+03 -0.43985294829E+01  0.75230565534E+03  0.81629657703E+03  0.10100000352E+00 0. -1.
       -3    1    3    3    0  502  0.31679164343E+03  0.43985294829E+01 -0.11912920047E+04  0.12327014818E+04  0.10100000352E+00 0.  1.
</event>
<event>
 5   0  0.8022574E-05  0.1982779E+04  0.7818609E-02  0.8614715E-01
        2   -1    0    0  501    0  0.00000000000E+00  0.00000000000E+00  0.12557394148E+04  0.12557394148E+04  0.25500000920E-02 0.  1.
       -2   -1    0    0    0  501  0.00000000000E+00  0.00000000000E+00 -0.78268852611E+03  0.78268852612E+03  0.25500000920E-02 0. -1.
    10030    2    1    2    0    0  0.00000000000E+00  0.00000000000E+00  0.47305088874E+03  0.20384279410E+04  0.19827786884E+04 0.  0.
        1    1    3    3  502    0 -0.23088124169E+03 -0.58536869368E+02  0.12258864307E+04  0.12488115366E+04  0.50400001928E-02 0.  1.
       -1    1    3    3    0  502  0.23088124169E+03  0.58536869368E+02 -0.75283554196E+03  0.78961640441E+03  0.50400001928E-02 0. -1.
</event>
<event>
 5   0  0.3787698E-05  0.2005494E+04  0.7818609E-02  0.8604056E-01
       -1   -1    0    0    0  501  0.00000000000E+00  0.00000000000E+00  0.59548434296E+03  0.59548434298E+03  0.50400001928E-02 0. -1.
        1   -1    0    0  501    0  0.00000000000E+00  0.00000000000E+00 -0.16885439405E+04  0.16885439405E+04  0.50400001928E-02 0.  1.
    10030    2    1    2    0    0  0.00000000000E+00  0.00000000000E+00 -0.10930595975E+04  0.22840282835E+04  0.20054939332E+04 0.  0.
        4    1    3    3  502    0 -0.35658236099E+03  0.93088397989E+03 -0.42279469678E+03  0.10827986575E+04  0.12699999809E+01 0.  1.
       -4    1    3    3    0  502  0.35658236099E+03 -0.93088397989E+03 -0.67026490075E+03  0.12012296260E+04  0.12699999809E+01 0. -1.
</event>
<event>
 5   0  0.8022574E-05  0.2003913E+04  0.7818609E-02  0.8604793E-01
        2   -1    0    0  501    0  0.00000000000E+00  0.00000000000E+00  0.10824694949E+04  0.10824694949E+04  0.25500000920E-02 0. -1.
       -2   -1    0    0    0  501  0.00000000000E+00  0.00000000000E+00 -0.92743238141E+03  0.92743238141E+03  0.25500000920E-02 0.  1.
    10030    2    1    2    0    0  0.00000000000E+00  0.00000000000E+00  0.15503711347E+03  0.20099018763E+04  0.20039134327E+04 0.  0.
        1    1    3    3  502    0  0.97112222353E+03 -0.50672270922E+02  0.31963423595E+03  0.10236269325E+04  0.50400001928E-02 0. -1.
       -1    1    3    3    0  502 -0.97112222353E+03  0.50672270922E+02 -0.16459712247E+03  0.98627494383E+03  0.50400001928E-02 0.  1.
</event>
<event>
 5   0  0.8022574E-05  0.2001080E+04  0.7818609E-02  0.8606116E-01
        2   -1    0    0  501    0  0.00000000000E+00  0.00000000000E+00  0.11006452607E+04  0.11006452607E+04  0.25500000920E-02 0.  1.
       -2   -1    0    0    0  501  0.00000000000E+00  0.00000000000E+00 -0.90953970889E+03  0.90953970889E+03  0.25500000920E-02 0. -1.
    10030    2    1    2    0    0  0.00000000000E+00  0.00000000000E+00  0.19110555177E+03  0.20101849696E+04  0.20010802782E+04 0.  0.
        1    1    3    3  502    0 -0.15316323969E+03  0.25093526042E+03  0.10562791470E+04  0.10964274346E+04  0.50400001928E-02 0.  1.
       -1    1    3    3    0  502  0.15316323969E+03 -0.25093526042E+03 -0.86517359519E+03  0.91375753500E+03  0.50400001928E-02 0. -1.
</event>
<event>
 5   0  0.3772949E-05  0.2003627E+04  0.7818609E-02  0.8604927E-01
       -1   -1    0    0    0  501  0.00000000000E+00  0.00000000000E+00  0.85297208942E+03  0.85297208943E+03  0.50400001928E-02 0. -1.
        1   -1    0    0  501    0  0.00000000000E+00  0.00000000000E+00 -0.11766278789E+04  0.11766278789E+04  0.50400001928E-02 0.  1.
    10030    2    1    2    0    0  0.00000000000E+00  0.00000000000E+00 -0.32365578947E+03  0.20295999683E+04  0.20036274508E+04 0.  0.
        2    1    3    3  502    0  0.99429086232E+03 -0.92980852004E+02 -0.80974793154E+02  0.10019065200E+04  0.25500000920E-02 0.  1.
       -2    1    3    3    0  502 -0.99429086232E+03  0.92980852004E+02 -0.24268099632E+03  0.10276934483E+04  0.25500000920E-02 0. -1.
</event>
<event>
 5   0  0.8022574E-05  0.1992512E+04  0.7818609E-02  0.8610129E-01
        2   -1    0    0  501    0  0.00000000000E+00  0.00000000000E+00  0.11217272425E+04  0.11217272425E+04  0.25500000920E-02 0. -1.
       -2   -1    0    0    0  501  0.00000000000E+00  0.00000000000E+00 -0.88481977423E+03  0.88481977423E+03  0.25500000920E-02 0.  1.
    10030    2    1    2    0    0  0.00000000000E+00  0.00000000000E+00  0.23690746823E+03  0.20065470167E+04  0.19925124295E+04 0.  0.
        1    1    3    3  502    0  0.51152167603E+03  0.78908420147E+03  0.44973611636E+03  0.10423871049E+04  0.50400001928E-02 0.  1.
       -1    1    3    3    0  502 -0.51152167603E+03 -0.78908420147E+03 -0.21282864812E+03  0.96415991181E+03  0.50400001928E-02 0. -1.
</event>
<event>
 5   0  0.3787698E-05  0.2003566E+04  0.7818609E-02  0.8604955E-01
       -1   -1    0    0    0  501  0.00000000000E+00  0.00000000000E+00  0.10513105715E+04  0.10513105715E+04  0.50400001928E-02 0.  1.
        1   -1    0    0  501    0  0.00000000000E+00  0.00000000000E+00 -0.95458889554E+03  0.95458889555E+03  0.50400001928E-02 0. -1.
    10030    2    1    2    0    0  0.00000000000E+00  0.00000000000E+00  0.96721675997E+02  0.20058994671E+04  0.20035662179E+04 0.  0.
        4    1    3    3  502    0  0.60112719810E+03 -0.65576359095E+03  0.50953594895E+03  0.10251869545E+04  0.12699999809E+01 0.  1.
       -4    1    3    3    0  502 -0.60112719810E+03  0.65576359095E+03 -0.41281427295E+03  0.98071251260E+03  0.12699999809E+01 0. -1.
</event>
<event>
 5   0  0.3772949E-05  0.1991163E+04  0.7818609E-02  0.8610763E-01
       -1   -1    0    0    0  501  0.00000000000E+00  0.00000000000E+00  0.67082923196E+03  0.67082923198E+03  0.50400001928E-02 0.  1.
        1   -1    0    0  501    0  0.00000000000E+00  0.00000000000E+00 -0.14775484397E+04  0.14775484397E+04  0.50400001928E-02 0. -1.
    10030    2    1    2    0    0  0.00000000000E+00  0.00000000000E+00 -0.80671920776E+03  0.21483776717E+04  0.19911631626E+04 0.  0.
        2    1    3    3  502    0 -0.44726293989E+03 -0.13580892967E+03 -0.13517948533E+04  0.14303277695E+04  0.25500000920E-02 0. -1.
       -2    1    3    3    0  502  0.44726293989E+03  0.13580892967E+03  0.54507564551E+03  0.71804990225E+03  0.25500000920E-02 0.  1.
</event>
<event>
 5   0  0.3787698E-05  0.2041132E+04  0.7818609E-02  0.8587628E-01
       -1   -1    0    0    0  501  0.00000000000E+00  0.00000000000E+00  0.96732575772E+03  0.96732575774E+03  0.50400001928E-02 0.  1.
        1   -1    0    0  501    0  0.00000000000E+00  0.00000000000E+00 -0.10767360103E+04  0.10767360104E+04  0.50400001928E-02 0. -1.
    10030    2    1    2    0    0  0.00000000000E+00  0.00000000000E+00 -0.10941025263E+03  0.20440617681E+04  0.20411315265E+04 0.  0.
        4    1    3    3  502    0  0.97274637167E+02 -0.38423749602E+03  0.88709809701E+03  0.97162001575E+03  0.12699999809E+01 0.  1.
       -4    1    3    3    0  502 -0.97274637167E+02  0.38423749602E+03 -0.99650834964E+03  0.10724417523E+04  0.12699999809E+01 0. -1.
</event>
<event>
 5   0  0.8022574E-05  0.2004097E+04  0.7818609E-02  0.8604708E-01
       -2   -1    0    0    0  501  0.00000000000E+00  0.00000000000E+00  0.96280629044E+03  0.96280629045E+03  0.25500000920E-02 0. -1.
        2   -1    0    0  501    0  0.00000000000E+00  0.00000000000E+00 -0.10428899312E+04  0.10428899312E+04  0.25500000920E-02 0.  1.
    10030    2    1    2    0    0  0.00000000000E+00  0.00000000000E+00 -0.80083640711E+02  0.20056962216E+04  0.20040967900E+04 0.  0.
        1    1    3    3  502    0 -0.44330427797E+03  0.51995036014E+03 -0.77358921529E+03  0.10321372651E+04  0.50400001928E-02 0.  1.
       -1    1    3    3    0  502  0.44330427797E+03 -0.51995036014E+03  0.69350557458E+03  0.97355895655E+03  0.50400001928E-02 0. -1.
</event>
<event>
 5   0  0.3818907E-05  0.2017303E+04  0.7818609E-02  0.8598574E-01
       -1   -1    0    0    0  501  0.00000000000E+00  0.00000000000E+00  0.85555152651E+03  0.85555152653E+03  0.50400001928E-02 0.  1.
        1   -1    0    0  501    0  0.00000000000E+00  0.00000000000E+00 -0.11891482179E+04  0.11891482179E+04  0.50400001928E-02 0. -1.
    10030    2    1    2    0    0  0.00000000000E+00  0.00000000000E+00 -0.33359669135E+03  0.20446997444E+04  0.20173027270E+04 0.  0.
        1    1    3    3  502    0 -0.21695205780E+03  0.79133669469E+03  0.42776486764E+03  0.92534574174E+03  0.50400001928E-02 0.  1.
       -1    1    3    3    0  502  0.21695205780E+03 -0.79133669469E+03 -0.76136155900E+03  0.11193540027E+04  0.50400001928E-02 0. -1.
</event>
<event>
 5   0  0.3772949E-05  0.1988624E+04  0.7818609E-02  0.8611958E-01
       -1   -1    0    0    0  501  0.00000000000E+00  0.00000000000E+00  0.12140934603E+04  0.12140934603E+04  0.50400001928E-02 0.  1.
        1   -1    0    0  501    0  0.00000000000E+00  0.00000000000E+00 -0.81431668298E+03  0.81431668299E+03  0.50400001928E-02 0. -1.
    10030    2    1    2    0    0  0.00000000000E+00  0.00000000000E+00  0.39977677735E+03  0.20284101433E+04  0.19886242073E+04 0.  0.
        2    1    3    3  502    0 -0.16265611674E+03  0.27685478530E+03  0.11597526783E+04  0.12033835047E+04  0.25500000920E-02 0.  1.
       -2    1    3    3    0  502  0.16265611674E+03 -0.27685478530E+03 -0.75997590096E+03  0.82502663866E+03  0.25500000920E-02 0. -1.
</event>
<event>
 5   0  0.7843846E-05  0.1815982E+04  0.7818609E-02  0.8697846E-01
        2   -1    0    0  501    0  0.00000000000E+00  0.00000000000E+00  0.66173331319E+03  0.66173331320E+03  0.25500000920E-02 0.  1.
       -2   -1    0    0    0  501  0.00000000000E+00  0.00000000000E+00 -0.12458910227E+04  0.12458910227E+04  0.25500000920E-02 0. -1.
    10030    2    1    2    0    0  0.00000000000E+00  0.00000000000E+00 -0.58415770949E+03  0.19076243359E+04  0.18159819320E+04 0.  0.
        2    1    3    3  502    0  0.22142940448E+03 -0.87168851869E+03 -0.42317975349E+03  0.99395822777E+03  0.25500000920E-02 0. -1.
       -2    1    3    3    0  502 -0.22142940448E+03  0.87168851869E+03 -0.16097795599E+03  0.91366610811E+03  0.25500000920E-02 0.  1.
</event>
<event>
 5   0  0.7843846E-05  0.1941112E+04  0.7818609E-02  0.8634659E-01
        2   -1    0    0  501    0  0.00000000000E+00  0.00000000000E+00  0.10434448928E+04  0.10434448928E+04  0.25500000920E-02 0. -1.
       -2   -1    0    0    0  501  0.00000000000E+00  0.00000000000E+00 -0.90275870527E+03  0.90275870527E+03  0.25500000920E-02 0.  1.
    10030    2    1    2    0    0  0.00000000000E+00  0.00000000000E+00  0.14068618749E+03  0.19462035980E+04  0.19411120116E+04 0.  0.
        2    1    3    3  502    0  0.34461679187E+03  0.59589492225E+03  0.75633617699E+03  0.10226905222E+04  0.25500000920E-02 0. -1.
       -2    1    3    3    0  502 -0.34461679187E+03 -0.59589492225E+03 -0.61564998950E+03  0.92351307581E+03  0.25500000920E-02 0.  1.
</event>
<event>
 5   0  0.8011197E-05  0.2013201E+04  0.7818609E-02  0.8600474E-01
       -2   -1    0    0    0  501  0.00000000000E+00  0.00000000000E+00  0.75422304246E+03  0.75422304246E+03  0.25500000920E-02 0. -1.
        2   -1    0    0  501    0  0.00000000000E+00  0.00000000000E+00 -0.13434276616E+04  0.13434276616E+04  0.25500000920E-02 0.  1.
    10030    2    1    2    0    0  0.00000000000E+00  0.00000000000E+00 -0.58920461915E+03  0.20976507041E+04  0.20132005347E+04 0.  0.
        5    1    3    3  502    0  0.61825288093E+03  0.26511340672E+03 -0.10748123157E+04  0.12679768717E+04  0.46999998093E+01 0.  1.
       -5    1    3    3    0  502 -0.61825288093E+03 -0.26511340672E+03  0.48560769654E+03  0.82967383238E+03  0.46999998093E+01 0. -1.
</event>
<event>
 5   0  0.8022574E-05  0.2028364E+04  0.7818609E-02  0.8593473E-01
        2   -1    0    0  501    0  0.00000000000E+00  0.00000000000E+00  0.19329109060E+04  0.19329109060E+04  0.25500000920E-02 0. -1.
       -2   -1    0    0    0  501  0.00000000000E+00  0.00000000000E+00 -0.53213281031E+03  0.53213281032E+03  0.25500000920E-02 0.  1.
    10030    2    1    2    0    0  0.00000000000E+00  0.00000000000E+00  0.14007780957E+04  0.24650437163E+04  0.20283641808E+04 0.  0.
        1    1    3    3  502    0  0.45114882877E+03 -0.28381921749E+02  0.18037089605E+04  0.18594910092E+04  0.50400001928E-02 0. -1.
       -1    1    3    3    0  502 -0.45114882877E+03  0.28381921749E+02 -0.40293086483E+03  0.60555270707E+03  0.50400001928E-02 0.  1.
</event>
<event>
 5   0  0.3970042E-05  0.2014171E+04  0.7818609E-02  0.8600024E-01
        1   -1    0    0  501    0  0.00000000000E+00  0.00000000000E+00  0.22067461769E+04  0.22067461769E+04  0.50400001928E-02 0.  1.
       -1   -1    0    0    0  501  0.00000000000E+00  0.00000000000E+00 -0.45960007927E+03  0.45960007930E+03  0.50400001928E-02 0. -1.
    10030    2    1    2    0    0  0.00000000000E+00  0.00000000000E+00  0.17471460976E+04  0.26663462562E+04  0.20141705170E+04 0.  0.
        3    1    3    3  502    0 -0.14767558927E+03 -0.81250390516E+03  0.11052334488E+03  0.83317830956E+03  0.10100000352E+00 0. -1.
       -3    1    3    3    0  502  0.14767558927E+03  0.81250390516E+03  0.16366227527E+04  0.18331679466E+04  0.10100000352E+00 0.  1.
</event>
<event>
 5   0  0.7857136E-05  0.2003704E+04  0.7818609E-02  0.8604891E-01
       -2   -1    0    0    0  501  0.00000000000E+00  0.00000000000E+00  0.68277831920E+03  0.68277831921E+03  0.25500000920E-02 0. -1.
        2   -1    0    0  501    0  0.00000000000E+00  0.00000000000E+00 -0.14700335054E+04  0.14700335054E+04  0.25500000920E-02 0.  1.
    10030    2    1    2    0    0  0.00000000000E+00  0.00000000000E+00 -0.78725518624E+03  0.21528118247E+04  0.20037035769E+04 0.  0.
        4    1    3    3  502    0 -0.43750712382E+02 -0.93543926919E+02 -0.14642988487E+04  0.14679364163E+04  0.12699999809E+01 0.  1.
       -4    1    3    3    0  502  0.43750712382E+02  0.93543926919E+02  0.67704366249E+03  0.68487540832E+03  0.12699999809E+01 0. -1.
</event>
<event>
 5   0  0.8011197E-05  0.1988096E+04  0.7818609E-02  0.8612207E-01
       -2   -1    0    0    0  501  0.00000000000E+00  0.00000000000E+00  0.98475918920E+03  0.98475918920E+03  0.25500000920E-02 0.  1.
        2   -1    0    0  501    0  0.00000000000E+00  0.00000000000E+00 -0.10034243027E+04  0.10034243027E+04  0.25500000920E-02 0. -1.
    10030    2    1    2    0    0  0.00000000000E+00  0.00000000000E+00 -0.18665113467E+02  0.19881834919E+04  0.19880958757E+04 0.  0.
        5    1    3    3  502    0  0.45502065419E+03  0.60578845859E+03  0.63419075992E+03  0.98805033388E+03  0.46999998093E+01 0.  1.
       -5    1    3    3    0  502 -0.45502065419E+03 -0.60578845859E+03 -0.65285587339E+03  0.10001331580E+04  0.46999998093E+01 0. -1.
</event>
<event>
 5   0  0.8022574E-05  0.2005176E+04  0.7818609E-02  0.8604204E-01
       -2   -1    0    0    0  501  0.00000000000E+00  0.00000000000E+00  0.12950307242E+04  0.12950307242E+04  0.25500000920E-02 0. -1.
        2   -1    0    0  501    0  0.00000000000E+00  0.00000000000E+00 -0.77618455428E+03  0.77618455428E+03  0.25500000920E-02 0.  1.
    10030    2    1    2    0    0  0.00000000000E+00  0.00000000000E+00  0.51884616990E+03  0.20712152785E+04  0.20051761473E+04 0.  0.
        1    1    3    3  502    0 -0.35255965662E+03  0.71727692257E+03  0.88466698880E+03  0.11922332726E+04  0.50400001928E-02 0. -1.
       -1    1    3    3    0  502  0.35255965662E+03 -0.71727692257E+03 -0.36582081890E+03  0.87898200589E+03  0.50400001928E-02 0.  1.
</event>
<event>
 5   0  0.3818907E-05  0.1998272E+04  0.7818609E-02  0.8607429E-01
       -1   -1    0    0    0  501  0.00000000000E+00  0.00000000000E+00  0.60102753698E+03  0.60102753700E+03  0.50400001928E-02 0.  1.
        1   -1    0    0  501    0  0.00000000000E+00  0.00000000000E+00 -0.16609433545E+04  0.16609433545E+04  0.50400001928E-02 0. -1.
    10030    2    1    2    0    0  0.00000000000E+00  0.00000000000E+00 -0.10599158176E+04  0.22619708915E+04  0.19982719469E+04 0.  0.
        1    1    3    3  502    0  0.61682528548E+03 -0.64977756970E+03 -0.10305729968E+04  0.13655639951E+04  0.50400001928E-02 0. -1.
       -1    1    3    3    0  502 -0.61682528548E+03  0.64977756970E+03 -0.29342820773E+02  0.89640689647E+03  0.50400001928E-02 0.  1.
</event>
<event>
 5   0  0.2859625E-05  0.1989943E+04  0.7818609E-02  0.8611337E-01
       -4   -1    0    0    0  501  0.00000000000E+00  0.00000000000E+00  0.76100938232E+03  0.76101044203E+03  0.12699999809E+01 0.  1.
        4   -1    0    0  501    0  0.00000000000E+00  0.00000000000E+00 -0.13008593533E+04  0.13008599733E+04  0.12699999809E+01 0. -1.
    10030    2    1    2    0    0  0.00000000000E+00  0.00000000000E+00 -0.53984997103E+03  0.20618704153E+04  0.19899426168E+04 0.  0.
        3    1    3    3  502    0 -0.29323255634E+03  0.38917268922E+03  0.62891401788E+03  0.79559635885E+03  0.10100000352E+00 0.  1.
       -3    1    3    3    0  502  0.29323255634E+03 -0.38917268922E+03 -0.11687639889E+04  0.12662740565E+04  0.10100000352E+00 0. -1.
</event>
<event>
 5   0  0.3772949E-05  0.2001730E+04  0.7818609E-02  0.8605812E-01
        1   -1    0    0  501    0  0.00000000000E+00  0.00000000000E+00  0.22507542486E+04  0.22507542486E+04  0.50400001928E-02 0.  1.
       -1   -1    0    0    0  501  0.00000000000E+00  0.00000000000E+00 -0.44506438194E+03  0.44506438197E+03  0.50400001928E-02 0. -1.
    10030    2    1    2    0    0  0.00000000000E+00  0.00000000000E+00  0.18056898667E+04  0.26958186306E+04  0.20017298006E+04 0.  0.
        2    1    3    3  502    0  0.13299718645E+03 -0.62895579462E+03 -0.13025550879E+03  0.65592693249E+03  0.25500000920E-02 0. -1.
       -2    1    3    3    0  502 -0.13299718645E+03  0.62895579462E+03  0.19359453754E+04  0.20398916981E+04  0.25500000920E-02 0.  1.
</event>
<event>
 5   0  0.7843846E-05  0.1985370E+04  0.7818609E-02  0.8613492E-01
       -2   -1    0    0    0  501  0.00000000000E+00  0.00000000000E+00  0.77700656327E+03  0.77700656327E+03  0.25500000920E-02 0. -1.
        2   -1    0    0  501    0  0.00000000000E+00  0.00000000000E+00 -0.12682301261E+04  0.12682301261E+04  0.25500000920E-02 0.  1.
    10030    2    1    2    0    0  0.00000000000E+00  0.00000000000E+00 -0.49122356280E+03  0.20452366893E+04  0.19853696197E+04 0.  0.
        2    1    3    3  502    0  0.31238374398E+03 -0.68224900511E+02 -0.12137291648E+04  0.12551401221E+04  0.25500000920E-02 0.  1.
       -2    1    3    3    0  502 -0.31238374398E+03  0.68224900511E+02  0.72250560204E+03  0.79009656723E+03  0.25500000920E-02 0. -1.
</event>
<event>
 5   0  0.7857136E-05  0.2003997E+04  0.7818609E-02  0.8604754E-01
       -2   -1    0    0    0  501  0.00000000000E+00  0.00000000000E+00  0.70543687334E+03  0.70543687334E+03  0.25500000920E-02 0.  1.
        2   -1    0    0  501    0  0.00000000000E+00  0.00000000000E+00 -0.14232329831E+04  0.14232329831E+04  0.25500000920E-02 0. -1.
    10030    2    1    2    0    0  0.00000000000E+00  0.00000000000E+00 -0.71779610977E+03  0.21286698564E+04  0.20039970316E+04 0.  0.
        4    1    3    3  502    0  0.39172560193E+03  0.74755091878E+03 -0.93260871106E+03  0.12577924885E+04  0.12699999809E+01 0. -1.
       -4    1    3    3    0  502 -0.39172560193E+03 -0.74755091878E+03  0.21481260129E+03  0.87087736791E+03  0.12699999809E+01 0.  1.
</event>
<event>
 5   0  0.8011197E-05  0.2012033E+04  0.7818609E-02  0.8601015E-01
       -2   -1    0    0    0  501  0.00000000000E+00  0.00000000000E+00  0.10242851352E+04  0.10242851352E+04  0.25500000920E-02 0. -1.
        2   -1    0    0  501    0  0.00000000000E+00  0.00000000000E+00 -0.98807394616E+03  0.98807394617E+03  0.25500000920E-02 0.  1.
    10030    2    1    2    0    0  0.00000000000E+00  0.00000000000E+00  0.36211189056E+02  0.20123590814E+04  0.20120332558E+04 0.  0.
        5    1    3    3  502    0  0.51205559159E+03  0.49734465002E+03  0.72708901848E+03  0.10189372702E+04  0.46999998093E+01 0. -1.
       -5    1    3    3    0  502 -0.51205559159E+03 -0.49734465002E+03 -0.69087782943E+03  0.99342181120E+03  0.46999998093E+01 0.  1.
</event>
<event>
 5   0  0.3787698E-05  0.1977093E+04  0.7818609E-02  0.8617406E-01
        1   -1    0    0  501    0  0.00000000000E+00  0.00000000000E+00  0.12884458326E+04  0.12884458326E+04  0.50400001928E-02 0.  1.
       -1   -1    0    0    0  501  0.00000000000E+00  0.00000000000E+00 -0.75845190168E+03  0.75845190170E+03  0.50400001928E-02 0. -1.
    10030    2    1    2    0    0  0.00000000000E+00  0.00000000000E+00  0.52999393093E+03  0.20468977343E+04  0.19770930094E+04 0.  0.
        4    1    3    3  502    0 -0.44814663998E+03 -0.45228884709E+03 -0.51789072084E+03  0.82073931535E+03  0.12699999809E+01 0. -1.
       -4    1    3    3    0  502  0.44814663998E+03  0.45228884709E+03  0.10478846518E+04  0.12261584190E+04  0.12699999809E+01 0.  1.
</event>
<event>
 5   0  0.3787698E-05  0.1999614E+04  0.7818609E-02  0.8606801E-01
        1   -1    0    0  501    0  0.00000000000E+00  0.00000000000E+00  0.12902996818E+04  0.12902996818E+04  0.50400001928E-02 0.  1.
       -1   -1    0    0    0  501  0.00000000000E+00  0.00000000000E+00 -0.77471462530E+03  0.77471462532E+03  0.50400001928E-02 0. -1.
    10030    2    1    2    0    0  0.00000000000E+00  0.00000000000E+00  0.51558505648E+03  0.20650143071E+04  0.19996139973E+04 0.  0.
        4    1    3    3  502    0  0.18958513879E+03 -0.52223386606E+03 -0.60062305791E+03  0.81818115739E+03  0.12699999809E+01 0. -1.
       -4    1    3    3    0  502 -0.18958513879E+03  0.52223386606E+03  0.11162081144E+04  0.12468331497E+04  0.12699999809E+01 0.  1.
</event>
<event>
 5   0  0.7843846E-05  0.1991352E+04  0.7818609E-02  0.8610675E-01
        2   -1    0    0  501    0  0.00000000000E+00  0.00000000000E+00  0.11822536147E+04  0.11822536147E+04  0.25500000920E-02 0. -1.
       -2   -1    0    0    0  501  0.00000000000E+00  0.00000000000E+00 -0.83854315545E+03  0.83854315545E+03  0.25500000920E-02 0.  1.
    10030    2    1    2    0    0  0.00000000000E+00  0.00000000000E+00  0.34371045927E+03  0.20207967702E+04  0.19913519796E+04 0.  0.
        2    1    3    3  502    0  0.58772791794E+03 -0.16210225407E+03 -0.62697528269E+03  0.87452801636E+03  0.25500000920E-02 0.  1.
       -2    1    3    3    0  502 -0.58772791794E+03  0.16210225407E+03  0.97068574195E+03  0.11462687538E+04  0.25500000920E-02 0. -1.
</event>
<event>
 5   0  0.8022574E-05  0.1925866E+04  0.7818609E-02  0.8642087E-01
        2   -1    0    0  501    0  0.00000000000E+00  0.00000000000E+00  0.12204074487E+04  0.12204074487E+04  0.25500000920E-02 0.  1.
       -2   -1    0    0    0  501  0.00000000000E+00  0.00000000000E+00 -0.75977895507E+03  0.75977895508E+03  0.25500000920E-02 0. -1.
    10030    2    1    2    0    0  0.00000000000E+00  0.00000000000E+00  0.46062849367E+03  0.19801864038E+04  0.19258659311E+04 0.  0.
        1    1    3    3  502    0  0.64580269209E+03  0.16580368592E+03 -0.48403935260E+03  0.82392115779E+03  0.50400001928E-02 0. -1.
       -1    1    3    3    0  502 -0.64580269209E+03 -0.16580368592E+03  0.94466784627E+03  0.11562652460E+04  0.50400001928E-02 0.  1.
</event>
<event>
 5   0  0.8022574E-05  0.2013158E+04  0.7818609E-02  0.8600494E-01
        2   -1    0    0  501    0  0.00000000000E+00  0.00000000000E+00  0.17101599067E+04  0.17101599067E+04  0.25500000920E-02 0. -1.
       -2   -1    0    0    0  501  0.00000000000E+00  0.00000000000E+00 -0.59245981330E+03  0.59245981331E+03  0.25500000920E-02 0.  1.
    10030    2    1    2    0    0  0.00000000000E+00  0.00000000000E+00  0.11177000934E+04  0.23026197200E+04  0.20131577375E+04 0.  0.
        1    1    3    3  502    0 -0.18647552085E+03 -0.14398033057E+03 -0.56048114557E+03  0.60798237641E+03  0.50400001928E-02 0.  1.
       -1    1    3    3    0  502  0.18647552085E+03  0.14398033057E+03  0.16781812390E+04  0.16946373436E+04  0.50400001928E-02 0. -1.
</event>
<event>
 5   0  0.3772949E-05  0.1989404E+04  0.7818609E-02  0.8611591E-01
       -1   -1    0    0    0  501  0.00000000000E+00  0.00000000000E+00  0.10006875354E+04  0.10006875354E+04  0.50400001928E-02 0.  1.
        1   -1    0    0  501    0  0.00000000000E+00  0.00000000000E+00 -0.98875267821E+03  0.98875267823E+03  0.50400001928E-02 0. -1.
    10030    2    1    2    0    0  0.00000000000E+00  0.00000000000E+00  0.11934857186E+02  0.19894402136E+04  0.19894044141E+04 0.  0.
        2    1    3    3  502    0 -0.56288483125E+03 -0.25121281432E+03 -0.77474199563E+03  0.99003655040E+03  0.25500000920E-02 0. -1.
       -2    1    3    3    0  502  0.56288483125E+03  0.25121281432E+03  0.78667685282E+03  0.99940366324E+03  0.25500000920E-02 0.  1.
</event>
<event>
 5   0  0.8011197E-05  0.1994891E+04  0.7818609E-02  0.8609013E-01
       -2   -1    0    0    0  501  0.00000000000E+00  0.00000000000E+00  0.64687938323E+03  0.64687938323E+03  0.25500000920E-02 0. -1.
        2   -1    0    0  501    0  0.00000000000E+00  0.00000000000E+00 -0.15379958067E+04  0.15379958067E+04  0.25500000920E-02 0.  1.
    10030    2    1    2    0    0  0.00000000000E+00  0.00000000000E+00 -0.89111642346E+03  0.21848751899E+04  0.19948912540E+04 0.  0.
        5    1    3    3  502    0  0.83101256298E+03  0.12277600336E+03  0.14345015531E+03  0.85220646787E+03  0.46999998093E+01 0. -1.
       -5    1    3    3    0  502 -0.83101256298E+03 -0.12277600336E+03 -0.10345665788E+04  0.13326687221E+04  0.46999998093E+01 0.  1.
</event>
<event>
 5   0  0.3787698E-05  0.2003069E+04  0.7818609E-02  0.8605187E-01
        1   -1    0    0  501    0  0.00000000000E+00  0.00000000000E+00  0.85071541660E+03  0.85071541661E+03  0.50400001928E-02 0. -1.
       -1   -1    0    0    0  501  0.00000000000E+00  0.00000000000E+00 -0.11790919836E+04  0.11790919836E+04  0.50400001928E-02 0.  1.
    10030    2    1    2    0    0  0.00000000000E+00  0.00000000000E+00 -0.32837656696E+03  0.20298074002E+04  0.20030693728E+04 0.  0.
        4    1    3    3  502    0 -0.12755873952E+03 -0.99321528620E+03 -0.18238003054E+03  0.10178467101E+04  0.12699999809E+01 0.  1.
       -4    1    3    3    0  502  0.12755873952E+03  0.99321528620E+03 -0.14599653642E+03  0.10119606901E+04  0.12699999809E+01 0. -1.
</event>
<event>
 5   0  0.3818907E-05  0.2005221E+04  0.7818609E-02  0.8604184E-01
       -1   -1    0    0    0  501  0.00000000000E+00  0.00000000000E+00  0.83858353991E+03  0.83858353992E+03  0.50400001928E-02 0. -1.
        1   -1    0    0  501    0  0.00000000000E+00  0.00000000000E+00 -0.11987211105E+04  0.11987211105E+04  0.50400001928E-02 0.  1.
    10030    2    1    2    0    0  0.00000000000E+00  0.00000000000E+00 -0.36013757061E+03  0.20373046505E+04  0.20052209776E+04 0.  0.
        1    1    3    3  502    0  0.26786958521E+03  0.30352686615E+03  0.75185592421E+03  0.85391451795E+03  0.50400001928E-02 0. -1.
       -1    1    3    3    0  502 -0.26786958521E+03 -0.30352686615E+03 -0.11119934948E+04  0.11833901325E+04  0.50400001928E-02 0.  1.
</event>
<event>
 5   0  0.3818907E-05  0.1997404E+04  0.7818609E-02  0.8607835E-01
        1   -1    0    0  501    0  0.00000000000E+00  0.00000000000E+00  0.23151453835E+04  0.23151453835E+04  0.50400001928E-02 0.  1.
       -1   -1    0    0    0  501  0.00000000000E+00  0.00000000000E+00 -0.43081761306E+03  0.43081761309E+03  0.50400001928E-02 0. -1.
    10030    2    1    2    0    0  0.00000000000E+00  0.00000000000E+00  0.18843277704E+04  0.27459629966E+04  0.19974037229E+04 0.  0.
        1    1    3    3  502    0  0.34714364036E+03 -0.64937241455E+03  0.14617244524E+02  0.73648279252E+03  0.50400001928E-02 0. -1.
       -1    1    3    3    0  502 -0.34714364036E+03  0.64937241455E+03  0.18697105259E+04  0.20094802040E+04  0.50400001928E-02 0.  1.
</event>
<event>
 5   0  0.3772949E-05  0.1999118E+04  0.7818609E-02  0.8607033E-01
        1   -1    0    0  501    0  0.00000000000E+00  0.00000000000E+00  0.23545443465E+04  0.23545443465E+04  0.50400001928E-02 0. -1.
       -1   -1    0    0    0  501  0.00000000000E+00  0.00000000000E+00 -0.42433613777E+03  0.42433613780E+03  0.50400001928E-02 0.  1.
    10030    2    1    2    0    0  0.00000000000E+00  0.00000000000E+00  0.19302082088E+04  0.27788804843E+04  0.19991180598E+04 0.  0.
        2    1    3    3  502    0  0.37721563556E+03  0.14049852685E+03 -0.30668959326E+03  0.50605333551E+03  0.25500000920E-02 0.  1.
       -2    1    3    3    0  502 -0.37721563556E+03 -0.14049852685E+03  0.22368978020E+04  0.22728271488E+04  0.25500000920E-02 0. -1.
</event>
<event>
 5   0  0.3818907E-05  0.1993267E+04  0.7818609E-02  0.8609775E-01
        1   -1    0    0  501    0  0.00000000000E+00  0.00000000000E+00  0.10514403010E+04  0.10514403011E+04  0.50400001928E-02 0.  1.
       -1   -1    0    0    0  501  0.00000000000E+00  0.00000000000E+00 -0.94468340873E+03  0.94468340874E+03  0.50400001928E-02 0. -1.
    10030    2    1    2    0    0  0.00000000000E+00  0.00000000000E+00  0.10675689231E+03  0.19961237098E+04  0.19932668739E+04 0.  0.
        1    1    3    3  502    0  0.50656928488E+03 -0.51358551454E+03  0.74203816390E+03  0.10348928243E+04  0.50400001928E-02 0.  1.
       -1    1    3    3    0  502 -0.50656928488E+03  0.51358551454E+03 -0.63528127158E+03  0.96123088547E+03  0.50400001928E-02 0. -1.
</event>
<event>
 5   0  0.7935008E-05  0.1986776E+04  0.7818609E-02  0.8612829E-01
       -2   -1    0    0    0  501  0.00000000000E+00  0.00000000000E+00  0.46777828809E+03  0.46777828809E+03  0.25500000920E-02 0.  1.
        2   -1    0    0  501    0  0.00000000000E+00  0.00000000000E+00 -0.21095879340E+04  0.21095879340E+04  0.25500000920E-02 0. -1.
    10030    2    1    2    0    0  0.00000000000E+00  0.00000000000E+00 -0.16418096459E+04  0.25773662221E+04  0.19867757119E+04 0.  0.
        3    1    3    3  502    0 -0.68447168899E+02  0.74615878908E+03 -0.16669948453E+04  0.18276514377E+04  0.10100000352E+00 0. -1.
       -3    1    3    3    0  502  0.68447168899E+02 -0.74615878908E+03  0.25185199357E+02  0.74971478438E+03  0.10100000352E+00 0.  1.
</event>
<event>
 5   0  0.3970042E-05  0.2004984E+04  0.7818609E-02  0.8604294E-01
       -1   -1    0    0    0  501  0.00000000000E+00  0.00000000000E+00  0.10064109091E+04  0.10064109091E+04  0.50400001928E-02 0. -1.
        1   -1    0    0  501    0  0.00000000000E+00  0.00000000000E+00 -0.99858806711E+03  0.99858806712E+03  0.50400001928E-02 0.  1.
    10030    2    1    2    0    0  0.00000000000E+00  0.00000000000E+00  0.78228419958E+01  0.20049989762E+04  0.20049837151E+04 0.  0.
        3    1    3    3  502    0  0.72418971262E+03 -0.33919163705E+03  0.60847222990E+03  0.10048582842E+04  0.10100000352E+00 0. -1.
       -3    1    3    3    0  502 -0.72418971262E+03  0.33919163705E+03 -0.60064938791E+03  0.10001406921E+04  0.10100000352E+00 0.  1.
</event>
<event>
 5   0  0.7857136E-05  0.2017849E+04  0.7818609E-02  0.8598321E-01
        2   -1    0    0  501    0  0.00000000000E+00  0.00000000000E+00  0.11279963155E+04  0.11279963155E+04  0.25500000920E-02 0. -1.
       -2   -1    0    0    0  501  0.00000000000E+00  0.00000000000E+00 -0.90242239777E+03  0.90242239778E+03  0.25500000920E-02 0.  1.
    10030    2    1    2    0    0  0.00000000000E+00  0.00000000000E+00  0.22557391771E+03  0.20304187133E+04  0.20178494886E+04 0.  0.
        4    1    3    3  502    0 -0.13872675315E+03 -0.31534639692E+03 -0.84140207476E+03  0.90920158733E+03  0.12699999809E+01 0.  1.
       -4    1    3    3    0  502  0.13872675315E+03  0.31534639692E+03  0.10669759925E+04  0.11212171259E+04  0.12699999809E+01 0. -1.
</event>
<event>
 5   0  0.7935008E-05  0.1997951E+04  0.7818609E-02  0.8607579E-01
       -2   -1    0    0    0  501  0.00000000000E+00  0.00000000000E+00  0.41484258078E+03  0.41484258079E+03  0.25500000920E-02 0. -1.
        2   -1    0    0  501    0  0.00000000000E+00  0.00000000000E+00 -0.24056161495E+04  0.24056161495E+04  0.25500000920E-02 0.  1.
    10030    2    1    2    0    0  0.00000000000E+00  0.00000000000E+00 -0.19907735687E+04  0.28204587303E+04  0.19979509622E+04 0.  0.
        3    1    3    3  502    0  0.88313002276E+03 -0.67609873731E+01 -0.16544861187E+04  0.18754435943E+04  0.10100000352E+00 0.  1.
       -3    1    3    3    0  502 -0.88313002276E+03  0.67609873731E+01 -0.33628744998E+03  0.94501513600E+03  0.10100000352E+00 0. -1.
</event>
<event>
 5   0  0.7843846E-05  0.1995490E+04  0.7818609E-02  0.8608732E-01
        2   -1    0    0  501    0  0.00000000000E+00  0.00000000000E+00  0.13323943630E+04  0.13323943630E+04  0.25500000920E-02 0. -1.
       -2   -1    0    0    0  501  0.00000000000E+00  0.00000000000E+00 -0.74714774680E+03  0.74714774680E+03  0.25500000920E-02 0.  1.
    10030    2    1    2    0    0  0.00000000000E+00  0.00000000000E+00  0.58524661623E+03  0.20795421098E+04  0.19954903620E+04 0.  0.
        2    1    3    3  502    0 -0.78742922508E+03 -0.33655789758E+03 -0.24097863572E+03  0.88959918267E+03  0.25500000920E-02 0.  1.
       -2    1    3    3    0  502  0.78742922508E+03  0.33655789758E+03  0.82622525195E+03  0.11899429272E+04  0.25500000920E-02 0. -1.
</event>
<event>
 5   0  0.3549426E-05  0.1991303E+04  0.7818609E-02  0.8610698E-01
       -1   -1    0    0    0  501  0.00000000000E+00  0.00000000000E+00  0.65825786879E+03  0.65825786881E+03  0.50400001928E-02 0. -1.
        1   -1    0    0  501    0  0.00000000000E+00  0.00000000000E+00 -0.15059780043E+04  0.15059780043E+04  0.50400001928E-02 0.  1.
    10030    2    1    2    0    0  0.00000000000E+00  0.00000000000E+00 -0.84772013554E+03  0.21642358732E+04  0.19913029620E+04 0.  0.
        5    1    3    3  502    0  0.91371390232E+03 -0.33744766329E+03 -0.19965448033E+03  0.99429775333E+03  0.46999998093E+01 0. -1.
       -5    1    3    3    0  502 -0.91371390232E+03  0.33744766329E+03 -0.64806565521E+03  0.11699381198E+04  0.46999998093E+01 0.  1.
</event>
<event>
 5   0  0.3818907E-05  0.1960465E+04  0.7818609E-02  0.8625331E-01
       -1   -1    0    0    0  501  0.00000000000E+00  0.00000000000E+00  0.70777508774E+03  0.70777508776E+03  0.50400001928E-02 0. -1.
        1   -1    0    0  501    0  0.00000000000E+00  0.00000000000E+00 -0.13575725365E+04  0.13575725365E+04  0.50400001928E-02 0.  1.
    10030    2    1    2    0    0  0.00000000000E+00  0.00000000000E+00 -0.64979744876E+03  0.20653476243E+04  0.19604652725E+04 0.  0.
        1    1    3    3  502    0  0.79465718605E+03  0.25287242517E+03  0.21786429307E+03  0.86191029520E+03  0.50400001928E-02 0. -1.
       -1    1    3    3    0  502 -0.79465718605E+03 -0.25287242517E+03 -0.86766174183E+03  0.12034373291E+04  0.50400001928E-02 0.  1.
</event>
<event>
 5   0  0.7857136E-05  0.2011403E+04  0.7818609E-02  0.8601308E-01
        2   -1    0    0  501    0  0.00000000000E+00  0.00000000000E+00  0.81735608683E+03  0.81735608683E+03  0.25500000920E-02 0.  1.
       -2   -1    0    0    0  501  0.00000000000E+00  0.00000000000E+00 -0.12374479100E+04  0.12374479100E+04  0.25500000920E-02 0. -1.
    10030    2    1    2    0    0  0.00000000000E+00  0.00000000000E+00 -0.42009182320E+03  0.20548039969E+04  0.20114030739E+04 0.  0.
        4    1    3    3  502    0 -0.98167774149E+03 -0.50927686503E+02  0.70222294305E+01  0.98302377488E+03  0.12699999809E+01 0.  1.
       -4    1    3    3    0  502  0.98167774149E+03  0.50927686503E+02 -0.42711405263E+03  0.10717802220E+04  0.12699999809E+01 0. -1.
</event>
<event>
 5   0  0.7857136E-05  0.1978282E+04  0.7818609E-02  0.8616842E-01
       -2   -1    0    0    0  501  0.00000000000E+00  0.00000000000E+00  0.14054712295E+04  0.14054712295E+04  0.25500000920E-02 0.  1.
        2   -1    0    0  501    0  0.00000000000E+00  0.00000000000E+00 -0.69613645028E+03  0.69613645028E+03  0.25500000920E-02 0. -1.
    10030    2    1    2    0    0  0.00000000000E+00  0.00000000000E+00  0.70933477925E+03  0.21016076798E+04  0.19782818330E+04 0.  0.
        4    1    3    3  502    0  0.84382939440E+03  0.38420241104E+03 -0.11398654903E+02  0.92724920153E+03  0.12699999809E+01 0. -1.
       -4    1    3    3    0  502 -0.84382939440E+03 -0.38420241104E+03  0.72073343415E+03  0.11743584783E+04  0.12699999809E+01 0.  1.
</event>
<event>
 5   0  0.8011197E-05  0.1993957E+04  0.7818609E-02  0.8609451E-01
       -2   -1    0    0    0  501  0.00000000000E+00  0.00000000000E+00  0.53885647182E+03  0.53885647183E+03  0.25500000920E-02 0.  1.
        2   -1    0    0  501    0  0.00000000000E+00  0.00000000000E+00 -0.18445843465E+04  0.18445843465E+04  0.25500000920E-02 0. -1.
    10030    2    1    2    0    0  0.00000000000E+00  0.00000000000E+00 -0.13057278747E+04  0.23834408183E+04  0.19939570837E+04 0.  0.
        5    1    3    3  502    0 -0.19994065818E+03 -0.21305498752E+03 -0.17922451650E+04  0.18159112082E+04  0.46999998093E+01 0. -1.
       -5    1    3    3    0  502  0.19994065818E+03  0.21305498752E+03  0.48651729038E+03  0.56752961010E+03  0.46999998093E+01 0.  1.
</event>
<event>
 5   0  0.7935008E-05  0.2000946E+04  0.7818609E-02  0.8606179E-01
       -2   -1    0    0    0  501  0.00000000000E+00  0.00000000000E+00  0.46202086474E+03  0.46202086475E+03  0.25500000920E-02 0. -1.
        2   -1    0    0  501    0  0.00000000000E+00  0.00000000000E+00 -0.21664517055E+04  0.21664517055E+04  0.25500000920E-02 0.  1.
    10030    2    1    2    0    0  0.00000000000E+00  0.00000000000E+00 -0.17044308408E+04  0.26284725703E+04  0.20009456668E+04 0.  0.
        3    1    3    3  502    0  0.32905366706E+03 -0.24982598962E+03  0.34472988477E+03  0.53807810265E+03  0.10100000352E+00 0. -1.
       -3    1    3    3    0  502 -0.32905366706E+03  0.24982598962E+03 -0.20491607256E+04  0.20903944676E+04  0.10100000352E+00 0.  1.
</event>
<event>
 5   0  0.7857136E-05  0.2022709E+04  0.7818609E-02  0.8596077E-01
        2   -1    0    0  501    0  0.00000000000E+00  0.00000000000E+00  0.12566549186E+04  0.12566549186E+04  0.25500000920E-02 0. -1.
       -2   -1    0    0    0  501  0.00000000000E+00  0.00000000000E+00 -0.81393660675E+03  0.81393660675E+03  0.25500000920E-02 0.  1.
    10030    2    1    2    0    0  0.00000000000E+00  0.00000000000E+00  0.44271831185E+03  0.20705915254E+04  0.20227085211E+04 0.  0.
        4    1    3    3  502    0 -0.25219744551E+03 -0.19773503032E+03  0.12033025731E+04  0.12452475212E+04  0.12699999809E+01 0. -1.
       -4    1    3    3    0  502  0.25219744551E+03  0.19773503032E+03 -0.76058426127E+03  0.82534400412E+03  0.12699999809E+01 0.  1.
</event>
<event>
 5   0  0.3549426E-05  0.1996063E+04  0.7818609E-02  0.8608464E-01
        1   -1    0    0  501    0  0.00000000000E+00  0.00000000000E+00  0.72471828899E+03  0.72471828901E+03  0.50400001928E-02 0. -1.
       -1   -1    0    0    0  501  0.00000000000E+00  0.00000000000E+00 -0.13744188581E+04  0.13744188581E+04  0.50400001928E-02 0.  1.
    10030    2    1    2    0    0  0.00000000000E+00  0.00000000000E+00 -0.64970056912E+03  0.20991371471E+04  0.19960626075E+04 0.  0.
        5    1    3    3  502    0 -0.32671934865E+03  0.52762966961E+03 -0.11468161386E+04  0.13039739057E+04  0.46999998093E+01 0.  1.
       -5    1    3    3    0  502  0.32671934865E+03 -0.52762966961E+03  0.49711556950E+03  0.79516324140E+03  0.46999998093E+01 0. -1.
</event>
<event>
 5   0  0.3772949E-05  0.1997183E+04  0.7818609E-02  0.8607939E-01
        1   -1    0    0  501    0  0.00000000000E+00  0.00000000000E+00  0.67289610949E+03  0.67289610951E+03  0.50400001928E-02 0. -1.
       -1   -1    0    0    0  501  0.00000000000E+00  0.00000000000E+00 -0.14819305141E+04  0.14819305141E+04  0.50400001928E-02 0.  1.
    10030    2    1    2    0    0  0.00000000000E+00  0.00000000000E+00 -0.80903440462E+03  0.21548266236E+04  0.19971832941E+04 0.  0.
        2    1    3    3  502    0  0.76076001774E+03 -0.19395823825E+03  0.26128985597E+03  0.82743458449E+03  0.25500000920E-02 0. -1.
       -2    1    3    3    0  502 -0.76076001774E+03  0.19395823825E+03 -0.10703242606E+04  0.13273920391E+04  0.25500000920E-02 0.  1.
</event>
<event>
 5   0  0.7857136E-05  0.2023691E+04  0.7818609E-02  0.8595624E-01
        2   -1    0    0  501    0  0.00000000000E+00  0.00000000000E+00  0.96781118238E+03  0.96781118238E+03  0.25500000920E-02 0. -1.
       -2   -1    0    0    0  501  0.00000000000E+00  0.00000000000E+00 -0.10578831480E+04  0.10578831480E+04  0.25500000920E-02 0.  1.
    10030    2    1    2    0    0  0.00000000000E+00  0.00000000000E+00 -0.90071965582E+02  0.20256943303E+04  0.20236908264E+04 0.  0.
        4    1    3    3  502    0  0.23213466882E+03 -0.25912393090E+01 -0.10308644571E+04  0.10566817690E+04  0.12699999809E+01 0.  1.
       -4    1    3    3    0  502 -0.23213466882E+03  0.25912393090E+01  0.94079249156E+03  0.96901256136E+03  0.12699999809E+01 0. -1.
</event>
<event>
 5   0  0.7935008E-05  0.1952498E+04  0.7818609E-02  0.8629157E-01
       -2   -1    0    0    0  501  0.00000000000E+00  0.00000000000E+00  0.91107144221E+03  0.91107144222E+03  0.25500000920E-02 0.  1.
        2   -1    0    0  501    0  0.00000000000E+00  0.00000000000E+00 -0.10460889101E+04  0.10460889101E+04  0.25500000920E-02 0. -1.
    10030    2    1    2    0    0  0.00000000000E+00  0.00000000000E+00 -0.13501746791E+03  0.19571603523E+04  0.19524976128E+04 0.  0.
        3    1    3    3  502    0  0.96613823475E+03 -0.19590602869E+02 -0.20660192527E+03  0.98817571620E+03  0.10100000352E+00 0. -1.
       -3    1    3    3    0  502 -0.96613823475E+03  0.19590602869E+02  0.71584457357E+02  0.96898463615E+03  0.10100000352E+00 0.  1.
</event>
<event>
 5   0  0.2859625E-05  0.1993107E+04  0.7818609E-02  0.8609850E-01
       -3   -1    0    0    0  501  0.00000000000E+00  0.00000000000E+00  0.18435135496E+04  0.18435135523E+04  0.10100000352E+00 0.  1.
        3   -1    0    0  501    0  0.00000000000E+00  0.00000000000E+00 -0.53871009624E+03  0.53871010571E+03  0.10100000352E+00 0. -1.
    10030    2    1    2    0    0  0.00000000000E+00  0.00000000000E+00  0.13048034533E+04  0.23822236580E+04  0.19931074996E+04 0.  0.
        2    1    3    3  502    0 -0.57694209786E+02  0.26437458079E+03 -0.49395919366E+03  0.56322129383E+03  0.25500000920E-02 0. -1.
       -2    1    3    3    0  502  0.57694209786E+02 -0.26437458079E+03  0.17987626470E+04  0.18190023642E+04  0.25500000920E-02 0.  1.
</event>
<event>
 5   0  0.7843846E-05  0.2005144E+04  0.7818609E-02  0.8604220E-01
       -2   -1    0    0    0  501  0.00000000000E+00  0.00000000000E+00  0.69575159993E+03  0.69575159993E+03  0.25500000920E-02 0. -1.
        2   -1    0    0  501    0  0.00000000000E+00  0.00000000000E+00 -0.14446968662E+04  0.14446968662E+04  0.25500000920E-02 0.  1.
    10030    2    1    2    0    0  0.00000000000E+00  0.00000000000E+00 -0.74894526623E+03  0.21404484661E+04  0.20051435420E+04 0.  0.
        2    1    3    3  502    0 -0.52485221390E+03 -0.82018294353E+03 -0.62928557308E+03  0.11593835603E+04  0.25500000920E-02 0.  1.
       -2    1    3    3    0  502  0.52485221390E+03  0.82018294353E+03 -0.11965969315E+03  0.98106490584E+03  0.25500000920E-02 0. -1.
</event>
<event>
 5   0  0.7857136E-05  0.2000953E+04  0.7818609E-02  0.8606175E-01
        2   -1    0    0  501    0  0.00000000000E+00  0.00000000000E+00  0.21498625268E+04  0.21498625268E+04  0.25500000920E-02 0.  1.
       -2   -1    0    0    0  501  0.00000000000E+00  0.00000000000E+00 -0.46558943563E+03  0.46558943563E+03  0.25500000920E-02 0. -1.
    10030    2    1    2    0    0  0.00000000000E+00  0.00000000000E+00  0.16842730912E+04  0.26154519625E+04  0.20009530535E+04 0.  0.
        4    1    3    3  502    0 -0.47545202995E+03  0.32651976897E+03  0.19106738528E+04  0.19958321515E+04  0.12699999809E+01 0.  1.
       -4    1    3    3    0  502  0.47545202995E+03 -0.32651976897E+03 -0.22640076164E+03  0.61961981092E+03  0.12699999809E+01 0. -1.
</event>
<event>
 5   0  0.3818907E-05  0.1992339E+04  0.7818609E-02  0.8610211E-01
       -1   -1    0    0    0  501  0.00000000000E+00  0.00000000000E+00  0.38091954290E+03  0.38091954293E+03  0.50400001928E-02 0. -1.
        1   -1    0    0  501    0  0.00000000000E+00  0.00000000000E+00 -0.26051527392E+04  0.26051527392E+04  0.50400001928E-02 0.  1.
    10030    2    1    2    0    0  0.00000000000E+00  0.00000000000E+00 -0.22242331963E+04  0.29860722821E+04  0.19923389176E+04 0.  0.
        1    1    3    3  502    0  0.40129159957E+03 -0.68348656404E+03 -0.20165697074E+04  0.21667353821E+04  0.50400001928E-02 0.  1.
       -1    1    3    3    0  502 -0.40129159957E+03  0.68348656404E+03 -0.20766348886E+03  0.81933690002E+03  0.50400001928E-02 0. -1.
</event>
<event>
 5   0  0.7843846E-05  0.1996959E+04  0.7818609E-02  0.8608044E-01
        2   -1    0    0  501    0  0.00000000000E+00  0.00000000000E+00  0.21230740628E+04  0.21230740628E+04  0.25500000920E-02 0. -1.
       -2   -1    0    0    0  501  0.00000000000E+00  0.00000000000E+00 -0.46958386237E+03  0.46958386237E+03  0.25500000920E-02 0.  1.
    10030    2    1    2    0    0  0.00000000000E+00  0.00000000000E+00  0.16534902004E+04  0.25926579251E+04  0.19969590066E+04 0.  0.
        2    1    3    3  502    0 -0.22682712981E+03 -0.85023896570E+03  0.21419302816E+03  0.90566853701E+03  0.25500000920E-02 0.  1.
       -2    1    3    3    0  502  0.22682712981E+03  0.85023896570E+03  0.14392971722E+04  0.16869893881E+04  0.25500000920E-02 0. -1.
</event>
<event>
 5   0  0.3549426E-05  0.1995658E+04  0.7818609E-02  0.8608654E-01
        1   -1    0    0  501    0  0.00000000000E+00  0.00000000000E+00  0.19225282967E+04  0.19225282967E+04  0.50400001928E-02 0. -1.
       -1   -1    0    0    0  501  0.00000000000E+00  0.00000000000E+00 -0.51789213358E+03  0.51789213360E+03  0.50400001928E-02 0.  1.
    10030    2    1    2    0    0  0.00000000000E+00  0.00000000000E+00  0.14046361631E+04  0.24404204303E+04  0.19956575673E+04 0.  0.
        5    1    3    3  502    0 -0.18344446443E+03  0.46736007830E+03  0.17567959727E+04  0.18271375137E+04  0.46999998093E+01 0. -1.
       -5    1    3    3    0  502  0.18344446443E+03 -0.46736007830E+03 -0.35215980957E+03  0.61328291660E+03  0.46999998093E+01 0.  1.
</event>
<event>
 5   0  0.2859625E-05  0.2013261E+04  0.7818609E-02  0.8600446E-01
       -3   -1    0    0    0  501  0.00000000000E+00  0.00000000000E+00  0.39704055031E+03  0.39704056315E+03  0.10100000352E+00 0.  1.
        3   -1    0    0  501    0  0.00000000000E+00  0.00000000000E+00 -0.25521456156E+04  0.25521456176E+04  0.10100000352E+00 0. -1.
    10030    2    1    2    0    0  0.00000000000E+00  0.00000000000E+00 -0.21551050653E+04  0.29491861807E+04  0.20132613557E+04 0.  0.
        5    1    3    3  502    0  0.59145094991E+03  0.36411668613E+03 -0.10210763464E+02  0.69463770194E+03  0.46999998093E+01 0.  1.
       -5    1    3    3    0  502 -0.59145094991E+03 -0.36411668613E+03 -0.21448943018E+04  0.22545484788E+04  0.46999998093E+01 0. -1.
</event>
<event>
 5   0  0.3970042E-05  0.1998084E+04  0.7818609E-02  0.8607517E-01
       -1   -1    0    0    0  501  0.00000000000E+00  0.00000000000E+00  0.11481314470E+04  0.11481314471E+04  0.50400001928E-02 0.  1.
        1   -1    0    0  501    0  0.00000000000E+00  0.00000000000E+00 -0.86931232606E+03  0.86931232607E+03  0.50400001928E-02 0. -1.
    10030    2    1    2    0    0  0.00000000000E+00  0.00000000000E+00  0.27881912098E+03  0.20174437731E+04  0.19980839010E+04 0.  0.
        3    1    3    3  502    0  0.43683532037E+02  0.31531174525E+03 -0.81673737447E+03  0.87657840307E+03  0.10100000352E+00 0. -1.
       -3    1    3    3    0  502 -0.43683532037E+02 -0.31531174525E+03  0.10955564955E+04  0.11408653701E+04  0.10100000352E+00 0.  1.
</event>
<event>
 5   0  0.8011197E-05  0.2004080E+04  0.7818609E-02  0.8604715E-01
       -2   -1    0    0    0  501  0.00000000000E+00  0.00000000000E+00  0.85846177546E+03  0.85846177546E+03  0.25500000920E-02 0. -1.
        2   -1    0    0  501    0  0.00000000000E+00  0.00000000000E+00 -0.11696319169E+04  0.11696319169E+04  0.25500000920E-02 0.  1.
    10030    2    1    2    0    0  0.00000000000E+00  0.00000000000E+00 -0.31117014146E+03  0.20280936924E+04  0.20040801302E+04 0.  0.
        5    1    3    3  502    0 -0.17237728827E+03  0.54569171212E+03 -0.98797903856E+03  0.11417609403E+04  0.46999998093E+01 0.  1.
       -5    1    3    3    0  502  0.17237728827E+03 -0.54569171212E+03  0.67680889710E+03  0.88633275206E+03  0.46999998093E+01 0. -1.
</event>
<event>
 5   0  0.3549426E-05  0.1981942E+04  0.7818609E-02  0.8615110E-01
        1   -1    0    0  501    0  0.00000000000E+00  0.00000000000E+00  0.11507316856E+04  0.11507316856E+04  0.50400001928E-02 0. -1.
       -1   -1    0    0    0  501  0.00000000000E+00  0.00000000000E+00 -0.85339023008E+03  0.85339023009E+03  0.50400001928E-02 0.  1.
    10030    2    1    2    0    0  0.00000000000E+00  0.00000000000E+00  0.29734145555E+03  0.20041219157E+04  0.19819416520E+04 0.  0.
        5    1    3    3  502    0 -0.53402411902E+03 -0.39947625958E+02 -0.69446112939E+03  0.87696973878E+03  0.46999998093E+01 0.  1.
       -5    1    3    3    0  502  0.53402411902E+03  0.39947625958E+02  0.99180258493E+03  0.11271521769E+04  0.46999998093E+01 0. -1.
</event>
<event>
 5   0  0.7935008E-05  0.1991623E+04  0.7818609E-02  0.8610547E-01
        2   -1    0    0  501    0  0.00000000000E+00  0.00000000000E+00  0.14505241283E+04  0.14505241283E+04  0.25500000920E-02 0. -1.
       -2   -1    0    0    0  501  0.00000000000E+00  0.00000000000E+00 -0.68364278284E+03  0.68364278285E+03  0.25500000920E-02 0.  1.
    10030    2    1    2    0    0  0.00000000000E+00  0.00000000000E+00  0.76688134551E+03  0.21341669112E+04  0.19916228074E+04 0.  0.
        3    1    3    3  502    0  0.18454020247E+03 -0.27621121538E+02 -0.66474191739E+03  0.69043452957E+03  0.10100000352E+00 0.  1.
       -3    1    3    3    0  502 -0.18454020247E+03  0.27621121538E+02  0.14316232629E+04  0.14437323816E+04  0.10100000352E+00 0. -1.
</event>
<event>
 5   0  0.3818907E-05  0.2002551E+04  0.7818609E-02  0.8605429E-01
        1   -1    0    0  501    0  0.00000000000E+00  0.00000000000E+00  0.70574640371E+03  0.70574640373E+03  0.50400001928E-02 0.  1.
       -1   -1    0    0    0  501  0.00000000000E+00  0.00000000000E+00 -0.14205568428E+04  0.14205568428E+04  0.50400001928E-02 0. -1.
    10030    2    1    2    0    0  0.00000000000E+00  0.00000000000E+00 -0.71481043912E+03  0.21263032466E+04  0.20025512559E+04 0.  0.
        1    1    3    3  502    0  0.24125569756E+03  0.32534936583E+03  0.61487657239E+03  0.73629458830E+03  0.50400001928E-02 0.  1.
       -1    1    3    3    0  502 -0.24125569756E+03 -0.32534936583E+03 -0.13296870115E+04  0.13900086583E+04  0.50400001928E-02 0. -1.
</event>
<event>
 5   0  0.3549426E-05  0.2009599E+04  0.7818609E-02  0.8602146E-01
       -1   -1    0    0    0  501  0.00000000000E+00  0.00000000000E+00  0.13075597890E+04  0.13075597890E+04  0.50400001928E-02 0. -1.
        1   -1    0    0  501    0  0.00000000000E+00  0.00000000000E+00 -0.77214178348E+03  0.77214178349E+03  0.50400001928E-02 0.  1.
    10030    2    1    2    0    0  0.00000000000E+00  0.00000000000E+00  0.53541800548E+03  0.20797015725E+04  0.20095985146E+04 0.  0.
        5    1    3    3  502    0 -0.20680155374E+03 -0.26881890605E+03  0.12465195357E+04  0.12918450099E+04  0.46999998093E+01 0. -1.
       -5    1    3    3    0  502  0.20680155374E+03  0.26881890605E+03 -0.71110153019E+03  0.78785656253E+03  0.46999998093E+01 0.  1.
</event>
<event>
 5   0  0.7935008E-05  0.1999913E+04  0.7818609E-02  0.8606661E-01
       -2   -1    0    0    0  501  0.00000000000E+00  0.00000000000E+00  0.15260586599E+04  0.15260586599E+04  0.25500000920E-02 0.  1.
        2   -1    0    0  501    0  0.00000000000E+00  0.00000000000E+00 -0.65522594919E+03  0.65522594919E+03  0.25500000920E-02 0. -1.
    10030    2    1    2    0    0  0.00000000000E+00  0.00000000000E+00  0.87083271069E+03  0.21812846091E+04  0.19999132321E+04 0.  0.
        3    1    3    3  502    0 -0.80292619299E+02  0.66006233785E+02 -0.64931792931E+03  0.65758460379E+03  0.10100000352E+00 0. -1.
       -3    1    3    3    0  502  0.80292619299E+02 -0.66006233785E+02  0.15201506400E+04  0.15237000053E+04  0.10100000352E+00 0.  1.
</event>
<event>
 5   0  0.8011197E-05  0.1985935E+04  0.7818609E-02  0.8613225E-01
       -2   -1    0    0    0  501  0.00000000000E+00  0.00000000000E+00  0.57025926887E+03  0.57025926887E+03  0.25500000920E-02 0. -1.
        2   -1    0    0  501    0  0.00000000000E+00  0.00000000000E+00 -0.17290117017E+04  0.17290117017E+04  0.25500000920E-02 0.  1.
    10030    2    1    2    0    0  0.00000000000E+00  0.00000000000E+00 -0.11587524328E+04  0.22992709705E+04  0.19859354963E+04 0.  0.
        5    1    3    3  502    0  0.84086433806E+03 -0.52401494649E+03 -0.65545865509E+03  0.11879783827E+04  0.46999998093E+01 0.  1.
       -5    1    3    3    0  502 -0.84086433806E+03  0.52401494649E+03 -0.50329377770E+03  0.11112925879E+04  0.46999998093E+01 0. -1.
</event>
<event>
 5   0  0.8011197E-05  0.1997793E+04  0.7818609E-02  0.8607653E-01
       -2   -1    0    0    0  501  0.00000000000E+00  0.00000000000E+00  0.64473164456E+03  0.64473164457E+03  0.25500000920E-02 0.  1.
        2   -1    0    0  501    0  0.00000000000E+00  0.00000000000E+00 -0.15476111397E+04  0.15476111397E+04  0.25500000920E-02 0. -1.
    10030    2    1    2    0    0  0.00000000000E+00  0.00000000000E+00 -0.90287949517E+03  0.21923427843E+04  0.19977926572E+04 0.  0.
        5    1    3    3  502    0  0.98382712770E+01  0.37407575354E+03 -0.14677737767E+04  0.15147314648E+04  0.46999998093E+01 0. -1.
       -5    1    3    3    0  502 -0.98382712770E+01 -0.37407575354E+03  0.56489428154E+03  0.67761131947E+03  0.46999998093E+01 0.  1.
</event>
<event>
 5   0  0.3787698E-05  0.1997653E+04  0.7818609E-02  0.8607719E-01
       -1   -1    0    0    0  501  0.00000000000E+00  0.00000000000E+00  0.46033780919E+03  0.46033780921E+03  0.50400001928E-02 0. -1.
        1   -1    0    0  501    0  0.00000000000E+00  0.00000000000E+00 -0.21672217625E+04  0.21672217625E+04  0.50400001928E-02 0.  1.
    10030    2    1    2    0    0  0.00000000000E+00  0.00000000000E+00 -0.17068839533E+04  0.26275595717E+04  0.19976527408E+04 0.  0.
        4    1    3    3  502    0  0.88141633715E+03 -0.42146016499E+03 -0.58028163408E+03  0.11363326176E+04  0.12699999809E+01 0.  1.
       -4    1    3    3    0  502 -0.88141633715E+03  0.42146016499E+03 -0.11266023192E+04  0.14912269541E+04  0.12699999809E+01 0. -1.
</event>
<event>
 5   0  0.3549426E-05  0.2010034E+04  0.7818609E-02  0.8601944E-01
       -1   -1    0    0    0  501  0.00000000000E+00  0.00000000000E+00  0.84473615500E+03  0.84473615501E+03  0.50400001928E-02 0.  1.
        1   -1    0    0  501    0  0.00000000000E+00  0.00000000000E+00 -0.11957093476E+04  0.11957093476E+04  0.50400001928E-02 0. -1.
    10030    2    1    2    0    0  0.00000000000E+00  0.00000000000E+00 -0.35097319264E+03  0.20404455027E+04  0.20100337478E+04 0.  0.
        5    1    3    3  502    0 -0.31818223168E+03 -0.15279744291E+03 -0.11307070904E+04  0.11845284317E+04  0.46999998093E+01 0. -1.
       -5    1    3    3    0  502  0.31818223168E+03  0.15279744291E+03  0.77973389776E+03  0.85591707100E+03  0.46999998093E+01 0.  1.
</event>
<event>
 5   0  0.3787698E-05  0.1951577E+04  0.7818609E-02  0.8629601E-01
       -1   -1    0    0    0  501  0.00000000000E+00  0.00000000000E+00  0.91548396399E+03  0.91548396400E+03  0.50400001928E-02 0.  1.
        1   -1    0    0  501    0  0.00000000000E+00  0.00000000000E+00 -0.10400656620E+04  0.10400656620E+04  0.50400001928E-02 0. -1.
    10030    2    1    2    0    0  0.00000000000E+00  0.00000000000E+00 -0.12458169799E+03  0.19555496260E+04  0.19515772442E+04 0.  0.
        4    1    3    3  502    0  0.31653445185E+03  0.95287238252E+02  0.85766727421E+03  0.91916727702E+03  0.12699999809E+01 0.  1.
       -4    1    3    3    0  502 -0.31653445185E+03 -0.95287238252E+02 -0.98224897220E+03  0.10363823490E+04  0.12699999809E+01 0. -1.
</event>
<event>
 5   0  0.3970042E-05  0.2038228E+04  0.7818609E-02  0.8588954E-01
        1   -1    0    0  501    0  0.00000000000E+00  0.00000000000E+00  0.10288656901E+04  0.10288656901E+04  0.50400001928E-02 0. -1.
       -1   -1    0    0    0  501  0.00000000000E+00  0.00000000000E+00 -0.10094545146E+04  0.10094545146E+04  0.50400001928E-02 0.  1.
    10030    2    1    2    0    0  0.00000000000E+00  0.00000000000E+00  0.19411175511E+02  0.20383202047E+04  0.20382277751E+04 0.  0.
        3    1    3    3  502    0  0.99635899713E+03 -0.56917002765E+02 -0.19675548603E+03  0.10171939480E+04  0.10100000352E+00 0.  1.
       -3    1    3    3    0  502 -0.99635899713E+03  0.56917002765E+02  0.21616666154E+03  0.10211262567E+04  0.10100000352E+00 0. -1.
</event>
<event>
 5   0  0.3787698E-05  0.1916752E+04  0.7818609E-02  0.8646563E-01
        1   -1    0    0  501    0  0.00000000000E+00  0.00000000000E+00  0.69577833932E+03  0.69577833934E+03  0.50400001928E-02 0.  1.
       -1   -1    0    0    0  501  0.00000000000E+00  0.00000000000E+00 -0.13200818854E+04  0.13200818854E+04  0.50400001928E-02 0. -1.
    10030    2    1    2    0    0  0.00000000000E+00  0.00000000000E+00 -0.62430354611E+03  0.20158602248E+04  0.19167518170E+04 0.  0.
        4    1    3    3  502    0 -0.29608715081E+03  0.86324147938E+03 -0.43963099486E+01  0.91261952260E+03  0.12699999809E+01 0.  1.
       -4    1    3    3    0  502  0.29608715081E+03 -0.86324147938E+03 -0.61990723616E+03  0.11032407022E+04  0.12699999809E+01 0. -1.
</event>
<event>
 5   0  0.7935008E-05  0.1940247E+04  0.7818609E-02  0.8635078E-01
        2   -1    0    0  501    0  0.00000000000E+00  0.00000000000E+00  0.88122592974E+03  0.88122592974E+03  0.25500000920E-02 0.  1.
       -2   -1    0    0    0  501  0.00000000000E+00  0.00000000000E+00 -0.10679888555E+04  0.10679888555E+04  0.25500000920E-02 0. -1.
    10030    2    1    2    0    0  0.00000000000E+00  0.00000000000E+00 -0.18676292574E+03  0.19492147852E+04  0.19402468628E+04 0.  0.
        3    1    3    3  502    0  0.71692440971E+03  0.40607325956E+02 -0.74870767635E+03  0.10373971077E+04  0.10100000352E+00 0. -1.
       -3    1    3    3    0  502 -0.71692440971E+03 -0.40607325956E+02  0.56194475061E+03  0.91181767756E+03  0.10100000352E+00 0.  1.
</event>
<event>
 5   0  0.8011197E-05  0.2006451E+04  0.7818609E-02  0.8603611E-01
       -2   -1    0    0    0  501  0.00000000000E+00  0.00000000000E+00  0.10035613147E+04  0.10035613147E+04  0.25500000920E-02 0. -1.
        2   -1    0    0  501    0  0.00000000000E+00  0.00000000000E+00 -0.10028897641E+04  0.10028897641E+04  0.25500000920E-02 0.  1.
    10030    2    1    2    0    0  0.00000000000E+00  0.00000000000E+00  0.67155063790E+00  0.20064510788E+04  0.20064509664E+04 0.  0.
        5    1    3    3  502    0 -0.28205947605E+03 -0.90392153828E+03  0.33170806908E+03  0.10033364483E+04  0.46999998093E+01 0. -1.
       -5    1    3    3    0  502  0.28205947605E+03  0.90392153828E+03 -0.33103651845E+03  0.10031146305E+04  0.46999998093E+01 0.  1.
</event>
<event>
 5   0  0.8011197E-05  0.2004698E+04  0.7818609E-02  0.8604427E-01
        2   -1    0    0  501    0  0.00000000000E+00  0.00000000000E+00  0.69930095827E+03  0.69930095827E+03  0.25500000920E-02 0.  1.
       -2   -1    0    0    0  501  0.00000000000E+00  0.00000000000E+00 -0.14367254454E+04  0.14367254454E+04  0.25500000920E-02 0. -1.
    10030    2    1    2    0    0  0.00000000000E+00  0.00000000000E+00 -0.73742448710E+03  0.21360264036E+04  0.20046979630E+04 0.  0.
        5    1    3    3  502    0 -0.29730617829E+02  0.50068535203E+03  0.55595900341E+03  0.74878717593E+03  0.46999998093E+01 0.  1.
       -5    1    3    3    0  502  0.29730617829E+02 -0.50068535203E+03 -0.12933834905E+04  0.13872392277E+04  0.46999998093E+01 0. -1.
</event>
<event>
 5   0  0.3818907E-05  0.1996898E+04  0.7818609E-02  0.8608072E-01
       -1   -1    0    0    0  501  0.00000000000E+00  0.00000000000E+00  0.74694567119E+03  0.74694567120E+03  0.50400001928E-02 0.  1.
        1   -1    0    0  501    0  0.00000000000E+00  0.00000000000E+00 -0.13346362569E+04  0.13346362569E+04  0.50400001928E-02 0. -1.
    10030    2    1    2    0    0  0.00000000000E+00  0.00000000000E+00 -0.58769058573E+03  0.20815819281E+04  0.19968983697E+04 0.  0.
        1    1    3    3  502    0  0.42825447314E+03 -0.42401322034E+03  0.53597375358E+03  0.80650912540E+03  0.50400001928E-02 0.  1.
       -1    1    3    3    0  502 -0.42825447314E+03  0.42401322034E+03 -0.11236643393E+04  0.12750728027E+04  0.50400001928E-02 0. -1.
</event>
<event>
 5   0  0.8022574E-05  0.1991370E+04  0.7818609E-02  0.8610666E-01
        2   -1    0    0  501    0  0.00000000000E+00  0.00000000000E+00  0.13401392149E+04  0.13401392149E+04  0.25500000920E-02 0. -1.
       -2   -1    0    0    0  501  0.00000000000E+00  0.00000000000E+00 -0.73976551593E+03  0.73976551594E+03  0.25500000920E-02 0.  1.
    10030    2    1    2    0    0  0.00000000000E+00  0.00000000000E+00  0.60037369892E+03  0.20799047308E+04  0.19913701592E+04 0.  0.
        1    1    3    3  502    0 -0.56119602662E+03 -0.12784407760E+03  0.11487761034E+04  0.12849014064E+04  0.50400001928E-02 0. -1.
       -1    1    3    3    0  502  0.56119602662E+03  0.12784407760E+03 -0.54840240449E+03  0.79500332436E+03  0.50400001928E-02 0.  1.
</event>
<event>
 5   0  0.8022574E-05  0.2011663E+04  0.7818609E-02  0.8601187E-01
        2   -1    0    0  501    0  0.00000000000E+00  0.00000000000E+00  0.60735037982E+03  0.60735037982E+03  0.25500000920E-02 0. -1.
       -2   -1    0    0    0  501  0.00000000000E+00  0.00000000000E+00 -0.16657555823E+04  0.16657555823E+04  0.25500000920E-02 0.  1.
    10030    2    1    2    0    0  0.00000000000E+00  0.00000000000E+00 -0.10584052025E+04  0.22731059621E+04  0.20116632776E+04 0.  0.
        1    1    3    3  502    0 -0.13689366969E+03 -0.92569958029E+03 -0.11243492672E+03  0.94249732229E+03  0.50400001928E-02 0.  1.
       -1    1    3    3    0  502  0.13689366969E+03  0.92569958029E+03 -0.94597027578E+03  0.13306086399E+04  0.50400001928E-02 0. -1.
</event>
<event>
 5   0  0.3970042E-05  0.1982953E+04  0.7818609E-02  0.8614633E-01
       -1   -1    0    0    0  501  0.00000000000E+00  0.00000000000E+00  0.50511515737E+03  0.50511515740E+03  0.50400001928E-02 0.  1.
        1   -1    0    0  501    0  0.00000000000E+00  0.00000000000E+00 -0.19461410142E+04  0.19461410142E+04  0.50400001928E-02 0. -1.
    10030    2    1    2    0    0  0.00000000000E+00  0.00000000000E+00 -0.14410258568E+04  0.24512561716E+04  0.19829526718E+04 0.  0.
        3    1    3    3  502    0 -0.50548283737E+03  0.46347579792E+03 -0.16056471079E+04  0.17459740432E+04  0.10100000352E+00 0. -1.
       -3    1    3    3    0  502  0.50548283737E+03 -0.46347579792E+03  0.16462125110E+03  0.70528212841E+03  0.10100000352E+00 0.  1.
</event>
<event>
 5   0  0.7857136E-05  0.2009340E+04  0.7818609E-02  0.8602266E-01
       -2   -1    0    0    0  501  0.00000000000E+00  0.00000000000E+00  0.14480229940E+04  0.14480229940E+04  0.25500000920E-02 0.  1.
        2   -1    0    0  501    0  0.00000000000E+00  0.00000000000E+00 -0.69706202981E+03  0.69706202982E+03  0.25500000920E-02 0. -1.
    10030    2    1    2    0    0  0.00000000000E+00  0.00000000000E+00  0.75096096419E+03  0.21450850238E+04  0.20093400383E+04 0.  0.
        4    1    3    3  502    0 -0.51469148780E+03 -0.87856035066E+02 -0.54083810291E+03  0.75175360124E+03  0.12699999809E+01 0. -1.
       -4    1    3    3    0  502  0.51469148780E+03  0.87856035066E+02  0.12917990671E+04  0.13933314226E+04  0.12699999809E+01 0.  1.
</event>
<event>
 5   0  0.3772949E-05  0.1894301E+04  0.7818609E-02  0.8657699E-01
       -1   -1    0    0    0  501  0.00000000000E+00  0.00000000000E+00  0.12444942132E+04  0.12444942132E+04  0.50400001928E-02 0.  1.
        1   -1    0    0  501    0  0.00000000000E+00  0.00000000000E+00 -0.72084997972E+03  0.72084997974E+03  0.50400001928E-02 0. -1.
    10030    2    1    2    0    0  0.00000000000E+00  0.00000000000E+00  0.52364423350E+03  0.19653441930E+04  0.18943005341E+04 0.  0.
        2    1    3    3  502    0  0.56115427757E+03  0.15633231119E+03 -0.51302016143E+03  0.77622393728E+03  0.25500000920E-02 0. -1.
       -2    1    3    3    0  502 -0.56115427757E+03 -0.15633231119E+03  0.10366643949E+04  0.11891202557E+04  0.25500000920E-02 0.  1.
</event>
<event>
 5   0  0.7843846E-05  0.1940231E+04  0.7818609E-02  0.8635086E-01
        2   -1    0    0  501    0  0.00000000000E+00  0.00000000000E+00  0.77782933956E+03  0.77782933956E+03  0.25500000920E-02 0.  1.
       -2   -1    0    0    0  501  0.00000000000E+00  0.00000000000E+00 -0.12099361551E+04  0.12099361551E+04  0.25500000920E-02 0. -1.
    10030    2    1    2    0    0  0.00000000000E+00  0.00000000000E+00 -0.43210681558E+03  0.19877654947E+04  0.19402307496E+04 0.  0.
        2    1    3    3  502    0  0.51517910799E+03 -0.78013076914E+03 -0.48145674983E+03  0.10515769740E+04  0.25500000920E-02 0. -1.
       -2    1    3    3    0  502 -0.51517910799E+03  0.78013076914E+03  0.49349934252E+02  0.93618852070E+03  0.25500000920E-02 0.  1.
</event>
<event>
 5   0  0.3818907E-05  0.2006005E+04  0.7818609E-02  0.8603818E-01
       -1   -1    0    0    0  501  0.00000000000E+00  0.00000000000E+00  0.13919439640E+04  0.13919439640E+04  0.50400001928E-02 0.  1.
        1   -1    0    0  501    0  0.00000000000E+00  0.00000000000E+00 -0.72274057831E+03  0.72274057833E+03  0.50400001928E-02 0. -1.
    10030    2    1    2    0    0  0.00000000000E+00  0.00000000000E+00  0.66920338568E+03  0.21146845423E+04  0.20060053694E+04 0.  0.
        1    1    3    3  502    0  0.66654398848E+03  0.43592229758E+03 -0.30810503432E+03  0.85395424368E+03  0.50400001928E-02 0. -1.
       -1    1    3    3    0  502 -0.66654398848E+03 -0.43592229758E+03  0.97730842000E+03  0.12607302986E+04  0.50400001928E-02 0.  1.
</event>
<event>
 5   0  0.7843846E-05  0.1997480E+04  0.7818609E-02  0.8607800E-01
        2   -1    0    0  501    0  0.00000000000E+00  0.00000000000E+00  0.62029108417E+03  0.62029108418E+03  0.25500000920E-02 0. -1.
       -2   -1    0    0    0  501  0.00000000000E+00  0.00000000000E+00 -0.16080856259E+04  0.16080856259E+04  0.25500000920E-02 0.  1.
    10030    2    1    2    0    0  0.00000000000E+00  0.00000000000E+00 -0.98779454173E+03  0.22283767101E+04  0.19974795882E+04 0.  0.
        2    1    3    3  502    0 -0.16166930293E+03  0.21716941496E+03 -0.15663667291E+04  0.15895924787E+04  0.25500000920E-02 0.  1.
       -2    1    3    3    0  502  0.16166930293E+03 -0.21716941496E+03  0.57857218735E+03  0.63878423140E+03  0.25500000920E-02 0. -1.
</event>
<event>
 5   0  0.8011197E-05  0.1985098E+04  0.7818609E-02  0.8613619E-01
        2   -1    0    0  501    0  0.00000000000E+00  0.00000000000E+00  0.18727403776E+04  0.18727403776E+04  0.25500000920E-02 0.  1.
       -2   -1    0    0    0  501  0.00000000000E+00  0.00000000000E+00 -0.52604938069E+03  0.52604938069E+03  0.25500000920E-02 0. -1.
    10030    2    1    2    0    0  0.00000000000E+00  0.00000000000E+00  0.13466909969E+04  0.23987897583E+04  0.19850984014E+04 0.  0.
        5    1    3    3  502    0 -0.95914266349E+03 -0.14369281664E+03  0.92834204923E+03  0.13425510511E+04  0.46999998093E+01 0.  1.
       -5    1    3    3    0  502  0.95914266349E+03  0.14369281664E+03  0.41834894764E+03  0.10562387071E+04  0.46999998093E+01 0. -1.
</event>
<event>
 5   0  0.8011197E-05  0.2007478E+04  0.7818609E-02  0.8603132E-01
        2   -1    0    0  501    0  0.00000000000E+00  0.00000000000E+00  0.84864112639E+03  0.84864112640E+03  0.25500000920E-02 0. -1.
       -2   -1    0    0    0  501  0.00000000000E+00  0.00000000000E+00 -0.11871831781E+04  0.11871831781E+04  0.25500000920E-02 0.  1.
    10030    2    1    2    0    0  0.00000000000E+00  0.00000000000E+00 -0.33854205170E+03  0.20358243045E+04  0.20074784876E+04 0.  0.
        5    1    3    3  502    0 -0.71976664407E+02 -0.30258971253E+03 -0.11370674802E+04  0.11788493198E+04  0.46999998093E+01 0.  1.
       -5    1    3    3    0  502  0.71976664407E+02  0.30258971253E+03  0.79852542851E+03  0.85697498465E+03  0.46999998093E+01 0. -1.
</event>
<event>
 5   0  0.8011197E-05  0.1993783E+04  0.7818609E-02  0.8609533E-01
        2   -1    0    0  501    0  0.00000000000E+00  0.00000000000E+00  0.17413753794E+04  0.17413753794E+04  0.25500000920E-02 0.  1.
       -2   -1    0    0    0  501  0.00000000000E+00  0.00000000000E+00 -0.57069422457E+03  0.57069422458E+03  0.25500000920E-02 0. -1.
    10030    2    1    2    0    0  0.00000000000E+00  0.00000000000E+00  0.11706811548E+04  0.23120696040E+04  0.19937832097E+04 0.  0.
        5    1    3    3  502    0  0.58096744735E+03  0.80876618092E+03  0.63904667729E+03  0.11832280659E+04  0.46999998093E+01 0.  1.
       -5    1    3    3    0  502 -0.58096744735E+03 -0.80876618092E+03  0.53163447751E+03  0.11288415380E+04  0.46999998093E+01 0. -1.
</event>
<event>
 5   0  0.3818907E-05  0.1993154E+04  0.7818609E-02  0.8609828E-01
        1   -1    0    0  501    0  0.00000000000E+00  0.00000000000E+00  0.10194493991E+04  0.10194493992E+04  0.50400001928E-02 0.  1.
       -1   -1    0    0    0  501  0.00000000000E+00  0.00000000000E+00 -0.97421795341E+03  0.97421795342E+03  0.50400001928E-02 0. -1.
    10030    2    1    2    0    0  0.00000000000E+00  0.00000000000E+00  0.45231445736E+02  0.19936673526E+04  0.19931541910E+04 0.  0.
        1    1    3    3  502    0 -0.89822816805E+03  0.35687069502E+03 -0.22033644207E+03  0.99132168471E+03  0.50400001928E-02 0. -1.
       -1    1    3    3    0  502  0.89822816805E+03 -0.35687069502E+03  0.26556788780E+03  0.10023456679E+04  0.50400001928E-02 0.  1.
</event>
<event>
 5   0  0.3970042E-05  0.1967540E+04  0.7818609E-02  0.8621949E-01
        1   -1    0    0  501    0  0.00000000000E+00  0.00000000000E+00  0.99873513115E+03  0.99873513116E+03  0.50400001928E-02 0.  1.
       -1   -1    0    0    0  501  0.00000000000E+00  0.00000000000E+00 -0.96902920453E+03  0.96902920454E+03  0.50400001928E-02 0. -1.
    10030    2    1    2    0    0  0.00000000000E+00  0.00000000000E+00  0.29705926620E+02  0.19677643357E+04  0.19675400984E+04 0.  0.
        3    1    3    3  502    0 -0.13288980549E+03 -0.58312915058E+03 -0.76632772380E+03  0.97208924339E+03  0.10100000352E+00 0. -1.
       -3    1    3    3    0  502  0.13288980549E+03  0.58312915058E+03  0.79603365042E+03  0.99567509231E+03  0.10100000352E+00 0.  1.
</event>
<event>
 5   0  0.3970042E-05  0.1921758E+04  0.7818609E-02  0.8644101E-01
        1   -1    0    0  501    0  0.00000000000E+00  0.00000000000E+00  0.93978734550E+03  0.93978734551E+03  0.50400001928E-02 0.  1.
       -1   -1    0    0    0  501  0.00000000000E+00  0.00000000000E+00 -0.98244444751E+03  0.98244444752E+03  0.50400001928E-02 0. -1.
    10030    2    1    2    0    0  0.00000000000E+00  0.00000000000E+00 -0.42657102011E+02  0.19222317930E+04  0.19217584234E+04 0.  0.
        3    1    3    3  502    0  0.50495321307E+02 -0.36910585216E+03 -0.90726673568E+03  0.98077614543E+03  0.10100000352E+00 0. -1.
       -3    1    3    3    0  502 -0.50495321307E+02  0.36910585216E+03  0.86460963367E+03  0.94145564760E+03  0.10100000352E+00 0.  1.
</event>
<event>
 5   0  0.8022574E-05  0.2002703E+04  0.7818609E-02  0.8605358E-01
        2   -1    0    0  501    0  0.00000000000E+00  0.00000000000E+00  0.14221670757E+04  0.14221670757E+04  0.25500000920E-02 0.  1.
       -2   -1    0    0    0  501  0.00000000000E+00  0.00000000000E+00 -0.70505387905E+03  0.70505387905E+03  0.25500000920E-02 0. -1.
    10030    2    1    2    0    0  0.00000000000E+00  0.00000000000E+00  0.71711319668E+03  0.21272209548E+04  0.20027025874E+04 0.  0.
        1    1    3    3  502    0  0.43298190953E+03  0.64075644640E+03 -0.31712562426E+03  0.83582941990E+03  0.50400001928E-02 0. -1.
       -1    1    3    3    0  502 -0.43298190953E+03 -0.64075644640E+03  0.10342388209E+04  0.12913915349E+04  0.50400001928E-02 0.  1.
</event>
<event>
 5   0  0.3549426E-05  0.2018018E+04  0.7818609E-02  0.8598243E-01
       -1   -1    0    0    0  501  0.00000000000E+00  0.00000000000E+00  0.11019521898E+04  0.11019521899E+04  0.50400001928E-02 0.  1.
        1   -1    0    0  501    0  0.00000000000E+00  0.00000000000E+00 -0.92390459073E+03  0.92390459074E+03  0.50400001928E-02 0. -1.
    10030    2    1    2    0    0  0.00000000000E+00  0.00000000000E+00  0.17804759912E+03  0.20258567806E+04  0.20180175291E+04 0.  0.
        5    1    3    3  502    0  0.12664432742E+03  0.29142737728E+03 -0.87235384958E+03  0.92843525933E+03  0.46999998093E+01 0. -1.
       -5    1    3    3    0  502 -0.12664432742E+03 -0.29142737728E+03  0.10504014487E+04  0.10974215213E+04  0.46999998093E+01 0.  1.
</event>
<event>
 5   0  0.8022574E-05  0.1999433E+04  0.7818609E-02  0.8606886E-01
       -2   -1    0    0    0  501  0.00000000000E+00  0.00000000000E+00  0.83629057219E+03  0.83629057219E+03  0.25500000920E-02 0.  1.
        2   -1    0    0  501    0  0.00000000000E+00  0.00000000000E+00 -0.11950791386E+04  0.11950791386E+04  0.25500000920E-02 0. -1.
    10030    2    1    2    0    0  0.00000000000E+00  0.00000000000E+00 -0.35878856639E+03  0.20313697108E+04  0.19994333363E+04 0.  0.
        1    1    3    3  502    0 -0.73789089633E+02  0.93288355294E+03 -0.53674651132E+03  0.10788018217E+04  0.50400001928E-02 0. -1.
       -1    1    3    3    0  502  0.73789089633E+02 -0.93288355294E+03  0.17795794493E+03  0.95256788907E+03  0.50400001928E-02 0.  1.
</event>
<event>
 5   0  0.7935008E-05  0.1767806E+04  0.7818609E-02  0.8723609E-01
        2   -1    0    0  501    0  0.00000000000E+00  0.00000000000E+00  0.13744051238E+04  0.13744051238E+04  0.25500000920E-02 0.  1.
       -2   -1    0    0    0  501  0.00000000000E+00  0.00000000000E+00 -0.56845314164E+03  0.56845314165E+03  0.25500000920E-02 0. -1.
    10030    2    1    2    0    0  0.00000000000E+00  0.00000000000E+00  0.80595198214E+03  0.19428582654E+04  0.17678064493E+04 0.  0.
        3    1    3    3  502    0 -0.50245538540E+03  0.42145356434E+03 -0.24832823080E+03  0.70124991382E+03  0.10100000352E+00 0. -1.
       -3    1    3    3    0  502  0.50245538540E+03 -0.42145356434E+03  0.10542802129E+04  0.12416083516E+04  0.10100000352E+00 0.  1.
</event>
<event>
 5   0  0.7843846E-05  0.1998044E+04  0.7818609E-02  0.8607536E-01
        2   -1    0    0  501    0  0.00000000000E+00  0.00000000000E+00  0.61111859182E+03  0.61111859183E+03  0.25500000920E-02 0. -1.
       -2   -1    0    0    0  501  0.00000000000E+00  0.00000000000E+00 -0.16331439918E+04  0.16331439918E+04  0.25500000920E-02 0.  1.
    10030    2    1    2    0    0  0.00000000000E+00  0.00000000000E+00 -0.10220254000E+04  0.22442625836E+04  0.19980436997E+04 0.  0.
        2    1    3    3  502    0 -0.24826416340E+03 -0.25019684766E+03 -0.15609840885E+04  0.16002827506E+04  0.25500000920E-02 0.  1.
       -2    1    3    3    0  502  0.24826416340E+03  0.25019684766E+03  0.53895868850E+03  0.64397983301E+03  0.25500000920E-02 0. -1.
</event>
<event>
 5   0  0.3772949E-05  0.1995848E+04  0.7818609E-02  0.8608565E-01
       -1   -1    0    0    0  501  0.00000000000E+00  0.00000000000E+00  0.55154596533E+03  0.55154596536E+03  0.50400001928E-02 0. -1.
        1   -1    0    0  501    0  0.00000000000E+00  0.00000000000E+00 -0.18055645187E+04  0.18055645187E+04  0.50400001928E-02 0.  1.
    10030    2    1    2    0    0  0.00000000000E+00  0.00000000000E+00 -0.12540185534E+04  0.23571104841E+04  0.19958475147E+04 0.  0.
        2    1    3    3  502    0  0.63058397838E+03  0.56316431311E+03 -0.89535446559E+00  0.84545313236E+03  0.25500000920E-02 0. -1.
       -2    1    3    3    0  502 -0.63058397838E+03 -0.56316431311E+03 -0.12531231989E+04  0.15116573517E+04  0.25500000920E-02 0.  1.
</event>
<event>
 5   0  0.8011197E-05  0.1987476E+04  0.7818609E-02  0.8612498E-01
        2   -1    0    0  501    0  0.00000000000E+00  0.00000000000E+00  0.18069756858E+04  0.18069756858E+04  0.25500000920E-02 0.  1.
       -2   -1    0    0    0  501  0.00000000000E+00  0.00000000000E+00 -0.54650182441E+03  0.54650182442E+03  0.25500000920E-02 0. -1.
    10030    2    1    2    0    0  0.00000000000E+00  0.00000000000E+00  0.12604738614E+04  0.23534775102E+04  0.19874762982E+04 0.  0.
        5    1    3    3  502    0 -0.37728271537E+03  0.71333836737E+03 -0.56469689852E+02  0.80895289699E+03  0.46999998093E+01 0. -1.
       -5    1    3    3    0  502  0.37728271537E+03 -0.71333836737E+03  0.13169435512E+04  0.15445246132E+04  0.46999998093E+01 0.  1.
</event>
<event>
 5   0  0.2859625E-05  0.1998256E+04  0.7818609E-02  0.8607436E-01
       -3   -1    0    0    0  501  0.00000000000E+00  0.00000000000E+00  0.11248734375E+04  0.11248734420E+04  0.10100000352E+00 0. -1.
        3   -1    0    0  501    0  0.00000000000E+00  0.00000000000E+00 -0.88743959505E+03  0.88743960080E+03  0.10100000352E+00 0.  1.
    10030    2    1    2    0    0  0.00000000000E+00  0.00000000000E+00  0.23743384242E+03  0.20123130428E+04  0.19982564782E+04 0.  0.
        4    1    3    3  502    0  0.95492288166E+03 -0.18091532304E+03 -0.11453181785E+03  0.97863538370E+03  0.12699999809E+01 0.  1.
       -4    1    3    3    0  502 -0.95492288166E+03  0.18091532304E+03  0.35196566027E+03  0.10336776591E+04  0.12699999809E+01 0. -1.
</event>
<event>
 5   0  0.8011197E-05  0.2008349E+04  0.7818609E-02  0.8602727E-01
       -2   -1    0    0    0  501  0.00000000000E+00  0.00000000000E+00  0.57641211288E+03  0.57641211288E+03  0.25500000920E-02 0. -1.
        2   -1    0    0  501    0  0.00000000000E+00  0.00000000000E+00 -0.17493851056E+04  0.17493851056E+04  0.25500000920E-02 0.  1.
    10030    2    1    2    0    0  0.00000000000E+00  0.00000000000E+00 -0.11729729928E+04  0.23257972185E+04  0.20083493371E+04 0.  0.
        5    1    3    3  502    0  0.15894233745E+03 -0.76753801346E+03  0.14039353151E+03  0.79631005421E+03  0.46999998093E+01 0. -1.
       -5    1    3    3    0  502 -0.15894233745E+03  0.76753801346E+03 -0.13133665243E+04  0.15294871643E+04  0.46999998093E+01 0.  1.
</event>
<event>
 5   0  0.8022574E-05  0.2041963E+04  0.7818609E-02  0.8587249E-01
        2   -1    0    0  501    0  0.00000000000E+00  0.00000000000E+00  0.19504861636E+04  0.19504861636E+04  0.25500000920E-02 0.  1.
       -2   -1    0    0    0  501  0.00000000000E+00  0.00000000000E+00 -0.53443237821E+03  0.53443237822E+03  0.25500000920E-02 0. -1.
    10030    2    1    2    0    0  0.00000000000E+00  0.00000000000E+00  0.14160537854E+04  0.24849185419E+04  0.20419627412E+04 0.  0.
        1    1    3    3  502    0 -0.31619475628E+03  0.65225812803E+03  0.15830157968E+04  0.17410797806E+04  0.50400001928E-02 0.  1.
       -1    1    3    3    0  502  0.31619475628E+03 -0.65225812803E+03 -0.16696201137E+03  0.74383876126E+03  0.50400001928E-02 0. -1.
</event>
<event>
 5   0  0.7857136E-05  0.2002190E+04  0.7818609E-02  0.8605597E-01
        2   -1    0    0  501    0  0.00000000000E+00  0.00000000000E+00  0.70219598914E+03  0.70219598914E+03  0.25500000920E-02 0. -1.
       -2   -1    0    0    0  501  0.00000000000E+00  0.00000000000E+00 -0.14272249903E+04  0.14272249903E+04  0.25500000920E-02 0.  1.
    10030    2    1    2    0    0  0.00000000000E+00  0.00000000000E+00 -0.72502900117E+03  0.21294209795E+04  0.20021904643E+04 0.  0.
        4    1    3    3  502    0  0.18290567204E+03  0.70727521317E+03  0.36544916645E+03  0.81685213974E+03  0.12699999809E+01 0. -1.
       -4    1    3    3    0  502 -0.18290567204E+03 -0.70727521317E+03 -0.10904781676E+04  0.13125688397E+04  0.12699999809E+01 0.  1.
</event>
<event>
 5   0  0.3772949E-05  0.1998396E+04  0.7818609E-02  0.8607371E-01
        1   -1    0    0  501    0  0.00000000000E+00  0.00000000000E+00  0.11945418856E+04  0.11945418856E+04  0.50400001928E-02 0. -1.
       -1   -1    0    0    0  501  0.00000000000E+00  0.00000000000E+00 -0.83579843810E+03  0.83579843811E+03  0.50400001928E-02 0.  1.
    10030    2    1    2    0    0  0.00000000000E+00  0.00000000000E+00  0.35874344746E+03  0.20303403237E+04  0.19983955987E+04 0.  0.
        2    1    3    3  502    0 -0.49625529132E+03  0.86506022546E+03  0.11676086391E+03  0.10041073684E+04  0.25500000920E-02 0.  1.
       -2    1    3    3    0  502  0.49625529132E+03 -0.86506022546E+03  0.24198258355E+03  0.10262329553E+04  0.25500000920E-02 0. -1.
</event>
<event>
 5   0  0.3772949E-05  0.1973559E+04  0.7818609E-02  0.8619084E-01
       -1   -1    0    0    0  501  0.00000000000E+00  0.00000000000E+00  0.13216746150E+04  0.13216746150E+04  0.50400001928E-02 0.  1.
        1   -1    0    0  501    0  0.00000000000E+00  0.00000000000E+00 -0.73674228334E+03  0.73674228336E+03  0.50400001928E-02 0. -1.
    10030    2    1    2    0    0  0.00000000000E+00  0.00000000000E+00  0.58493233164E+03  0.20584168983E+04  0.19735587893E+04 0.  0.
        2    1    3    3  502    0  0.80807607476E+03  0.37025592268E+03  0.73944527920E+03  0.11562247670E+04  0.25500000920E-02 0.  1.
       -2    1    3    3    0  502 -0.80807607476E+03 -0.37025592268E+03 -0.15451294757E+03  0.90219213134E+03  0.25500000920E-02 0. -1.
</event>
<event>
 5   0  0.8011197E-05  0.1996023E+04  0.7818609E-02  0.8608482E-01
       -2   -1    0    0    0  501  0.00000000000E+00  0.00000000000E+00  0.43075170431E+03  0.43075170432E+03  0.25500000920E-02 0. -1.
        2   -1    0    0  501    0  0.00000000000E+00  0.00000000000E+00 -0.23122990250E+04  0.23122990250E+04  0.25500000920E-02 0.  1.
    10030    2    1    2    0    0  0.00000000000E+00  0.00000000000E+00 -0.18815473207E+04  0.27430507293E+04  0.19960227914E+04 0.  0.
        5    1    3    3  502    0 -0.42078045186E+03  0.54094323405E+03  0.56230443176E+02  0.68764796507E+03  0.46999998093E+01 0.  1.
       -5    1    3    3    0  502  0.42078045186E+03 -0.54094323405E+03 -0.19377777639E+04  0.20554027642E+04  0.46999998093E+01 0. -1.
</event>
<event>
 5   0  0.7935008E-05  0.1961145E+04  0.7818609E-02  0.8625005E-01
        2   -1    0    0  501    0  0.00000000000E+00  0.00000000000E+00  0.78160191515E+03  0.78160191516E+03  0.25500000920E-02 0.  1.
       -2   -1    0    0    0  501  0.00000000000E+00  0.00000000000E+00 -0.12301941635E+04  0.12301941635E+04  0.25500000920E-02 0. -1.
    10030    2    1    2    0    0  0.00000000000E+00  0.00000000000E+00 -0.44859224831E+03  0.20117960786E+04  0.19611446802E+04 0.  0.
        3    1    3    3  502    0 -0.72459526444E+03  0.11757419262E+03 -0.89121031256E+03  0.11546072144E+04  0.10100000352E+00 0. -1.
       -3    1    3    3    0  502  0.72459526444E+03 -0.11757419262E+03  0.44261806425E+03  0.85718886427E+03  0.10100000352E+00 0.  1.
</event>
<event>
 5   0  0.3772949E-05  0.1989361E+04  0.7818609E-02  0.8611611E-01
        1   -1    0    0  501    0  0.00000000000E+00  0.00000000000E+00  0.13990487845E+04  0.13990487845E+04  0.50400001928E-02 0.  1.
       -1   -1    0    0    0  501  0.00000000000E+00  0.00000000000E+00 -0.70718709465E+03  0.70718709467E+03  0.50400001928E-02 0. -1.
    10030    2    1    2    0    0  0.00000000000E+00  0.00000000000E+00  0.69186168989E+03  0.21062358792E+04  0.19893609479E+04 0.  0.
        2    1    3    3  502    0  0.15583148489E+03 -0.57491647334E+03 -0.49747290557E+03  0.77607454202E+03  0.25500000920E-02 0. -1.
       -2    1    3    3    0  502 -0.15583148489E+03  0.57491647334E+03  0.11893345955E+04  0.13301613372E+04  0.25500000920E-02 0.  1.
</event>
<event>
 5   0  0.7857136E-05  0.1987883E+04  0.7818609E-02  0.8612307E-01
        2   -1    0    0  501    0  0.00000000000E+00  0.00000000000E+00  0.27296659296E+04  0.27296659296E+04  0.25500000920E-02 0. -1.
       -2   -1    0    0    0  501  0.00000000000E+00  0.00000000000E+00 -0.36191948805E+03  0.36191948805E+03  0.25500000920E-02 0.  1.
    10030    2    1    2    0    0  0.00000000000E+00  0.00000000000E+00  0.23677464416E+04  0.30915854177E+04  0.19878825879E+04 0.  0.
        4    1    3    3  502    0  0.31934452730E+02 -0.39676892388E+02  0.27276338714E+04  0.27281096412E+04  0.12699999809E+01 0. -1.
       -4    1    3    3    0  502 -0.31934452730E+02  0.39676892388E+02 -0.35988742981E+03  0.36347577649E+03  0.12699999809E+01 0.  1.
</event>
<event>
 5   0  0.3787698E-05  0.2000251E+04  0.7818609E-02  0.8606503E-01
        1   -1    0    0  501    0  0.00000000000E+00  0.00000000000E+00  0.13514433883E+04  0.13514433883E+04  0.50400001928E-02 0. -1.
       -1   -1    0    0    0  501  0.00000000000E+00  0.00000000000E+00 -0.74013545034E+03  0.74013545036E+03  0.50400001928E-02 0.  1.
    10030    2    1    2    0    0  0.00000000000E+00  0.00000000000E+00  0.61130793800E+03  0.20915788387E+04  0.20002511451E+04 0.  0.
        4    1    3    3  502    0 -0.13272275305E+03 -0.60195328517E+03  0.11291961773E+04  0.12864869632E+04  0.12699999809E+01 0. -1.
       -4    1    3    3    0  502  0.13272275305E+03  0.60195328517E+03 -0.51788823931E+03  0.80509187552E+03  0.12699999809E+01 0.  1.
</event>
<event>
 5   0  0.3970042E-05  0.1954688E+04  0.7818609E-02  0.8628103E-01
        1   -1    0    0  501    0  0.00000000000E+00  0.00000000000E+00  0.17519099120E+04  0.17519099120E+04  0.50400001928E-02 0.  1.
       -1   -1    0    0    0  501  0.00000000000E+00  0.00000000000E+00 -0.54523441878E+03  0.54523441880E+03  0.50400001928E-02 0. -1.
    10030    2    1    2    0    0  0.00000000000E+00  0.00000000000E+00  0.12066754933E+04  0.22971443308E+04  0.19546882950E+04 0.  0.
        3    1    3    3  502    0  0.13035392116E+02 -0.25055563928E+03 -0.50674385889E+03  0.56545326823E+03  0.10100000352E+00 0. -1.
       -3    1    3    3    0  502 -0.13035392116E+02  0.25055563928E+03  0.17134193522E+04  0.17316910626E+04  0.10100000352E+00 0.  1.
</event>
<event>
 5   0  0.8022574E-05  0.1991310E+04  0.7818609E-02  0.8610694E-01
       -2   -1    0    0    0  501  0.00000000000E+00  0.00000000000E+00  0.64175713932E+03  0.64175713933E+03  0.25500000920E-02 0.  1.
        2   -1    0    0  501    0  0.00000000000E+00  0.00000000000E+00 -0.15447102048E+04  0.15447102048E+04  0.25500000920E-02 0. -1.
    10030    2    1    2    0    0  0.00000000000E+00  0.00000000000E+00 -0.90295306552E+03  0.21864673442E+04  0.19913099228E+04 0.  0.
        1    1    3    3  502    0  0.16636016679E+03 -0.96230680327E+03 -0.66444048924E+03  0.11811821420E+04  0.50400001928E-02 0. -1.
       -1    1    3    3    0  502 -0.16636016679E+03  0.96230680327E+03 -0.23851257628E+03  0.10052852022E+04  0.50400001928E-02 0.  1.
</event>
<event>
 5   0  0.3772949E-05  0.1982079E+04  0.7818609E-02  0.8615045E-01
       -1   -1    0    0    0  501  0.00000000000E+00  0.00000000000E+00  0.98172030603E+03  0.98172030605E+03  0.50400001928E-02 0.  1.
        1   -1    0    0  501    0  0.00000000000E+00  0.00000000000E+00 -0.10004470789E+04  0.10004470789E+04  0.50400001928E-02 0. -1.
    10030    2    1    2    0    0  0.00000000000E+00  0.00000000000E+00 -0.18726772830E+02  0.19821673849E+04  0.19820789212E+04 0.  0.
        2    1    3    3  502    0  0.11424844190E+03 -0.15697633465E+03 -0.98124261993E+03  0.10002656424E+04  0.25500000920E-02 0. -1.
       -2    1    3    3    0  502 -0.11424844190E+03  0.15697633465E+03  0.96251584710E+03  0.98190174256E+03  0.25500000920E-02 0.  1.
</event>
<event>
 5   0  0.8022574E-05  0.2003845E+04  0.7818609E-02  0.8604825E-01
        2   -1    0    0  501    0  0.00000000000E+00  0.00000000000E+00  0.18249566574E+04  0.18249566574E+04  0.25500000920E-02 0. -1.
       -2   -1    0    0    0  501  0.00000000000E+00  0.00000000000E+00 -0.55006729252E+03  0.55006729253E+03  0.25500000920E-02 0.  1.
    10030    2    1    2    0    0  0.00000000000E+00  0.00000000000E+00  0.12748893649E+04  0.23750239499E+04  0.20038452710E+04 0.  0.
        1    1    3    3  502    0 -0.84689954920E+03 -0.40901931673E+03  0.22804427177E+03  0.96774988391E+03  0.50400001928E-02 0.  1.
       -1    1    3    3    0  502  0.84689954920E+03  0.40901931673E+03  0.10468450931E+04  0.14072740660E+04  0.50400001928E-02 0. -1.
</event>
<event>
 5   0  0.7935008E-05  0.1930985E+04  0.7818609E-02  0.8639585E-01
       -2   -1    0    0    0  501  0.00000000000E+00  0.00000000000E+00  0.11797997049E+04  0.11797997049E+04  0.25500000920E-02 0.  1.
        2   -1    0    0  501    0  0.00000000000E+00  0.00000000000E+00 -0.79011341660E+03  0.79011341661E+03  0.25500000920E-02 0. -1.
    10030    2    1    2    0    0  0.00000000000E+00  0.00000000000E+00  0.38968628831E+03  0.19699131215E+04  0.19309848014E+04 0.  0.
        3    1    3    3  502    0  0.32354628038E+03  0.71644867774E+03  0.76667404313E+03  0.10980755903E+04  0.10100000352E+00 0.  1.
       -3    1    3    3    0  502 -0.32354628038E+03 -0.71644867774E+03 -0.37698775482E+03  0.87183753123E+03  0.10100000352E+00 0. -1.
</event>
<event>
 5   0  0.3818907E-05  0.1991962E+04  0.7818609E-02  0.8610388E-01
       -1   -1    0    0    0  501  0.00000000000E+00  0.00000000000E+00  0.78555511162E+03  0.78555511164E+03  0.50400001928E-02 0. -1.
        1   -1    0    0  501    0  0.00000000000E+00  0.00000000000E+00 -0.12627738829E+04  0.12627738829E+04  0.50400001928E-02 0.  1.
    10030    2    1    2    0    0  0.00000000000E+00  0.00000000000E+00 -0.47721877129E+03  0.20483289946E+04  0.19919623275E+04 0.  0.
        1    1    3    3  502    0  0.82355272035E+03 -0.54269919974E+03 -0.96061397354E+02  0.99095373084E+03  0.50400001928E-02 0.  1.
       -1    1    3    3    0  502 -0.82355272035E+03  0.54269919974E+03 -0.38115737394E+03  0.10573752637E+04  0.50400001928E-02 0. -1.
</event>
<event>
 5   0  0.3818907E-05  0.2004017E+04  0.7818609E-02  0.8604745E-01
        1   -1    0    0  501    0  0.00000000000E+00  0.00000000000E+00  0.10995876871E+04  0.10995876871E+04  0.50400001928E-02 0. -1.
       -1   -1    0    0    0  501  0.00000000000E+00  0.00000000000E+00 -0.91308851294E+03  0.91308851296E+03  0.50400001928E-02 0.  1.
    10030    2    1    2    0    0  0.00000000000E+00  0.00000000000E+00  0.18649917412E+03  0.20126762000E+04  0.20040168523E+04 0.  0.
        1    1    3    3  502    0  0.73665380006E+03  0.65422138924E+01 -0.58889013068E+03  0.94312947560E+03  0.50400001928E-02 0.  1.
       -1    1    3    3    0  502 -0.73665380006E+03 -0.65422138924E+01  0.77538930480E+03  0.10695467244E+04  0.50400001928E-02 0. -1.
</event>
<event>
 5   0  0.8022574E-05  0.2007215E+04  0.7818609E-02  0.8603255E-01
        2   -1    0    0  501    0  0.00000000000E+00  0.00000000000E+00  0.11120161862E+04  0.11120161862E+04  0.25500000920E-02 0.  1.
       -2   -1    0    0    0  501  0.00000000000E+00  0.00000000000E+00 -0.90576751111E+03  0.90576751111E+03  0.25500000920E-02 0. -1.
    10030    2    1    2    0    0  0.00000000000E+00  0.00000000000E+00  0.20624867514E+03  0.20177836974E+04  0.20072151189E+04 0.  0.
        1    1    3    3  502    0  0.81334761801E+03 -0.36138717348E+03 -0.36309890989E+03  0.96123662814E+03  0.50400001928E-02 0. -1.
       -1    1    3    3    0  502 -0.81334761801E+03  0.36138717348E+03  0.56934758503E+03  0.10565470692E+04  0.50400001928E-02 0.  1.
</event>
<event>
 5   0  0.3772949E-05  0.1997275E+04  0.7818609E-02  0.8607896E-01
        1   -1    0    0  501    0  0.00000000000E+00  0.00000000000E+00  0.14391598668E+04  0.14391598668E+04  0.50400001928E-02 0.  1.
       -1   -1    0    0    0  501  0.00000000000E+00  0.00000000000E+00 -0.69295781260E+03  0.69295781262E+03  0.50400001928E-02 0. -1.
    10030    2    1    2    0    0  0.00000000000E+00  0.00000000000E+00  0.74620205415E+03  0.21321176794E+04  0.19972752172E+04 0.  0.
        2    1    3    3  502    0 -0.60168728465E+03 -0.62059519475E+03  0.90697620816E+03  0.12529053541E+04  0.25500000920E-02 0.  1.
       -2    1    3    3    0  502  0.60168728465E+03  0.62059519475E+03 -0.16077415401E+03  0.87921232525E+03  0.25500000920E-02 0. -1.
</event>
<event>
 5   0  0.3818907E-05  0.2167438E+04  0.7818609E-02  0.8532105E-01
        1   -1    0    0  501    0  0.00000000000E+00  0.00000000000E+00  0.99579998346E+03  0.99579998347E+03  0.50400001928E-02 0.  1.
       -1   -1    0    0    0  501  0.00000000000E+00  0.00000000000E+00 -0.11794005913E+04  0.11794005913E+04  0.50400001928E-02 0. -1.
    10030    2    1    2    0    0  0.00000000000E+00  0.00000000000E+00 -0.18360060782E+03  0.21752005748E+04  0.21674382015E+04 0.  0.
        1    1    3    3  502    0  0.92693542650E+03 -0.53134758324E+02  0.46914197974E+03  0.10402532310E+04  0.50400001928E-02 0.  1.
       -1    1    3    3    0  502 -0.92693542650E+03  0.53134758324E+02 -0.65274258756E+03  0.11349473437E+04  0.50400001928E-02 0. -1.
</event>
<event>
 5   0  0.7935008E-05  0.1919296E+04  0.7818609E-02  0.8645311E-01
        2   -1    0    0  501    0  0.00000000000E+00  0.00000000000E+00  0.17247109409E+04  0.17247109409E+04  0.25500000920E-02 0.  1.
       -2   -1    0    0    0  501  0.00000000000E+00  0.00000000000E+00 -0.53395842999E+03  0.53395842999E+03  0.25500000920E-02 0. -1.
    10030    2    1    2    0    0  0.00000000000E+00  0.00000000000E+00  0.11907525109E+04  0.22586693709E+04  0.19192956481E+04 0.  0.
        3    1    3    3  502    0  0.35053088772E+03  0.65431769464E+02 -0.45309932619E+03  0.57658670579E+03  0.10100000352E+00 0. -1.
       -3    1    3    3    0  502 -0.35053088772E+03 -0.65431769464E+02  0.16438518371E+04  0.16820826651E+04  0.10100000352E+00 0.  1.
</event>
<event>
 5   0  0.3787698E-05  0.1970387E+04  0.7818609E-02  0.8620592E-01
       -1   -1    0    0    0  501  0.00000000000E+00  0.00000000000E+00  0.49082261351E+03  0.49082261354E+03  0.50400001928E-02 0.  1.
        1   -1    0    0  501    0  0.00000000000E+00  0.00000000000E+00 -0.19775100396E+04  0.19775100396E+04  0.50400001928E-02 0. -1.
    10030    2    1    2    0    0  0.00000000000E+00  0.00000000000E+00 -0.14866874261E+04  0.24683326531E+04  0.19703874197E+04 0.  0.
        4    1    3    3  502    0 -0.75116698182E+03  0.35639880176E+03 -0.81259462368E+02  0.83539012060E+03  0.12699999809E+01 0.  1.
       -4    1    3    3    0  502  0.75116698182E+03 -0.35639880176E+03 -0.14054279637E+04  0.16329425325E+04  0.12699999809E+01 0. -1.
</event>
<event>
 5   0  0.3787698E-05  0.1995853E+04  0.7818609E-02  0.8608562E-01
       -1   -1    0    0    0  501  0.00000000000E+00  0.00000000000E+00  0.74758128310E+03  0.74758128312E+03  0.50400001928E-02 0.  1.
        1   -1    0    0  501    0  0.00000000000E+00  0.00000000000E+00 -0.13321059942E+04  0.13321059942E+04  0.50400001928E-02 0. -1.
    10030    2    1    2    0    0  0.00000000000E+00  0.00000000000E+00 -0.58452471106E+03  0.20796872773E+04  0.19958532094E+04 0.  0.
        4    1    3    3  502    0  0.16972546093E+03 -0.80443702976E+03  0.29711992704E+03  0.87418964240E+03  0.12699999809E+01 0.  1.
       -4    1    3    3    0  502 -0.16972546093E+03  0.80443702976E+03 -0.88164463810E+03  0.12054976349E+04  0.12699999809E+01 0. -1.
</event>
<event>
 5   0  0.3787698E-05  0.2016434E+04  0.7818609E-02  0.8598976E-01
       -1   -1    0    0    0  501  0.00000000000E+00  0.00000000000E+00  0.98324717016E+03  0.98324717017E+03  0.50400001928E-02 0.  1.
        1   -1    0    0  501    0  0.00000000000E+00  0.00000000000E+00 -0.10338205420E+04  0.10338205420E+04  0.50400001928E-02 0. -1.
    10030    2    1    2    0    0  0.00000000000E+00  0.00000000000E+00 -0.50573371800E+02  0.20170677121E+04  0.20164336065E+04 0.  0.
        4    1    3    3  502    0 -0.49687997940E+03 -0.68706990426E+03 -0.57093484061E+03  0.10222147389E+04  0.12699999809E+01 0.  1.
       -4    1    3    3    0  502  0.49687997940E+03  0.68706990426E+03  0.52036146881E+03  0.99485297326E+03  0.12699999809E+01 0. -1.
</event>
<event>
 5   0  0.7843846E-05  0.1986883E+04  0.7818609E-02  0.8612778E-01
        2   -1    0    0  501    0  0.00000000000E+00  0.00000000000E+00  0.17059868902E+04  0.17059868902E+04  0.25500000920E-02 0. -1.
       -2   -1    0    0    0  501  0.00000000000E+00  0.00000000000E+00 -0.57850750194E+03  0.57850750195E+03  0.25500000920E-02 0.  1.
    10030    2    1    2    0    0  0.00000000000E+00  0.00000000000E+00  0.11274793883E+04  0.22844943922E+04  0.19868832016E+04 0.  0.
        2    1    3    3  502    0 -0.41573173968E+03  0.61800364651E+03  0.13196016163E+04  0.15152919891E+04  0.25500000920E-02 0. -1.
       -2    1    3    3    0  502  0.41573173968E+03 -0.61800364651E+03 -0.19212222797E+03  0.76920240312E+03  0.25500000920E-02 0.  1.
</event>
<event>
 5   0  0.7857136E-05  0.1999867E+04  0.7818609E-02  0.8606683E-01
       -2   -1    0    0    0  501  0.00000000000E+00  0.00000000000E+00  0.56814193679E+03  0.56814193680E+03  0.25500000920E-02 0. -1.
        2   -1    0    0  501    0  0.00000000000E+00  0.00000000000E+00 -0.17598890305E+04  0.17598890305E+04  0.25500000920E-02 0.  1.
    10030    2    1    2    0    0  0.00000000000E+00  0.00000000000E+00 -0.11917470937E+04  0.23280309673E+04  0.19998667579E+04 0.  0.
        4    1    3    3  502    0  0.88458727691E+02  0.23426126840E+03 -0.17227984975E+04  0.17409019399E+04  0.12699999809E+01 0.  1.
       -4    1    3    3    0  502 -0.88458727691E+02 -0.23426126840E+03  0.53105140383E+03  0.58712902738E+03  0.12699999809E+01 0. -1.
</event>
<event>
 5   0  0.7935008E-05  0.1998810E+04  0.7818609E-02  0.8607177E-01
        2   -1    0    0  501    0  0.00000000000E+00  0.00000000000E+00  0.22985775485E+04  0.22985775485E+04  0.25500000920E-02 0. -1.
       -2   -1    0    0    0  501  0.00000000000E+00  0.00000000000E+00 -0.43453400779E+03  0.43453400780E+03  0.25500000920E-02 0.  1.
    10030    2    1    2    0    0  0.00000000000E+00  0.00000000000E+00  0.18640435407E+04  0.27331115563E+04  0.19988097602E+04 0.  0.
        3    1    3    3  502    0  0.60420561596E+03 -0.32274015848E+03 -0.63047962998E+02  0.68789584393E+03  0.10100000352E+00 0.  1.
       -3    1    3    3    0  502 -0.60420561596E+03  0.32274015848E+03  0.19270915037E+04  0.20452157124E+04  0.10100000352E+00 0. -1.
</event>
<event>
 5   0  0.3970042E-05  0.1926968E+04  0.7818609E-02  0.8641548E-01
       -1   -1    0    0    0  501  0.00000000000E+00  0.00000000000E+00  0.61641292777E+03  0.61641292779E+03  0.50400001928E-02 0. -1.
        1   -1    0    0  501    0  0.00000000000E+00  0.00000000000E+00 -0.15059732606E+04  0.15059732606E+04  0.50400001928E-02 0.  1.
    10030    2    1    2    0    0  0.00000000000E+00  0.00000000000E+00 -0.88956033279E+03  0.21223861883E+04  0.19269679673E+04 0.  0.
        3    1    3    3  502    0  0.59139386444E+03 -0.62358271120E+03 -0.92449456288E+03  0.12622568311E+04  0.10100000352E+00 0.  1.
       -3    1    3    3    0  502 -0.59139386444E+03  0.62358271120E+03  0.34934230089E+02  0.86012935727E+03  0.10100000352E+00 0. -1.
</event>
<event>
 5   0  0.7935008E-05  0.2009689E+04  0.7818609E-02  0.8602104E-01
       -2   -1    0    0    0  501  0.00000000000E+00  0.00000000000E+00  0.82545484845E+03  0.82545484846E+03  0.25500000920E-02 0.  1.
        2   -1    0    0  501    0  0.00000000000E+00  0.00000000000E+00 -0.12232194064E+04  0.12232194064E+04  0.25500000920E-02 0. -1.
    10030    2    1    2    0    0  0.00000000000E+00  0.00000000000E+00 -0.39776455793E+03  0.20486742548E+04  0.20096889209E+04 0.  0.
        3    1    3    3  502    0 -0.12079662673E+03  0.29595183018E+03  0.77224309321E+03  0.83578628609E+03  0.10100000352E+00 0.  1.
       -3    1    3    3    0  502  0.12079662673E+03 -0.29595183018E+03 -0.11700076511E+04  0.12128879688E+04  0.10100000352E+00 0. -1.
</event>
<event>
 5   0  0.7843846E-05  0.1995214E+04  0.7818609E-02  0.8608862E-01
       -2   -1    0    0    0  501  0.00000000000E+00  0.00000000000E+00  0.52062123824E+03  0.52062123825E+03  0.25500000920E-02 0. -1.
        2   -1    0    0  501    0  0.00000000000E+00  0.00000000000E+00 -0.19115995026E+04  0.19115995026E+04  0.25500000920E-02 0.  1.
    10030    2    1    2    0    0  0.00000000000E+00  0.00000000000E+00 -0.13909782643E+04  0.24322207408E+04  0.19952135726E+04 0.  0.
        2    1    3    3  502    0  0.15746192355E+03  0.73150294835E+03  0.10881840221E+03  0.75612979407E+03  0.25500000920E-02 0. -1.
       -2    1    3    3    0  502 -0.15746192355E+03 -0.73150294835E+03 -0.14997966665E+04  0.16760909467E+04  0.25500000920E-02 0.  1.
</event>
<event>
 5   0  0.3970042E-05  0.2012677E+04  0.7818609E-02  0.8600716E-01
       -1   -1    0    0    0  501  0.00000000000E+00  0.00000000000E+00  0.44779810657E+03  0.44779810660E+03  0.50400001928E-02 0. -1.
        1   -1    0    0  501    0  0.00000000000E+00  0.00000000000E+00 -0.22615495113E+04  0.22615495113E+04  0.50400001928E-02 0.  1.
    10030    2    1    2    0    0  0.00000000000E+00  0.00000000000E+00 -0.18137514047E+04  0.27093476179E+04  0.20126774099E+04 0.  0.
        3    1    3    3  502    0 -0.31779125329E+03  0.81365424887E+03 -0.23421850262E+03  0.90436874921E+03  0.10100000352E+00 0. -1.
       -3    1    3    3    0  502  0.31779125329E+03 -0.81365424887E+03 -0.15795329021E+04  0.18049788687E+04  0.10100000352E+00 0.  1.
</event>
<event>
 5   0  0.8011197E-05  0.1961680E+04  0.7818609E-02  0.8624749E-01
        2   -1    0    0  501    0  0.00000000000E+00  0.00000000000E+00  0.15124762002E+04  0.15124762002E+04  0.25500000920E-02 0.  1.
       -2   -1    0    0    0  501  0.00000000000E+00  0.00000000000E+00 -0.63607431467E+03  0.63607431467E+03  0.25500000920E-02 0. -1.
    10030    2    1    2    0    0  0.00000000000E+00  0.00000000000E+00  0.87640188551E+03  0.21485505148E+04  0.19616801599E+04 0.  0.
        5    1    3    3  502    0  0.74649079003E+03  0.63607073441E+03  0.45332560074E+03  0.10804446627E+04  0.46999998093E+01 0. -1.
       -5    1    3    3    0  502 -0.74649079003E+03 -0.63607073441E+03  0.42307628477E+03  0.10681058522E+04  0.46999998093E+01 0.  1.
</event>
<event>
 5   0  0.3549426E-05  0.1996423E+04  0.7818609E-02  0.8608295E-01
        1   -1    0    0  501    0  0.00000000000E+00  0.00000000000E+00  0.21766078132E+04  0.21766078132E+04  0.50400001928E-02 0.  1.
       -1   -1    0    0    0  501  0.00000000000E+00  0.00000000000E+00 -0.45778876168E+03  0.45778876170E+03  0.50400001928E-02 0. -1.
    10030    2    1    2    0    0  0.00000000000E+00  0.00000000000E+00  0.17188190515E+04  0.26343965749E+04  0.19964233975E+04 0.  0.
        5    1    3    3  502    0  0.15238162650E+03  0.98450699076E+03  0.94213571920E+03  0.13711732124E+04  0.46999998093E+01 0.  1.
       -5    1    3    3    0  502 -0.15238162650E+03 -0.98450699076E+03  0.77668333233E+03  0.12632233625E+04  0.46999998093E+01 0. -1.
</event>
<event>
 5   0  0.8011197E-05  0.1990030E+04  0.7818609E-02  0.8611296E-01
       -2   -1    0    0    0  501  0.00000000000E+00  0.00000000000E+00  0.56802310908E+03  0.56802310909E+03  0.25500000920E-02 0.  1.
        2   -1    0    0  501    0  0.00000000000E+00  0.00000000000E+00 -0.17429834666E+04  0.17429834666E+04  0.25500000920E-02 0. -1.
    10030    2    1    2    0    0  0.00000000000E+00  0.00000000000E+00 -0.11749603576E+04  0.23110065757E+04  0.19900300378E+04 0.  0.
        5    1    3    3  502    0  0.25877955915E+03 -0.50176179265E+03  0.36400101720E+03  0.67175187929E+03  0.46999998093E+01 0.  1.
       -5    1    3    3    0  502 -0.25877955915E+03  0.50176179265E+03 -0.15389613748E+04  0.16392546964E+04  0.46999998093E+01 0. -1.
</event>
<event>
 5   0  0.8022574E-05  0.1999737E+04  0.7818609E-02  0.8606744E-01
       -2   -1    0    0    0  501  0.00000000000E+00  0.00000000000E+00  0.89671612480E+03  0.89671612481E+03  0.25500000920E-02 0. -1.
        2   -1    0    0  501    0  0.00000000000E+00  0.00000000000E+00 -0.11148868999E+04  0.11148868999E+04  0.25500000920E-02 0.  1.
    10030    2    1    2    0    0  0.00000000000E+00  0.00000000000E+00 -0.21817077505E+03  0.20116030247E+04  0.19997370431E+04 0.  0.
        1    1    3    3  502    0  0.26772270531E+03 -0.16259687079E+03  0.84608772555E+03  0.90220708747E+03  0.50400001928E-02 0. -1.
       -1    1    3    3    0  502 -0.26772270531E+03  0.16259687079E+03 -0.10642585006E+04  0.11093959372E+04  0.50400001928E-02 0.  1.
</event>
<event>
 5   0  0.7857136E-05  0.2110430E+04  0.7818609E-02  0.8556663E-01
       -2   -1    0    0    0  501  0.00000000000E+00  0.00000000000E+00  0.77850734445E+03  0.77850734445E+03  0.25500000920E-02 0. -1.
        2   -1    0    0  501    0  0.00000000000E+00  0.00000000000E+00 -0.14302743187E+04  0.14302743187E+04  0.25500000920E-02 0.  1.
    10030    2    1    2    0    0  0.00000000000E+00  0.00000000000E+00 -0.65176697428E+03  0.22087816632E+04  0.21104303464E+04 0.  0.
        4    1    3    3  502    0 -0.18074485468E+02 -0.67640160820E+03  0.52156188537E+03  0.85432677342E+03  0.12699999809E+01 0. -1.
       -4    1    3    3    0  502  0.18074485468E+02  0.67640160820E+03 -0.11733288597E+04  0.13544548898E+04  0.12699999809E+01 0.  1.
</event>
<event>
 5   0  0.3970042E-05  0.2002686E+04  0.7818609E-02  0.8605366E-01
        1   -1    0    0  501    0  0.00000000000E+00  0.00000000000E+00  0.19446096594E+04  0.19446096594E+04  0.50400001928E-02 0. -1.
       -1   -1    0    0    0  501  0.00000000000E+00  0.00000000000E+00 -0.51562440192E+03  0.51562440194E+03  0.50400001928E-02 0.  1.
    10030    2    1    2    0    0  0.00000000000E+00  0.00000000000E+00  0.14289852575E+04  0.24602340613E+04  0.20026863884E+04 0.  0.
        3    1    3    3  502    0 -0.64759937085E+03 -0.34074694694E+03 -0.12518476355E+03  0.74240464856E+03  0.10100000352E+00 0.  1.
       -3    1    3    3    0  502  0.64759937085E+03  0.34074694694E+03  0.15541700210E+04  0.17178294128E+04  0.10100000352E+00 0. -1.
</event>
<event>
 5   0  0.3787698E-05  0.2012863E+04  0.7818609E-02  0.8600630E-01
        1   -1    0    0  501    0  0.00000000000E+00  0.00000000000E+00  0.91117757463E+03  0.91117757464E+03  0.50400001928E-02 0.  1.
       -1   -1    0    0    0  501  0.00000000000E+00  0.00000000000E+00 -0.11116430724E+04  0.11116430724E+04  0.50400001928E-02 0. -1.
    10030    2    1    2    0    0  0.00000000000E+00  0.00000000000E+00 -0.20046549775E+03  0.20228206470E+04  0.20128628752E+04 0.  0.
        4    1    3    3  502    0 -0.51493947512E+03  0.63767044656E+03  0.48670827458E+03  0.95324331569E+03  0.12699999809E+01 0.  1.
       -4    1    3    3    0  502  0.51493947512E+03 -0.63767044656E+03 -0.68717377233E+03  0.10695773313E+04  0.12699999809E+01 0. -1.
</event>
<event>
 5   0  0.8022574E-05  0.2002907E+04  0.7818609E-02  0.8605263E-01
        2   -1    0    0  501    0  0.00000000000E+00  0.00000000000E+00  0.46725296875E+03  0.46725296876E+03  0.25500000920E-02 0. -1.
       -2   -1    0    0    0  501  0.00000000000E+00  0.00000000000E+00 -0.21463943503E+04  0.21463943503E+04  0.25500000920E-02 0.  1.
    10030    2    1    2    0    0  0.00000000000E+00  0.00000000000E+00 -0.16791413816E+04  0.26136473191E+04  0.20029070196E+04 0.  0.
        1    1    3    3  502    0 -0.26600335830E+03 -0.88335265892E+03 -0.33108530935E+03  0.98014651391E+03  0.50400001928E-02 0. -1.
       -1    1    3    3    0  502  0.26600335830E+03  0.88335265892E+03 -0.13480560722E+04  0.16335008052E+04  0.50400001928E-02 0.  1.
</event>
<event>
 5   0  0.3818907E-05  0.1976812E+04  0.7818609E-02  0.8617539E-01
       -1   -1    0    0    0  501  0.00000000000E+00  0.00000000000E+00  0.78501402226E+03  0.78501402227E+03  0.50400001928E-02 0.  1.
        1   -1    0    0  501    0  0.00000000000E+00  0.00000000000E+00 -0.12444960638E+04  0.12444960638E+04  0.50400001928E-02 0. -1.
    10030    2    1    2    0    0  0.00000000000E+00  0.00000000000E+00 -0.45948204151E+03  0.20295100861E+04  0.19768124451E+04 0.  0.
        1    1    3    3  502    0 -0.77623304231E+03 -0.37567242435E+03 -0.72560652827E+03  0.11270192280E+04  0.50400001928E-02 0. -1.
       -1    1    3    3    0  502  0.77623304231E+03  0.37567242435E+03  0.26612448676E+03  0.90249085805E+03  0.50400001928E-02 0.  1.
</event>
<event>
 5   0  0.7857136E-05  0.2000142E+04  0.7818609E-02  0.8606554E-01
       -2   -1    0    0    0  501  0.00000000000E+00  0.00000000000E+00  0.92805054328E+03  0.92805054328E+03  0.25500000920E-02 0. -1.
        2   -1    0    0  501    0  0.00000000000E+00  0.00000000000E+00 -0.10776809049E+04  0.10776809049E+04  0.25500000920E-02 0.  1.
    10030    2    1    2    0    0  0.00000000000E+00  0.00000000000E+00 -0.14963036161E+03  0.20057314482E+04  0.20001423442E+04 0.  0.
        4    1    3    3  502    0 -0.87034021765E+03  0.53475900497E+02 -0.56586604625E+03  0.10394988031E+04  0.12699999809E+01 0.  1.
       -4    1    3    3    0  502  0.87034021765E+03 -0.53475900497E+02  0.41623568464E+03  0.96623264510E+03  0.12699999809E+01 0. -1.
</event>
<event>
 5   0  0.8011197E-05  0.1996077E+04  0.7818609E-02  0.8608457E-01
       -2   -1    0    0    0  501  0.00000000000E+00  0.00000000000E+00  0.98250281006E+03  0.98250281006E+03  0.25500000920E-02 0.  1.
        2   -1    0    0  501    0  0.00000000000E+00  0.00000000000E+00 -0.10138194308E+04  0.10138194308E+04  0.25500000920E-02 0. -1.
    10030    2    1    2    0    0  0.00000000000E+00  0.00000000000E+00 -0.31316620741E+02  0.19963222409E+04  0.19960765914E+04 0.  0.
        5    1    3    3  502    0  0.98442225343E+03 -0.10732071067E+03  0.10866886086E+03  0.99621078056E+03  0.46999998093E+01 0. -1.
       -5    1    3    3    0  502 -0.98442225343E+03  0.10732071067E+03 -0.13998548160E+03  0.10001114603E+04  0.46999998093E+01 0.  1.
</event>
<event>
 5   0  0.8011197E-05  0.2021500E+04  0.7818609E-02  0.8596634E-01
        2   -1    0    0  501    0  0.00000000000E+00  0.00000000000E+00  0.20964670548E+04  0.20964670548E+04  0.25500000920E-02 0. -1.
       -2   -1    0    0    0  501  0.00000000000E+00  0.00000000000E+00 -0.48730354436E+03  0.48730354437E+03  0.25500000920E-02 0.  1.
    10030    2    1    2    0    0  0.00000000000E+00  0.00000000000E+00  0.16091635104E+04  0.25837705992E+04  0.20215002611E+04 0.  0.
        5    1    3    3  502    0 -0.15301795035E+03  0.57732089197E+03  0.18467833413E+04  0.19409648902E+04  0.46999998093E+01 0. -1.
       -5    1    3    3    0  502  0.15301795035E+03 -0.57732089197E+03 -0.23761983085E+03  0.64280570894E+03  0.46999998093E+01 0.  1.
</event>
<event>
 5   0  0.3787698E-05  0.2000374E+04  0.7818609E-02  0.8606446E-01
        1   -1    0    0  501    0  0.00000000000E+00  0.00000000000E+00  0.22623653370E+04  0.22623653370E+04  0.50400001928E-02 0. -1.
       -1   -1    0    0    0  501  0.00000000000E+00  0.00000000000E+00 -0.44218055041E+03  0.44218055044E+03  0.50400001928E-02 0.  1.
    10030    2    1    2    0    0  0.00000000000E+00  0.00000000000E+00  0.18201847866E+04  0.27045458874E+04  0.20003739150E+04 0.  0.
        4    1    3    3  502    0  0.23207856768E+02  0.82261754424E+03  0.14153806473E+03  0.83502866141E+03  0.12699999809E+01 0.  1.
       -4    1    3    3    0  502 -0.23207856768E+02 -0.82261754424E+03  0.16786467218E+04  0.18695172260E+04  0.12699999809E+01 0. -1.
</event>
<event>
 5   0  0.3787698E-05  0.1973570E+04  0.7818609E-02  0.8619078E-01
       -1   -1    0    0    0  501  0.00000000000E+00  0.00000000000E+00  0.55810009959E+03  0.55810009961E+03  0.50400001928E-02 0.  1.
        1   -1    0    0  501    0  0.00000000000E+00  0.00000000000E+00 -0.17447491694E+04  0.17447491695E+04  0.50400001928E-02 0. -1.
    10030    2    1    2    0    0  0.00000000000E+00  0.00000000000E+00 -0.11866490699E+04  0.23028492691E+04  0.19735700497E+04 0.  0.
        4    1    3    3  502    0  0.65813887653E+03  0.56350394482E+03 -0.11444156664E+04  0.14353997029E+04  0.12699999809E+01 0. -1.
       -4    1    3    3    0  502 -0.65813887653E+03 -0.56350394482E+03 -0.42233403486E+02  0.86744956620E+03  0.12699999809E+01 0.  1.
</event>
<event>
 5   0  0.3818907E-05  0.1997148E+04  0.7818609E-02  0.8607955E-01
        1   -1    0    0  501    0  0.00000000000E+00  0.00000000000E+00  0.20174566017E+04  0.20174566017E+04  0.50400001928E-02 0.  1.
       -1   -1    0    0    0  501  0.00000000000E+00  0.00000000000E+00 -0.49426109590E+03  0.49426109593E+03  0.50400001928E-02 0. -1.
    10030    2    1    2    0    0  0.00000000000E+00  0.00000000000E+00  0.15231955058E+04  0.25117176977E+04  0.19971482779E+04 0.  0.
        1    1    3    3  502    0  0.12765427625E+03  0.81623664209E+03  0.56176627429E+02  0.82806623143E+03  0.50400001928E-02 0. -1.
       -1    1    3    3    0  502 -0.12765427625E+03 -0.81623664209E+03  0.14670188784E+04  0.16836514662E+04  0.50400001928E-02 0.  1.
</event>
<event>
 5   0  0.8011197E-05  0.1963303E+04  0.7818609E-02  0.8623973E-01
        2   -1    0    0  501    0  0.00000000000E+00  0.00000000000E+00  0.15035888875E+04  0.15035888875E+04  0.25500000920E-02 0. -1.
       -2   -1    0    0    0  501  0.00000000000E+00  0.00000000000E+00 -0.64089296040E+03  0.64089296040E+03  0.25500000920E-02 0.  1.
    10030    2    1    2    0    0  0.00000000000E+00  0.00000000000E+00  0.86269592706E+03  0.21444818479E+04  0.19633028634E+04 0.  0.
        5    1    3    3  502    0  0.45127048554E+03 -0.38347341396E+03  0.12864878421E+04  0.14162520850E+04  0.46999998093E+01 0. -1.
       -5    1    3    3    0  502 -0.45127048554E+03  0.38347341396E+03 -0.42379191502E+03  0.72822976290E+03  0.46999998093E+01 0.  1.
</event>
<event>
 5   0  0.7857136E-05  0.1999217E+04  0.7818609E-02  0.8606987E-01
        2   -1    0    0  501    0  0.00000000000E+00  0.00000000000E+00  0.10377176908E+04  0.10377176908E+04  0.25500000920E-02 0. -1.
       -2   -1    0    0    0  501  0.00000000000E+00  0.00000000000E+00 -0.96289908698E+03  0.96289908698E+03  0.25500000920E-02 0.  1.
    10030    2    1    2    0    0  0.00000000000E+00  0.00000000000E+00  0.74818603795E+02  0.20006167778E+04  0.19992172638E+04 0.  0.
        4    1    3    3  502    0  0.24776312524E+02  0.44729279604E+02 -0.96158870698E+03  0.96294809227E+03  0.12699999809E+01 0.  1.
       -4    1    3    3    0  502 -0.24776312524E+02 -0.44729279604E+02  0.10364073108E+04  0.10376686855E+04  0.12699999809E+01 0. -1.
</event>
<event>
 5   0  0.8022574E-05  0.2066693E+04  0.7818609E-02  0.8576059E-01
        2   -1    0    0  501    0  0.00000000000E+00  0.00000000000E+00  0.92009998636E+03  0.92009998637E+03  0.25500000920E-02 0.  1.
       -2   -1    0    0    0  501  0.00000000000E+00  0.00000000000E+00 -0.11605317278E+04  0.11605317278E+04  0.25500000920E-02 0. -1.
    10030    2    1    2    0    0  0.00000000000E+00  0.00000000000E+00 -0.24043174143E+03  0.20806317142E+04  0.20666932302E+04 0.  0.
        1    1    3    3  502    0  0.62912304710E+03  0.76364839583E+03 -0.42030429818E+03  0.10749932018E+04  0.50400001928E-02 0. -1.
       -1    1    3    3    0  502 -0.62912304710E+03 -0.76364839583E+03  0.17987255675E+03  0.10056385124E+04  0.50400001928E-02 0.  1.
</event>
<event>
 5   0  0.8022574E-05  0.1999309E+04  0.7818609E-02  0.8606944E-01
        2   -1    0    0  501    0  0.00000000000E+00  0.00000000000E+00  0.13782900170E+04  0.13782900170E+04  0.25500000920E-02 0. -1.
       -2   -1    0    0    0  501  0.00000000000E+00  0.00000000000E+00 -0.72503548614E+03  0.72503548615E+03  0.25500000920E-02 0.  1.
    10030    2    1    2    0    0  0.00000000000E+00  0.00000000000E+00  0.65325453087E+03  0.21033255032E+04  0.19993090532E+04 0.  0.
        1    1    3    3  502    0  0.66300066608E+03  0.74657933605E+03  0.37771918905E+03  0.10675309710E+04  0.50400001928E-02 0.  1.
       -1    1    3    3    0  502 -0.66300066608E+03 -0.74657933605E+03  0.27553534182E+03  0.10357945322E+04  0.50400001928E-02 0. -1.
</event>
<event>
 5   0  0.3772949E-05  0.1973775E+04  0.7818609E-02  0.8618981E-01
        1   -1    0    0  501    0  0.00000000000E+00  0.00000000000E+00  0.29618086641E+04  0.29618086642E+04  0.50400001928E-02 0. -1.
       -1   -1    0    0    0  501  0.00000000000E+00  0.00000000000E+00 -0.32883532292E+03  0.32883532296E+03  0.50400001928E-02 0.  1.
    10030    2    1    2    0    0  0.00000000000E+00  0.00000000000E+00  0.26329733412E+04  0.32906439871E+04  0.19737753758E+04 0.  0.
        2    1    3    3  502    0 -0.22368126104E+03  0.57619090673E+03  0.25991537864E+04  0.26716342700E+04  0.25500000920E-02 0. -1.
       -2    1    3    3    0  502  0.22368126104E+03 -0.57619090673E+03  0.33819554853E+02  0.61900971708E+03  0.25500000920E-02 0.  1.
</event>
<event>
 5   0  0.3549426E-05  0.2006929E+04  0.7818609E-02  0.8603388E-01
       -1   -1    0    0    0  501  0.00000000000E+00  0.00000000000E+00  0.10717488722E+04  0.10717488722E+04  0.50400001928E-02 0. -1.
        1   -1    0    0  501    0  0.00000000000E+00  0.00000000000E+00 -0.93953034388E+03  0.93953034389E+03  0.50400001928E-02 0.  1.
    10030    2    1    2    0    0  0.00000000000E+00  0.00000000000E+00  0.13221852830E+03  0.20112792161E+04  0.20069285851E+04 0.  0.
        5    1    3    3  502    0  0.47595928621E+03  0.28180292465E+03 -0.77294424210E+03  0.95048146845E+03  0.46999998093E+01 0.  1.
       -5    1    3    3    0  502 -0.47595928621E+03 -0.28180292465E+03  0.90516277040E+03  0.10607977476E+04  0.46999998093E+01 0. -1.
</event>
<event>
 5   0  0.8011197E-05  0.2015454E+04  0.7818609E-02  0.8599429E-01
       -2   -1    0    0    0  501  0.00000000000E+00  0.00000000000E+00  0.10986617091E+04  0.10986617091E+04  0.25500000920E-02 0. -1.
        2   -1    0    0  501    0  0.00000000000E+00  0.00000000000E+00 -0.92431859347E+03  0.92431859347E+03  0.25500000920E-02 0.  1.
    10030    2    1    2    0    0  0.00000000000E+00  0.00000000000E+00  0.17434311562E+03  0.20229803026E+04  0.20154537411E+04 0.  0.
        5    1    3    3  502    0  0.25011910306E+03 -0.33740400973E+03  0.10066110971E+04  0.10907286657E+04  0.46999998093E+01 0. -1.
       -5    1    3    3    0  502 -0.25011910306E+03  0.33740400973E+03 -0.83226798144E+03  0.93225163685E+03  0.46999998093E+01 0.  1.
</event>
<event>
 5   0  0.3787698E-05  0.1986422E+04  0.7818609E-02  0.8612995E-01
       -1   -1    0    0    0  501  0.00000000000E+00  0.00000000000E+00  0.82077635140E+03  0.82077635141E+03  0.50400001928E-02 0. -1.
        1   -1    0    0  501    0  0.00000000000E+00  0.00000000000E+00 -0.12018721852E+04  0.12018721852E+04  0.50400001928E-02 0.  1.
    10030    2    1    2    0    0  0.00000000000E+00  0.00000000000E+00 -0.38109583379E+03  0.20226485366E+04  0.19864221777E+04 0.  0.
        4    1    3    3  502    0 -0.68448028491E+03 -0.67533938945E+03 -0.44382114628E+03  0.10590445572E+04  0.12699999809E+01 0.  1.
       -4    1    3    3    0  502  0.68448028491E+03  0.67533938945E+03  0.62725312494E+02  0.96360397939E+03  0.12699999809E+01 0. -1.
</event>
<event>
 5   0  0.7843846E-05  0.2021864E+04  0.7818609E-02  0.8596466E-01
        2   -1    0    0  501    0  0.00000000000E+00  0.00000000000E+00  0.80800419816E+03  0.80800419816E+03  0.25500000920E-02 0.  1.
       -2   -1    0    0    0  501  0.00000000000E+00  0.00000000000E+00 -0.12648240285E+04  0.12648240285E+04  0.25500000920E-02 0. -1.
    10030    2    1    2    0    0  0.00000000000E+00  0.00000000000E+00 -0.45681983035E+03  0.20728282267E+04  0.20218636205E+04 0.  0.
        2    1    3    3  502    0 -0.72164745561E+03  0.47785738365E+03 -0.76393733001E+03  0.11544362146E+04  0.25500000920E-02 0. -1.
       -2    1    3    3    0  502  0.72164745561E+03 -0.47785738365E+03  0.30711749966E+03  0.91839201211E+03  0.25500000920E-02 0.  1.
</event>
<event>
 5   0  0.3818907E-05  0.2000407E+04  0.7818609E-02  0.8606430E-01
       -1   -1    0    0    0  501  0.00000000000E+00  0.00000000000E+00  0.45492423705E+03  0.45492423708E+03  0.50400001928E-02 0. -1.
        1   -1    0    0  501    0  0.00000000000E+00  0.00000000000E+00 -0.21990629866E+04  0.21990629866E+04  0.50400001928E-02 0.  1.
    10030    2    1    2    0    0  0.00000000000E+00  0.00000000000E+00 -0.17441387495E+04  0.26539872237E+04  0.20004070100E+04 0.  0.
        1    1    3    3  502    0  0.16448544402E+03  0.51686580966E+03  0.24285323850E+03  0.59429237078E+03  0.50400001928E-02 0. -1.
       -1    1    3    3    0  502 -0.16448544402E+03 -0.51686580966E+03 -0.19869919880E+04  0.20596948529E+04  0.50400001928E-02 0.  1.
</event>
<event>
 5   0  0.7935008E-05  0.2002141E+04  0.7818609E-02  0.8605620E-01
        2   -1    0    0  501    0  0.00000000000E+00  0.00000000000E+00  0.85372114093E+03  0.85372114094E+03  0.25500000920E-02 0.  1.
       -2   -1    0    0    0  501  0.00000000000E+00  0.00000000000E+00 -0.11738521051E+04  0.11738521051E+04  0.25500000920E-02 0. -1.
    10030    2    1    2    0    0  0.00000000000E+00  0.00000000000E+00 -0.32013096421E+03  0.20275732461E+04  0.20021412123E+04 0.  0.
        3    1    3    3  502    0 -0.34464120362E+03 -0.62965410471E+01  0.79172672110E+03  0.86350936113E+03  0.10100000352E+00 0.  1.
       -3    1    3    3    0  502  0.34464120362E+03  0.62965410471E+01 -0.11118576853E+04  0.11640638849E+04  0.10100000352E+00 0. -1.
</event>
<event>
 5   0  0.8011197E-05  0.1993440E+04  0.7818609E-02  0.8609694E-01
        2   -1    0    0  501    0  0.00000000000E+00  0.00000000000E+00  0.13415083006E+04  0.13415083006E+04  0.25500000920E-02 0. -1.
       -2   -1    0    0    0  501  0.00000000000E+00  0.00000000000E+00 -0.74054732672E+03  0.74054732673E+03  0.25500000920E-02 0.  1.
    10030    2    1    2    0    0  0.00000000000E+00  0.00000000000E+00  0.60096097391E+03  0.20820556274E+04  0.19934396262E+04 0.  0.
        5    1    3    3  502    0 -0.13404897940E+02  0.75842717411E+03  0.97578011798E+03  0.12359451438E+04  0.46999998093E+01 0. -1.
       -5    1    3    3    0  502  0.13404897940E+02 -0.75842717411E+03 -0.37481914408E+03  0.84611048361E+03  0.46999998093E+01 0.  1.
</event>
<event>
 5   0  0.3818907E-05  0.1994503E+04  0.7818609E-02  0.8609195E-01
       -1   -1    0    0    0  501  0.00000000000E+00  0.00000000000E+00  0.38301480084E+03  0.38301480087E+03  0.50400001928E-02 0. -1.
        1   -1    0    0  501    0  0.00000000000E+00  0.00000000000E+00 -0.25965326159E+04  0.25965326159E+04  0.50400001928E-02 0.  1.
    10030    2    1    2    0    0  0.00000000000E+00  0.00000000000E+00 -0.22135178151E+04  0.29795474168E+04  0.19945028682E+04 0.  0.
        1    1    3    3  502    0 -0.35697595171E+03 -0.63156383152E+03 -0.21289544748E+04  0.22491669256E+04  0.50400001928E-02 0.  1.
       -1    1    3    3    0  502  0.35697595171E+03  0.63156383152E+03 -0.84563340277E+02  0.73038049120E+03  0.50400001928E-02 0. -1.
</event>
<event>
 5   0  0.3787698E-05  0.1994220E+04  0.7818609E-02  0.8609328E-01
       -1   -1    0    0    0  501  0.00000000000E+00  0.00000000000E+00  0.12885576993E+04  0.12885576993E+04  0.50400001928E-02 0.  1.
        1   -1    0    0  501    0  0.00000000000E+00  0.00000000000E+00 -0.77158246482E+03  0.77158246484E+03  0.50400001928E-02 0. -1.
    10030    2    1    2    0    0  0.00000000000E+00  0.00000000000E+00  0.51697523443E+03  0.20601401641E+04  0.19942201741E+04 0.  0.
        4    1    3    3  502    0 -0.56087243528E+03 -0.37185706738E+03 -0.50161336947E+03  0.83932898946E+03  0.12699999809E+01 0. -1.
       -4    1    3    3    0  502  0.56087243528E+03  0.37185706738E+03  0.10185886039E+04  0.12208111746E+04  0.12699999809E+01 0.  1.
</event>
<event>
 5   0  0.3549426E-05  0.1974046E+04  0.7818609E-02  0.8618852E-01
        1   -1    0    0  501    0  0.00000000000E+00  0.00000000000E+00  0.65128267103E+03  0.65128267105E+03  0.50400001928E-02 0. -1.
       -1   -1    0    0    0  501  0.00000000000E+00  0.00000000000E+00 -0.14958398382E+04  0.14958398382E+04  0.50400001928E-02 0.  1.
    10030    2    1    2    0    0  0.00000000000E+00  0.00000000000E+00 -0.84455716720E+03  0.21471225093E+04  0.19740461649E+04 0.  0.
        5    1    3    3  502    0 -0.61435640808E+03 -0.76466237886E+03 -0.30288106384E+03  0.10265969894E+04  0.46999998093E+01 0.  1.
       -5    1    3    3    0  502  0.61435640808E+03  0.76466237886E+03 -0.54167610336E+03  0.11205255199E+04  0.46999998093E+01 0. -1.
</event>
<event>
 5   0  0.3549426E-05  0.2009090E+04  0.7818609E-02  0.8602383E-01
        1   -1    0    0  501    0  0.00000000000E+00  0.00000000000E+00  0.95366368100E+03  0.95366368102E+03  0.50400001928E-02 0.  1.
       -1   -1    0    0    0  501  0.00000000000E+00  0.00000000000E+00 -0.10581407853E+04  0.10581407854E+04  0.50400001928E-02 0. -1.
    10030    2    1    2    0    0  0.00000000000E+00  0.00000000000E+00 -0.10447710434E+03  0.20118044664E+04  0.20090897804E+04 0.  0.
        5    1    3    3  502    0  0.78387242437E+02 -0.25716345207E+03 -0.10214362084E+04  0.10562346419E+04  0.46999998093E+01 0. -1.
       -5    1    3    3    0  502 -0.78387242437E+02  0.25716345207E+03  0.91695910409E+03  0.95556982447E+03  0.46999998093E+01 0.  1.
</event>
<event>
 5   0  0.8011197E-05  0.2088624E+04  0.7818609E-02  0.8566271E-01
        2   -1    0    0  501    0  0.00000000000E+00  0.00000000000E+00  0.17113319354E+04  0.17113319354E+04  0.25500000920E-02 0. -1.
       -2   -1    0    0    0  501  0.00000000000E+00  0.00000000000E+00 -0.63727382171E+03  0.63727382171E+03  0.25500000920E-02 0.  1.
    10030    2    1    2    0    0  0.00000000000E+00  0.00000000000E+00  0.10740581137E+04  0.23486057571E+04  0.20886235110E+04 0.  0.
        5    1    3    3  502    0  0.16587553453E+03 -0.77715459369E+03 -0.22486505442E+03  0.82587549797E+03  0.46999998093E+01 0.  1.
       -5    1    3    3    0  502 -0.16587553453E+03  0.77715459369E+03  0.12989231681E+04  0.15227302591E+04  0.46999998093E+01 0. -1.
</event>
<event>
 5   0  0.8011197E-05  0.1997060E+04  0.7818609E-02  0.8607996E-01
       -2   -1    0    0    0  501  0.00000000000E+00  0.00000000000E+00  0.64243640073E+03  0.64243640073E+03  0.25500000920E-02 0. -1.
        2   -1    0    0  501    0  0.00000000000E+00  0.00000000000E+00 -0.15520019799E+04  0.15520019799E+04  0.25500000920E-02 0.  1.
    10030    2    1    2    0    0  0.00000000000E+00  0.00000000000E+00 -0.90956557920E+03  0.21944383807E+04  0.19970604056E+04 0.  0.
        5    1    3    3  502    0  0.21956239431E+03  0.61986778142E+03 -0.12804430490E+04  0.14394444078E+04  0.46999998093E+01 0.  1.
       -5    1    3    3    0  502 -0.21956239431E+03 -0.61986778142E+03  0.37087746980E+03  0.75499397285E+03  0.46999998093E+01 0. -1.
</event>
<event>
 5   0  0.7935008E-05  0.2001632E+04  0.7818609E-02  0.8605858E-01
       -2   -1    0    0    0  501  0.00000000000E+00  0.00000000000E+00  0.43315741366E+03  0.43315741366E+03  0.25500000920E-02 0.  1.
        2   -1    0    0  501    0  0.00000000000E+00  0.00000000000E+00 -0.23123980419E+04  0.23123980419E+04  0.25500000920E-02 0. -1.
    10030    2    1    2    0    0  0.00000000000E+00  0.00000000000E+00 -0.18792406283E+04  0.27455554556E+04  0.20016316896E+04 0.  0.
        3    1    3    3  502    0  0.95820021389E+03  0.61558675536E+02 -0.13268442557E+04  0.16378195290E+04  0.10100000352E+00 0.  1.
       -3    1    3    3    0  502 -0.95820021389E+03 -0.61558675536E+02 -0.55239637254E+03  0.11077359266E+04  0.10100000352E+00 0. -1.
</event>
<event>
 5   0  0.8011197E-05  0.2003202E+04  0.7818609E-02  0.8605125E-01
       -2   -1    0    0    0  501  0.00000000000E+00  0.00000000000E+00  0.96005226379E+03  0.96005226379E+03  0.25500000920E-02 0. -1.
        2   -1    0    0  501    0  0.00000000000E+00  0.00000000000E+00 -0.10449483285E+04  0.10449483285E+04  0.25500000920E-02 0.  1.
    10030    2    1    2    0    0  0.00000000000E+00  0.00000000000E+00 -0.84896064742E+02  0.20050005923E+04  0.20032024444E+04 0.  0.
        5    1    3    3  502    0  0.39362381135E+03 -0.29800559850E+03  0.82979040039E+03  0.96556783303E+03  0.46999998093E+01 0. -1.
       -5    1    3    3    0  502 -0.39362381135E+03  0.29800559850E+03 -0.91468646514E+03  0.10394327593E+04  0.46999998093E+01 0.  1.
</event>
<event>
 5   0  0.3772949E-05  0.1969366E+04  0.7818609E-02  0.8621079E-01
        1   -1    0    0  501    0  0.00000000000E+00  0.00000000000E+00  0.11472467961E+04  0.11472467961E+04  0.50400001928E-02 0.  1.
       -1   -1    0    0    0  501  0.00000000000E+00  0.00000000000E+00 -0.84515417638E+03  0.84515417639E+03  0.50400001928E-02 0. -1.
    10030    2    1    2    0    0  0.00000000000E+00  0.00000000000E+00  0.30209261973E+03  0.19924009725E+04  0.19693658077E+04 0.  0.
        2    1    3    3  502    0  0.66686049587E+03  0.72309463304E+03  0.10544524449E+03  0.98928634322E+03  0.25500000920E-02 0.  1.
       -2    1    3    3    0  502 -0.66686049587E+03 -0.72309463304E+03  0.19664737523E+03  0.10031146293E+04  0.25500000920E-02 0. -1.
</event>
<event>
 5   0  0.7935008E-05  0.1997046E+04  0.7818609E-02  0.8608003E-01
       -2   -1    0    0    0  501  0.00000000000E+00  0.00000000000E+00  0.13751960758E+04  0.13751960758E+04  0.25500000920E-02 0.  1.
        2   -1    0    0  501    0  0.00000000000E+00  0.00000000000E+00 -0.72502290192E+03  0.72502290193E+03  0.25500000920E-02 0. -1.
    10030    2    1    2    0    0  0.00000000000E+00  0.00000000000E+00  0.65017317384E+03  0.21002189777E+04  0.19970464687E+04 0.  0.
        3    1    3    3  502    0  0.10852773041E+03 -0.10249347119E+03  0.13633952412E+04  0.13715428443E+04  0.10100000352E+00 0.  1.
       -3    1    3    3    0  502 -0.10852773041E+03  0.10249347119E+03 -0.71322206731E+03  0.72867613341E+03  0.10100000352E+00 0. -1.
</event>
<event>
 5   0  0.7843846E-05  0.1987408E+04  0.7818609E-02  0.8612531E-01
        2   -1    0    0  501    0  0.00000000000E+00  0.00000000000E+00  0.70336300587E+03  0.70336300588E+03  0.25500000920E-02 0.  1.
       -2   -1    0    0    0  501  0.00000000000E+00  0.00000000000E+00 -0.14038946849E+04  0.14038946849E+04  0.25500000920E-02 0. -1.
    10030    2    1    2    0    0  0.00000000000E+00  0.00000000000E+00 -0.70053167905E+03  0.21072576908E+04  0.19874079456E+04 0.  0.
        2    1    3    3  502    0  0.86533071364E+03  0.23584462571E+03 -0.80388248476E+03  0.12044280721E+04  0.25500000920E-02 0. -1.
       -2    1    3    3    0  502 -0.86533071364E+03 -0.23584462571E+03  0.10335080570E+03  0.90282961875E+03  0.25500000920E-02 0.  1.
</event>
<event>
 5   0  0.7935008E-05  0.2004320E+04  0.7818609E-02  0.8604603E-01
       -2   -1    0    0    0  501  0.00000000000E+00  0.00000000000E+00  0.91372698524E+03  0.91372698525E+03  0.25500000920E-02 0.  1.
        2   -1    0    0  501    0  0.00000000000E+00  0.00000000000E+00 -0.10991521691E+04  0.10991521691E+04  0.25500000920E-02 0. -1.
    10030    2    1    2    0    0  0.00000000000E+00  0.00000000000E+00 -0.18542518386E+03  0.20128791543E+04  0.20043203315E+04 0.  0.
        3    1    3    3  502    0 -0.40856320287E+02  0.78383457761E+03 -0.71847777263E+03  0.10640846789E+04  0.10100000352E+00 0. -1.
       -3    1    3    3    0  502  0.40856320287E+02 -0.78383457761E+03  0.53305258878E+03  0.94879447541E+03  0.10100000352E+00 0.  1.
</event>
<event>
 5   0  0.3772949E-05  0.1822269E+04  0.7818609E-02  0.8694546E-01
        1   -1    0    0  501    0  0.00000000000E+00  0.00000000000E+00  0.23298956718E+04  0.23298956718E+04  0.50400001928E-02 0. -1.
       -1   -1    0    0    0  501  0.00000000000E+00  0.00000000000E+00 -0.35631048512E+03  0.35631048516E+03  0.50400001928E-02 0.  1.
    10030    2    1    2    0    0  0.00000000000E+00  0.00000000000E+00  0.19735851867E+04  0.26862061569E+04  0.18222691976E+04 0.  0.
        2    1    3    3  502    0  0.90678846827E+03 -0.16171726537E+02  0.11156343412E+04  0.14377645267E+04  0.25500000920E-02 0.  1.
       -2    1    3    3    0  502 -0.90678846827E+03  0.16171726537E+02  0.85795084543E+03  0.12484416302E+04  0.25500000920E-02 0. -1.
</event>
<event>
 5   0  0.7843846E-05  0.2003294E+04  0.7818609E-02  0.8605082E-01
        2   -1    0    0  501    0  0.00000000000E+00  0.00000000000E+00  0.13914866693E+04  0.13914866693E+04  0.25500000920E-02 0.  1.
       -2   -1    0    0    0  501  0.00000000000E+00  0.00000000000E+00 -0.72102522305E+03  0.72102522306E+03  0.25500000920E-02 0. -1.
    10030    2    1    2    0    0  0.00000000000E+00  0.00000000000E+00  0.67046144625E+03  0.21125118924E+04  0.20032942731E+04 0.  0.
        2    1    3    3  502    0 -0.76283158794E+02  0.95591896037E+03  0.30154150911E+02  0.95943183808E+03  0.25500000920E-02 0. -1.
       -2    1    3    3    0  502  0.76283158794E+02 -0.95591896037E+03  0.64030729534E+03  0.11530800543E+04  0.25500000920E-02 0.  1.
</event>
<event>
 5   0  0.3787698E-05  0.1982028E+04  0.7818609E-02  0.8615070E-01
        1   -1    0    0  501    0  0.00000000000E+00  0.00000000000E+00  0.26615129500E+04  0.26615129500E+04  0.50400001928E-02 0.  1.
       -1   -1    0    0    0  501  0.00000000000E+00  0.00000000000E+00 -0.36900395072E+03  0.36900395075E+03  0.50400001928E-02 0. -1.
    10030    2    1    2    0    0  0.00000000000E+00  0.00000000000E+00  0.22925089993E+04  0.30305169008E+04  0.19820280457E+04 0.  0.
        4    1    3    3  502    0 -0.54762154562E+03 -0.26743152049E+03  0.23411233425E+04  0.24191463563E+04  0.12699999809E+01 0.  1.
       -4    1    3    3    0  502  0.54762154562E+03  0.26743152049E+03 -0.48614343233E+02  0.61137054447E+03  0.12699999809E+01 0. -1.
</event>
<event>
 5   0  0.3787698E-05  0.1993858E+04  0.7818609E-02  0.8609498E-01
       -1   -1    0    0    0  501  0.00000000000E+00  0.00000000000E+00  0.48354661601E+03  0.48354661603E+03  0.50400001928E-02 0.  1.
        1   -1    0    0  501    0  0.00000000000E+00  0.00000000000E+00 -0.20553705498E+04  0.20553705498E+04  0.50400001928E-02 0. -1.
    10030    2    1    2    0    0  0.00000000000E+00  0.00000000000E+00 -0.15718239338E+04  0.25389171659E+04  0.19938580431E+04 0.  0.
        4    1    3    3  502    0 -0.50556795726E+03  0.77371907976E+03 -0.12617256855E+04  0.15640311673E+04  0.12699999809E+01 0. -1.
       -4    1    3    3    0  502  0.50556795726E+03 -0.77371907976E+03 -0.31009824832E+03  0.97488599862E+03  0.12699999809E+01 0.  1.
</event>
<event>
 5   0  0.7857136E-05  0.2001064E+04  0.7818609E-02  0.8606124E-01
       -2   -1    0    0    0  501  0.00000000000E+00  0.00000000000E+00  0.63772898459E+03  0.63772898460E+03  0.25500000920E-02 0.  1.
        2   -1    0    0  501    0  0.00000000000E+00  0.00000000000E+00 -0.15697325771E+04  0.15697325771E+04  0.25500000920E-02 0. -1.
    10030    2    1    2    0    0  0.00000000000E+00  0.00000000000E+00 -0.93200359246E+03  0.22074615616E+04  0.20010636796E+04 0.  0.
        4    1    3    3  502    0 -0.99403149730E+03  0.79165561384E+02 -0.37572884044E+03  0.10656169941E+04  0.12699999809E+01 0.  1.
       -4    1    3    3    0  502  0.99403149730E+03 -0.79165561384E+02 -0.55627475203E+03  0.11418445675E+04  0.12699999809E+01 0. -1.
</event>
<event>
 5   0  0.3970042E-05  0.1987018E+04  0.7818609E-02  0.8612714E-01
        1   -1    0    0  501    0  0.00000000000E+00  0.00000000000E+00  0.21756947385E+04  0.21756947385E+04  0.50400001928E-02 0.  1.
       -1   -1    0    0    0  501  0.00000000000E+00  0.00000000000E+00 -0.45367570640E+03  0.45367570642E+03  0.50400001928E-02 0. -1.
    10030    2    1    2    0    0  0.00000000000E+00  0.00000000000E+00  0.17220190321E+04  0.26293704450E+04  0.19870177125E+04 0.  0.
        3    1    3    3  502    0 -0.80872845455E+02 -0.97808826428E+03  0.10654234247E+04  0.14485593374E+04  0.10100000352E+00 0. -1.
       -3    1    3    3    0  502  0.80872845455E+02  0.97808826428E+03  0.65659560743E+03  0.11808111076E+04  0.10100000352E+00 0.  1.
</event>
<event>
 5   0  0.2859625E-05  0.2002769E+04  0.7818609E-02  0.8605327E-01
       -4   -1    0    0    0  501  0.00000000000E+00  0.00000000000E+00  0.11359908916E+04  0.11359916015E+04  0.12699999809E+01 0.  1.
        4   -1    0    0  501    0  0.00000000000E+00  0.00000000000E+00 -0.88272617957E+03  0.88272709316E+03  0.12699999809E+01 0. -1.
    10030    2    1    2    0    0  0.00000000000E+00  0.00000000000E+00  0.25326471200E+03  0.20187186946E+04  0.20027686221E+04 0.  0.
        5    1    3    3  502    0  0.14911167593E+03  0.97000372160E+03 -0.73967516683E+02  0.98419245848E+03  0.46999998093E+01 0.  1.
       -5    1    3    3    0  502 -0.14911167593E+03 -0.97000372160E+03  0.32723222868E+03  0.10345262362E+04  0.46999998093E+01 0. -1.
</event>
<event>
 5   0  0.8022574E-05  0.2005723E+04  0.7818609E-02  0.8603949E-01
       -2   -1    0    0    0  501  0.00000000000E+00  0.00000000000E+00  0.76218885061E+03  0.76218885062E+03  0.25500000920E-02 0.  1.
        2   -1    0    0  501    0  0.00000000000E+00  0.00000000000E+00 -0.13195306828E+04  0.13195306828E+04  0.25500000920E-02 0. -1.
    10030    2    1    2    0    0  0.00000000000E+00  0.00000000000E+00 -0.55734183218E+03  0.20817195334E+04  0.20057233852E+04 0.  0.
        1    1    3    3  502    0  0.39662501693E+03  0.38316920476E+03  0.59068265668E+03  0.80810645615E+03  0.50400001928E-02 0.  1.
       -1    1    3    3    0  502 -0.39662501693E+03 -0.38316920476E+03 -0.11480244889E+04  0.12736130773E+04  0.50400001928E-02 0. -1.
</event>
<event>
 5   0  0.7935008E-05  0.2003693E+04  0.7818609E-02  0.8604896E-01
       -2   -1    0    0    0  501  0.00000000000E+00  0.00000000000E+00  0.89580620098E+03  0.89580620099E+03  0.25500000920E-02 0. -1.
        2   -1    0    0  501    0  0.00000000000E+00  0.00000000000E+00 -0.11204395733E+04  0.11204395733E+04  0.25500000920E-02 0.  1.
    10030    2    1    2    0    0  0.00000000000E+00  0.00000000000E+00 -0.22463337231E+03  0.20162457743E+04  0.20036933075E+04 0.  0.
        3    1    3    3  502    0 -0.48079480663E+03 -0.27770399248E+03  0.72682210549E+03  0.91463300659E+03  0.10100000352E+00 0. -1.
       -3    1    3    3    0  502  0.48079480663E+03  0.27770399248E+03 -0.95145547780E+03  0.11016127677E+04  0.10100000352E+00 0.  1.
</event>
<event>
 5   0  0.7843846E-05  0.1997475E+04  0.7818609E-02  0.8607802E-01
       -2   -1    0    0    0  501  0.00000000000E+00  0.00000000000E+00  0.55751681463E+03  0.55751681464E+03  0.25500000920E-02 0. -1.
        2   -1    0    0  501    0  0.00000000000E+00  0.00000000000E+00 -0.17891412424E+04  0.17891412424E+04  0.25500000920E-02 0.  1.
    10030    2    1    2    0    0  0.00000000000E+00  0.00000000000E+00 -0.12316244277E+04  0.23466580570E+04  0.19974747321E+04 0.  0.
        2    1    3    3  502    0  0.82162597269E+03 -0.15304162202E+03 -0.12581943729E+04  0.15104780889E+04  0.25500000920E-02 0.  1.
       -2    1    3    3    0  502 -0.82162597269E+03  0.15304162202E+03  0.26569945146E+02  0.83617996811E+03  0.25500000920E-02 0. -1.
</event>
<event>
 5   0  0.3818907E-05  0.2008329E+04  0.7818609E-02  0.8602737E-01
        1   -1    0    0  501    0  0.00000000000E+00  0.00000000000E+00  0.68394373503E+03  0.68394373505E+03  0.50400001928E-02 0. -1.
       -1   -1    0    0    0  501  0.00000000000E+00  0.00000000000E+00 -0.14743116678E+04  0.14743116679E+04  0.50400001928E-02 0.  1.
    10030    2    1    2    0    0  0.00000000000E+00  0.00000000000E+00 -0.79036793282E+03  0.21582554029E+04  0.20083288861E+04 0.  0.
        1    1    3    3  502    0  0.40739934296E+03  0.77551324795E+03  0.13232828971E+03  0.88594909486E+03  0.50400001928E-02 0. -1.
       -1    1    3    3    0  502 -0.40739934296E+03 -0.77551324795E+03 -0.92269622253E+03  0.12723063080E+04  0.50400001928E-02 0.  1.
</event>
<event>
 5   0  0.7857136E-05  0.1991555E+04  0.7818609E-02  0.8610579E-01
        2   -1    0    0  501    0  0.00000000000E+00  0.00000000000E+00  0.14570565630E+04  0.14570565630E+04  0.25500000920E-02 0. -1.
       -2   -1    0    0    0  501  0.00000000000E+00  0.00000000000E+00 -0.68053139156E+03  0.68053139157E+03  0.25500000920E-02 0.  1.
    10030    2    1    2    0    0  0.00000000000E+00  0.00000000000E+00  0.77652517139E+03  0.21375879545E+04  0.19915549005E+04 0.  0.
        4    1    3    3  502    0 -0.47028596129E+03  0.61668917326E+03 -0.28211247051E+03  0.82526570311E+03  0.12699999809E+01 0.  1.
       -4    1    3    3    0  502  0.47028596129E+03 -0.61668917326E+03  0.10586376419E+04  0.13123222514E+04  0.12699999809E+01 0. -1.
</event>
<event>
 5   0  0.3970042E-05  0.1998313E+04  0.7818609E-02  0.8607410E-01
       -1   -1    0    0    0  501  0.00000000000E+00  0.00000000000E+00  0.14935732815E+04  0.14935732815E+04  0.50400001928E-02 0.  1.
        1   -1    0    0  501    0  0.00000000000E+00  0.00000000000E+00 -0.66840631078E+03  0.66840631079E+03  0.50400001928E-02 0. -1.
    10030    2    1    2    0    0  0.00000000000E+00  0.00000000000E+00  0.82516697071E+03  0.21619795923E+04  0.19983130956E+04 0.  0.
        3    1    3    3  502    0  0.11687534634E+03  0.47802965486E+03  0.13533668328E+04  0.14400604126E+04  0.10100000352E+00 0.  1.
       -3    1    3    3    0  502 -0.11687534634E+03 -0.47802965486E+03 -0.52819986211E+03  0.72191917971E+03  0.10100000352E+00 0. -1.
</event>
<event>
 5   0  0.7935008E-05  0.2006185E+04  0.7818609E-02  0.8603735E-01
        2   -1    0    0  501    0  0.00000000000E+00  0.00000000000E+00  0.10022728031E+04  0.10022728031E+04  0.25500000920E-02 0. -1.
       -2   -1    0    0    0  501  0.00000000000E+00  0.00000000000E+00 -0.10039123914E+04  0.10039123914E+04  0.25500000920E-02 0.  1.
    10030    2    1    2    0    0  0.00000000000E+00  0.00000000000E+00 -0.16395882959E+01  0.20061851946E+04  0.20061845246E+04 0.  0.
        3    1    3    3  502    0 -0.81115311526E+03  0.26737495251E+03 -0.52687636875E+03  0.10035225258E+04  0.10100000352E+00 0.  1.
       -3    1    3    3    0  502  0.81115311526E+03 -0.26737495251E+03  0.52523678045E+03  0.10026626688E+04  0.10100000352E+00 0. -1.
</event>
<event>
 5   0  0.7935008E-05  0.1990922E+04  0.7818609E-02  0.8610877E-01
       -2   -1    0    0    0  501  0.00000000000E+00  0.00000000000E+00  0.70186328582E+03  0.70186328583E+03  0.25500000920E-02 0.  1.
        2   -1    0    0  501    0  0.00000000000E+00  0.00000000000E+00 -0.14118746007E+04  0.14118746007E+04  0.25500000920E-02 0. -1.
    10030    2    1    2    0    0  0.00000000000E+00  0.00000000000E+00 -0.71001131487E+03  0.21137378865E+04  0.19909223455E+04 0.  0.
        3    1    3    3  502    0  0.57661803748E+03  0.77583719187E+03 -0.10257562922E+03  0.97207688962E+03  0.10100000352E+00 0.  1.
       -3    1    3    3    0  502 -0.57661803748E+03 -0.77583719187E+03 -0.60743568566E+03  0.11416609969E+04  0.10100000352E+00 0. -1.
</event>
<event>
 5   0  0.3787698E-05  0.2027037E+04  0.7818609E-02  0.8594083E-01
       -1   -1    0    0    0  501  0.00000000000E+00  0.00000000000E+00  0.76043635764E+03  0.76043635766E+03  0.50400001928E-02 0.  1.
        1   -1    0    0  501    0  0.00000000000E+00  0.00000000000E+00 -0.13508289656E+04  0.13508289656E+04  0.50400001928E-02 0. -1.
    10030    2    1    2    0    0  0.00000000000E+00  0.00000000000E+00 -0.59039260797E+03  0.21112653233E+04  0.20270367125E+04 0.  0.
        4    1    3    3  502    0  0.21128286327E+03  0.72126924184E+03  0.41301968687E+03  0.85758768774E+03  0.12699999809E+01 0.  1.
       -4    1    3    3    0  502 -0.21128286327E+03 -0.72126924184E+03 -0.10034122948E+04  0.12536776355E+04  0.12699999809E+01 0. -1.
</event>
<event>
 5   0  0.3818907E-05  0.2021102E+04  0.7818609E-02  0.8596818E-01
       -1   -1    0    0    0  501  0.00000000000E+00  0.00000000000E+00  0.81256640629E+03  0.81256640630E+03  0.50400001928E-02 0.  1.
        1   -1    0    0  501    0  0.00000000000E+00  0.00000000000E+00 -0.12567749044E+04  0.12567749044E+04  0.50400001928E-02 0. -1.
    10030    2    1    2    0    0  0.00000000000E+00  0.00000000000E+00 -0.44420849813E+03  0.20693413107E+04  0.20211017467E+04 0.  0.
        1    1    3    3  502    0 -0.15758748375E+03  0.68256768050E+02 -0.12417247160E+04  0.12535442041E+04  0.50400001928E-02 0. -1.
       -1    1    3    3    0  502  0.15758748375E+03 -0.68256768050E+02  0.79751621784E+03  0.81579710661E+03  0.50400001928E-02 0.  1.
</event>
<event>
 5   0  0.8022574E-05  0.2012748E+04  0.7818609E-02  0.8600684E-01
       -2   -1    0    0    0  501  0.00000000000E+00  0.00000000000E+00  0.58924350500E+03  0.58924350501E+03  0.25500000920E-02 0.  1.
        2   -1    0    0  501    0  0.00000000000E+00  0.00000000000E+00 -0.17187942586E+04  0.17187942586E+04  0.25500000920E-02 0. -1.
    10030    2    1    2    0    0  0.00000000000E+00  0.00000000000E+00 -0.11295507536E+04  0.23080377636E+04  0.20127477272E+04 0.  0.
        1    1    3    3  502    0 -0.22852015766E+03  0.66514782087E+03 -0.13902036361E+04  0.15579824248E+04  0.50400001928E-02 0. -1.
       -1    1    3    3    0  502  0.22852015766E+03 -0.66514782087E+03  0.26065288254E+03  0.75005533880E+03  0.50400001928E-02 0.  1.
</event>
<event>
 5   0  0.3787698E-05  0.1959575E+04  0.7818609E-02  0.8625757E-01
        1   -1    0    0  501    0  0.00000000000E+00  0.00000000000E+00  0.85587140659E+03  0.85587140660E+03  0.50400001928E-02 0. -1.
       -1   -1    0    0    0  501  0.00000000000E+00  0.00000000000E+00 -0.11216447608E+04  0.11216447608E+04  0.50400001928E-02 0.  1.
    10030    2    1    2    0    0  0.00000000000E+00  0.00000000000E+00 -0.26577335419E+03  0.19775161674E+04  0.19595751367E+04 0.  0.
        4    1    3    3  502    0 -0.87857043695E+03 -0.42263477418E+03 -0.23112215996E+03  0.10019606932E+04  0.12699999809E+01 0. -1.
       -4    1    3    3    0  502  0.87857043695E+03  0.42263477418E+03 -0.34651194229E+02  0.97555547417E+03  0.12699999809E+01 0.  1.
</event>
<event>
 5   0  0.8011197E-05  0.2000295E+04  0.7818609E-02  0.8606483E-01
        2   -1    0    0  501    0  0.00000000000E+00  0.00000000000E+00  0.79813515804E+03  0.79813515804E+03  0.25500000920E-02 0.  1.
       -2   -1    0    0    0  501  0.00000000000E+00  0.00000000000E+00 -0.12532897863E+04  0.12532897863E+04  0.25500000920E-02 0. -1.
    10030    2    1    2    0    0  0.00000000000E+00  0.00000000000E+00 -0.45515462829E+03  0.20514249444E+04  0.20002946200E+04 0.  0.
        5    1    3    3  502    0 -0.24800791432E+03 -0.81216933317E+03  0.31427016698E+03  0.90549145726E+03  0.46999998093E+01 0.  1.
       -5    1    3    3    0  502  0.24800791432E+03  0.81216933317E+03 -0.76942479527E+03  0.11459334871E+04  0.46999998093E+01 0. -1.
</event>
<event>
 5   0  0.3772949E-05  0.1898931E+04  0.7818609E-02  0.8655389E-01
       -1   -1    0    0    0  501  0.00000000000E+00  0.00000000000E+00  0.95956550732E+03  0.95956550733E+03  0.50400001928E-02 0. -1.
        1   -1    0    0  501    0  0.00000000000E+00  0.00000000000E+00 -0.93947135654E+03  0.93947135656E+03  0.50400001928E-02 0.  1.
    10030    2    1    2    0    0  0.00000000000E+00  0.00000000000E+00  0.20094150778E+02  0.18990368639E+04  0.18989305505E+04 0.  0.
        2    1    3    3  502    0 -0.19682674650E+03 -0.27805486711E+03  0.89634103342E+03  0.95889651447E+03  0.25500000920E-02 0. -1.
       -2    1    3    3    0  502  0.19682674650E+03  0.27805486711E+03 -0.87624688265E+03  0.94014034942E+03  0.25500000920E-02 0.  1.
</event>
<event>
 5   0  0.3549426E-05  0.1999369E+04  0.7818609E-02  0.8606916E-01
       -1   -1    0    0    0  501  0.00000000000E+00  0.00000000000E+00  0.70772691681E+03  0.70772691683E+03  0.50400001928E-02 0. -1.
        1   -1    0    0  501    0  0.00000000000E+00  0.00000000000E+00 -0.14120832635E+04  0.14120832635E+04  0.50400001928E-02 0.  1.
    10030    2    1    2    0    0  0.00000000000E+00  0.00000000000E+00 -0.70435634668E+03  0.21198101803E+04  0.19993692349E+04 0.  0.
        5    1    3    3  502    0  0.80177610083E+03 -0.50447674257E+03 -0.69080070947E+03  0.11724203213E+04  0.46999998093E+01 0.  1.
       -5    1    3    3    0  502 -0.80177610083E+03  0.50447674257E+03 -0.13555637209E+02  0.94738985901E+03  0.46999998093E+01 0. -1.
</event>
<event>
 5   0  0.3818907E-05  0.1999138E+04  0.7818609E-02  0.8607024E-01
       -1   -1    0    0    0  501  0.00000000000E+00  0.00000000000E+00  0.51933131229E+03  0.51933131232E+03  0.50400001928E-02 0. -1.
        1   -1    0    0  501    0  0.00000000000E+00  0.00000000000E+00 -0.19238942199E+04  0.19238942199E+04  0.50400001928E-02 0.  1.
    10030    2    1    2    0    0  0.00000000000E+00  0.00000000000E+00 -0.14045629076E+04  0.24432255322E+04  0.19991383243E+04 0.  0.
        1    1    3    3  502    0  0.48237854129E+03  0.85654270525E+03 -0.92356646340E+03  0.13488252205E+04  0.50400001928E-02 0.  1.
       -1    1    3    3    0  502 -0.48237854129E+03 -0.85654270525E+03 -0.48099644420E+03  0.10944003118E+04  0.50400001928E-02 0. -1.
</event>
<event>
 5   0  0.8011197E-05  0.2004614E+04  0.7818609E-02  0.8604467E-01
        2   -1    0    0  501    0  0.00000000000E+00  0.00000000000E+00  0.10556632170E+04  0.10556632170E+04  0.25500000920E-02 0. -1.
       -2   -1    0    0    0  501  0.00000000000E+00  0.00000000000E+00 -0.95164708521E+03  0.95164708522E+03  0.25500000920E-02 0.  1.
    10030    2    1    2    0    0  0.00000000000E+00  0.00000000000E+00  0.10401613178E+03  0.20073103022E+04  0.20046135023E+04 0.  0.
        5    1    3    3  502    0  0.52688300647E+03  0.64098960258E+03  0.61501294317E+03  0.10328293099E+04  0.46999998093E+01 0. -1.
       -5    1    3    3    0  502 -0.52688300647E+03 -0.64098960258E+03 -0.51099681139E+03  0.97448099231E+03  0.46999998093E+01 0.  1.
</event>
<event>
 5   0  0.3772949E-05  0.1954927E+04  0.7818609E-02  0.8627988E-01
       -1   -1    0    0    0  501  0.00000000000E+00  0.00000000000E+00  0.12378433459E+04  0.12378433459E+04  0.50400001928E-02 0.  1.
        1   -1    0    0  501    0  0.00000000000E+00  0.00000000000E+00 -0.77185469128E+03  0.77185469129E+03  0.50400001928E-02 0. -1.
    10030    2    1    2    0    0  0.00000000000E+00  0.00000000000E+00  0.46598865464E+03  0.20096980372E+04  0.19549273067E+04 0.  0.
        2    1    3    3  502    0 -0.86817702407E+03 -0.37258996332E+03  0.49077979002E+03  0.10646217301E+04  0.25500000920E-02 0.  1.
       -2    1    3    3    0  502  0.86817702407E+03  0.37258996332E+03 -0.24791135374E+02  0.94507630713E+03  0.25500000920E-02 0. -1.
</event>
<event>
 5   0  0.3970042E-05  0.2008520E+04  0.7818609E-02  0.8602648E-01
        1   -1    0    0  501    0  0.00000000000E+00  0.00000000000E+00  0.65246126215E+03  0.65246126217E+03  0.50400001928E-02 0. -1.
       -1   -1    0    0    0  501  0.00000000000E+00  0.00000000000E+00 -0.15457443777E+04  0.15457443777E+04  0.50400001928E-02 0.  1.
    10030    2    1    2    0    0  0.00000000000E+00  0.00000000000E+00 -0.89328311558E+03  0.21982056399E+04  0.20085201793E+04 0.  0.
        3    1    3    3  502    0 -0.12721755535E+03 -0.21811803944E+03 -0.15104345537E+04  0.15313955520E+04  0.10100000352E+00 0.  1.
       -3    1    3    3    0  502  0.12721755535E+03  0.21811803944E+03  0.61715143813E+03  0.66681008789E+03  0.10100000352E+00 0. -1.
</event>
<event>
 5   0  0.7935008E-05  0.2001240E+04  0.7818609E-02  0.8606041E-01
       -2   -1    0    0    0  501  0.00000000000E+00  0.00000000000E+00  0.78082542216E+03  0.78082542216E+03  0.25500000920E-02 0. -1.
        2   -1    0    0  501    0  0.00000000000E+00  0.00000000000E+00 -0.12822848035E+04  0.12822848035E+04  0.25500000920E-02 0.  1.
    10030    2    1    2    0    0  0.00000000000E+00  0.00000000000E+00 -0.50145938129E+03  0.20631102256E+04  0.20012401885E+04 0.  0.
        3    1    3    3  502    0 -0.58212044059E+03 -0.29753657187E+03  0.53021770726E+03  0.84173811025E+03  0.10100000352E+00 0. -1.
       -3    1    3    3    0  502  0.58212044059E+03  0.29753657187E+03 -0.10316770886E+04  0.12213721154E+04  0.10100000352E+00 0.  1.
</event>
<event>
 5   0  0.8011197E-05  0.1992426E+04  0.7818609E-02  0.8610170E-01
        2   -1    0    0  501    0  0.00000000000E+00  0.00000000000E+00  0.15219066737E+04  0.15219066737E+04  0.25500000920E-02 0. -1.
       -2   -1    0    0    0  501  0.00000000000E+00  0.00000000000E+00 -0.65210305706E+03  0.65210305707E+03  0.25500000920E-02 0.  1.
    10030    2    1    2    0    0  0.00000000000E+00  0.00000000000E+00  0.86980361662E+03  0.21740097307E+04  0.19924256518E+04 0.  0.
        5    1    3    3  502    0 -0.99025213567E+03 -0.55435323038E+02  0.53694231483E+03  0.11278304424E+04  0.46999998093E+01 0. -1.
       -5    1    3    3    0  502  0.99025213567E+03  0.55435323038E+02  0.33286130179E+03  0.10461792884E+04  0.46999998093E+01 0.  1.
</event>
<event>
 5   0  0.8022574E-05  0.2010503E+04  0.7818609E-02  0.8601726E-01
       -2   -1    0    0    0  501  0.00000000000E+00  0.00000000000E+00  0.95274245741E+03  0.95274245742E+03  0.25500000920E-02 0.  1.
        2   -1    0    0  501    0  0.00000000000E+00  0.00000000000E+00 -0.10606548521E+04  0.10606548521E+04  0.25500000920E-02 0. -1.
    10030    2    1    2    0    0  0.00000000000E+00  0.00000000000E+00 -0.10791239469E+03  0.20133973095E+04  0.20105033303E+04 0.  0.
        1    1    3    3  502    0 -0.52463130467E+03  0.60756101395E+03 -0.65994085739E+03  0.10391777166E+04  0.50400001928E-02 0. -1.
       -1    1    3    3    0  502  0.52463130467E+03 -0.60756101395E+03  0.55202846269E+03  0.97421959288E+03  0.50400001928E-02 0.  1.
</event>
<event>
 5   0  0.3787698E-05  0.1975069E+04  0.7818609E-02  0.8618366E-01
       -1   -1    0    0    0  501  0.00000000000E+00  0.00000000000E+00  0.84232098279E+03  0.84232098280E+03  0.50400001928E-02 0. -1.
        1   -1    0    0  501    0  0.00000000000E+00  0.00000000000E+00 -0.11577818579E+04  0.11577818579E+04  0.50400001928E-02 0.  1.
    10030    2    1    2    0    0  0.00000000000E+00  0.00000000000E+00 -0.31546087515E+03  0.20001028408E+04  0.19750685583E+04 0.  0.
        4    1    3    3  502    0 -0.38139329498E+03  0.57625837701E+03 -0.87214226962E+03  0.11127301173E+04  0.12699999809E+01 0.  1.
       -4    1    3    3    0  502  0.38139329498E+03 -0.57625837701E+03  0.55668139447E+03  0.88737272348E+03  0.12699999809E+01 0. -1.
</event>
<event>
 5   0  0.3970042E-05  0.1975537E+04  0.7818609E-02  0.8618144E-01
       -1   -1    0    0    0  501  0.00000000000E+00  0.00000000000E+00  0.52869693908E+03  0.52869693910E+03  0.50400001928E-02 0.  1.
        1   -1    0    0  501    0  0.00000000000E+00  0.00000000000E+00 -0.18454561204E+04  0.18454561204E+04  0.50400001928E-02 0. -1.
    10030    2    1    2    0    0  0.00000000000E+00  0.00000000000E+00 -0.13167591813E+04  0.23741530595E+04  0.19755373973E+04 0.  0.
        3    1    3    3  502    0  0.46880179142E+03  0.86763505016E+03 -0.59123814978E+03  0.11498383625E+04  0.10100000352E+00 0.  1.
       -3    1    3    3    0  502 -0.46880179142E+03 -0.86763505016E+03 -0.72552103151E+03  0.12243146970E+04  0.10100000352E+00 0. -1.
</event>
<event>
 5   0  0.3818907E-05  0.2006485E+04  0.7818609E-02  0.8603595E-01
        1   -1    0    0  501    0  0.00000000000E+00  0.00000000000E+00  0.13049527493E+04  0.13049527493E+04  0.50400001928E-02 0.  1.
       -1   -1    0    0    0  501  0.00000000000E+00  0.00000000000E+00 -0.77128897365E+03  0.77128897367E+03  0.50400001928E-02 0. -1.
    10030    2    1    2    0    0  0.00000000000E+00  0.00000000000E+00  0.53366377567E+03  0.20762417230E+04  0.20064851524E+04 0.  0.
        1    1    3    3  502    0 -0.45757534274E+03 -0.89229615788E+03  0.29835470962E+03  0.10462232842E+04  0.50400001928E-02 0.  1.
       -1    1    3    3    0  502  0.45757534274E+03  0.89229615788E+03  0.23530906605E+03  0.10300184388E+04  0.50400001928E-02 0. -1.
</event>
<event>
 5   0  0.7843846E-05  0.2013935E+04  0.7818609E-02  0.8600133E-01
        2   -1    0    0  501    0  0.00000000000E+00  0.00000000000E+00  0.14657383268E+04  0.14657383268E+04  0.25500000920E-02 0.  1.
       -2   -1    0    0    0  501  0.00000000000E+00  0.00000000000E+00 -0.69179054748E+03  0.69179054749E+03  0.25500000920E-02 0. -1.
    10030    2    1    2    0    0  0.00000000000E+00  0.00000000000E+00  0.77394777927E+03  0.21575288742E+04  0.20139353709E+04 0.  0.
        2    1    3    3  502    0  0.27101779421E+03 -0.10660132259E+03  0.14196367173E+04  0.14492007783E+04  0.25500000920E-02 0.  1.
       -2    1    3    3    0  502 -0.27101779421E+03  0.10660132259E+03 -0.64568893804E+03  0.70832809592E+03  0.25500000920E-02 0. -1.
</event>
<event>
 5   0  0.3818907E-05  0.2014400E+04  0.7818609E-02  0.8599917E-01
       -1   -1    0    0    0  501  0.00000000000E+00  0.00000000000E+00  0.48922477159E+03  0.48922477161E+03  0.50400001928E-02 0. -1.
        1   -1    0    0  501    0  0.00000000000E+00  0.00000000000E+00 -0.20735914125E+04  0.20735914125E+04  0.50400001928E-02 0.  1.
    10030    2    1    2    0    0  0.00000000000E+00  0.00000000000E+00 -0.15843666409E+04  0.25628161842E+04  0.20144004420E+04 0.  0.
        1    1    3    3  502    0  0.24044844212E+03 -0.34239043169E+03 -0.19578049218E+04  0.20020106825E+04  0.50400001928E-02 0.  1.
       -1    1    3    3    0  502 -0.24044844212E+03  0.34239043169E+03  0.37343828086E+03  0.56080550164E+03  0.50400001928E-02 0. -1.
</event>
<event>
 5   0  0.2859625E-05  0.1973091E+04  0.7818609E-02  0.8619306E-01
        4   -1    0    0  501    0  0.00000000000E+00  0.00000000000E+00  0.64825185687E+03  0.64825310091E+03  0.12699999809E+01 0. -1.
       -4   -1    0    0    0  501  0.00000000000E+00  0.00000000000E+00 -0.15013770325E+04  0.15013775696E+04  0.12699999809E+01 0.  1.
    10030    2    1    2    0    0  0.00000000000E+00  0.00000000000E+00 -0.85312517558E+03  0.21496306705E+04  0.19730913447E+04 0.  0.
        1    1    3    3  502    0 -0.36865402982E+03 -0.52695224972E+03 -0.12416226550E+04  0.13982886986E+04  0.50400001928E-02 0.  1.
       -1    1    3    3    0  502  0.36865402982E+03  0.52695224972E+03  0.38849747943E+03  0.75134197190E+03  0.50400001928E-02 0. -1.
</event>
<event>
 5   0  0.3787698E-05  0.2024745E+04  0.7818609E-02  0.8595138E-01
        1   -1    0    0  501    0  0.00000000000E+00  0.00000000000E+00  0.23168594088E+04  0.23168594088E+04  0.50400001928E-02 0.  1.
       -1   -1    0    0    0  501  0.00000000000E+00  0.00000000000E+00 -0.44236527299E+03  0.44236527302E+03  0.50400001928E-02 0. -1.
    10030    2    1    2    0    0  0.00000000000E+00  0.00000000000E+00  0.18744941358E+04  0.27592246818E+04  0.20247450653E+04 0.  0.
        4    1    3    3  502    0  0.70457127660E+03 -0.18135654893E+03  0.18965948558E+04  0.20313504232E+04  0.12699999809E+01 0.  1.
       -4    1    3    3    0  502 -0.70457127660E+03  0.18135654893E+03 -0.22100720039E+02  0.72787425863E+03  0.12699999809E+01 0. -1.
</event>
<event>
 5   0  0.8022574E-05  0.2000428E+04  0.7818609E-02  0.8606420E-01
        2   -1    0    0  501    0  0.00000000000E+00  0.00000000000E+00  0.92088164996E+03  0.92088164996E+03  0.25500000920E-02 0.  1.
       -2   -1    0    0    0  501  0.00000000000E+00  0.00000000000E+00 -0.10863810257E+04  0.10863810257E+04  0.25500000920E-02 0. -1.
    10030    2    1    2    0    0  0.00000000000E+00  0.00000000000E+00 -0.16549937570E+03  0.20072626756E+04  0.20004283055E+04 0.  0.
        1    1    3    3  502    0  0.67544993802E+03  0.42182125895E+03  0.52451423425E+03  0.95356225556E+03  0.50400001928E-02 0.  1.
       -1    1    3    3    0  502 -0.67544993802E+03 -0.42182125895E+03 -0.69001360995E+03  0.10537004201E+04  0.50400001928E-02 0. -1.
</event>
<event>
 5   0  0.7935008E-05  0.1981080E+04  0.7818609E-02  0.8615518E-01
        2   -1    0    0  501    0  0.00000000000E+00  0.00000000000E+00  0.16831893558E+04  0.16831893558E+04  0.25500000920E-02 0.  1.
       -2   -1    0    0    0  501  0.00000000000E+00  0.00000000000E+00 -0.58292273332E+03  0.58292273332E+03  0.25500000920E-02 0. -1.
    10030    2    1    2    0    0  0.00000000000E+00  0.00000000000E+00  0.11002666225E+04  0.22661120891E+04  0.19810798469E+04 0.  0.
        3    1    3    3  502    0  0.43475819443E+03  0.90804917376E+02  0.15629066573E+04  0.16247884324E+04  0.10100000352E+00 0.  1.
       -3    1    3    3    0  502 -0.43475819443E+03 -0.90804917376E+02 -0.46264003478E+03  0.64132365669E+03  0.10100000352E+00 0. -1.
</event>
<event>
 5   0  0.3772949E-05  0.1893367E+04  0.7818609E-02  0.8658165E-01
       -1   -1    0    0    0  501  0.00000000000E+00  0.00000000000E+00  0.10218646495E+04  0.10218646495E+04  0.50400001928E-02 0.  1.
        1   -1    0    0  501    0  0.00000000000E+00  0.00000000000E+00 -0.87703391582E+03  0.87703391583E+03  0.50400001928E-02 0. -1.
    10030    2    1    2    0    0  0.00000000000E+00  0.00000000000E+00  0.14483073363E+03  0.18988985653E+04  0.18933673230E+04 0.  0.
        2    1    3    3  502    0  0.15799683159E+03  0.49132533592E+02  0.10072505100E+04  0.10207500157E+04  0.25500000920E-02 0.  1.
       -2    1    3    3    0  502 -0.15799683159E+03 -0.49132533592E+02 -0.86241977632E+03  0.87814854964E+03  0.25500000920E-02 0. -1.
</event>
<event>
 5   0  0.2859625E-05  0.2039599E+04  0.7818609E-02  0.8588327E-01
       -3   -1    0    0    0  501  0.00000000000E+00  0.00000000000E+00  0.95642008906E+03  0.95642009439E+03  0.10100000352E+00 0. -1.
        3   -1    0    0  501    0  0.00000000000E+00  0.00000000000E+00 -0.10873791836E+04  0.10873791883E+04  0.10100000352E+00 0.  1.
    10030    2    1    2    0    0  0.00000000000E+00  0.00000000000E+00 -0.13095909457E+03  0.20437992827E+04  0.20395992801E+04 0.  0.
        3    1    3    3  502    0 -0.49917945441E+03 -0.26375158213E+02  0.82523529343E+03  0.96482593062E+03  0.10100000352E+00 0. -1.
       -3    1    3    3    0  502  0.49917945441E+03  0.26375158213E+02 -0.95619438800E+03  0.10789733521E+04  0.10100000352E+00 0.  1.
</event>
<event>
 5   0  0.3549426E-05  0.2027381E+04  0.7818609E-02  0.8593925E-01
       -1   -1    0    0    0  501  0.00000000000E+00  0.00000000000E+00  0.96085858132E+03  0.96085858134E+03  0.50400001928E-02 0. -1.
        1   -1    0    0  501    0  0.00000000000E+00  0.00000000000E+00 -0.10694273850E+04  0.10694273850E+04  0.50400001928E-02 0.  1.
    10030    2    1    2    0    0  0.00000000000E+00  0.00000000000E+00 -0.10856880370E+03  0.20302859664E+04  0.20273810496E+04 0.  0.
        5    1    3    3  502    0  0.96833860446E+03 -0.75155941012E+02  0.23633534574E+03  0.99960219787E+03  0.46999998093E+01 0. -1.
       -5    1    3    3    0  502 -0.96833860446E+03  0.75155941012E+02 -0.34490414944E+03  0.10306837685E+04  0.46999998093E+01 0.  1.
</event>
<event>
 5   0  0.8011197E-05  0.1971793E+04  0.7818609E-02  0.8619923E-01
        2   -1    0    0  501    0  0.00000000000E+00  0.00000000000E+00  0.99852729559E+03  0.99852729559E+03  0.25500000920E-02 0. -1.
       -2   -1    0    0    0  501  0.00000000000E+00  0.00000000000E+00 -0.97342568910E+03  0.97342568910E+03  0.25500000920E-02 0.  1.
    10030    2    1    2    0    0  0.00000000000E+00  0.00000000000E+00  0.25101606489E+02  0.19719529847E+04  0.19717932151E+04 0.  0.
        5    1    3    3  502    0 -0.86251999533E+03 -0.46633265114E+02  0.48783096211E+03  0.99202648219E+03  0.46999998093E+01 0. -1.
       -5    1    3    3    0  502  0.86251999533E+03  0.46633265114E+02 -0.46272935562E+03  0.97992650251E+03  0.46999998093E+01 0.  1.
</event>
<event>
 5   0  0.8022574E-05  0.1999527E+04  0.7818609E-02  0.8606842E-01
        2   -1    0    0  501    0  0.00000000000E+00  0.00000000000E+00  0.77307743726E+03  0.77307743726E+03  0.25500000920E-02 0. -1.
       -2   -1    0    0    0  501  0.00000000000E+00  0.00000000000E+00 -0.12929200471E+04  0.12929200471E+04  0.25500000920E-02 0.  1.
    10030    2    1    2    0    0  0.00000000000E+00  0.00000000000E+00 -0.51984260982E+03  0.20659974844E+04  0.19995272607E+04 0.  0.
        1    1    3    3  502    0 -0.25689106939E+03  0.79530089144E+03 -0.82682320935E+03  0.11756415904E+04  0.50400001928E-02 0.  1.
       -1    1    3    3    0  502  0.25689106939E+03 -0.79530089144E+03  0.30698059952E+03  0.89035589399E+03  0.50400001928E-02 0. -1.
</event>
<event>
 5   0  0.3549426E-05  0.1999955E+04  0.7818609E-02  0.8606642E-01
        1   -1    0    0  501    0  0.00000000000E+00  0.00000000000E+00  0.22443761364E+04  0.22443761364E+04  0.50400001928E-02 0.  1.
       -1   -1    0    0    0  501  0.00000000000E+00  0.00000000000E+00 -0.44553810282E+03  0.44553810285E+03  0.50400001928E-02 0. -1.
    10030    2    1    2    0    0  0.00000000000E+00  0.00000000000E+00  0.17988380336E+04  0.26899142392E+04  0.19999550854E+04 0.  0.
        5    1    3    3  502    0  0.25622229381E+03  0.76623490809E+03  0.10694043518E+03  0.81499947540E+03  0.46999998093E+01 0. -1.
       -5    1    3    3    0  502 -0.25622229381E+03 -0.76623490809E+03  0.16918975984E+04  0.18749147638E+04  0.46999998093E+01 0.  1.
</event>
<event>
 5   0  0.3787698E-05  0.1991541E+04  0.7818609E-02  0.8610586E-01
        1   -1    0    0  501    0  0.00000000000E+00  0.00000000000E+00  0.13566295379E+04  0.13566295379E+04  0.50400001928E-02 0.  1.
       -1   -1    0    0    0  501  0.00000000000E+00  0.00000000000E+00 -0.73089855131E+03  0.73089855132E+03  0.50400001928E-02 0. -1.
    10030    2    1    2    0    0  0.00000000000E+00  0.00000000000E+00  0.62573098660E+03  0.20875280892E+04  0.19915406739E+04 0.  0.
        4    1    3    3  502    0  0.52776158146E+03 -0.84417720527E+03  0.29217825046E+03  0.10375630987E+04  0.12699999809E+01 0. -1.
       -4    1    3    3    0  502 -0.52776158146E+03  0.84417720527E+03  0.33355273614E+03  0.10499649906E+04  0.12699999809E+01 0.  1.
</event>
<event>
 5   0  0.7857136E-05  0.1978170E+04  0.7818609E-02  0.8616895E-01
        2   -1    0    0  501    0  0.00000000000E+00  0.00000000000E+00  0.12894148115E+04  0.12894148115E+04  0.25500000920E-02 0. -1.
       -2   -1    0    0    0  501  0.00000000000E+00  0.00000000000E+00 -0.75870788827E+03  0.75870788827E+03  0.25500000920E-02 0.  1.
    10030    2    1    2    0    0  0.00000000000E+00  0.00000000000E+00  0.53070692321E+03  0.20481226998E+04  0.19781700521E+04 0.  0.
        4    1    3    3  502    0 -0.44202387277E+03  0.84449130663E+03  0.53876930834E+03  0.10949085129E+04  0.12699999809E+01 0.  1.
       -4    1    3    3    0  502  0.44202387277E+03 -0.84449130663E+03 -0.80623851367E+01  0.95321418686E+03  0.12699999809E+01 0. -1.
</event>
<event>
 5   0  0.8022574E-05  0.1981791E+04  0.7818609E-02  0.8615181E-01
        2   -1    0    0  501    0  0.00000000000E+00  0.00000000000E+00  0.16589719177E+04  0.16589719177E+04  0.25500000920E-02 0.  1.
       -2   -1    0    0    0  501  0.00000000000E+00  0.00000000000E+00 -0.59185707012E+03  0.59185707012E+03  0.25500000920E-02 0. -1.
    10030    2    1    2    0    0  0.00000000000E+00  0.00000000000E+00  0.10671148476E+04  0.22508289878E+04  0.19817913701E+04 0.  0.
        1    1    3    3  502    0 -0.79318956447E+02  0.61177234020E+03 -0.34715969878E+03  0.70786774865E+03  0.50400001928E-02 0. -1.
       -1    1    3    3    0  502  0.79318956447E+02 -0.61177234020E+03  0.14142745464E+04  0.15429612392E+04  0.50400001928E-02 0.  1.
</event>
<event>
 5   0  0.8011197E-05  0.2003431E+04  0.7818609E-02  0.8605018E-01
        2   -1    0    0  501    0  0.00000000000E+00  0.00000000000E+00  0.12763954637E+04  0.12763954637E+04  0.25500000920E-02 0. -1.
       -2   -1    0    0    0  501  0.00000000000E+00  0.00000000000E+00 -0.78614631719E+03  0.78614631720E+03  0.25500000920E-02 0.  1.
    10030    2    1    2    0    0  0.00000000000E+00  0.00000000000E+00  0.49024914655E+03  0.20625417809E+04  0.20034306508E+04 0.  0.
        5    1    3    3  502    0 -0.73477476550E+03 -0.41946695379E+03  0.79719752595E+03  0.11624940717E+04  0.46999998093E+01 0. -1.
       -5    1    3    3    0  502  0.73477476550E+03  0.41946695379E+03 -0.30694837939E+03  0.90004770926E+03  0.46999998093E+01 0.  1.
</event>
<event>
 5   0  0.8011197E-05  0.2014359E+04  0.7818609E-02  0.8599937E-01
        2   -1    0    0  501    0  0.00000000000E+00  0.00000000000E+00  0.32614606662E+03  0.32614606663E+03  0.25500000920E-02 0.  1.
       -2   -1    0    0    0  501  0.00000000000E+00  0.00000000000E+00 -0.31102960454E+04  0.31102960454E+04  0.25500000920E-02 0. -1.
    10030    2    1    2    0    0  0.00000000000E+00  0.00000000000E+00 -0.27841499787E+04  0.34364421120E+04  0.20143592741E+04 0.  0.
        5    1    3    3  502    0  0.68025633065E+03 -0.72351307746E+03 -0.16783984339E+04  0.19501956931E+04  0.46999998093E+01 0.  1.
       -5    1    3    3    0  502 -0.68025633065E+03  0.72351307746E+03 -0.11057515448E+04  0.14862464188E+04  0.46999998093E+01 0. -1.
</event>
<event>
 5   0  0.8011197E-05  0.2003333E+04  0.7818609E-02  0.8605064E-01
       -2   -1    0    0    0  501  0.00000000000E+00  0.00000000000E+00  0.57402128341E+03  0.57402128341E+03  0.25500000920E-02 0.  1.
        2   -1    0    0  501    0  0.00000000000E+00  0.00000000000E+00 -0.17479075702E+04  0.17479075702E+04  0.25500000920E-02 0. -1.
    10030    2    1    2    0    0  0.00000000000E+00  0.00000000000E+00 -0.11738862868E+04  0.23219288536E+04  0.20033333689E+04 0.  0.
        5    1    3    3  502    0  0.58566414416E+03  0.76682672731E+03 -0.89856635636E+03  0.13185102602E+04  0.46999998093E+01 0. -1.
       -5    1    3    3    0  502 -0.58566414416E+03 -0.76682672731E+03 -0.27531993040E+03  0.10034185934E+04  0.46999998093E+01 0.  1.
</event>
<event>
 5   0  0.3549426E-05  0.1995134E+04  0.7818609E-02  0.8608899E-01
        1   -1    0    0  501    0  0.00000000000E+00  0.00000000000E+00  0.24471129884E+04  0.24471129884E+04  0.50400001928E-02 0. -1.
       -1   -1    0    0    0  501  0.00000000000E+00  0.00000000000E+00 -0.40665862569E+03  0.40665862572E+03  0.50400001928E-02 0.  1.
    10030    2    1    2    0    0  0.00000000000E+00  0.00000000000E+00  0.20404543627E+04  0.28537716141E+04  0.19951336846E+04 0.  0.
        5    1    3    3  502    0 -0.21768428313E+03  0.18051848346E+03  0.23885606997E+04  0.24052479449E+04  0.46999998093E+01 0. -1.
       -5    1    3    3    0  502  0.21768428313E+03 -0.18051848346E+03 -0.34810633703E+03  0.44852366924E+03  0.46999998093E+01 0.  1.
</event>
<event>
 5   0  0.8022574E-05  0.1999959E+04  0.7818609E-02  0.8606640E-01
       -2   -1    0    0    0  501  0.00000000000E+00  0.00000000000E+00  0.12452805087E+04  0.12452805087E+04  0.25500000920E-02 0. -1.
        2   -1    0    0  501    0  0.00000000000E+00  0.00000000000E+00 -0.80299901691E+03  0.80299901692E+03  0.25500000920E-02 0.  1.
    10030    2    1    2    0    0  0.00000000000E+00  0.00000000000E+00  0.44228149183E+03  0.20482795257E+04  0.19999590239E+04 0.  0.
        1    1    3    3  502    0 -0.67099510031E+03  0.42927498987E+03  0.84026907029E+03  0.11578270821E+04  0.50400001928E-02 0. -1.
       -1    1    3    3    0  502  0.67099510031E+03 -0.42927498987E+03 -0.39798757846E+03  0.89045244354E+03  0.50400001928E-02 0.  1.
</event>
<event>
 5   0  0.3772949E-05  0.2001655E+04  0.7818609E-02  0.8605847E-01
        1   -1    0    0  501    0  0.00000000000E+00  0.00000000000E+00  0.14002427075E+04  0.14002427076E+04  0.50400001928E-02 0. -1.
       -1   -1    0    0    0  501  0.00000000000E+00  0.00000000000E+00 -0.71534407829E+03  0.71534407831E+03  0.50400001928E-02 0.  1.
    10030    2    1    2    0    0  0.00000000000E+00  0.00000000000E+00  0.68489862926E+03  0.21155867859E+04  0.20016546446E+04 0.  0.
        2    1    3    3  502    0 -0.46430780016E+02  0.30701080346E+03  0.13480475333E+04  0.13833450773E+04  0.25500000920E-02 0. -1.
       -2    1    3    3    0  502  0.46430780016E+02 -0.30701080346E+03 -0.66314890408E+03  0.73224170856E+03  0.25500000920E-02 0.  1.
</event>
<event>
 5   0  0.3772949E-05  0.2018271E+04  0.7818609E-02  0.8598126E-01
       -1   -1    0    0    0  501  0.00000000000E+00  0.00000000000E+00  0.11886755861E+04  0.11886755861E+04  0.50400001928E-02 0.  1.
        1   -1    0    0  501    0  0.00000000000E+00  0.00000000000E+00 -0.85671331226E+03  0.85671331228E+03  0.50400001928E-02 0. -1.
    10030    2    1    2    0    0  0.00000000000E+00  0.00000000000E+00  0.33196227387E+03  0.20453888984E+04  0.20182707436E+04 0.  0.
        2    1    3    3  502    0 -0.59955644644E+03 -0.36669521871E+02 -0.65580363768E+03  0.88932052574E+03  0.25500000920E-02 0. -1.
       -2    1    3    3    0  502  0.59955644644E+03  0.36669521871E+02  0.98776591154E+03  0.11560683727E+04  0.25500000920E-02 0.  1.
</event>
<event>
 5   0  0.3970042E-05  0.1975656E+04  0.7818609E-02  0.8618087E-01
        1   -1    0    0  501    0  0.00000000000E+00  0.00000000000E+00  0.12991025239E+04  0.12991025239E+04  0.50400001928E-02 0. -1.
       -1   -1    0    0    0  501  0.00000000000E+00  0.00000000000E+00 -0.75113738091E+03  0.75113738092E+03  0.50400001928E-02 0.  1.
    10030    2    1    2    0    0  0.00000000000E+00  0.00000000000E+00  0.54796514303E+03  0.20502399049E+04  0.19756563136E+04 0.  0.
        3    1    3    3  502    0  0.40533952029E+02 -0.71164873266E+03 -0.43573427239E+03  0.83543478878E+03  0.10100000352E+00 0.  1.
       -3    1    3    3    0  502 -0.40533952029E+02  0.71164873266E+03  0.98369941542E+03  0.12148051161E+04  0.10100000352E+00 0. -1.
</event>
<event>
 5   0  0.8022574E-05  0.2025716E+04  0.7818609E-02  0.8594691E-01
       -2   -1    0    0    0  501  0.00000000000E+00  0.00000000000E+00  0.77446931774E+03  0.77446931774E+03  0.25500000920E-02 0.  1.
        2   -1    0    0  501    0  0.00000000000E+00  0.00000000000E+00 -0.13246245715E+04  0.13246245715E+04  0.25500000920E-02 0. -1.
    10030    2    1    2    0    0  0.00000000000E+00  0.00000000000E+00 -0.55015525378E+03  0.20990938893E+04  0.20257157631E+04 0.  0.
        1    1    3    3  502    0  0.56919498760E+03 -0.39880989936E+03 -0.10385490838E+04  0.12496465377E+04  0.50400001928E-02 0. -1.
       -1    1    3    3    0  502 -0.56919498760E+03  0.39880989936E+03  0.48839383006E+03  0.84944735152E+03  0.50400001928E-02 0.  1.
</event>
<event>
 5   0  0.3787698E-05  0.1972224E+04  0.7818609E-02  0.8619718E-01
        1   -1    0    0  501    0  0.00000000000E+00  0.00000000000E+00  0.10954381499E+04  0.10954381499E+04  0.50400001928E-02 0.  1.
       -1   -1    0    0    0  501  0.00000000000E+00  0.00000000000E+00 -0.88769668239E+03  0.88769668241E+03  0.50400001928E-02 0. -1.
    10030    2    1    2    0    0  0.00000000000E+00  0.00000000000E+00  0.20774146747E+03  0.19831348323E+04  0.19722239340E+04 0.  0.
        4    1    3    3  502    0  0.58858111071E+03 -0.60238100623E+03 -0.41192380868E+03  0.93753583271E+03  0.12699999809E+01 0. -1.
       -4    1    3    3    0  502 -0.58858111071E+03  0.60238100623E+03  0.61966527615E+03  0.10455989996E+04  0.12699999809E+01 0.  1.
</event>
<event>
 5   0  0.3787698E-05  0.2003158E+04  0.7818609E-02  0.8605146E-01
       -1   -1    0    0    0  501  0.00000000000E+00  0.00000000000E+00  0.34665029887E+03  0.34665029890E+03  0.50400001928E-02 0. -1.
        1   -1    0    0  501    0  0.00000000000E+00  0.00000000000E+00 -0.28938677930E+04  0.28938677930E+04  0.50400001928E-02 0.  1.
    10030    2    1    2    0    0  0.00000000000E+00  0.00000000000E+00 -0.25472174941E+04  0.32405180919E+04  0.20031576427E+04 0.  0.
        4    1    3    3  502    0  0.55074404838E+03 -0.78989674014E+03 -0.82792396285E+03  0.12699273869E+04  0.12699999809E+01 0.  1.
       -4    1    3    3    0  502 -0.55074404838E+03  0.78989674014E+03 -0.17192935313E+04  0.19705907050E+04  0.12699999809E+01 0. -1.
</event>
<event>
 5   0  0.3549426E-05  0.1954372E+04  0.7818609E-02  0.8628256E-01
       -1   -1    0    0    0  501  0.00000000000E+00  0.00000000000E+00  0.75361787455E+03  0.75361787457E+03  0.50400001928E-02 0. -1.
        1   -1    0    0  501    0  0.00000000000E+00  0.00000000000E+00 -0.12670774951E+04  0.12670774951E+04  0.50400001928E-02 0.  1.
    10030    2    1    2    0    0  0.00000000000E+00  0.00000000000E+00 -0.51345962051E+03  0.20206953696E+04  0.19543717648E+04 0.  0.
        5    1    3    3  502    0 -0.78585379653E+03  0.68495415761E+02 -0.85302712025E+03  0.11618671049E+04  0.46999998093E+01 0.  1.
       -5    1    3    3    0  502  0.78585379653E+03 -0.68495415761E+02  0.33956749974E+03  0.85882826477E+03  0.46999998093E+01 0. -1.
</event>
<event>
 5   0  0.7843846E-05  0.1979958E+04  0.7818609E-02  0.8616049E-01
        2   -1    0    0  501    0  0.00000000000E+00  0.00000000000E+00  0.12528769508E+04  0.12528769508E+04  0.25500000920E-02 0. -1.
       -2   -1    0    0    0  501  0.00000000000E+00  0.00000000000E+00 -0.78224599402E+03  0.78224599403E+03  0.25500000920E-02 0.  1.
    10030    2    1    2    0    0  0.00000000000E+00  0.00000000000E+00  0.47063095681E+03  0.20351229449E+04  0.19799575509E+04 0.  0.
        2    1    3    3  502    0  0.12993915719E+02  0.63500135882E+03 -0.54522529081E+03  0.83705805372E+03  0.25500000920E-02 0.  1.
       -2    1    3    3    0  502 -0.12993915719E+02 -0.63500135882E+03  0.10158562476E+04  0.11980648911E+04  0.25500000920E-02 0. -1.
</event>
<event>
 5   0  0.7857136E-05  0.1988537E+04  0.7818609E-02  0.8611999E-01
       -2   -1    0    0    0  501  0.00000000000E+00  0.00000000000E+00  0.11688266837E+04  0.11688266837E+04  0.25500000920E-02 0.  1.
        2   -1    0    0  501    0  0.00000000000E+00  0.00000000000E+00 -0.84577950883E+03  0.84577950883E+03  0.25500000920E-02 0. -1.
    10030    2    1    2    0    0  0.00000000000E+00  0.00000000000E+00  0.32304717486E+03  0.20146061925E+04  0.19885368072E+04 0.  0.
        4    1    3    3  502    0  0.24920010466E+03 -0.14881957302E+03  0.11249479394E+04  0.11617906166E+04  0.12699999809E+01 0.  1.
       -4    1    3    3    0  502 -0.24920010466E+03  0.14881957302E+03 -0.80190076455E+03  0.85281557594E+03  0.12699999809E+01 0. -1.
</event>
<event>
 5   0  0.8011197E-05  0.1994400E+04  0.7818609E-02  0.8609243E-01
       -2   -1    0    0    0  501  0.00000000000E+00  0.00000000000E+00  0.74140710807E+03  0.74140710808E+03  0.25500000920E-02 0.  1.
        2   -1    0    0  501    0  0.00000000000E+00  0.00000000000E+00 -0.13412443166E+04  0.13412443166E+04  0.25500000920E-02 0. -1.
    10030    2    1    2    0    0  0.00000000000E+00  0.00000000000E+00 -0.59983720852E+03  0.20826514247E+04  0.19944002306E+04 0.  0.
        5    1    3    3  502    0  0.84502659692E+03  0.44951925646E+03 -0.78114489860E+01  0.95719413922E+03  0.46999998093E+01 0.  1.
       -5    1    3    3    0  502 -0.84502659692E+03 -0.44951925646E+03 -0.59202575953E+03  0.11254572855E+04  0.46999998093E+01 0. -1.
</event>
<event>
 5   0  0.7935008E-05  0.2004442E+04  0.7818609E-02  0.8604547E-01
       -2   -1    0    0    0  501  0.00000000000E+00  0.00000000000E+00  0.63096055264E+03  0.63096055265E+03  0.25500000920E-02 0.  1.
        2   -1    0    0  501    0  0.00000000000E+00  0.00000000000E+00 -0.15919334216E+04  0.15919334217E+04  0.25500000920E-02 0. -1.
    10030    2    1    2    0    0  0.00000000000E+00  0.00000000000E+00 -0.96097286901E+03  0.22228939743E+04  0.20044422581E+04 0.  0.
        3    1    3    3  502    0  0.14952497426E+03 -0.42636694616E+03  0.51160521543E+03  0.68255871349E+03  0.10100000352E+00 0.  1.
       -3    1    3    3    0  502 -0.14952497426E+03  0.42636694616E+03 -0.14725780844E+04  0.15403352608E+04  0.10100000352E+00 0. -1.
</event>
<event>
 5   0  0.8011197E-05  0.1969534E+04  0.7818609E-02  0.8620998E-01
        2   -1    0    0  501    0  0.00000000000E+00  0.00000000000E+00  0.12741202485E+04  0.12741202485E+04  0.25500000920E-02 0.  1.
       -2   -1    0    0    0  501  0.00000000000E+00  0.00000000000E+00 -0.76112600233E+03  0.76112600234E+03  0.25500000920E-02 0. -1.
    10030    2    1    2    0    0  0.00000000000E+00  0.00000000000E+00  0.51299424621E+03  0.20352462509E+04  0.19695340071E+04 0.  0.
        5    1    3    3  502    0 -0.23377387220E+03  0.56768604530E+03 -0.53914397411E+03  0.81707770999E+03  0.46999998093E+01 0. -1.
       -5    1    3    3    0  502  0.23377387220E+03 -0.56768604530E+03  0.10521382203E+04  0.12181685409E+04  0.46999998093E+01 0.  1.
</event>
<event>
 5   0  0.7843846E-05  0.1975680E+04  0.7818609E-02  0.8618076E-01
        2   -1    0    0  501    0  0.00000000000E+00  0.00000000000E+00  0.15931811175E+04  0.15931811175E+04  0.25500000920E-02 0.  1.
       -2   -1    0    0    0  501  0.00000000000E+00  0.00000000000E+00 -0.61250260653E+03  0.61250260654E+03  0.25500000920E-02 0. -1.
    10030    2    1    2    0    0  0.00000000000E+00  0.00000000000E+00  0.98067851100E+03  0.22056837241E+04  0.19756797181E+04 0.  0.
        2    1    3    3  502    0 -0.60517084441E+03  0.30264722441E+02 -0.38066679358E+03  0.71558012276E+03  0.25500000920E-02 0. -1.
       -2    1    3    3    0  502  0.60517084441E+03 -0.30264722441E+02  0.13613453046E+04  0.14901036013E+04  0.25500000920E-02 0.  1.
</event>
<event>
 5   0  0.3818907E-05  0.1980311E+04  0.7818609E-02  0.8615882E-01
        1   -1    0    0  501    0  0.00000000000E+00  0.00000000000E+00  0.81582654332E+03  0.81582654334E+03  0.50400001928E-02 0.  1.
       -1   -1    0    0    0  501  0.00000000000E+00  0.00000000000E+00 -0.12017352381E+04  0.12017352381E+04  0.50400001928E-02 0. -1.
    10030    2    1    2    0    0  0.00000000000E+00  0.00000000000E+00 -0.38590869476E+03  0.20175617814E+04  0.19803105870E+04 0.  0.
        1    1    3    3  502    0  0.11804216333E+03  0.19408258611E+02  0.80843708479E+03  0.81723996042E+03  0.50400001928E-02 0.  1.
       -1    1    3    3    0  502 -0.11804216333E+03 -0.19408258611E+02 -0.11943457795E+04  0.12003218210E+04  0.50400001928E-02 0. -1.
</event>
<event>
 5   0  0.3787698E-05  0.2008451E+04  0.7818609E-02  0.8602680E-01
       -1   -1    0    0    0  501  0.00000000000E+00  0.00000000000E+00  0.40706857377E+03  0.40706857380E+03  0.50400001928E-02 0.  1.
        1   -1    0    0  501    0  0.00000000000E+00  0.00000000000E+00 -0.24773918494E+04  0.24773918494E+04  0.50400001928E-02 0. -1.
    10030    2    1    2    0    0  0.00000000000E+00  0.00000000000E+00 -0.20703232756E+04  0.28844604232E+04  0.20084505140E+04 0.  0.
        4    1    3    3  502    0  0.24652090387E+03  0.90756925442E+03 -0.52941181885E+03  0.10792279622E+04  0.12699999809E+01 0.  1.
       -4    1    3    3    0  502 -0.24652090387E+03 -0.90756925442E+03 -0.15409114567E+04  0.18052324609E+04  0.12699999809E+01 0. -1.
</event>
<event>
 5   0  0.7857136E-05  0.1990776E+04  0.7818609E-02  0.8610945E-01
       -2   -1    0    0    0  501  0.00000000000E+00  0.00000000000E+00  0.75373465103E+03  0.75373465103E+03  0.25500000920E-02 0.  1.
        2   -1    0    0  501    0  0.00000000000E+00  0.00000000000E+00 -0.13145177486E+04  0.13145177486E+04  0.25500000920E-02 0. -1.
    10030    2    1    2    0    0  0.00000000000E+00  0.00000000000E+00 -0.56078309758E+03  0.20682523996E+04  0.19907763074E+04 0.  0.
        4    1    3    3  502    0 -0.91198744921E+03 -0.38710270023E+01  0.13395276831E+03  0.92178145425E+03  0.12699999809E+01 0. -1.
       -4    1    3    3    0  502  0.91198744921E+03  0.38710270023E+01 -0.69473586589E+03  0.11464709454E+04  0.12699999809E+01 0.  1.
</event>
<event>
 5   0  0.7857136E-05  0.1971208E+04  0.7818609E-02  0.8620201E-01
       -2   -1    0    0    0  501  0.00000000000E+00  0.00000000000E+00  0.39368172790E+03  0.39368172791E+03  0.25500000920E-02 0. -1.
        2   -1    0    0  501    0  0.00000000000E+00  0.00000000000E+00 -0.24675141236E+04  0.24675141236E+04  0.25500000920E-02 0.  1.
    10030    2    1    2    0    0  0.00000000000E+00  0.00000000000E+00 -0.20738323957E+04  0.28611958515E+04  0.19712079787E+04 0.  0.
        4    1    3    3  502    0 -0.51712818317E+03  0.28927995088E+03  0.10627596005E+03  0.60199720962E+03  0.12699999809E+01 0. -1.
       -4    1    3    3    0  502  0.51712818317E+03 -0.28927995088E+03 -0.21801083557E+04  0.22591986419E+04  0.12699999809E+01 0.  1.
</event>
<event>
 5   0  0.3772949E-05  0.1996237E+04  0.7818609E-02  0.8608382E-01
       -1   -1    0    0    0  501  0.00000000000E+00  0.00000000000E+00  0.14119690972E+04  0.14119690972E+04  0.50400001928E-02 0. -1.
        1   -1    0    0  501    0  0.00000000000E+00  0.00000000000E+00 -0.70556811599E+03  0.70556811601E+03  0.50400001928E-02 0.  1.
    10030    2    1    2    0    0  0.00000000000E+00  0.00000000000E+00  0.70640098121E+03  0.21175372132E+04  0.19962368354E+04 0.  0.
        2    1    3    3  502    0  0.31281670934E+03 -0.91395863579E+03  0.61958905444E+03  0.11476346448E+04  0.25500000920E-02 0. -1.
       -2    1    3    3    0  502 -0.31281670934E+03  0.91395863579E+03  0.86811926769E+02  0.96990256841E+03  0.25500000920E-02 0.  1.
</event>
<event>
 5   0  0.3772949E-05  0.2005935E+04  0.7818609E-02  0.8603851E-01
        1   -1    0    0  501    0  0.00000000000E+00  0.00000000000E+00  0.58062915640E+03  0.58062915642E+03  0.50400001928E-02 0.  1.
       -1   -1    0    0    0  501  0.00000000000E+00  0.00000000000E+00 -0.17325066446E+04  0.17325066446E+04  0.50400001928E-02 0. -1.
    10030    2    1    2    0    0  0.00000000000E+00  0.00000000000E+00 -0.11518774882E+04  0.23131358010E+04  0.20059350653E+04 0.  0.
        2    1    3    3  502    0 -0.69096053823E+03  0.29518426505E+03 -0.13420509538E+04  0.15380705375E+04  0.25500000920E-02 0. -1.
       -2    1    3    3    0  502  0.69096053823E+03 -0.29518426505E+03  0.19017346559E+03  0.77506526354E+03  0.25500000920E-02 0.  1.
</event>
<event>
 5   0  0.7843846E-05  0.2001171E+04  0.7818609E-02  0.8606073E-01
       -2   -1    0    0    0  501  0.00000000000E+00  0.00000000000E+00  0.81406914265E+03  0.81406914265E+03  0.25500000920E-02 0.  1.
        2   -1    0    0  501    0  0.00000000000E+00  0.00000000000E+00 -0.12298358108E+04  0.12298358108E+04  0.25500000920E-02 0. -1.
    10030    2    1    2    0    0  0.00000000000E+00  0.00000000000E+00 -0.41576666813E+03  0.20439049534E+04  0.20011710412E+04 0.  0.
        2    1    3    3  502    0  0.14030419323E+03  0.98457828699E+03 -0.32019385041E+03  0.10447984359E+04  0.25500000920E-02 0.  1.
       -2    1    3    3    0  502 -0.14030419323E+03 -0.98457828699E+03 -0.95572817723E+02  0.99910651751E+03  0.25500000920E-02 0. -1.
</event>
<event>
 5   0  0.7935008E-05  0.2074449E+04  0.7818609E-02  0.8572583E-01
        2   -1    0    0  501    0  0.00000000000E+00  0.00000000000E+00  0.88261161581E+03  0.88261161582E+03  0.25500000920E-02 0.  1.
       -2   -1    0    0    0  501  0.00000000000E+00  0.00000000000E+00 -0.12189216351E+04  0.12189216351E+04  0.25500000920E-02 0. -1.
    10030    2    1    2    0    0  0.00000000000E+00  0.00000000000E+00 -0.33631001933E+03  0.21015332510E+04  0.20744487402E+04 0.  0.
        3    1    3    3  502    0  0.68511118509E+03  0.13889560984E+03 -0.94442654098E+03  0.11749939693E+04  0.10100000352E+00 0. -1.
       -3    1    3    3    0  502 -0.68511118509E+03 -0.13889560984E+03  0.60811652165E+03  0.92653928167E+03  0.10100000352E+00 0.  1.
</event>
<event>
 5   0  0.7843846E-05  0.1993493E+04  0.7818609E-02  0.8609669E-01
       -2   -1    0    0    0  501  0.00000000000E+00  0.00000000000E+00  0.92551587629E+03  0.92551587629E+03  0.25500000920E-02 0. -1.
        2   -1    0    0  501    0  0.00000000000E+00  0.00000000000E+00 -0.10734594084E+04  0.10734594084E+04  0.25500000920E-02 0.  1.
    10030    2    1    2    0    0  0.00000000000E+00  0.00000000000E+00 -0.14794353212E+03  0.19989752847E+04  0.19934931402E+04 0.  0.
        2    1    3    3  502    0  0.89224555221E+03  0.43869237189E+03 -0.14452577643E+03  0.10047093225E+04  0.25500000920E-02 0. -1.
       -2    1    3    3    0  502 -0.89224555221E+03 -0.43869237189E+03 -0.34177556974E+01  0.99426596224E+03  0.25500000920E-02 0.  1.
</event>
<event>
 5   0  0.8022574E-05  0.1997625E+04  0.7818609E-02  0.8607732E-01
        2   -1    0    0  501    0  0.00000000000E+00  0.00000000000E+00  0.89487442796E+03  0.89487442797E+03  0.25500000920E-02 0. -1.
       -2   -1    0    0    0  501  0.00000000000E+00  0.00000000000E+00 -0.11148229037E+04  0.11148229037E+04  0.25500000920E-02 0.  1.
    10030    2    1    2    0    0  0.00000000000E+00  0.00000000000E+00 -0.21994847569E+03  0.20096973316E+04  0.19976250982E+04 0.  0.
        1    1    3    3  502    0 -0.74625856482E+02 -0.38638275348E+02 -0.11112600581E+04  0.11144329731E+04  0.50400001928E-02 0.  1.
       -1    1    3    3    0  502  0.74625856482E+02  0.38638275348E+02  0.89131158238E+03  0.89526435855E+03  0.50400001928E-02 0. -1.
</event>
<event>
 5   0  0.3549426E-05  0.2021345E+04  0.7818609E-02  0.8596706E-01
        1   -1    0    0  501    0  0.00000000000E+00  0.00000000000E+00  0.11616192641E+04  0.11616192642E+04  0.50400001928E-02 0.  1.
       -1   -1    0    0    0  501  0.00000000000E+00  0.00000000000E+00 -0.87934046697E+03  0.87934046698E+03  0.50400001928E-02 0. -1.
    10030    2    1    2    0    0  0.00000000000E+00  0.00000000000E+00  0.28227879717E+03  0.20409597311E+04  0.20213449247E+04 0.  0.
        5    1    3    3  502    0  0.76749373854E+03 -0.39189193675E+03  0.67428865729E+03  0.10942180825E+04  0.46999998093E+01 0.  1.
       -5    1    3    3    0  502 -0.76749373854E+03  0.39189193675E+03 -0.39200986012E+03  0.94674164861E+03  0.46999998093E+01 0. -1.
</event>
<event>
 5   0  0.8011197E-05  0.2005890E+04  0.7818609E-02  0.8603872E-01
        2   -1    0    0  501    0  0.00000000000E+00  0.00000000000E+00  0.72857445729E+03  0.72857445729E+03  0.25500000920E-02 0.  1.
       -2   -1    0    0    0  501  0.00000000000E+00  0.00000000000E+00 -0.13806396558E+04  0.13806396558E+04  0.25500000920E-02 0. -1.
    10030    2    1    2    0    0  0.00000000000E+00  0.00000000000E+00 -0.65206519848E+03  0.21092141131E+04  0.20058901146E+04 0.  0.
        5    1    3    3  502    0  0.73135472378E+03  0.62363303157E+03 -0.24781215437E+02  0.96147495479E+03  0.46999998093E+01 0.  1.
       -5    1    3    3    0  502 -0.73135472378E+03 -0.62363303157E+03 -0.62728398304E+03  0.11477391583E+04  0.46999998093E+01 0. -1.
</event>
<event>
 5   0  0.7857136E-05  0.2006743E+04  0.7818609E-02  0.8603475E-01
        2   -1    0    0  501    0  0.00000000000E+00  0.00000000000E+00  0.88238982183E+03  0.88238982184E+03  0.25500000920E-02 0.  1.
       -2   -1    0    0    0  501  0.00000000000E+00  0.00000000000E+00 -0.11409400495E+04  0.11409400495E+04  0.25500000920E-02 0. -1.
    10030    2    1    2    0    0  0.00000000000E+00  0.00000000000E+00 -0.25855022765E+03  0.20233298713E+04  0.20067425216E+04 0.  0.
        4    1    3    3  502    0  0.64112244219E+03  0.64667328975E+03 -0.55409848646E+03  0.10659507846E+04  0.12699999809E+01 0. -1.
       -4    1    3    3    0  502 -0.64112244219E+03 -0.64667328975E+03  0.29554825881E+03  0.95737908675E+03  0.12699999809E+01 0.  1.
</event>
<event>
 5   0  0.7843846E-05  0.2014942E+04  0.7818609E-02  0.8599666E-01
       -2   -1    0    0    0  501  0.00000000000E+00  0.00000000000E+00  0.28296550047E+03  0.28296550048E+03  0.25500000920E-02 0. -1.
        2   -1    0    0  501    0  0.00000000000E+00  0.00000000000E+00 -0.35870034954E+04  0.35870034954E+04  0.25500000920E-02 0.  1.
    10030    2    1    2    0    0  0.00000000000E+00  0.00000000000E+00 -0.33040379950E+04  0.38699689959E+04  0.20149424203E+04 0.  0.
        2    1    3    3  502    0 -0.82918075332E+03  0.46013955399E+03 -0.99863852691E+03  0.13771521478E+04  0.25500000920E-02 0. -1.
       -2    1    3    3    0  502  0.82918075332E+03 -0.46013955399E+03 -0.23053994681E+04  0.24928168481E+04  0.25500000920E-02 0.  1.
</event>
<event>
 5   0  0.3970042E-05  0.1973815E+04  0.7818609E-02  0.8618962E-01
       -1   -1    0    0    0  501  0.00000000000E+00  0.00000000000E+00  0.80259755151E+03  0.80259755152E+03  0.50400001928E-02 0.  1.
        1   -1    0    0  501    0  0.00000000000E+00  0.00000000000E+00 -0.12135427202E+04  0.12135427202E+04  0.50400001928E-02 0. -1.
    10030    2    1    2    0    0  0.00000000000E+00  0.00000000000E+00 -0.41094516869E+03  0.20161402717E+04  0.19738150024E+04 0.  0.
        3    1    3    3  502    0 -0.19501474203E+03  0.96702383738E+03 -0.17621301761E+03  0.10021062266E+04  0.10100000352E+00 0.  1.
       -3    1    3    3    0  502  0.19501474203E+03 -0.96702383738E+03 -0.23473215108E+03  0.10140340451E+04  0.10100000352E+00 0. -1.
</event>
<event>
 5   0  0.3549426E-05  0.1998133E+04  0.7818609E-02  0.8607494E-01
       -1   -1    0    0    0  501  0.00000000000E+00  0.00000000000E+00  0.71539904640E+03  0.71539904642E+03  0.50400001928E-02 0.  1.
        1   -1    0    0  501    0  0.00000000000E+00  0.00000000000E+00 -0.13952123300E+04  0.13952123300E+04  0.50400001928E-02 0. -1.
    10030    2    1    2    0    0  0.00000000000E+00  0.00000000000E+00 -0.67981328361E+03  0.21106113764E+04  0.19981326987E+04 0.  0.
        5    1    3    3  502    0  0.58918115492E+03  0.79823740982E+03 -0.21584703748E+03  0.10153469502E+04  0.46999998093E+01 0.  1.
       -5    1    3    3    0  502 -0.58918115492E+03 -0.79823740982E+03 -0.46396624612E+03  0.10952644262E+04  0.46999998093E+01 0. -1.
</event>
<event>
 5   0  0.8022574E-05  0.2005124E+04  0.7818609E-02  0.8604229E-01
        2   -1    0    0  501    0  0.00000000000E+00  0.00000000000E+00  0.17401519816E+04  0.17401519816E+04  0.25500000920E-02 0. -1.
       -2   -1    0    0    0  501  0.00000000000E+00  0.00000000000E+00 -0.57761064333E+03  0.57761064333E+03  0.25500000920E-02 0.  1.
    10030    2    1    2    0    0  0.00000000000E+00  0.00000000000E+00  0.11625413382E+04  0.23177626249E+04  0.20051237424E+04 0.  0.
        1    1    3    3  502    0 -0.56724196254E+03  0.63875309242E+02  0.15339667215E+04  0.16367337602E+04  0.50400001928E-02 0. -1.
       -1    1    3    3    0  502  0.56724196254E+03 -0.63875309242E+02 -0.37142538324E+03  0.68102886468E+03  0.50400001928E-02 0.  1.
</event>
<event>
 5   0  0.8011197E-05  0.2004215E+04  0.7818609E-02  0.8604653E-01
        2   -1    0    0  501    0  0.00000000000E+00  0.00000000000E+00  0.87658134828E+03  0.87658134828E+03  0.25500000920E-02 0.  1.
       -2   -1    0    0    0  501  0.00000000000E+00  0.00000000000E+00 -0.11456090253E+04  0.11456090253E+04  0.25500000920E-02 0. -1.
    10030    2    1    2    0    0  0.00000000000E+00  0.00000000000E+00 -0.26902767701E+03  0.20221903736E+04  0.20042150623E+04 0.  0.
        5    1    3    3  502    0  0.61905740355E+03 -0.50933630572E+03 -0.74119012345E+03  0.10918060406E+04  0.46999998093E+01 0. -1.
       -5    1    3    3    0  502 -0.61905740355E+03  0.50933630572E+03  0.47216244644E+03  0.93038433297E+03  0.46999998093E+01 0.  1.
</event>
<event>
 5   0  0.8011197E-05  0.1986804E+04  0.7818609E-02  0.8612815E-01
       -2   -1    0    0    0  501  0.00000000000E+00  0.00000000000E+00  0.10667971960E+04  0.10667971960E+04  0.25500000920E-02 0. -1.
        2   -1    0    0  501    0  0.00000000000E+00  0.00000000000E+00 -0.92505608637E+03  0.92505608637E+03  0.25500000920E-02 0.  1.
    10030    2    1    2    0    0  0.00000000000E+00  0.00000000000E+00  0.14174110959E+03  0.19918532823E+04  0.19868037035E+04 0.  0.
        5    1    3    3  502    0  0.68646568675E+03  0.12479534087E+03  0.77978592614E+03  0.10463733544E+04  0.46999998093E+01 0. -1.
       -5    1    3    3    0  502 -0.68646568675E+03 -0.12479534087E+03 -0.63804481655E+03  0.94547992793E+03  0.46999998093E+01 0.  1.
</event>
<event>
 5   0  0.3787698E-05  0.2004024E+04  0.7818609E-02  0.8604741E-01
       -1   -1    0    0    0  501  0.00000000000E+00  0.00000000000E+00  0.12253529106E+04  0.12253529106E+04  0.50400001928E-02 0. -1.
        1   -1    0    0  501    0  0.00000000000E+00  0.00000000000E+00 -0.81937902233E+03  0.81937902234E+03  0.50400001928E-02 0.  1.
    10030    2    1    2    0    0  0.00000000000E+00  0.00000000000E+00  0.40597388823E+03  0.20447319329E+04  0.20040244209E+04 0.  0.
        4    1    3    3  502    0  0.65612338128E+03 -0.63738114309E+03  0.62028648588E+03  0.11052192319E+04  0.12699999809E+01 0. -1.
       -4    1    3    3    0  502 -0.65612338128E+03  0.63738114309E+03 -0.21431259765E+03  0.93951270105E+03  0.12699999809E+01 0.  1.
</event>
<event>
 5   0  0.3787698E-05  0.2002277E+04  0.7818609E-02  0.8605557E-01
       -1   -1    0    0    0  501  0.00000000000E+00  0.00000000000E+00  0.71826771972E+03  0.71826771974E+03  0.50400001928E-02 0. -1.
        1   -1    0    0  501    0  0.00000000000E+00  0.00000000000E+00 -0.13954106830E+04  0.13954106830E+04  0.50400001928E-02 0.  1.
    10030    2    1    2    0    0  0.00000000000E+00  0.00000000000E+00 -0.67714296329E+03  0.21136784028E+04  0.20022771530E+04 0.  0.
        4    1    3    3  502    0  0.73496666526E+03  0.52846735272E+03  0.11279597750E+03  0.91223806507E+03  0.12699999809E+01 0. -1.
       -4    1    3    3    0  502 -0.73496666526E+03 -0.52846735272E+03 -0.78993894079E+03  0.12014403377E+04  0.12699999809E+01 0.  1.
</event>
<event>
 5   0  0.3772949E-05  0.2000768E+04  0.7818609E-02  0.8606262E-01
       -1   -1    0    0    0  501  0.00000000000E+00  0.00000000000E+00  0.62858313001E+03  0.62858313003E+03  0.50400001928E-02 0. -1.
        1   -1    0    0  501    0  0.00000000000E+00  0.00000000000E+00 -0.15921009872E+04  0.15921009872E+04  0.50400001928E-02 0.  1.
    10030    2    1    2    0    0  0.00000000000E+00  0.00000000000E+00 -0.96351785723E+03  0.22206841173E+04  0.20007676746E+04 0.  0.
        2    1    3    3  502    0  0.47409022162E+03  0.68043371143E+03 -0.11027331406E+04  0.13797724281E+04  0.25500000920E-02 0. -1.
       -2    1    3    3    0  502 -0.47409022162E+03 -0.68043371143E+03  0.13921528339E+03  0.84091168919E+03  0.25500000920E-02 0.  1.
</event>
<event>
 5   0  0.8022574E-05  0.1997720E+04  0.7818609E-02  0.8607687E-01
        2   -1    0    0  501    0  0.00000000000E+00  0.00000000000E+00  0.59163908612E+03  0.59163908612E+03  0.25500000920E-02 0. -1.
       -2   -1    0    0    0  501  0.00000000000E+00  0.00000000000E+00 -0.16863684412E+04  0.16863684412E+04  0.25500000920E-02 0.  1.
    10030    2    1    2    0    0  0.00000000000E+00  0.00000000000E+00 -0.10947293551E+04  0.22780075273E+04  0.19977201840E+04 0.  0.
        1    1    3    3  502    0 -0.42095248653E+03 -0.77629407868E+03 -0.15088359024E+02  0.88321070596E+03  0.50400001928E-02 0. -1.
       -1    1    3    3    0  502  0.42095248653E+03  0.77629407868E+03 -0.10796409960E+04  0.13947968214E+04  0.50400001928E-02 0.  1.
</event>
<event>
 5   0  0.8011197E-05  0.2086001E+04  0.7818609E-02  0.8567435E-01
       -2   -1    0    0    0  501  0.00000000000E+00  0.00000000000E+00  0.96554232864E+03  0.96554232864E+03  0.25500000920E-02 0. -1.
        2   -1    0    0  501    0  0.00000000000E+00  0.00000000000E+00 -0.11266723233E+04  0.11266723233E+04  0.25500000920E-02 0.  1.
    10030    2    1    2    0    0  0.00000000000E+00  0.00000000000E+00 -0.16112999470E+03  0.20922146520E+04  0.20860007849E+04 0.  0.
        5    1    3    3  502    0  0.37121855139E+02 -0.78130715088E+03  0.61142414039E+03  0.99281441649E+03  0.46999998093E+01 0. -1.
       -5    1    3    3    0  502 -0.37121855139E+02  0.78130715088E+03 -0.77255413509E+03  0.10994002355E+04  0.46999998093E+01 0.  1.
</event>
<event>
 5   0  0.7935008E-05  0.2002764E+04  0.7818609E-02  0.8605330E-01
        2   -1    0    0  501    0  0.00000000000E+00  0.00000000000E+00  0.50785105990E+03  0.50785105991E+03  0.25500000920E-02 0. -1.
       -2   -1    0    0    0  501  0.00000000000E+00  0.00000000000E+00 -0.19745274583E+04  0.19745274583E+04  0.25500000920E-02 0.  1.
    10030    2    1    2    0    0  0.00000000000E+00  0.00000000000E+00 -0.14666763984E+04  0.24823785182E+04  0.20027639526E+04 0.  0.
        3    1    3    3  502    0  0.44832329962E+03 -0.87044069047E+03 -0.99364320751E+03  0.13949865987E+04  0.10100000352E+00 0.  1.
       -3    1    3    3    0  502 -0.44832329962E+03  0.87044069047E+03 -0.47303319086E+03  0.10873919194E+04  0.10100000352E+00 0. -1.
</event>
<event>
 5   0  0.3787698E-05  0.1980427E+04  0.7818609E-02  0.8615827E-01
       -1   -1    0    0    0  501  0.00000000000E+00  0.00000000000E+00  0.84516010562E+03  0.84516010563E+03  0.50400001928E-02 0.  1.
        1   -1    0    0  501    0  0.00000000000E+00  0.00000000000E+00 -0.11601621016E+04  0.11601621017E+04  0.50400001928E-02 0. -1.
    10030    2    1    2    0    0  0.00000000000E+00  0.00000000000E+00 -0.31500199603E+03  0.20053222073E+04  0.19804269483E+04 0.  0.
        4    1    3    3  502    0  0.98452264167E+03 -0.25651531389E+02 -0.53357338658E+02  0.98630190688E+03  0.12699999809E+01 0. -1.
       -4    1    3    3    0  502 -0.98452264167E+03  0.25651531389E+02 -0.26164465737E+03  0.10190203004E+04  0.12699999809E+01 0.  1.
</event>
<event>
 5   0  0.8022574E-05  0.2026486E+04  0.7818609E-02  0.8594337E-01
       -2   -1    0    0    0  501  0.00000000000E+00  0.00000000000E+00  0.10542423185E+04  0.10542423185E+04  0.25500000920E-02 0. -1.
        2   -1    0    0  501    0  0.00000000000E+00  0.00000000000E+00 -0.97383846249E+03  0.97383846249E+03  0.25500000920E-02 0.  1.
    10030    2    1    2    0    0  0.00000000000E+00  0.00000000000E+00  0.80403855974E+02  0.20280807810E+04  0.20264863370E+04 0.  0.
        1    1    3    3  502    0 -0.76183543217E+02  0.19686494541E+03 -0.95158838630E+03  0.97472057327E+03  0.50400001928E-02 0.  1.
       -1    1    3    3    0  502  0.76183543217E+02 -0.19686494541E+03  0.10319922423E+04  0.10533602077E+04  0.50400001928E-02 0. -1.
</event>
<event>
 5   0  0.3787698E-05  0.2003262E+04  0.7818609E-02  0.8605097E-01
       -1   -1    0    0    0  501  0.00000000000E+00  0.00000000000E+00  0.53198863239E+03  0.53198863242E+03  0.50400001928E-02 0.  1.
        1   -1    0    0  501    0  0.00000000000E+00  0.00000000000E+00 -0.18858752504E+04  0.18858752504E+04  0.50400001928E-02 0. -1.
    10030    2    1    2    0    0  0.00000000000E+00  0.00000000000E+00 -0.13538866180E+04  0.24178638828E+04  0.20032615360E+04 0.  0.
        4    1    3    3  502    0  0.35393081914E+03 -0.49656137932E+03 -0.16360218462E+04  0.17459694506E+04  0.12699999809E+01 0. -1.
       -4    1    3    3    0  502 -0.35393081914E+03  0.49656137932E+03  0.28213522822E+03  0.67189443223E+03  0.12699999809E+01 0.  1.
</event>
<event>
 5   0  0.7935008E-05  0.1993124E+04  0.7818609E-02  0.8609842E-01
        2   -1    0    0  501    0  0.00000000000E+00  0.00000000000E+00  0.13406503927E+04  0.13406503927E+04  0.25500000920E-02 0.  1.
       -2   -1    0    0    0  501  0.00000000000E+00  0.00000000000E+00 -0.74078682395E+03  0.74078682395E+03  0.25500000920E-02 0. -1.
    10030    2    1    2    0    0  0.00000000000E+00  0.00000000000E+00  0.59986356878E+03  0.20814372167E+04  0.19931243277E+04 0.  0.
        3    1    3    3  502    0 -0.68419849233E+03 -0.71547051413E+03  0.41950629127E+03  0.10751795999E+04  0.10100000352E+00 0.  1.
       -3    1    3    3    0  502  0.68419849233E+03  0.71547051413E+03  0.18035727752E+03  0.10062576167E+04  0.10100000352E+00 0. -1.
</event>
<event>
 5   0  0.7857136E-05  0.1955105E+04  0.7818609E-02  0.8627903E-01
        2   -1    0    0  501    0  0.00000000000E+00  0.00000000000E+00  0.85859492992E+03  0.85859492992E+03  0.25500000920E-02 0.  1.
       -2   -1    0    0    0  501  0.00000000000E+00  0.00000000000E+00 -0.11129918530E+04  0.11129918530E+04  0.25500000920E-02 0. -1.
    10030    2    1    2    0    0  0.00000000000E+00  0.00000000000E+00 -0.25439692306E+03  0.19715867829E+04  0.19551052780E+04 0.  0.
        4    1    3    3  502    0  0.40111111570E+03  0.68434224565E+03 -0.70332282727E+03  0.10601316185E+04  0.12699999809E+01 0. -1.
       -4    1    3    3    0  502 -0.40111111570E+03 -0.68434224565E+03  0.44892590421E+03  0.91145516439E+03  0.12699999809E+01 0.  1.
</event>
<event>
 5   0  0.3818907E-05  0.2057489E+04  0.7818609E-02  0.8580205E-01
       -1   -1    0    0    0  501  0.00000000000E+00  0.00000000000E+00  0.12420859427E+04  0.12420859428E+04  0.50400001928E-02 0. -1.
        1   -1    0    0  501    0  0.00000000000E+00  0.00000000000E+00 -0.85204630495E+03  0.85204630497E+03  0.50400001928E-02 0.  1.
    10030    2    1    2    0    0  0.00000000000E+00  0.00000000000E+00  0.39003963780E+03  0.20941322477E+04  0.20574885059E+04 0.  0.
        1    1    3    3  502    0 -0.34811717500E+03 -0.12876044696E+03 -0.78152090408E+03  0.86518191368E+03  0.50400001928E-02 0.  1.
       -1    1    3    3    0  502  0.34811717500E+03  0.12876044696E+03  0.11715605419E+04  0.12289503340E+04  0.50400001928E-02 0. -1.
</event>
<event>
 5   0  0.8022574E-05  0.2053807E+04  0.7818609E-02  0.8581869E-01
        2   -1    0    0  501    0  0.00000000000E+00  0.00000000000E+00  0.20206141200E+04  0.20206141200E+04  0.25500000920E-02 0. -1.
       -2   -1    0    0    0  501  0.00000000000E+00  0.00000000000E+00 -0.52188652460E+03  0.52188652460E+03  0.25500000920E-02 0.  1.
    10030    2    1    2    0    0  0.00000000000E+00  0.00000000000E+00  0.14987275954E+04  0.25425006446E+04  0.20538074697E+04 0.  0.
        1    1    3    3  502    0 -0.69224418349E+03  0.40360976000E+03 -0.45651785733E+02  0.80261256750E+03  0.50400001928E-02 0. -1.
       -1    1    3    3    0  502  0.69224418349E+03 -0.40360976000E+03  0.15443793811E+04  0.17398880771E+04  0.50400001928E-02 0.  1.
</event>
<event>
 5   0  0.3549426E-05  0.2003804E+04  0.7818609E-02  0.8604844E-01
       -1   -1    0    0    0  501  0.00000000000E+00  0.00000000000E+00  0.60977665442E+03  0.60977665444E+03  0.50400001928E-02 0. -1.
        1   -1    0    0  501    0  0.00000000000E+00  0.00000000000E+00 -0.16461895252E+04  0.16461895252E+04  0.50400001928E-02 0.  1.
    10030    2    1    2    0    0  0.00000000000E+00  0.00000000000E+00 -0.10364128708E+04  0.22559661796E+04  0.20038043230E+04 0.  0.
        5    1    3    3  502    0  0.15279949199E+03 -0.40197800508E+03 -0.15369853377E+04  0.15960200561E+04  0.46999998093E+01 0.  1.
       -5    1    3    3    0  502 -0.15279949199E+03  0.40197800508E+03  0.50057246690E+03  0.65994612351E+03  0.46999998093E+01 0. -1.
</event>
<event>
 5   0  0.3549426E-05  0.2019110E+04  0.7818609E-02  0.8597738E-01
        1   -1    0    0  501    0  0.00000000000E+00  0.00000000000E+00  0.17897243613E+04  0.17897243613E+04  0.50400001928E-02 0.  1.
       -1   -1    0    0    0  501  0.00000000000E+00  0.00000000000E+00 -0.56947375572E+03  0.56947375574E+03  0.50400001928E-02 0. -1.
    10030    2    1    2    0    0  0.00000000000E+00  0.00000000000E+00  0.12202506056E+04  0.23591981170E+04  0.20191097580E+04 0.  0.
        5    1    3    3  502    0  0.70418170104E+03  0.58784355901E+03  0.11027380899E+04  0.14343937056E+04  0.46999998093E+01 0.  1.
       -5    1    3    3    0  502 -0.70418170104E+03 -0.58784355901E+03  0.11751251569E+03  0.92480441137E+03  0.46999998093E+01 0. -1.
</event>
<event>
 5   0  0.3787698E-05  0.2001118E+04  0.7818609E-02  0.8606098E-01
        1   -1    0    0  501    0  0.00000000000E+00  0.00000000000E+00  0.23916740177E+04  0.23916740177E+04  0.50400001928E-02 0.  1.
       -1   -1    0    0    0  501  0.00000000000E+00  0.00000000000E+00 -0.41858472536E+03  0.41858472539E+03  0.50400001928E-02 0. -1.
    10030    2    1    2    0    0  0.00000000000E+00  0.00000000000E+00  0.19730892923E+04  0.28102587431E+04  0.20011178995E+04 0.  0.
        4    1    3    3  502    0 -0.16320987231E+03  0.52173291315E+03  0.21634103214E+04  0.22314095381E+04  0.12699999809E+01 0.  1.
       -4    1    3    3    0  502  0.16320987231E+03 -0.52173291315E+03 -0.19032102908E+03  0.57884920497E+03  0.12699999809E+01 0. -1.
</event>
<event>
 5   0  0.3970042E-05  0.2009011E+04  0.7818609E-02  0.8602419E-01
        1   -1    0    0  501    0  0.00000000000E+00  0.00000000000E+00  0.94949198063E+03  0.94949198064E+03  0.50400001928E-02 0.  1.
       -1   -1    0    0    0  501  0.00000000000E+00  0.00000000000E+00 -0.10627064102E+04  0.10627064103E+04  0.50400001928E-02 0. -1.
    10030    2    1    2    0    0  0.00000000000E+00  0.00000000000E+00 -0.11321442961E+03  0.20121983909E+04  0.20090109152E+04 0.  0.
        3    1    3    3  502    0 -0.46715727422E+03 -0.36792314088E+03  0.75426224910E+03  0.96047639590E+03  0.10100000352E+00 0.  1.
       -3    1    3    3    0  502  0.46715727422E+03  0.36792314088E+03 -0.86747667872E+03  0.10517219950E+04  0.10100000352E+00 0. -1.
</event>
<event>
 5   0  0.3970042E-05  0.1999009E+04  0.7818609E-02  0.8607084E-01
       -1   -1    0    0    0  501  0.00000000000E+00  0.00000000000E+00  0.13210273572E+04  0.13210273572E+04  0.50400001928E-02 0. -1.
        1   -1    0    0  501    0  0.00000000000E+00  0.00000000000E+00 -0.75623687284E+03  0.75623687286E+03  0.50400001928E-02 0.  1.
    10030    2    1    2    0    0  0.00000000000E+00  0.00000000000E+00  0.56479048439E+03  0.20772642301E+04  0.19990093522E+04 0.  0.
        3    1    3    3  502    0  0.53889071185E+03 -0.49207497323E+03  0.99211701438E+03  0.12315994312E+04  0.10100000352E+00 0. -1.
       -3    1    3    3    0  502 -0.53889071185E+03  0.49207497323E+03 -0.42732652999E+03  0.84566479886E+03  0.10100000352E+00 0.  1.
</event>
<event>
 5   0  0.3787698E-05  0.2007653E+04  0.7818609E-02  0.8603051E-01
        1   -1    0    0  501    0  0.00000000000E+00  0.00000000000E+00  0.18587645342E+04  0.18587645342E+04  0.50400001928E-02 0. -1.
       -1   -1    0    0    0  501  0.00000000000E+00  0.00000000000E+00 -0.54211683329E+03  0.54211683331E+03  0.50400001928E-02 0.  1.
    10030    2    1    2    0    0  0.00000000000E+00  0.00000000000E+00  0.13166477009E+04  0.24008813675E+04  0.20076529014E+04 0.  0.
        4    1    3    3  502    0  0.60369358621E+03 -0.67396483213E+03  0.11782038133E+04  0.14855437993E+04  0.12699999809E+01 0. -1.
       -4    1    3    3    0  502 -0.60369358621E+03  0.67396483213E+03  0.13844388763E+03  0.91533756827E+03  0.12699999809E+01 0.  1.
</event>
<event>
 5   0  0.3970042E-05  0.2107620E+04  0.7818609E-02  0.8557894E-01
        1   -1    0    0  501    0  0.00000000000E+00  0.00000000000E+00  0.21661681425E+04  0.21661681426E+04  0.50400001928E-02 0.  1.
       -1   -1    0    0    0  501  0.00000000000E+00  0.00000000000E+00 -0.51266337186E+03  0.51266337188E+03  0.50400001928E-02 0. -1.
    10030    2    1    2    0    0  0.00000000000E+00  0.00000000000E+00  0.16535047707E+04  0.26788315144E+04  0.21076195710E+04 0.  0.
        3    1    3    3  502    0 -0.98389398915E+03 -0.33119067291E+03  0.59662920471E+03  0.11973725660E+04  0.10100000352E+00 0. -1.
       -3    1    3    3    0  502  0.98389398915E+03  0.33119067291E+03  0.10568755660E+04  0.14814589484E+04  0.10100000352E+00 0.  1.
</event>
<event>
 5   0  0.3818907E-05  0.1958389E+04  0.7818609E-02  0.8626326E-01
       -1   -1    0    0    0  501  0.00000000000E+00  0.00000000000E+00  0.94730317475E+03  0.94730317477E+03  0.50400001928E-02 0.  1.
        1   -1    0    0  501    0  0.00000000000E+00  0.00000000000E+00 -0.10121589955E+04  0.10121589955E+04  0.50400001928E-02 0. -1.
    10030    2    1    2    0    0  0.00000000000E+00  0.00000000000E+00 -0.64855820725E+02  0.19594621703E+04  0.19583885516E+04 0.  0.
        1    1    3    3  502    0 -0.73912476467E+03  0.44206536926E+02  0.60867432021E+03  0.95851137905E+03  0.50400001928E-02 0.  1.
       -1    1    3    3    0  502  0.73912476467E+03 -0.44206536926E+02 -0.67353014094E+03  0.10009507912E+04  0.50400001928E-02 0. -1.
</event>
<event>
 5   0  0.3549426E-05  0.1997841E+04  0.7818609E-02  0.8607631E-01
       -1   -1    0    0    0  501  0.00000000000E+00  0.00000000000E+00  0.99661574500E+03  0.99661574501E+03  0.50400001928E-02 0. -1.
        1   -1    0    0  501    0  0.00000000000E+00  0.00000000000E+00 -0.10012308210E+04  0.10012308210E+04  0.50400001928E-02 0.  1.
    10030    2    1    2    0    0  0.00000000000E+00  0.00000000000E+00 -0.46150759552E+01  0.19978465660E+04  0.19978412355E+04 0.  0.
        5    1    3    3  502    0 -0.82290499938E+03  0.21244870863E+03 -0.52720246935E+03  0.10001358035E+04  0.46999998093E+01 0. -1.
       -5    1    3    3    0  502  0.82290499938E+03 -0.21244870863E+03  0.52258739339E+03  0.99771076246E+03  0.46999998093E+01 0.  1.
</event>
<event>
 5   0  0.7935008E-05  0.2016766E+04  0.7818609E-02  0.8598822E-01
        2   -1    0    0  501    0  0.00000000000E+00  0.00000000000E+00  0.18730906619E+04  0.18730906619E+04  0.25500000920E-02 0.  1.
       -2   -1    0    0    0  501  0.00000000000E+00  0.00000000000E+00 -0.54286542502E+03  0.54286542503E+03  0.25500000920E-02 0. -1.
    10030    2    1    2    0    0  0.00000000000E+00  0.00000000000E+00  0.13302252369E+04  0.24159560869E+04  0.20167658846E+04 0.  0.
        3    1    3    3  502    0  0.15898696344E+03 -0.72108024892E+03 -0.15754974826E+03  0.75502020721E+03  0.10100000352E+00 0. -1.
       -3    1    3    3    0  502 -0.15898696344E+03  0.72108024892E+03  0.14877749852E+04  0.16609358797E+04  0.10100000352E+00 0.  1.
</event>
<event>
 5   0  0.7843846E-05  0.2001443E+04  0.7818609E-02  0.8605946E-01
        2   -1    0    0  501    0  0.00000000000E+00  0.00000000000E+00  0.25440786632E+04  0.25440786632E+04  0.25500000920E-02 0. -1.
       -2   -1    0    0    0  501  0.00000000000E+00  0.00000000000E+00 -0.39363702186E+03  0.39363702187E+03  0.25500000920E-02 0.  1.
    10030    2    1    2    0    0  0.00000000000E+00  0.00000000000E+00  0.21504416413E+04  0.29377156850E+04  0.20014430278E+04 0.  0.
        2    1    3    3  502    0  0.11580324878E+03  0.90699252764E+02 -0.37768262859E+03  0.40531582109E+03  0.25500000920E-02 0.  1.
       -2    1    3    3    0  502 -0.11580324878E+03 -0.90699252764E+02  0.25281242699E+04  0.25323998639E+04  0.25500000920E-02 0. -1.
</event>
<event>
 5   0  0.3549426E-05  0.1986571E+04  0.7818609E-02  0.8612925E-01
        1   -1    0    0  501    0  0.00000000000E+00  0.00000000000E+00  0.13247961061E+04  0.13247961061E+04  0.50400001928E-02 0.  1.
       -1   -1    0    0    0  501  0.00000000000E+00  0.00000000000E+00 -0.74473041474E+03  0.74473041475E+03  0.50400001928E-02 0. -1.
    10030    2    1    2    0    0  0.00000000000E+00  0.00000000000E+00  0.58006569134E+03  0.20695265208E+04  0.19865708681E+04 0.  0.
        5    1    3    3  502    0  0.56485443988E+03  0.44035666161E+03  0.10069709215E+04  0.12357131765E+04  0.46999998093E+01 0.  1.
       -5    1    3    3    0  502 -0.56485443988E+03 -0.44035666161E+03 -0.42690523020E+03  0.83381334437E+03  0.46999998093E+01 0. -1.
</event>
<event>
 5   0  0.7935008E-05  0.1991948E+04  0.7818609E-02  0.8610394E-01
        2   -1    0    0  501    0  0.00000000000E+00  0.00000000000E+00  0.70101109777E+03  0.70101109777E+03  0.25500000920E-02 0.  1.
       -2   -1    0    0    0  501  0.00000000000E+00  0.00000000000E+00 -0.14150479674E+04  0.14150479674E+04  0.25500000920E-02 0. -1.
    10030    2    1    2    0    0  0.00000000000E+00  0.00000000000E+00 -0.71403686959E+03  0.21160590651E+04  0.19919481208E+04 0.  0.
        3    1    3    3  502    0  0.15676895621E+03 -0.74031802831E+03  0.33087476024E+03  0.82590883628E+03  0.10100000352E+00 0.  1.
       -3    1    3    3    0  502 -0.15676895621E+03  0.74031802831E+03 -0.10449116298E+04  0.12901502289E+04  0.10100000352E+00 0. -1.
</event>
<event>
 5   0  0.8022574E-05  0.1991070E+04  0.7818609E-02  0.8610807E-01
       -2   -1    0    0    0  501  0.00000000000E+00  0.00000000000E+00  0.73511883628E+03  0.73511883629E+03  0.25500000920E-02 0. -1.
        2   -1    0    0  501    0  0.00000000000E+00  0.00000000000E+00 -0.13482040933E+04  0.13482040933E+04  0.25500000920E-02 0.  1.
    10030    2    1    2    0    0  0.00000000000E+00  0.00000000000E+00 -0.61308525703E+03  0.20833229296E+04  0.19910702892E+04 0.  0.
        1    1    3    3  502    0  0.28955166229E+03 -0.51397859745E+03  0.53253312814E+03  0.79473624326E+03  0.50400001928E-02 0. -1.
       -1    1    3    3    0  502 -0.28955166229E+03  0.51397859745E+03 -0.11456183852E+04  0.12885866863E+04  0.50400001928E-02 0.  1.
</event>
<event>
 5   0  0.7857136E-05  0.1991754E+04  0.7818609E-02  0.8610486E-01
       -2   -1    0    0    0  501  0.00000000000E+00  0.00000000000E+00  0.87498161601E+03  0.87498161602E+03  0.25500000920E-02 0. -1.
        2   -1    0    0  501    0  0.00000000000E+00  0.00000000000E+00 -0.11334767302E+04  0.11334767302E+04  0.25500000920E-02 0.  1.
    10030    2    1    2    0    0  0.00000000000E+00  0.00000000000E+00 -0.25849511421E+03  0.20084583462E+04  0.19917543033E+04 0.  0.
        4    1    3    3  502    0 -0.89224546880E+03  0.43148178370E+03 -0.22748729956E+03  0.10168729471E+04  0.12699999809E+01 0. -1.
       -4    1    3    3    0  502  0.89224546880E+03 -0.43148178370E+03 -0.31007814651E+02  0.99158539911E+03  0.12699999809E+01 0.  1.
</event>
<event>
 5   0  0.7843846E-05  0.2013871E+04  0.7818609E-02  0.8600163E-01
        2   -1    0    0  501    0  0.00000000000E+00  0.00000000000E+00  0.12693016566E+04  0.12693016566E+04  0.25500000920E-02 0.  1.
       -2   -1    0    0    0  501  0.00000000000E+00  0.00000000000E+00 -0.79880035335E+03  0.79880035335E+03  0.25500000920E-02 0. -1.
    10030    2    1    2    0    0  0.00000000000E+00  0.00000000000E+00  0.47050130329E+03  0.20681020100E+04  0.20138705140E+04 0.  0.
        2    1    3    3  502    0 -0.34462428654E+02  0.32876827204E+02  0.12681442143E+04  0.12690383340E+04  0.25500000920E-02 0.  1.
       -2    1    3    3    0  502  0.34462428654E+02 -0.32876827204E+02 -0.79764291105E+03  0.79906367600E+03  0.25500000920E-02 0. -1.
</event>
<event>
 5   0  0.3549426E-05  0.2010681E+04  0.7818609E-02  0.8601643E-01
        1   -1    0    0  501    0  0.00000000000E+00  0.00000000000E+00  0.94338803014E+03  0.94338803015E+03  0.50400001928E-02 0. -1.
       -1   -1    0    0    0  501  0.00000000000E+00  0.00000000000E+00 -0.10713608917E+04  0.10713608918E+04  0.50400001928E-02 0.  1.
    10030    2    1    2    0    0  0.00000000000E+00  0.00000000000E+00 -0.12797286161E+03  0.20147489219E+04  0.20106805229E+04 0.  0.
        5    1    3    3  502    0 -0.32183513982E+03  0.93396348039E+03  0.12299583671E+03  0.99549771761E+03  0.46999998093E+01 0.  1.
       -5    1    3    3    0  502  0.32183513982E+03 -0.93396348039E+03 -0.25096869831E+03  0.10192512043E+04  0.46999998093E+01 0. -1.
</event>
<event>
 5   0  0.7843846E-05  0.1962079E+04  0.7818609E-02  0.8624558E-01
        2   -1    0    0  501    0  0.00000000000E+00  0.00000000000E+00  0.19562782367E+04  0.19562782367E+04  0.25500000920E-02 0. -1.
       -2   -1    0    0    0  501  0.00000000000E+00  0.00000000000E+00 -0.49197434531E+03  0.49197434532E+03  0.25500000920E-02 0.  1.
    10030    2    1    2    0    0  0.00000000000E+00  0.00000000000E+00  0.14643038914E+04  0.24482525820E+04  0.19620792082E+04 0.  0.
        2    1    3    3  502    0 -0.17531347305E+03 -0.15941143079E+03 -0.45573123071E+03  0.51365141170E+03  0.25500000920E-02 0.  1.
       -2    1    3    3    0  502  0.17531347305E+03  0.15941143079E+03  0.19200351221E+04  0.19346011703E+04  0.25500000920E-02 0. -1.
</event>
<event>
 5   0  0.3549426E-05  0.1986948E+04  0.7818609E-02  0.8612747E-01
       -1   -1    0    0    0  501  0.00000000000E+00  0.00000000000E+00  0.66375544622E+03  0.66375544624E+03  0.50400001928E-02 0.  1.
        1   -1    0    0  501    0  0.00000000000E+00  0.00000000000E+00 -0.14869792387E+04  0.14869792387E+04  0.50400001928E-02 0. -1.
    10030    2    1    2    0    0  0.00000000000E+00  0.00000000000E+00 -0.82322379245E+03  0.21507346849E+04  0.19869479793E+04 0.  0.
        5    1    3    3  502    0 -0.32723884681E+03  0.36159204269E+02  0.60297662017E+03  0.68701939229E+03  0.46999998093E+01 0.  1.
       -5    1    3    3    0  502  0.32723884681E+03 -0.36159204269E+02 -0.14262004126E+04  0.14637152926E+04  0.46999998093E+01 0. -1.
</event>
<event>
 5   0  0.3772949E-05  0.1985281E+04  0.7818609E-02  0.8613533E-01
        1   -1    0    0  501    0  0.00000000000E+00  0.00000000000E+00  0.11667753757E+04  0.11667753757E+04  0.50400001928E-02 0. -1.
       -1   -1    0    0    0  501  0.00000000000E+00  0.00000000000E+00 -0.84449456525E+03  0.84449456527E+03  0.50400001928E-02 0.  1.
    10030    2    1    2    0    0  0.00000000000E+00  0.00000000000E+00  0.32228081047E+03  0.20112699410E+04  0.19852813037E+04 0.  0.
        2    1    3    3  502    0 -0.88326703669E+03  0.45070352509E+03  0.20691078341E+03  0.10129691002E+04  0.25500000920E-02 0.  1.
       -2    1    3    3    0  502  0.88326703669E+03 -0.45070352509E+03  0.11537002706E+03  0.99830084082E+03  0.25500000920E-02 0. -1.
</event>
<event>
 5   0  0.3772949E-05  0.2111935E+04  0.7818609E-02  0.8556004E-01
        1   -1    0    0  501    0  0.00000000000E+00  0.00000000000E+00  0.13615756693E+04  0.13615756693E+04  0.50400001928E-02 0. -1.
       -1   -1    0    0    0  501  0.00000000000E+00  0.00000000000E+00 -0.81895403064E+03  0.81895403066E+03  0.50400001928E-02 0.  1.
    10030    2    1    2    0    0  0.00000000000E+00  0.00000000000E+00  0.54262163865E+03  0.21805297000E+04  0.21119354937E+04 0.  0.
        2    1    3    3  502    0  0.32605966498E+03 -0.10010551678E+04  0.18716832710E+03  0.10693261134E+04  0.25500000920E-02 0.  1.
       -2    1    3    3    0  502 -0.32605966498E+03  0.10010551678E+04  0.35545331156E+03  0.11112035866E+04  0.25500000920E-02 0. -1.
</event>
<event>
 5   0  0.3787698E-05  0.1982404E+04  0.7818609E-02  0.8614892E-01
        1   -1    0    0  501    0  0.00000000000E+00  0.00000000000E+00  0.20852983456E+04  0.20852983456E+04  0.50400001928E-02 0. -1.
       -1   -1    0    0    0  501  0.00000000000E+00  0.00000000000E+00 -0.47114658121E+03  0.47114658124E+03  0.50400001928E-02 0.  1.
    10030    2    1    2    0    0  0.00000000000E+00  0.00000000000E+00  0.16141517644E+04  0.25564449268E+04  0.19824037796E+04 0.  0.
        4    1    3    3  502    0 -0.97659352525E+03  0.71618121472E+02  0.10052481772E+04  0.14033494146E+04  0.12699999809E+01 0. -1.
       -4    1    3    3    0  502  0.97659352525E+03 -0.71618121472E+02  0.60890358716E+03  0.11530955122E+04  0.12699999809E+01 0.  1.
</event>
<event>
 5   0  0.8022574E-05  0.1998599E+04  0.7818609E-02  0.8607276E-01
       -2   -1    0    0    0  501  0.00000000000E+00  0.00000000000E+00  0.93865048766E+03  0.93865048766E+03  0.25500000920E-02 0.  1.
        2   -1    0    0  501    0  0.00000000000E+00  0.00000000000E+00 -0.10638667873E+04  0.10638667873E+04  0.25500000920E-02 0. -1.
    10030    2    1    2    0    0  0.00000000000E+00  0.00000000000E+00 -0.12521629964E+03  0.20025172750E+04  0.19985985877E+04 0.  0.
        1    1    3    3  502    0  0.27850784797E+03  0.73958254001E+03  0.55018739119E+03  0.96294087062E+03  0.50400001928E-02 0.  1.
       -1    1    3    3    0  502 -0.27850784797E+03 -0.73958254001E+03 -0.67540369083E+03  0.10395764044E+04  0.50400001928E-02 0. -1.
</event>
<event>
 5   0  0.7857136E-05  0.1998053E+04  0.7818609E-02  0.8607532E-01
       -2   -1    0    0    0  501  0.00000000000E+00  0.00000000000E+00  0.83830235172E+03  0.83830235172E+03  0.25500000920E-02 0. -1.
        2   -1    0    0  501    0  0.00000000000E+00  0.00000000000E+00 -0.11905650352E+04  0.11905650352E+04  0.25500000920E-02 0.  1.
    10030    2    1    2    0    0  0.00000000000E+00  0.00000000000E+00 -0.35226268344E+03  0.20288673869E+04  0.19980525207E+04 0.  0.
        4    1    3    3  502    0 -0.59107045726E+03  0.19518435813E+03  0.61732279990E+03  0.87666998995E+03  0.12699999809E+01 0. -1.
       -4    1    3    3    0  502  0.59107045726E+03 -0.19518435813E+03 -0.96958548334E+03  0.11521973969E+04  0.12699999809E+01 0.  1.
</event>
<event>
 5   0  0.3970042E-05  0.1991487E+04  0.7818609E-02  0.8610611E-01
       -1   -1    0    0    0  501  0.00000000000E+00  0.00000000000E+00  0.16865505393E+04  0.16865505393E+04  0.50400001928E-02 0. -1.
        1   -1    0    0  501    0  0.00000000000E+00  0.00000000000E+00 -0.58788965545E+03  0.58788965548E+03  0.50400001928E-02 0.  1.
    10030    2    1    2    0    0  0.00000000000E+00  0.00000000000E+00  0.10986608838E+04  0.22744401948E+04  0.19914874998E+04 0.  0.
        3    1    3    3  502    0 -0.34763798497E+03  0.39207667042E+03 -0.41768878328E+03  0.67010462911E+03  0.10100000352E+00 0.  1.
       -3    1    3    3    0  502  0.34763798497E+03 -0.39207667042E+03  0.15163496671E+04  0.16043355656E+04  0.10100000352E+00 0. -1.
</event>
<event>
 5   0  0.7935008E-05  0.2017198E+04  0.7818609E-02  0.8598622E-01
        2   -1    0    0  501    0  0.00000000000E+00  0.00000000000E+00  0.10870820534E+04  0.10870820534E+04  0.25500000920E-02 0.  1.
       -2   -1    0    0    0  501  0.00000000000E+00  0.00000000000E+00 -0.93578167819E+03  0.93578167819E+03  0.25500000920E-02 0. -1.
    10030    2    1    2    0    0  0.00000000000E+00  0.00000000000E+00  0.15130037524E+03  0.20228637316E+04  0.20171975295E+04 0.  0.
        3    1    3    3  502    0 -0.17575148580E+03  0.64091697990E+03 -0.68516946704E+03  0.95452625351E+03  0.10100000352E+00 0. -1.
       -3    1    3    3    0  502  0.17575148580E+03 -0.64091697990E+03  0.83646984227E+03  0.10683374781E+04  0.10100000352E+00 0.  1.
</event>
<event>
 5   0  0.3970042E-05  0.1978297E+04  0.7818609E-02  0.8616835E-01
       -1   -1    0    0    0  501  0.00000000000E+00  0.00000000000E+00  0.52507882733E+03  0.52507882735E+03  0.50400001928E-02 0.  1.
        1   -1    0    0  501    0  0.00000000000E+00  0.00000000000E+00 -0.18633676518E+04  0.18633676518E+04  0.50400001928E-02 0. -1.
    10030    2    1    2    0    0  0.00000000000E+00  0.00000000000E+00 -0.13382888245E+04  0.23884464792E+04  0.19782971481E+04 0.  0.
        3    1    3    3  502    0 -0.90884228534E+03  0.37531135757E+03 -0.79896394205E+03  0.12669634192E+04  0.10100000352E+00 0. -1.
       -3    1    3    3    0  502  0.90884228534E+03 -0.37531135757E+03 -0.53932488241E+03  0.11214830599E+04  0.10100000352E+00 0.  1.
</event>
<event>
 5   0  0.3772949E-05  0.2029273E+04  0.7818609E-02  0.8593055E-01
       -1   -1    0    0    0  501  0.00000000000E+00  0.00000000000E+00  0.23432161336E+04  0.23432161336E+04  0.50400001928E-02 0.  1.
        1   -1    0    0  501    0  0.00000000000E+00  0.00000000000E+00 -0.43934812349E+03  0.43934812352E+03  0.50400001928E-02 0. -1.
    10030    2    1    2    0    0  0.00000000000E+00  0.00000000000E+00  0.19038680101E+04  0.27825642572E+04  0.20292733786E+04 0.  0.
        2    1    3    3  502    0  0.62374595638E+03  0.38377693048E+03  0.19148567820E+04  0.20501268854E+04  0.25500000920E-02 0.  1.
       -2    1    3    3    0  502 -0.62374595638E+03 -0.38377693048E+03 -0.10988771887E+02  0.73243737178E+03  0.25500000920E-02 0. -1.
</event>
<event>
 5   0  0.7843846E-05  0.2024251E+04  0.7818609E-02  0.8595366E-01
       -2   -1    0    0    0  501  0.00000000000E+00  0.00000000000E+00  0.56896251166E+03  0.56896251167E+03  0.25500000920E-02 0.  1.
        2   -1    0    0  501    0  0.00000000000E+00  0.00000000000E+00 -0.18004659671E+04  0.18004659671E+04  0.25500000920E-02 0. -1.
    10030    2    1    2    0    0  0.00000000000E+00  0.00000000000E+00 -0.12315034554E+04  0.23694284787E+04  0.20242506157E+04 0.  0.
        2    1    3    3  502    0  0.11909275717E+03 -0.99659148014E+03 -0.46304478178E+03  0.11053452551E+04  0.25500000920E-02 0.  1.
       -2    1    3    3    0  502 -0.11909275717E+03  0.99659148014E+03 -0.76845867361E+03  0.12640832236E+04  0.25500000920E-02 0. -1.
</event>
<event>
 5   0  0.3549426E-05  0.1983950E+04  0.7818609E-02  0.8614162E-01
        1   -1    0    0  501    0  0.00000000000E+00  0.00000000000E+00  0.11727513617E+04  0.11727513618E+04  0.50400001928E-02 0. -1.
       -1   -1    0    0    0  501  0.00000000000E+00  0.00000000000E+00 -0.83906467247E+03  0.83906467248E+03  0.50400001928E-02 0.  1.
    10030    2    1    2    0    0  0.00000000000E+00  0.00000000000E+00  0.33368668928E+03  0.20118160342E+04  0.19839498353E+04 0.  0.
        5    1    3    3  502    0 -0.20080772789E+03  0.66779280307E+03  0.88224614809E+03  0.11245671733E+04  0.46999998093E+01 0. -1.
       -5    1    3    3    0  502  0.20080772789E+03 -0.66779280307E+03 -0.54855945881E+03  0.88724886096E+03  0.46999998093E+01 0.  1.
</event>
<event>
 5   0  0.3818907E-05  0.2011580E+04  0.7818609E-02  0.8601226E-01
        1   -1    0    0  501    0  0.00000000000E+00  0.00000000000E+00  0.12078250264E+04  0.12078250264E+04  0.50400001928E-02 0. -1.
       -1   -1    0    0    0  501  0.00000000000E+00  0.00000000000E+00 -0.83754970025E+03  0.83754970026E+03  0.50400001928E-02 0.  1.
    10030    2    1    2    0    0  0.00000000000E+00  0.00000000000E+00  0.37027532619E+03  0.20453747267E+04  0.20115799650E+04 0.  0.
        1    1    3    3  502    0  0.29784965913E+03  0.31451248200E+03  0.11081216667E+04  0.11897756717E+04  0.50400001928E-02 0. -1.
       -1    1    3    3    0  502 -0.29784965913E+03 -0.31451248200E+03 -0.73784634048E+03  0.85559905502E+03  0.50400001928E-02 0.  1.
</event>
<event>
 5   0  0.7857136E-05  0.2003681E+04  0.7818609E-02  0.8604902E-01
        2   -1    0    0  501    0  0.00000000000E+00  0.00000000000E+00  0.10646656869E+04  0.10646656869E+04  0.25500000920E-02 0.  1.
       -2   -1    0    0    0  501  0.00000000000E+00  0.00000000000E+00 -0.94272246106E+03  0.94272246107E+03  0.25500000920E-02 0. -1.
    10030    2    1    2    0    0  0.00000000000E+00  0.00000000000E+00  0.12194322586E+03  0.20073881480E+04  0.20036808694E+04 0.  0.
        4    1    3    3  502    0  0.41691205793E+03  0.76293742123E+03 -0.43773799302E+03  0.97339885771E+03  0.12699999809E+01 0. -1.
       -4    1    3    3    0  502 -0.41691205793E+03 -0.76293742123E+03  0.55968121888E+03  0.10339892903E+04  0.12699999809E+01 0.  1.
</event>
<event>
 5   0  0.3818907E-05  0.1974416E+04  0.7818609E-02  0.8618676E-01
        1   -1    0    0  501    0  0.00000000000E+00  0.00000000000E+00  0.14336169101E+04  0.14336169101E+04  0.50400001928E-02 0. -1.
       -1   -1    0    0    0  501  0.00000000000E+00  0.00000000000E+00 -0.67980500477E+03  0.67980500479E+03  0.50400001928E-02 0.  1.
    10030    2    1    2    0    0  0.00000000000E+00  0.00000000000E+00  0.75381190531E+03  0.21134219149E+04  0.19744163192E+04 0.  0.
        1    1    3    3  502    0  0.52224651516E+03  0.17464233645E+03  0.12539436846E+04  0.13695313551E+04  0.50400001928E-02 0. -1.
       -1    1    3    3    0  502 -0.52224651516E+03 -0.17464233645E+03 -0.50013177931E+03  0.74389055981E+03  0.50400001928E-02 0.  1.
</event>
<event>
 5   0  0.7857136E-05  0.2002013E+04  0.7818609E-02  0.8605680E-01
        2   -1    0    0  501    0  0.00000000000E+00  0.00000000000E+00  0.75471444357E+03  0.75471444357E+03  0.25500000920E-02 0. -1.
       -2   -1    0    0    0  501  0.00000000000E+00  0.00000000000E+00 -0.13276727725E+04  0.13276727725E+04  0.25500000920E-02 0.  1.
    10030    2    1    2    0    0  0.00000000000E+00  0.00000000000E+00 -0.57295832889E+03  0.20823872160E+04  0.20020128049E+04 0.  0.
        4    1    3    3  502    0  0.54083209912E+03 -0.69054614240E+03  0.21523278606E+03  0.90315009789E+03  0.12699999809E+01 0. -1.
       -4    1    3    3    0  502 -0.54083209912E+03  0.69054614240E+03 -0.78819111494E+03  0.11792371181E+04  0.12699999809E+01 0.  1.
</event>
<event>
 5   0  0.8011197E-05  0.2007065E+04  0.7818609E-02  0.8603325E-01
       -2   -1    0    0    0  501  0.00000000000E+00  0.00000000000E+00  0.73881229766E+03  0.73881229766E+03  0.25500000920E-02 0.  1.
        2   -1    0    0  501    0  0.00000000000E+00  0.00000000000E+00 -0.13631037380E+04  0.13631037380E+04  0.25500000920E-02 0. -1.
    10030    2    1    2    0    0  0.00000000000E+00  0.00000000000E+00 -0.62429144034E+03  0.21019160357E+04  0.20070653249E+04 0.  0.
        5    1    3    3  502    0 -0.51313851418E+03 -0.85421326171E+03 -0.18794827556E+03  0.10140700545E+04  0.46999998093E+01 0. -1.
       -5    1    3    3    0  502  0.51313851418E+03  0.85421326171E+03 -0.43634316478E+03  0.10878459811E+04  0.46999998093E+01 0.  1.
</event>
<event>
 5   0  0.3787698E-05  0.2031712E+04  0.7818609E-02  0.8591936E-01
        1   -1    0    0  501    0  0.00000000000E+00  0.00000000000E+00  0.94209152514E+03  0.94209152515E+03  0.50400001928E-02 0.  1.
       -1   -1    0    0    0  501  0.00000000000E+00  0.00000000000E+00 -0.10953965719E+04  0.10953965719E+04  0.50400001928E-02 0. -1.
    10030    2    1    2    0    0  0.00000000000E+00  0.00000000000E+00 -0.15330504679E+03  0.20374880971E+04  0.20317124079E+04 0.  0.
        4    1    3    3  502    0 -0.75332189918E+03  0.42176201857E+03  0.46020577895E+03  0.97834965936E+03  0.12699999809E+01 0.  1.
       -4    1    3    3    0  502  0.75332189918E+03 -0.42176201857E+03 -0.61351082574E+03  0.10591384377E+04  0.12699999809E+01 0. -1.
</event>
<event>
 5   0  0.8011197E-05  0.1992102E+04  0.7818609E-02  0.8610322E-01
       -2   -1    0    0    0  501  0.00000000000E+00  0.00000000000E+00  0.15419624175E+04  0.15419624175E+04  0.25500000920E-02 0. -1.
        2   -1    0    0  501    0  0.00000000000E+00  0.00000000000E+00 -0.64341230351E+03  0.64341230351E+03  0.25500000920E-02 0.  1.
    10030    2    1    2    0    0  0.00000000000E+00  0.00000000000E+00  0.89855011403E+03  0.21853747211E+04  0.19921019964E+04 0.  0.
        5    1    3    3  502    0 -0.19863854952E+03  0.91055397079E+03  0.83484220865E+03  0.12512191696E+04  0.46999998093E+01 0. -1.
       -5    1    3    3    0  502  0.19863854952E+03 -0.91055397079E+03  0.63707905381E+02  0.93415555144E+03  0.46999998093E+01 0.  1.
</event>
<event>
 5   0  0.3772949E-05  0.1994279E+04  0.7818609E-02  0.8609300E-01
       -1   -1    0    0    0  501  0.00000000000E+00  0.00000000000E+00  0.59867085794E+03  0.59867085797E+03  0.50400001928E-02 0.  1.
        1   -1    0    0  501    0  0.00000000000E+00  0.00000000000E+00 -0.16608246682E+04  0.16608246682E+04  0.50400001928E-02 0. -1.
    10030    2    1    2    0    0  0.00000000000E+00  0.00000000000E+00 -0.10621538103E+04  0.22594955262E+04  0.19942791470E+04 0.  0.
        2    1    3    3  502    0 -0.13322388802E+03 -0.61039220688E+03 -0.14115775008E+04  0.15436574397E+04  0.25500000920E-02 0. -1.
       -2    1    3    3    0  502  0.13322388802E+03  0.61039220688E+03  0.34942369049E+03  0.71583808647E+03  0.25500000920E-02 0.  1.
</event>
<event>
 5   0  0.7843846E-05  0.2002108E+04  0.7818609E-02  0.8605636E-01
       -2   -1    0    0    0  501  0.00000000000E+00  0.00000000000E+00  0.12529673489E+04  0.12529673489E+04  0.25500000920E-02 0.  1.
        2   -1    0    0  501    0  0.00000000000E+00  0.00000000000E+00 -0.79978839767E+03  0.79978839768E+03  0.25500000920E-02 0. -1.
    10030    2    1    2    0    0  0.00000000000E+00  0.00000000000E+00  0.45317895127E+03  0.20527557466E+04  0.20021076378E+04 0.  0.
        2    1    3    3  502    0  0.79626871153E+03  0.59649528592E+03  0.34010736061E+03  0.10514387780E+04  0.25500000920E-02 0. -1.
       -2    1    3    3    0  502 -0.79626871153E+03 -0.59649528592E+03  0.11307159066E+03  0.10013169686E+04  0.25500000920E-02 0.  1.
</event>
<event>
 5   0  0.3549426E-05  0.1999963E+04  0.7818609E-02  0.8606638E-01
       -1   -1    0    0    0  501  0.00000000000E+00  0.00000000000E+00  0.10004688280E+04  0.10004688280E+04  0.50400001928E-02 0. -1.
        1   -1    0    0  501    0  0.00000000000E+00  0.00000000000E+00 -0.99949416096E+03  0.99949416097E+03  0.50400001928E-02 0.  1.
    10030    2    1    2    0    0  0.00000000000E+00  0.00000000000E+00  0.97466706030E+00  0.19999629890E+04  0.19999627515E+04 0.  0.
        5    1    3    3  502    0 -0.75655339880E+03 -0.61566812345E+03 -0.21978610993E+03  0.99987414588E+03  0.46999998093E+01 0.  1.
       -5    1    3    3    0  502  0.75655339880E+03  0.61566812345E+03  0.22076077699E+03  0.10000888431E+04  0.46999998093E+01 0. -1.
</event>
</LesHouchesEvents>
