<LesHouchesEvents version="3.0">
<header>
<!--
#*********************************************************************
#                                                                    *
#                        MadGraph5_aMC@NLO                           *
#                                                                    *
#                           Going Beyond                             *
#                                                                    *
#                   http://madgraph.hep.uiuc.edu                     *
#                   http://madgraph.phys.ucl.ac.be                   *
#                   http://amcatnlo.cern.ch                          *
#                                                                    *
#                     The MadGraph5_aMC@NLO team                     *
#                                                                    *
#....................................................................*
#                                                                    *
# This file contains all the information necessary to reproduce      *
# the events generated:                                              *
#                                                                    *
# 1. software version                                                *
# 2. proc_card          : code generation info including model       *
# 3. param_card         : model primary parameters in the LH format  *
# 4. run_card           : running parameters (collider and cuts)     *
# 5. pythia_card        : present only if pythia has been run        *
# 6. pgs_card           : present only if pgs has been run           *
# 7. delphes_cards      : present only if delphes has been run       *
#                                                                    *
#                                                                    *
#*********************************************************************
-->
<MGVersion>
#5.2.2.3
</MGVersion>
<MG5ProcCard>
#************************************************************
#*                     MadGraph5_aMC@NLO                    *
#*                                                          *
#*                *                       *                 *
#*                  *        * *        *                   *
#*                    * * * * 5 * * * *                     *
#*                  *        * *        *                   *
#*                *                       *                 *
#*                                                          *
#*                                                          *
#*         VERSION 2.2.3                 2015-02-10         *
#*                                                          *
#*    The MadGraph5_aMC@NLO Development Team - Find us at   *
#*    https://server06.fynu.ucl.ac.be/projects/madgraph     *
#*                                                          *
#************************************************************
#*                                                          *
#*               Command File for MadGraph5_aMC@NLO         *
#*                                                          *
#*     run as ./bin/mg5_aMC  filename                       *
#*                                                          *
#************************************************************
set group_subprocesses Auto
set ignore_six_quark_processes False
set loop_optimized_output True
set gauge unitary
set complex_mass_scheme False
import model sm
define p = g u c d s u~ c~ d~ s~
define j = g u c d s u~ c~ d~ s~
define l+ = e+ mu+
define l- = e- mu-
define vl = ve vm vt
define vl~ = ve~ vm~ vt~
import model Zprime_UFO
generate p p > zph, zph > j j
add process p p > zph, zph > b b~
output Dijet_signal
</MG5ProcCard>
<MGProcCard>
#*********************************************************************
#                        MadGraph/MadEvent                           *
#                   http://madgraph.hep.uiuc.edu                     *
#                                                                    *
#                          proc_card.dat                             *
#*********************************************************************
#                                                                    *
#            This Files is generated by MADGRAPH 5                   *
#                                                                    *
# WARNING: This Files is generated for MADEVENT (compatibility issue)*
#          This files is NOT a valid MG4 proc_card.dat               *
#          Running this in MG4 will NEVER reproduce the result of MG5*
#                                                                    *
#*********************************************************************
#*********************************************************************
# Process(es) requested : mg2 input                                  *
#*********************************************************************
# Begin PROCESS # This is TAG. Do not modify this line
p p > zph , zph > j j           #Process
# Be carefull the coupling are here in MG5 convention
          
end_coup           # End the couplings input

done               # this tells MG there are no more procs
# End PROCESS  # This is TAG. Do not modify this line
#*********************************************************************
# Model information                                                  *
#*********************************************************************
# Begin MODEL  # This is TAG. Do not modify this line
Zprime_UFO
# End   MODEL  # This is TAG. Do not modify this line
#*********************************************************************
# Start multiparticle definitions                                    *
#*********************************************************************
# Begin MULTIPARTICLES # This is TAG. Do not modify this line

# End  MULTIPARTICLES # This is TAG. Do not modify this line
</MGProcCard>
<MGRunCard>
#*********************************************************************
#                       MadGraph5_aMC@NLO                            *
#                                                                    *
#                     run_card.dat MadEvent                          *
#                                                                    *
#  This file is used to set the parameters of the run.               *
#                                                                    *
#  Some notation/conventions:                                        *
#                                                                    *
#   Lines starting with a '# ' are info or comments                  *
#                                                                    *
#   mind the format:   value    = variable     ! comment             *
#*********************************************************************
#
#*******************                                                 
# Running parameters
#*******************                                                 
#                                                                    
#*********************************************************************
# Tag name for the run (one word)                                    *
#*********************************************************************
  tag_1     = run_tag ! name of the run 
#*********************************************************************
# Run to generate the grid pack                                      *
#*********************************************************************
  .false.     = gridpack  !True = setting up the grid pack
#*********************************************************************
# Number of events and rnd seed                                      *
# Warning: Do not generate more than 1M events in a single run       *
# If you want to run Pythia, avoid more than 50k events in a run.    *
#*********************************************************************
  2000 = nevents ! Number of unweighted events requested 
 1551 = iseed   ! rnd seed (0=assigned automatically=default))
#*********************************************************************
# Collider type and energy                                           *
# lpp: 0=No PDF, 1=proton, -1=antiproton, 2=photon from proton,      *
#                                         3=photon from electron     *
#*********************************************************************
        1     = lpp1    ! beam 1 type 
        1     = lpp2    ! beam 2 type
     4000     = ebeam1  ! beam 1 total energy in GeV
     4000     = ebeam2  ! beam 2 total energy in GeV
#*********************************************************************
# Beam polarization from -100 (left-handed) to 100 (right-handed)    *
#*********************************************************************
        0     = polbeam1 ! beam polarization for beam 1
        0     = polbeam2 ! beam polarization for beam 2
#*********************************************************************
# PDF CHOICE: this automatically fixes also alpha_s and its evol.    *
#*********************************************************************
 'nn23lo1'    = pdlabel     ! PDF set                                     
 230000    = lhaid     ! if pdlabel=lhapdf, this is the lhapdf number
#*********************************************************************
# Renormalization and factorization scales                           *
#*********************************************************************
 F        = fixed_ren_scale  ! if .true. use fixed ren scale
 F        = fixed_fac_scale  ! if .true. use fixed fac scale
 91.1880  = scale            ! fixed ren scale
 91.1880  = dsqrt_q2fact1    ! fixed fact scale for pdf1
 91.1880  = dsqrt_q2fact2    ! fixed fact scale for pdf2
 1        = scalefact        ! scale factor for event-by-event scales
#*********************************************************************
# Matching - Warning! ickkw > 1 is still beta
#*********************************************************************
 0        = ickkw            ! 0 no matching, 1 MLM, 2 CKKW matching
 1        = highestmult      ! for ickkw=2, highest mult group
 1        = ktscheme         ! for ickkw=1, 1 Durham kT, 2 Pythia pTE
 1        = alpsfact         ! scale factor for QCD emission vx
 F        = chcluster        ! cluster only according to channel diag
 T        = pdfwgt           ! for ickkw=1, perform pdf reweighting
 5        = asrwgtflavor     ! highest quark flavor for a_s reweight
 T        = clusinfo         ! include clustering tag in output
 3.0      = lhe_version       ! Change the way clustering information pass to shower.        
#*********************************************************************
#**********************************************************
#
#**********************************************************
# Automatic ptj and mjj cuts if xqcut > 0
# (turn off for VBF and single top processes)
#**********************************************************
   T  = auto_ptj_mjj  ! Automatic setting of ptj and mjj
#**********************************************************
#                                                                    
#**********************************
# BW cutoff (M+/-bwcutoff*Gamma)
#**********************************
  15  = bwcutoff      ! (M+/-bwcutoff*Gamma)
#**********************************************************
# Apply pt/E/eta/dr/mij cuts on decay products or not
# (note that etmiss/ptll/ptheavy/ht/sorted cuts always apply)
#**********************************************************
   T  = cut_decays    ! Cut decay products 
#*************************************************************
# Number of helicities to sum per event (0 = all helicities)
# 0 gives more stable result, but longer run time (needed for
# long decay chains e.g.).
# Use >=2 if most helicities contribute, e.g. pure QCD.
#*************************************************************
   0  = nhel          ! Number of helicities used per event
#*******************                                                 
# Standard Cuts
#*******************                                                 
#                                                                    
#*********************************************************************
# Minimum and maximum pt's (for max, -1 means no cut)                *
#*********************************************************************
 20  = ptj       ! minimum pt for the jets 
  0  = ptb       ! minimum pt for the b 
 10  = pta       ! minimum pt for the photons 
 10  = ptl       ! minimum pt for the charged leptons 
  0  = misset    ! minimum missing Et (sum of neutrino's momenta)
  0  = ptheavy   ! minimum pt for one heavy final state
 1.0 = ptonium   ! minimum pt for the quarkonium states
 -1  = ptjmax    ! maximum pt for the jets
 -1  = ptbmax    ! maximum pt for the b
 -1  = ptamax    ! maximum pt for the photons
 -1  = ptlmax    ! maximum pt for the charged leptons
 -1  = missetmax ! maximum missing Et (sum of neutrino's momenta)
#*********************************************************************
# Minimum and maximum E's (in the center of mass frame)              *
#*********************************************************************
  0  = ej     ! minimum E for the jets 
  0  = eb     ! minimum E for the b 
  0  = ea     ! minimum E for the photons 
  0  = el     ! minimum E for the charged leptons 
 -1   = ejmax ! maximum E for the jets
 -1   = ebmax ! maximum E for the b
 -1   = eamax ! maximum E for the photons
 -1   = elmax ! maximum E for the charged leptons
#*********************************************************************
# Maximum and minimum absolute rapidity (for max, -1 means no cut)   *
#*********************************************************************
   5  = etaj    ! max rap for the jets 
  -1  = etab    ! max rap for the b
 2.5  = etaa    ! max rap for the photons 
 2.5  = etal    ! max rap for the charged leptons 
 0.6  = etaonium ! max rap for the quarkonium states
   0  = etajmin ! min rap for the jets
   0  = etabmin ! min rap for the b
   0  = etaamin ! min rap for the photons
   0  = etalmin ! main rap for the charged leptons
#*********************************************************************
# Minimum and maximum DeltaR distance                                *
#*********************************************************************
 0.4 = drjj    ! min distance between jets 
 0   = drbb    ! min distance between b's 
 0.4 = drll    ! min distance between leptons 
 0.4 = draa    ! min distance between gammas 
 0   = drbj    ! min distance between b and jet 
 0.4 = draj    ! min distance between gamma and jet 
 0.4 = drjl    ! min distance between jet and lepton 
 0   = drab    ! min distance between gamma and b 
 0   = drbl    ! min distance between b and lepton 
 0.4 = dral    ! min distance between gamma and lepton 
 -1  = drjjmax ! max distance between jets
 -1  = drbbmax ! max distance between b's
 -1  = drllmax ! max distance between leptons
 -1  = draamax ! max distance between gammas
 -1  = drbjmax ! max distance between b and jet
 -1  = drajmax ! max distance between gamma and jet
 -1  = drjlmax ! max distance between jet and lepton
 -1  = drabmax ! max distance between gamma and b
 -1  = drblmax ! max distance between b and lepton
 -1  = dralmax ! maxdistance between gamma and lepton
#*********************************************************************
# Minimum and maximum invariant mass for pairs                       *
# WARNING: for four lepton final state mmll cut require to have      *
#          different lepton masses for each flavor!                  *           
#*********************************************************************
 0   = mmjj    ! min invariant mass of a jet pair 
 0   = mmbb    ! min invariant mass of a b pair 
 0   = mmaa    ! min invariant mass of gamma gamma pair
 0   = mmll    ! min invariant mass of l+l- (same flavour) lepton pair
 -1  = mmjjmax ! max invariant mass of a jet pair
 -1  = mmbbmax ! max invariant mass of a b pair
 -1  = mmaamax ! max invariant mass of gamma gamma pair
 -1  = mmllmax ! max invariant mass of l+l- (same flavour) lepton pair
#*********************************************************************
# Minimum and maximum invariant mass for all letpons                 *
#*********************************************************************
 0   = mmnl    ! min invariant mass for all letpons (l+- and vl) 
 -1  = mmnlmax ! max invariant mass for all letpons (l+- and vl) 
#*********************************************************************
# Minimum and maximum pt for 4-momenta sum of leptons                *
#*********************************************************************
 0   = ptllmin  ! Minimum pt for 4-momenta sum of leptons(l and vl)
 -1  = ptllmax  ! Maximum pt for 4-momenta sum of leptons(l and vl)
#*********************************************************************
# Inclusive cuts                                                     *
#*********************************************************************
 0  = xptj ! minimum pt for at least one jet  
 0  = xptb ! minimum pt for at least one b 
 0  = xpta ! minimum pt for at least one photon 
 0  = xptl ! minimum pt for at least one charged lepton 
#*********************************************************************
# Control the pt's of the jets sorted by pt                          *
#*********************************************************************
 0   = ptj1min ! minimum pt for the leading jet in pt
 0   = ptj2min ! minimum pt for the second jet in pt
 0   = ptj3min ! minimum pt for the third jet in pt
 0   = ptj4min ! minimum pt for the fourth jet in pt
 -1  = ptj1max ! maximum pt for the leading jet in pt 
 -1  = ptj2max ! maximum pt for the second jet in pt
 -1  = ptj3max ! maximum pt for the third jet in pt
 -1  = ptj4max ! maximum pt for the fourth jet in pt
 0   = cutuse  ! reject event if fails any (0) / all (1) jet pt cuts
#*********************************************************************
# Control the pt's of leptons sorted by pt                           *
#*********************************************************************
 0   = ptl1min ! minimum pt for the leading lepton in pt
 0   = ptl2min ! minimum pt for the second lepton in pt
 0   = ptl3min ! minimum pt for the third lepton in pt
 0   = ptl4min ! minimum pt for the fourth lepton in pt
 -1  = ptl1max ! maximum pt for the leading lepton in pt 
 -1  = ptl2max ! maximum pt for the second lepton in pt
 -1  = ptl3max ! maximum pt for the third lepton in pt
 -1  = ptl4max ! maximum pt for the fourth lepton in pt
#*********************************************************************
# Control the Ht(k)=Sum of k leading jets                            *
#*********************************************************************
 0   = htjmin ! minimum jet HT=Sum(jet pt)
 -1  = htjmax ! maximum jet HT=Sum(jet pt)
 0   = ihtmin  !inclusive Ht for all partons (including b)
 -1  = ihtmax  !inclusive Ht for all partons (including b)
 0   = ht2min ! minimum Ht for the two leading jets
 0   = ht3min ! minimum Ht for the three leading jets
 0   = ht4min ! minimum Ht for the four leading jets
 -1  = ht2max ! maximum Ht for the two leading jets
 -1  = ht3max ! maximum Ht for the three leading jets
 -1  = ht4max ! maximum Ht for the four leading jets
#***********************************************************************
# Photon-isolation cuts, according to hep-ph/9801442                   *
# When ptgmin=0, all the other parameters are ignored                  *
# When ptgmin>0, pta and draj are not going to be used                 *
#***********************************************************************
   0 = ptgmin ! Min photon transverse momentum
 0.4 = R0gamma ! Radius of isolation code
 1.0 = xn ! n parameter of eq.(3.4) in hep-ph/9801442
 1.0 = epsgamma ! epsilon_gamma parameter of eq.(3.4) in hep-ph/9801442
 .true. = isoEM ! isolate photons from EM energy (photons and leptons)
#*********************************************************************
# WBF cuts                                                           *
#*********************************************************************
 0   = xetamin ! minimum rapidity for two jets in the WBF case  
 0   = deltaeta ! minimum rapidity for two jets in the WBF case 
#*********************************************************************
# KT DURHAM CUT                                                      *
#*********************************************************************
 -1    =  ktdurham        
 0.4  =  dparameter 
#*********************************************************************
# maximal pdg code for quark to be considered as a light jet         *
# (otherwise b cuts are applied)                                     *
#*********************************************************************
 4 = maxjetflavor    ! Maximum jet pdg code
#*********************************************************************
# Jet measure cuts                                                   *
#*********************************************************************
 0   = xqcut   ! minimum kt jet measure between partons
#*********************************************************************
#
#*********************************************************************
# Store info for systematics studies                                 *
# WARNING: If use_syst is T, matched Pythia output is                *
#          meaningful ONLY if plotted taking matchscale              *
#          reweighting into account!                                 *
#*********************************************************************
   F  = use_syst      ! Enable systematics studies
#
#**************************************
# Parameter of the systematics study
#  will be used by SysCalc (if installed)
#**************************************                                  
#
0.5 1 2 = sys_scalefact  # factorization/renormalization scale factor
0.5 1 2 = sys_alpsfact  # \alpha_s emission scale factors
30 50 = sys_matchscale # variation of merging scale
# PDF sets and number of members (0 or none for all members).
CT10nlo.LHgrid = sys_pdf # matching scales
# MSTW2008nlo68cl.LHgrid 1  = sys_pdf
</MGRunCard>
<slha>
######################################################################
## PARAM_CARD AUTOMATICALY GENERATED BY MG5 FOLLOWING UFO MODEL   ####
######################################################################
##                                                                  ##
##  Width set on Auto will be computed following the information    ##
##        present in the decay.py files of the model.               ##
##        See  arXiv:1402.1178 for more details.                    ##
##                                                                  ##
######################################################################

###################################
## INFORMATION FOR CKMBLOCK
###################################
Block ckmblock 
    1 2.277360e-01 # cabi 

###################################
## INFORMATION FOR FRBLOCK
###################################
Block frblock 
    1 8.000000e-01 # gz 

###################################
## INFORMATION FOR MASS
###################################
Block mass 
    1 5.040000e-03 # MD 
    2 2.550000e-03 # MU 
    3 1.010000e-01 # MS 
    4 1.270000e+00 # MC 
    5 4.700000e+00 # MB 
    6 1.720000e+02 # MT 
   11 5.110000e-04 # Me 
   13 1.056600e-01 # MM 
   15 1.777000e+00 # MTA 
   23 9.118760e+01 # MZ 
   25 1.200000e+02 # MH 
  10030 1.400000e+03 # MZph 
  10031 3.000000e+02 # MZpl 
## Dependent parameters, given by model restrictions.
## Those values should be edited following the 
## analytical expression. MG5 ignores those values 
## but they are important for interfacing the output of MG5
## to external program such as Pythia.
  12 0.000000 # ve : 0.0 
  14 0.000000 # vm : 0.0 
  16 0.000000 # vt : 0.0 
  21 0.000000 # g : 0.0 
  22 0.000000 # a : 0.0 
  24 79.824360 # w+ : cmath.sqrt(MZ__exp__2/2. + cmath.sqrt(MZ__exp__4/4. - (aEW*cmath.pi*MZ__exp__2)/(Gf*sqrt__2))) 

###################################
## INFORMATION FOR SMINPUTS
###################################
Block sminputs 
    1 1.279000e+02 # aEWM1 
    2 1.166370e-05 # Gf 
    3 1.184000e-01 # aS 

###################################
## INFORMATION FOR YUKAWA
###################################
Block yukawa 
    1 5.040000e-03 # ymdo 
    2 2.550000e-03 # ymup 
    3 1.010000e-01 # yms 
    4 1.270000e+00 # ymc 
    5 4.700000e+00 # ymb 
    6 1.720000e+02 # ymt 
   11 5.110000e-04 # yme 
   13 1.056600e-01 # ymm 
   15 1.777000e+00 # ymtau 

###################################
## INFORMATION FOR DECAY
###################################
DECAY   6 1.508336e+00 # WT 
DECAY  23 2.495200e+00 # WZ 
DECAY  24 2.085000e+00 # WW 
DECAY  25 5.753088e-03 # WH 
## Dependent parameters, given by model restrictions.
## Those values should be edited following the 
## analytical expression. MG5 ignores those values 
## but they are important for interfacing the output of MG5
## to external program such as Pythia.
DECAY  1 0.000000 # d : 0.0 
DECAY  2 0.000000 # u : 0.0 
DECAY  3 0.000000 # s : 0.0 
DECAY  4 0.000000 # c : 0.0 
DECAY  5 0.000000 # b : 0.0 
DECAY  11 0.000000 # e- : 0.0 
DECAY  12 0.000000 # ve : 0.0 
DECAY  13 0.000000 # mu- : 0.0 
DECAY  14 0.000000 # vm : 0.0 
DECAY  15 0.000000 # ta- : 0.0 
DECAY  16 0.000000 # vt : 0.0 
DECAY  21 0.000000 # g : 0.0 
DECAY  22 0.000000 # a : 0.0 
DECAY  10030 0.308725 # zph : (gz__exp__2*MZph*(5 + cmath.sqrt(1 - (4*MT__exp__2)/MZph__exp__2)))/(144.*cmath.pi) 
DECAY  10031 0.132629 # zpl : (5*gz__exp__2*MZpl)/(144.*cmath.pi) 
#===========================================================
# QUANTUM NUMBERS OF NEW STATE(S) (NON SM PDG CODE)
#===========================================================

Block QNUMBERS 10030  # zph 
        1 0  # 3 times electric charge
        2 3  # number of spin states (2S+1)
        3 1  # colour rep (1: singlet, 3: triplet, 8: octet)
        4 0  # Particle/Antiparticle distinction (0=own anti)
Block QNUMBERS 10031  # zpl 
        1 0  # 3 times electric charge
        2 3  # number of spin states (2S+1)
        3 1  # colour rep (1: singlet, 3: triplet, 8: octet)
        4 0  # Particle/Antiparticle distinction (0=own anti)
</slha>
## END BANNER##
<MGGenerationInfo>
#  Number of Events        :         4014
#  Integrated weight (pb)  :  0.21282E+00
#  Max wgt                 :  0.72970E-04
#  Average wgt             :  0.53019E-04
</MGGenerationInfo>
</header>
<init>
     2212     2212  0.40000000000E+04  0.40000000000E+04 0 0  247000  247000 2   1
  0.21302503239E+00  0.39298824343E-03  0.72969660000E-04   0
</init>
<event>
 5   0  0.7065539E-04  0.1349514E+04  0.7818609E-02  0.8991196E-01
        2   -1    0    0  501    0  0.00000000000E+00  0.00000000000E+00  0.24424687191E+04  0.24424687191E+04  0.25500000920E-02 0.  1.
       -2   -1    0    0    0  501  0.00000000000E+00  0.00000000000E+00 -0.18640853952E+03  0.18640853954E+03  0.25500000920E-02 0. -1.
    10030    2    1    2    0    0  0.00000000000E+00  0.00000000000E+00  0.22560601796E+04  0.26288772586E+04  0.13495140263E+04 0.  0.
        1    1    3    3  502    0  0.19843538501E+03  0.46803203340E+03  0.26370175361E+03  0.57268595337E+03  0.50400001928E-02 0. -1.
       -1    1    3    3    0  502 -0.19843538501E+03 -0.46803203340E+03  0.19923584260E+04  0.20561913053E+04  0.50400001928E-02 0.  1.
</event>
<event>
 5   0  0.7065539E-04  0.1396199E+04  0.7818609E-02  0.8956574E-01
        2   -1    0    0  501    0  0.00000000000E+00  0.00000000000E+00  0.21621343971E+04  0.21621343971E+04  0.25500000920E-02 0. -1.
       -2   -1    0    0    0  501  0.00000000000E+00  0.00000000000E+00 -0.22539909990E+03  0.22539909992E+03  0.25500000920E-02 0.  1.
    10030    2    1    2    0    0  0.00000000000E+00  0.00000000000E+00  0.19367352972E+04  0.23875334970E+04  0.13961993368E+04 0.  0.
        1    1    3    3  502    0 -0.60804445540E+03  0.10173840130E+03  0.15284476460E+04  0.16480961649E+04  0.50400001928E-02 0. -1.
       -1    1    3    3    0  502  0.60804445540E+03 -0.10173840130E+03  0.40828765119E+03  0.73943733215E+03  0.50400001928E-02 0.  1.
</event>
<event>
 5   0  0.7296966E-04  0.1417052E+04  0.7818609E-02  0.8941567E-01
       -2   -1    0    0    0  501  0.00000000000E+00  0.00000000000E+00  0.58061876407E+03  0.58061876408E+03  0.25500000920E-02 0.  1.
        2   -1    0    0  501    0  0.00000000000E+00  0.00000000000E+00 -0.86461043296E+03  0.86461043297E+03  0.25500000920E-02 0. -1.
    10030    2    1    2    0    0  0.00000000000E+00  0.00000000000E+00 -0.28399166889E+03  0.14452291970E+04  0.14170519271E+04 0.  0.
        3    1    3    3  502    0  0.49825409144E+03 -0.40360434746E+03 -0.44941177713E+03  0.78302271011E+03  0.10100000352E+00 0.  1.
       -3    1    3    3    0  502 -0.49825409144E+03  0.40360434746E+03  0.16542010824E+03  0.66220648693E+03  0.10100000352E+00 0. -1.
</event>
<event>
 5   0  0.7065539E-04  0.1398697E+04  0.7818609E-02  0.8954763E-01
        2   -1    0    0  501    0  0.00000000000E+00  0.00000000000E+00  0.97099734810E+03  0.97099734811E+03  0.25500000920E-02 0.  1.
       -2   -1    0    0    0  501  0.00000000000E+00  0.00000000000E+00 -0.50369656869E+03  0.50369656870E+03  0.25500000920E-02 0. -1.
    10030    2    1    2    0    0  0.00000000000E+00  0.00000000000E+00  0.46730077942E+03  0.14746939168E+04  0.13986965825E+04 0.  0.
        1    1    3    3  502    0  0.50599965530E+03 -0.46970260875E+03  0.11609404019E+03  0.70009572062E+03  0.50400001928E-02 0. -1.
       -1    1    3    3    0  502 -0.50599965530E+03  0.46970260875E+03  0.35120673922E+03  0.77459819619E+03  0.50400001928E-02 0.  1.
</event>
<event>
 5   0  0.7296966E-04  0.1312863E+04  0.7818609E-02  0.9019426E-01
       -2   -1    0    0    0  501  0.00000000000E+00  0.00000000000E+00  0.45332130846E+03  0.45332130846E+03  0.25500000920E-02 0.  1.
        2   -1    0    0  501    0  0.00000000000E+00  0.00000000000E+00 -0.95054500572E+03  0.95054500573E+03  0.25500000920E-02 0. -1.
    10030    2    1    2    0    0  0.00000000000E+00  0.00000000000E+00 -0.49722369727E+03  0.14038663142E+04  0.13128629871E+04 0.  0.
        3    1    3    3  502    0  0.27775917754E+03  0.10480842363E+03  0.37743388295E+03  0.48019924257E+03  0.10100000352E+00 0.  1.
       -3    1    3    3    0  502 -0.27775917754E+03 -0.10480842363E+03 -0.87465758021E+03  0.92366707162E+03  0.10100000352E+00 0. -1.
</event>
<event>
 5   0  0.3784219E-04  0.1325540E+04  0.7818609E-02  0.9009554E-01
        1   -1    0    0  501    0  0.00000000000E+00  0.00000000000E+00  0.39727560903E+03  0.39727560907E+03  0.50400001928E-02 0. -1.
       -1   -1    0    0    0  501  0.00000000000E+00  0.00000000000E+00 -0.11056905638E+04  0.11056905638E+04  0.50400001928E-02 0.  1.
    10030    2    1    2    0    0  0.00000000000E+00  0.00000000000E+00 -0.70841495480E+03  0.15029661729E+04  0.13255397273E+04 0.  0.
        1    1    3    3  502    0  0.68942267055E+02  0.37094908148E+03  0.26361988786E+03  0.46027350841E+03  0.50400001928E-02 0. -1.
       -1    1    3    3    0  502 -0.68942267055E+02 -0.37094908148E+03 -0.97203484266E+03  0.10426926645E+04  0.50400001928E-02 0.  1.
</event>
<event>
 5   0  0.3907270E-04  0.1419410E+04  0.7818609E-02  0.8939887E-01
        1   -1    0    0  501    0  0.00000000000E+00  0.00000000000E+00  0.59927746398E+03  0.59927746400E+03  0.50400001928E-02 0.  1.
       -1   -1    0    0    0  501  0.00000000000E+00  0.00000000000E+00 -0.84048103277E+03  0.84048103279E+03  0.50400001928E-02 0. -1.
    10030    2    1    2    0    0  0.00000000000E+00  0.00000000000E+00 -0.24120356880E+03  0.14397584968E+04  0.14194102182E+04 0.  0.
        3    1    3    3  502    0  0.50458257582E+03  0.29542199734E+03  0.28741291733E+03  0.65152431081E+03  0.10100000352E+00 0.  1.
       -3    1    3    3    0  502 -0.50458257582E+03 -0.29542199734E+03 -0.52861648613E+03  0.78823418597E+03  0.10100000352E+00 0. -1.
</event>
<event>
 5   0  0.7065539E-04  0.1396051E+04  0.7818609E-02  0.8956682E-01
        2   -1    0    0  501    0  0.00000000000E+00  0.00000000000E+00  0.36242938323E+03  0.36242938324E+03  0.25500000920E-02 0.  1.
       -2   -1    0    0    0  501  0.00000000000E+00  0.00000000000E+00 -0.13443704513E+04  0.13443704513E+04  0.25500000920E-02 0. -1.
    10030    2    1    2    0    0  0.00000000000E+00  0.00000000000E+00 -0.98194106808E+03  0.17067998345E+04  0.13960506488E+04 0.  0.
        1    1    3    3  502    0  0.30750720289E+03  0.57957267611E+03 -0.19965953789E+03  0.68580543729E+03  0.50400001928E-02 0.  1.
       -1    1    3    3    0  502 -0.30750720289E+03 -0.57957267611E+03 -0.78228153019E+03  0.10209943973E+04  0.50400001928E-02 0. -1.
</event>
<event>
 5   0  0.3756664E-04  0.1396259E+04  0.7818609E-02  0.8956531E-01
       -1   -1    0    0    0  501  0.00000000000E+00  0.00000000000E+00  0.61572570975E+03  0.61572570977E+03  0.50400001928E-02 0. -1.
        1   -1    0    0  501    0  0.00000000000E+00  0.00000000000E+00 -0.79156104473E+03  0.79156104475E+03  0.50400001928E-02 0.  1.
    10030    2    1    2    0    0  0.00000000000E+00  0.00000000000E+00 -0.17583533499E+03  0.14072867545E+04  0.13962585521E+04 0.  0.
        2    1    3    3  502    0 -0.35458671344E+02 -0.53263906528E+03 -0.54138547623E+03  0.76030252210E+03  0.25500000920E-02 0.  1.
       -2    1    3    3    0  502  0.35458671344E+02  0.53263906528E+03  0.36555014124E+03  0.64698423242E+03  0.25500000920E-02 0. -1.
</event>
<event>
 5   0  0.7065539E-04  0.1420617E+04  0.7818609E-02  0.8939028E-01
        2   -1    0    0  501    0  0.00000000000E+00  0.00000000000E+00  0.17593412165E+04  0.17593412165E+04  0.25500000920E-02 0. -1.
       -2   -1    0    0    0  501  0.00000000000E+00  0.00000000000E+00 -0.28677689574E+03  0.28677689575E+03  0.25500000920E-02 0.  1.
    10030    2    1    2    0    0  0.00000000000E+00  0.00000000000E+00  0.14725643208E+04  0.20461181123E+04  0.14206173484E+04 0.  0.
        1    1    3    3  502    0  0.41421628581E+03  0.94251687517E+02 -0.83653234369E+02  0.43296232594E+03  0.50400001928E-02 0.  1.
       -1    1    3    3    0  502 -0.41421628581E+03 -0.94251687517E+02  0.15562175552E+04  0.16131557864E+04  0.50400001928E-02 0. -1.
</event>
<event>
 5   0  0.2660250E-04  0.1414937E+04  0.7818609E-02  0.8943077E-01
       -4   -1    0    0    0  501  0.00000000000E+00  0.00000000000E+00  0.69510410028E+03  0.69510526046E+03  0.12699999809E+01 0. -1.
        4   -1    0    0  501    0  0.00000000000E+00  0.00000000000E+00 -0.72005043821E+03  0.72005155820E+03  0.12699999809E+01 0.  1.
    10030    2    1    2    0    0  0.00000000000E+00  0.00000000000E+00 -0.24946337927E+02  0.14151568187E+04  0.14149369250E+04 0.  0.
        4    1    3    3  502    0 -0.70320791107E+03 -0.41362567641E+02  0.53094507812E+02  0.70642258448E+03  0.12699999809E+01 0.  1.
       -4    1    3    3    0  502  0.70320791107E+03  0.41362567641E+02 -0.78040845739E+02  0.70873423418E+03  0.12699999809E+01 0. -1.
</event>
<event>
 5   0  0.6959748E-04  0.1395155E+04  0.7818609E-02  0.8957333E-01
        2   -1    0    0  501    0  0.00000000000E+00  0.00000000000E+00  0.33530440312E+03  0.33530440313E+03  0.25500000920E-02 0. -1.
       -2   -1    0    0    0  501  0.00000000000E+00  0.00000000000E+00 -0.14512605458E+04  0.14512605458E+04  0.25500000920E-02 0.  1.
    10030    2    1    2    0    0  0.00000000000E+00  0.00000000000E+00 -0.11159561427E+04  0.17865649489E+04  0.13951545450E+04 0.  0.
        5    1    3    3  502    0  0.12943492805E+03  0.22708350901E+03 -0.13861599066E+04  0.14105962206E+04  0.46999998093E+01 0.  1.
       -5    1    3    3    0  502 -0.12943492805E+03 -0.22708350901E+03  0.27020376396E+03  0.37596872838E+03  0.46999998093E+01 0. -1.
</event>
<event>
 5   0  0.3977658E-04  0.1402220E+04  0.7818609E-02  0.8952213E-01
        1   -1    0    0  501    0  0.00000000000E+00  0.00000000000E+00  0.72928110575E+03  0.72928110576E+03  0.50400001928E-02 0.  1.
       -1   -1    0    0    0  501  0.00000000000E+00  0.00000000000E+00 -0.67402725091E+03  0.67402725093E+03  0.50400001928E-02 0. -1.
    10030    2    1    2    0    0  0.00000000000E+00  0.00000000000E+00  0.55253854837E+02  0.14033083567E+04  0.14022201523E+04 0.  0.
        5    1    3    3  502    0  0.35956969978E+03 -0.50176275680E+03  0.36026570368E+03  0.71475149553E+03  0.46999998093E+01 0.  1.
       -5    1    3    3    0  502 -0.35956969978E+03  0.50176275680E+03 -0.30501184884E+03  0.68855686116E+03  0.46999998093E+01 0. -1.
</event>
<event>
 5   0  0.2660250E-04  0.1402309E+04  0.7818609E-02  0.8952149E-01
       -3   -1    0    0    0  501  0.00000000000E+00  0.00000000000E+00  0.32954738750E+03  0.32954740297E+03  0.10100000352E+00 0. -1.
        3   -1    0    0  501    0  0.00000000000E+00  0.00000000000E+00 -0.14917964763E+04  0.14917964798E+04  0.10100000352E+00 0.  1.
    10030    2    1    2    0    0  0.00000000000E+00  0.00000000000E+00 -0.11622490888E+04  0.18213438827E+04  0.14023090225E+04 0.  0.
        3    1    3    3  502    0 -0.45879928840E+02 -0.48060279739E+02  0.32544921971E+03  0.33216255534E+03  0.10100000352E+00 0. -1.
       -3    1    3    3    0  502  0.45879928840E+02  0.48060279739E+02 -0.14876983086E+04  0.14891813274E+04  0.10100000352E+00 0.  1.
</event>
<event>
 5   0  0.3784219E-04  0.1405746E+04  0.7818609E-02  0.8949670E-01
        1   -1    0    0  501    0  0.00000000000E+00  0.00000000000E+00  0.11884386615E+04  0.11884386615E+04  0.50400001928E-02 0. -1.
       -1   -1    0    0    0  501  0.00000000000E+00  0.00000000000E+00 -0.41569688505E+03  0.41569688508E+03  0.50400001928E-02 0.  1.
    10030    2    1    2    0    0  0.00000000000E+00  0.00000000000E+00  0.77274177644E+03  0.16041355466E+04  0.14057457091E+04 0.  0.
        1    1    3    3  502    0  0.72748747955E+02  0.68045299856E+03  0.20335737057E+03  0.71390677527E+03  0.50400001928E-02 0.  1.
       -1    1    3    3    0  502 -0.72748747955E+02 -0.68045299856E+03  0.56938440586E+03  0.89022877130E+03  0.50400001928E-02 0. -1.
</event>
<event>
 5   0  0.3907270E-04  0.1377061E+04  0.7818609E-02  0.8970592E-01
        1   -1    0    0  501    0  0.00000000000E+00  0.00000000000E+00  0.69098112932E+03  0.69098112934E+03  0.50400001928E-02 0. -1.
       -1   -1    0    0    0  501  0.00000000000E+00  0.00000000000E+00 -0.68608844664E+03  0.68608844666E+03  0.50400001928E-02 0.  1.
    10030    2    1    2    0    0  0.00000000000E+00  0.00000000000E+00  0.48926826800E+01  0.13770695760E+04  0.13770608842E+04 0.  0.
        3    1    3    3  502    0  0.96008714477E+02  0.57850445237E+03  0.36326586451E+03  0.68981676784E+03  0.10100000352E+00 0. -1.
       -3    1    3    3    0  502 -0.96008714477E+02 -0.57850445237E+03 -0.35837318183E+03  0.68725280816E+03  0.10100000352E+00 0.  1.
</event>
<event>
 5   0  0.3907270E-04  0.1405923E+04  0.7818609E-02  0.8949542E-01
        1   -1    0    0  501    0  0.00000000000E+00  0.00000000000E+00  0.93137598859E+03  0.93137598861E+03  0.50400001928E-02 0.  1.
       -1   -1    0    0    0  501  0.00000000000E+00  0.00000000000E+00 -0.53056460189E+03  0.53056460191E+03  0.50400001928E-02 0. -1.
    10030    2    1    2    0    0  0.00000000000E+00  0.00000000000E+00  0.40081138670E+03  0.14619405905E+04  0.14059233701E+04 0.  0.
        3    1    3    3  502    0  0.52306072874E+03 -0.29595836570E+03 -0.17877562660E+03  0.62701245207E+03  0.10100000352E+00 0.  1.
       -3    1    3    3    0  502 -0.52306072874E+03  0.29595836570E+03  0.57958701331E+03  0.83492813845E+03  0.10100000352E+00 0. -1.
</event>
<event>
 5   0  0.7065539E-04  0.1437741E+04  0.7818609E-02  0.8926944E-01
       -2   -1    0    0    0  501  0.00000000000E+00  0.00000000000E+00  0.63150544927E+03  0.63150544927E+03  0.25500000920E-02 0.  1.
        2   -1    0    0  501    0  0.00000000000E+00  0.00000000000E+00 -0.81832149824E+03  0.81832149824E+03  0.25500000920E-02 0. -1.
    10030    2    1    2    0    0  0.00000000000E+00  0.00000000000E+00 -0.18681604897E+03  0.14498269475E+04  0.14377405682E+04 0.  0.
        1    1    3    3  502    0 -0.18408735839E+03 -0.41658564825E+03  0.46745343214E+03  0.65264421326E+03  0.50400001928E-02 0.  1.
       -1    1    3    3    0  502  0.18408735839E+03  0.41658564825E+03 -0.65426948112E+03  0.79718273426E+03  0.50400001928E-02 0. -1.
</event>
<event>
 5   0  0.3907093E-04  0.1351171E+04  0.7818609E-02  0.8989942E-01
       -1   -1    0    0    0  501  0.00000000000E+00  0.00000000000E+00  0.57440596918E+03  0.57440596920E+03  0.50400001928E-02 0. -1.
        1   -1    0    0  501    0  0.00000000000E+00  0.00000000000E+00 -0.79458793996E+03  0.79458793998E+03  0.50400001928E-02 0.  1.
    10030    2    1    2    0    0  0.00000000000E+00  0.00000000000E+00 -0.22018197079E+03  0.13689939092E+04  0.13511714262E+04 0.  0.
        4    1    3    3  502    0  0.62932929003E+03  0.77759097091E+02 -0.34621567593E+03  0.72247404080E+03  0.12699999809E+01 0.  1.
       -4    1    3    3    0  502 -0.62932929003E+03 -0.77759097091E+02  0.12603370514E+03  0.64651986838E+03  0.12699999809E+01 0. -1.
</event>
<event>
 5   0  0.3784219E-04  0.1410369E+04  0.7818609E-02  0.8946347E-01
        1   -1    0    0  501    0  0.00000000000E+00  0.00000000000E+00  0.43921380910E+03  0.43921380913E+03  0.50400001928E-02 0. -1.
       -1   -1    0    0    0  501  0.00000000000E+00  0.00000000000E+00 -0.11322163943E+04  0.11322163943E+04  0.50400001928E-02 0.  1.
    10030    2    1    2    0    0  0.00000000000E+00  0.00000000000E+00 -0.69300258517E+03  0.15714302034E+04  0.14103688529E+04 0.  0.
        1    1    3    3  502    0 -0.29448259206E+03 -0.32492471122E+03  0.26882359810E+03  0.51435609445E+03  0.50400001928E-02 0. -1.
       -1    1    3    3    0  502  0.29448259206E+03  0.32492471122E+03 -0.96182618327E+03  0.10570741090E+04  0.50400001928E-02 0.  1.
</event>
<event>
 5   0  0.6870835E-04  0.1385237E+04  0.7818609E-02  0.8964574E-01
        2   -1    0    0  501    0  0.00000000000E+00  0.00000000000E+00  0.65220884332E+03  0.65220884332E+03  0.25500000920E-02 0.  1.
       -2   -1    0    0    0  501  0.00000000000E+00  0.00000000000E+00 -0.73553222748E+03  0.73553222749E+03  0.25500000920E-02 0. -1.
    10030    2    1    2    0    0  0.00000000000E+00  0.00000000000E+00 -0.83323384165E+02  0.13877410708E+04  0.13852373419E+04 0.  0.
        2    1    3    3  502    0 -0.34237271621E+03 -0.33294377547E+03 -0.54421566319E+03  0.72404511082E+03  0.25500000920E-02 0. -1.
       -2    1    3    3    0  502  0.34237271621E+03  0.33294377547E+03  0.46089227903E+03  0.66369595999E+03  0.25500000920E-02 0.  1.
</event>
<event>
 5   0  0.3907270E-04  0.1386681E+04  0.7818609E-02  0.8963516E-01
        1   -1    0    0  501    0  0.00000000000E+00  0.00000000000E+00  0.11353602771E+04  0.11353602771E+04  0.50400001928E-02 0.  1.
       -1   -1    0    0    0  501  0.00000000000E+00  0.00000000000E+00 -0.42340866115E+03  0.42340866118E+03  0.50400001928E-02 0. -1.
    10030    2    1    2    0    0  0.00000000000E+00  0.00000000000E+00  0.71195161598E+03  0.15587689383E+04  0.13866814701E+04 0.  0.
        3    1    3    3  502    0  0.44184070979E+03  0.57813048837E+02 -0.24112756476E+03  0.50666366964E+03  0.10100000352E+00 0. -1.
       -3    1    3    3    0  502 -0.44184070979E+03 -0.57813048837E+02  0.95307918074E+03  0.10521052687E+04  0.10100000352E+00 0.  1.
</event>
<event>
 5   0  0.2660250E-04  0.1395017E+04  0.7818609E-02  0.8957433E-01
       -3   -1    0    0    0  501  0.00000000000E+00  0.00000000000E+00  0.53782594665E+03  0.53782595613E+03  0.10100000352E+00 0.  1.
        3   -1    0    0  501    0  0.00000000000E+00  0.00000000000E+00 -0.90460168635E+03  0.90460169198E+03  0.10100000352E+00 0. -1.
    10030    2    1    2    0    0  0.00000000000E+00  0.00000000000E+00 -0.36677573970E+03  0.14424276481E+04  0.13950172317E+04 0.  0.
        3    1    3    3  502    0 -0.59298138740E+03 -0.31065321827E+03 -0.38596965464E+03  0.77272565140E+03  0.10100000352E+00 0.  1.
       -3    1    3    3    0  502  0.59298138740E+03  0.31065321827E+03  0.19193914940E+02  0.66970199671E+03  0.10100000352E+00 0. -1.
</event>
<event>
 5   0  0.7296966E-04  0.1408332E+04  0.7818609E-02  0.8947809E-01
        2   -1    0    0  501    0  0.00000000000E+00  0.00000000000E+00  0.46488951554E+03  0.46488951555E+03  0.25500000920E-02 0.  1.
       -2   -1    0    0    0  501  0.00000000000E+00  0.00000000000E+00 -0.10665970661E+04  0.10665970661E+04  0.25500000920E-02 0. -1.
    10030    2    1    2    0    0  0.00000000000E+00  0.00000000000E+00 -0.60170755056E+03  0.15314865817E+04  0.14083320537E+04 0.  0.
        3    1    3    3  502    0  0.48769087179E+03 -0.34148809662E+03  0.10805130984E+03  0.60508809468E+03  0.10100000352E+00 0.  1.
       -3    1    3    3    0  502 -0.48769087179E+03  0.34148809662E+03 -0.70975886040E+03  0.92639848698E+03  0.10100000352E+00 0. -1.
</event>
<event>
 5   0  0.3784219E-04  0.1274547E+04  0.7818609E-02  0.9049997E-01
       -1   -1    0    0    0  501  0.00000000000E+00  0.00000000000E+00  0.64671719446E+03  0.64671719448E+03  0.50400001928E-02 0. -1.
        1   -1    0    0  501    0  0.00000000000E+00  0.00000000000E+00 -0.62796736104E+03  0.62796736106E+03  0.50400001928E-02 0.  1.
    10030    2    1    2    0    0  0.00000000000E+00  0.00000000000E+00  0.18749833422E+02  0.12746845555E+04  0.12745466488E+04 0.  0.
        1    1    3    3  502    0  0.14195413442E+03  0.60938263644E+03 -0.11154770247E+03  0.63556357969E+03  0.50400001928E-02 0.  1.
       -1    1    3    3    0  502 -0.14195413442E+03 -0.60938263644E+03  0.13029753589E+03  0.63912097584E+03  0.50400001928E-02 0. -1.
</event>
<event>
 5   0  0.6870835E-04  0.1396558E+04  0.7818609E-02  0.8956314E-01
        2   -1    0    0  501    0  0.00000000000E+00  0.00000000000E+00  0.13165001564E+04  0.13165001564E+04  0.25500000920E-02 0. -1.
       -2   -1    0    0    0  501  0.00000000000E+00  0.00000000000E+00 -0.37037107511E+03  0.37037107512E+03  0.25500000920E-02 0.  1.
    10030    2    1    2    0    0  0.00000000000E+00  0.00000000000E+00  0.94612908134E+03  0.16868712316E+04  0.13965580236E+04 0.  0.
        2    1    3    3  502    0  0.33342761049E+03 -0.47956777351E+03  0.93527997184E+03  0.11026821149E+04  0.25500000920E-02 0. -1.
       -2    1    3    3    0  502 -0.33342761049E+03  0.47956777351E+03  0.10849109492E+02  0.58418911665E+03  0.25500000920E-02 0.  1.
</event>
<event>
 5   0  0.3756664E-04  0.1411105E+04  0.7818609E-02  0.8945819E-01
        1   -1    0    0  501    0  0.00000000000E+00  0.00000000000E+00  0.66421588012E+03  0.66421588014E+03  0.50400001928E-02 0. -1.
       -1   -1    0    0    0  501  0.00000000000E+00  0.00000000000E+00 -0.74946199109E+03  0.74946199111E+03  0.50400001928E-02 0.  1.
    10030    2    1    2    0    0  0.00000000000E+00  0.00000000000E+00 -0.85246110965E+02  0.14136778712E+04  0.14111053200E+04 0.  0.
        2    1    3    3  502    0 -0.68713257829E+03 -0.98767520591E+02  0.83695483934E+02  0.69922180838E+03  0.25500000920E-02 0. -1.
       -2    1    3    3    0  502  0.68713257829E+03  0.98767520591E+02 -0.16894159490E+03  0.71445606287E+03  0.25500000920E-02 0.  1.
</event>
<event>
 5   0  0.7296966E-04  0.1399623E+04  0.7818609E-02  0.8954091E-01
       -2   -1    0    0    0  501  0.00000000000E+00  0.00000000000E+00  0.24498529420E+03  0.24498529421E+03  0.25500000920E-02 0.  1.
        2   -1    0    0  501    0  0.00000000000E+00  0.00000000000E+00 -0.19990430649E+04  0.19990430649E+04  0.25500000920E-02 0. -1.
    10030    2    1    2    0    0  0.00000000000E+00  0.00000000000E+00 -0.17540577707E+04  0.22440283592E+04  0.13996230255E+04 0.  0.
        3    1    3    3  502    0 -0.64530095870E+03  0.26159551403E+03 -0.98915285485E+03  0.12096565301E+04  0.10100000352E+00 0.  1.
       -3    1    3    3    0  502  0.64530095870E+03 -0.26159551403E+03 -0.76490491589E+03  0.10343718291E+04  0.10100000352E+00 0. -1.
</event>
<event>
 5   0  0.6959748E-04  0.1350853E+04  0.7818609E-02  0.8990183E-01
       -2   -1    0    0    0  501  0.00000000000E+00  0.00000000000E+00  0.55513569746E+03  0.55513569746E+03  0.25500000920E-02 0.  1.
        2   -1    0    0  501    0  0.00000000000E+00  0.00000000000E+00 -0.82178281661E+03  0.82178281661E+03  0.25500000920E-02 0. -1.
    10030    2    1    2    0    0  0.00000000000E+00  0.00000000000E+00 -0.26664711915E+03  0.13769185141E+04  0.13508530299E+04 0.  0.
        5    1    3    3  502    0 -0.32360218426E+02 -0.55832036526E+03  0.25267880656E+03  0.61370797883E+03  0.46999998093E+01 0.  1.
       -5    1    3    3    0  502  0.32360218426E+02  0.55832036526E+03 -0.51932592571E+03  0.76321053525E+03  0.46999998093E+01 0. -1.
</event>
<event>
 5   0  0.3756664E-04  0.1420188E+04  0.7818609E-02  0.8939333E-01
       -1   -1    0    0    0  501  0.00000000000E+00  0.00000000000E+00  0.35279623235E+03  0.35279623239E+03  0.50400001928E-02 0.  1.
        1   -1    0    0  501    0  0.00000000000E+00  0.00000000000E+00 -0.14292493986E+04  0.14292493986E+04  0.50400001928E-02 0. -1.
    10030    2    1    2    0    0  0.00000000000E+00  0.00000000000E+00 -0.10764531662E+04  0.17820456310E+04  0.14201884424E+04 0.  0.
        2    1    3    3  502    0 -0.42287810295E+03  0.18486294350E+03 -0.12153901587E+04  0.13000667043E+04  0.25500000920E-02 0. -1.
       -2    1    3    3    0  502  0.42287810295E+03 -0.18486294350E+03  0.13893699249E+03  0.48197892663E+03  0.25500000920E-02 0.  1.
</event>
<event>
 5   0  0.7296966E-04  0.1407472E+04  0.7818609E-02  0.8948428E-01
       -2   -1    0    0    0  501  0.00000000000E+00  0.00000000000E+00  0.63003321970E+03  0.63003321970E+03  0.25500000920E-02 0.  1.
        2   -1    0    0  501    0  0.00000000000E+00  0.00000000000E+00 -0.78606084712E+03  0.78606084712E+03  0.25500000920E-02 0. -1.
    10030    2    1    2    0    0  0.00000000000E+00  0.00000000000E+00 -0.15602762742E+03  0.14160940668E+04  0.14074721260E+04 0.  0.
        3    1    3    3  502    0  0.29551483364E+03 -0.38973360691E+03 -0.58710069523E+03  0.76413908276E+03  0.10100000352E+00 0. -1.
       -3    1    3    3    0  502 -0.29551483364E+03  0.38973360691E+03  0.43107306781E+03  0.65195498407E+03  0.10100000352E+00 0.  1.
</event>
<event>
 5   0  0.7065539E-04  0.1355766E+04  0.7818609E-02  0.8986475E-01
       -2   -1    0    0    0  501  0.00000000000E+00  0.00000000000E+00  0.54680253809E+03  0.54680253810E+03  0.25500000920E-02 0. -1.
        2   -1    0    0  501    0  0.00000000000E+00  0.00000000000E+00 -0.84038622657E+03  0.84038622658E+03  0.25500000920E-02 0.  1.
    10030    2    1    2    0    0  0.00000000000E+00  0.00000000000E+00 -0.29358368848E+03  0.13871887647E+04  0.13557659410E+04 0.  0.
        1    1    3    3  502    0 -0.21065532480E+03  0.18645567444E+03 -0.77783916589E+03  0.82714880911E+03  0.50400001928E-02 0.  1.
       -1    1    3    3    0  502  0.21065532480E+03 -0.18645567444E+03  0.48425547741E+03  0.56003995556E+03  0.50400001928E-02 0. -1.
</event>
<event>
 5   0  0.3907270E-04  0.1396725E+04  0.7818609E-02  0.8956193E-01
       -1   -1    0    0    0  501  0.00000000000E+00  0.00000000000E+00  0.70415401486E+03  0.70415401487E+03  0.50400001928E-02 0.  1.
        1   -1    0    0  501    0  0.00000000000E+00  0.00000000000E+00 -0.69261834604E+03  0.69261834606E+03  0.50400001928E-02 0. -1.
    10030    2    1    2    0    0  0.00000000000E+00  0.00000000000E+00  0.11535668814E+02  0.13967723609E+04  0.13967247247E+04 0.  0.
        3    1    3    3  502    0 -0.32057696999E+02 -0.59102692656E+03 -0.36487866215E+03  0.69532508379E+03  0.10100000352E+00 0. -1.
       -3    1    3    3    0  502  0.32057696999E+02  0.59102692656E+03  0.37641433096E+03  0.70144727714E+03  0.10100000352E+00 0.  1.
</event>
<event>
 5   0  0.7296966E-04  0.1397047E+04  0.7818609E-02  0.8955959E-01
       -2   -1    0    0    0  501  0.00000000000E+00  0.00000000000E+00  0.40444397769E+03  0.40444397769E+03  0.25500000920E-02 0.  1.
        2   -1    0    0  501    0  0.00000000000E+00  0.00000000000E+00 -0.12064336043E+04  0.12064336043E+04  0.25500000920E-02 0. -1.
    10030    2    1    2    0    0  0.00000000000E+00  0.00000000000E+00 -0.80198962663E+03  0.16108775820E+04  0.13970466073E+04 0.  0.
        3    1    3    3  502    0  0.24904744697E+03 -0.58197846061E+03 -0.60478546323E+02  0.63590976107E+03  0.10100000352E+00 0.  1.
       -3    1    3    3    0  502 -0.24904744697E+03  0.58197846061E+03 -0.74151108030E+03  0.97496782094E+03  0.10100000352E+00 0. -1.
</event>
<event>
 5   0  0.3907093E-04  0.1402517E+04  0.7818609E-02  0.8951999E-01
        1   -1    0    0  501    0  0.00000000000E+00  0.00000000000E+00  0.47294691115E+03  0.47294691118E+03  0.50400001928E-02 0.  1.
       -1   -1    0    0    0  501  0.00000000000E+00  0.00000000000E+00 -0.10397855806E+04  0.10397855806E+04  0.50400001928E-02 0. -1.
    10030    2    1    2    0    0  0.00000000000E+00  0.00000000000E+00 -0.56683866941E+03  0.15127324918E+04  0.14025168500E+04 0.  0.
        4    1    3    3  502    0 -0.44771179408E+03 -0.39165009979E+03 -0.68398829987E+03  0.90646415179E+03  0.12699999809E+01 0. -1.
       -4    1    3    3    0  502  0.44771179408E+03  0.39165009979E+03  0.11714963046E+03  0.60626833996E+03  0.12699999809E+01 0.  1.
</event>
<event>
 5   0  0.3784219E-04  0.1391140E+04  0.7818609E-02  0.8960257E-01
        1   -1    0    0  501    0  0.00000000000E+00  0.00000000000E+00  0.72774784026E+03  0.72774784027E+03  0.50400001928E-02 0. -1.
       -1   -1    0    0    0  501  0.00000000000E+00  0.00000000000E+00 -0.66481485119E+03  0.66481485121E+03  0.50400001928E-02 0.  1.
    10030    2    1    2    0    0  0.00000000000E+00  0.00000000000E+00  0.62932989067E+02  0.13925626915E+04  0.13911399242E+04 0.  0.
        1    1    3    3  502    0  0.38123566284E+02 -0.29122219719E+03  0.66263002151E+03  0.72480502197E+03  0.50400001928E-02 0. -1.
       -1    1    3    3    0  502 -0.38123566284E+02  0.29122219719E+03 -0.59969703244E+03  0.66775766951E+03  0.50400001928E-02 0.  1.
</event>
<event>
 5   0  0.3907270E-04  0.1379930E+04  0.7818609E-02  0.8968475E-01
       -1   -1    0    0    0  501  0.00000000000E+00  0.00000000000E+00  0.20208510565E+03  0.20208510571E+03  0.50400001928E-02 0.  1.
        1   -1    0    0  501    0  0.00000000000E+00  0.00000000000E+00 -0.23557007899E+04  0.23557007899E+04  0.50400001928E-02 0. -1.
    10030    2    1    2    0    0  0.00000000000E+00  0.00000000000E+00 -0.21536156843E+04  0.25577858956E+04  0.13799304955E+04 0.  0.
        3    1    3    3  502    0  0.10451445147E+03 -0.58196753443E+03 -0.17359113163E+04  0.18338477554E+04  0.10100000352E+00 0. -1.
       -3    1    3    3    0  502 -0.10451445147E+03  0.58196753443E+03 -0.41770436802E+03  0.72393814029E+03  0.10100000352E+00 0.  1.
</event>
<event>
 5   0  0.6895048E-04  0.1389559E+04  0.7818609E-02  0.8961411E-01
       -2   -1    0    0    0  501  0.00000000000E+00  0.00000000000E+00  0.57598328170E+03  0.57598328170E+03  0.25500000920E-02 0. -1.
        2   -1    0    0  501    0  0.00000000000E+00  0.00000000000E+00 -0.83807692992E+03  0.83807692992E+03  0.25500000920E-02 0.  1.
    10030    2    1    2    0    0  0.00000000000E+00  0.00000000000E+00 -0.26209364822E+03  0.14140602116E+04  0.13895586356E+04 0.  0.
        4    1    3    3  502    0  0.43168317835E+03  0.36922256379E+02  0.42167204514E+03  0.60458460619E+03  0.12699999809E+01 0. -1.
       -4    1    3    3    0  502 -0.43168317835E+03 -0.36922256379E+02 -0.68376569336E+03  0.80947560544E+03  0.12699999809E+01 0.  1.
</event>
<event>
 5   0  0.6895048E-04  0.1410639E+04  0.7818609E-02  0.8946153E-01
        2   -1    0    0  501    0  0.00000000000E+00  0.00000000000E+00  0.12974494158E+04  0.12974494158E+04  0.25500000920E-02 0. -1.
       -2   -1    0    0    0  501  0.00000000000E+00  0.00000000000E+00 -0.38342571210E+03  0.38342571211E+03  0.25500000920E-02 0.  1.
    10030    2    1    2    0    0  0.00000000000E+00  0.00000000000E+00  0.91402370371E+03  0.16808751279E+04  0.14106388144E+04 0.  0.
        4    1    3    3  502    0  0.60921067892E+03  0.30868345623E+03  0.66698100650E+03  0.95461426942E+03  0.12699999809E+01 0.  1.
       -4    1    3    3    0  502 -0.60921067892E+03 -0.30868345623E+03  0.24704269721E+03  0.72626085851E+03  0.12699999809E+01 0. -1.
</event>
<event>
 5   0  0.2660250E-04  0.1406584E+04  0.7818609E-02  0.8949066E-01
       -4   -1    0    0    0  501  0.00000000000E+00  0.00000000000E+00  0.61951649583E+03  0.61951779757E+03  0.12699999809E+01 0. -1.
        4   -1    0    0  501    0  0.00000000000E+00  0.00000000000E+00 -0.79839365772E+03  0.79839466781E+03  0.12699999809E+01 0.  1.
    10030    2    1    2    0    0  0.00000000000E+00  0.00000000000E+00 -0.17887716189E+03  0.14179124654E+04  0.14065840609E+04 0.  0.
        3    1    3    3  502    0 -0.58351334759E+03 -0.39141726812E+03 -0.58790340236E+02  0.70508979492E+03  0.10100000352E+00 0. -1.
       -3    1    3    3    0  502  0.58351334759E+03  0.39141726812E+03 -0.12008682165E+03  0.71282267047E+03  0.10100000352E+00 0.  1.
</event>
<event>
 5   0  0.3907270E-04  0.1398771E+04  0.7818609E-02  0.8954709E-01
        1   -1    0    0  501    0  0.00000000000E+00  0.00000000000E+00  0.55423543340E+03  0.55423543342E+03  0.50400001928E-02 0.  1.
       -1   -1    0    0    0  501  0.00000000000E+00  0.00000000000E+00 -0.88254933037E+03  0.88254933039E+03  0.50400001928E-02 0. -1.
    10030    2    1    2    0    0  0.00000000000E+00  0.00000000000E+00 -0.32831389698E+03  0.14367847638E+04  0.13987710472E+04 0.  0.
        3    1    3    3  502    0 -0.37833960820E+03 -0.56724657616E+03 -0.32404898477E+03  0.75492866685E+03  0.10100000352E+00 0. -1.
       -3    1    3    3    0  502  0.37833960820E+03  0.56724657616E+03 -0.42649122031E+01  0.68185609697E+03  0.10100000352E+00 0.  1.
</event>
<event>
 5   0  0.3977658E-04  0.1403191E+04  0.7818609E-02  0.8951512E-01
        1   -1    0    0  501    0  0.00000000000E+00  0.00000000000E+00  0.13531574135E+04  0.13531574136E+04  0.50400001928E-02 0.  1.
       -1   -1    0    0    0  501  0.00000000000E+00  0.00000000000E+00 -0.36376843266E+03  0.36376843270E+03  0.50400001928E-02 0. -1.
    10030    2    1    2    0    0  0.00000000000E+00  0.00000000000E+00  0.98938898088E+03  0.17169258462E+04  0.14031905808E+04 0.  0.
        5    1    3    3  502    0  0.12602598178E+03 -0.55952114889E+03  0.98910149222E+03  0.11433679705E+04  0.46999998093E+01 0.  1.
       -5    1    3    3    0  502 -0.12602598178E+03  0.55952114889E+03  0.28748865772E+00  0.57355787571E+03  0.46999998093E+01 0. -1.
</event>
<event>
 5   0  0.6870835E-04  0.1406211E+04  0.7818609E-02  0.8949335E-01
        2   -1    0    0  501    0  0.00000000000E+00  0.00000000000E+00  0.11676600274E+04  0.11676600274E+04  0.25500000920E-02 0.  1.
       -2   -1    0    0    0  501  0.00000000000E+00  0.00000000000E+00 -0.42337463020E+03  0.42337463021E+03  0.25500000920E-02 0. -1.
    10030    2    1    2    0    0  0.00000000000E+00  0.00000000000E+00  0.74428539722E+03  0.15910346576E+04  0.14062114099E+04 0.  0.
        2    1    3    3  502    0  0.31195478939E+03 -0.23569176625E+03  0.10333213189E+04  0.11048164316E+04  0.25500000920E-02 0.  1.
       -2    1    3    3    0  502 -0.31195478939E+03  0.23569176625E+03 -0.28903592172E+03  0.48621822606E+03  0.25500000920E-02 0. -1.
</event>
<event>
 5   0  0.7296966E-04  0.1429201E+04  0.7818609E-02  0.8932949E-01
        2   -1    0    0  501    0  0.00000000000E+00  0.00000000000E+00  0.11201461636E+04  0.11201461636E+04  0.25500000920E-02 0.  1.
       -2   -1    0    0    0  501  0.00000000000E+00  0.00000000000E+00 -0.45588132625E+03  0.45588132625E+03  0.25500000920E-02 0. -1.
    10030    2    1    2    0    0  0.00000000000E+00  0.00000000000E+00  0.66426483731E+03  0.15760274898E+04  0.14292007817E+04 0.  0.
        3    1    3    3  502    0  0.70673909785E+03  0.24328521574E+02  0.21869722005E+03  0.74020302191E+03  0.10100000352E+00 0. -1.
       -3    1    3    3    0  502 -0.70673909785E+03 -0.24328521574E+02  0.44556761726E+03  0.83582446790E+03  0.10100000352E+00 0.  1.
</event>
<event>
 5   0  0.7065539E-04  0.1397410E+04  0.7818609E-02  0.8955695E-01
       -2   -1    0    0    0  501  0.00000000000E+00  0.00000000000E+00  0.18294609761E+04  0.18294609761E+04  0.25500000920E-02 0. -1.
        2   -1    0    0  501    0  0.00000000000E+00  0.00000000000E+00 -0.26684853989E+03  0.26684853991E+03  0.25500000920E-02 0.  1.
    10030    2    1    2    0    0  0.00000000000E+00  0.00000000000E+00  0.15626124362E+04  0.20963095160E+04  0.13974104483E+04 0.  0.
        1    1    3    3  502    0 -0.67368434213E+03 -0.18523927493E+03  0.77383431552E+03  0.10425851187E+04  0.50400001928E-02 0.  1.
       -1    1    3    3    0  502  0.67368434213E+03  0.18523927493E+03  0.78877812069E+03  0.10537243973E+04  0.50400001928E-02 0. -1.
</event>
<event>
 5   0  0.6870835E-04  0.1394432E+04  0.7818609E-02  0.8957859E-01
        2   -1    0    0  501    0  0.00000000000E+00  0.00000000000E+00  0.97408680792E+03  0.97408680792E+03  0.25500000920E-02 0.  1.
       -2   -1    0    0    0  501  0.00000000000E+00  0.00000000000E+00 -0.49904220850E+03  0.49904220850E+03  0.25500000920E-02 0. -1.
    10030    2    1    2    0    0  0.00000000000E+00  0.00000000000E+00  0.47504459942E+03  0.14731290164E+04  0.13944324034E+04 0.  0.
        2    1    3    3  502    0  0.31717524459E+03 -0.36804017367E+03 -0.29075577774E+03  0.56620899631E+03  0.25500000920E-02 0. -1.
       -2    1    3    3    0  502 -0.31717524459E+03  0.36804017367E+03  0.76580037716E+03  0.90692002011E+03  0.25500000920E-02 0.  1.
</event>
<event>
 5   0  0.7296966E-04  0.1414965E+04  0.7818609E-02  0.8943057E-01
       -2   -1    0    0    0  501  0.00000000000E+00  0.00000000000E+00  0.26197385430E+03  0.26197385431E+03  0.25500000920E-02 0. -1.
        2   -1    0    0  501    0  0.00000000000E+00  0.00000000000E+00 -0.19106155532E+04  0.19106155532E+04  0.25500000920E-02 0.  1.
    10030    2    1    2    0    0  0.00000000000E+00  0.00000000000E+00 -0.16486416989E+04  0.21725894076E+04  0.14149647636E+04 0.  0.
        3    1    3    3  502    0  0.70268816550E+03 -0.79338527791E+02 -0.79117352338E+03  0.10611412791E+04  0.10100000352E+00 0.  1.
       -3    1    3    3    0  502 -0.70268816550E+03  0.79338527791E+02 -0.85746817557E+03  0.11114481285E+04  0.10100000352E+00 0. -1.
</event>
<event>
 5   0  0.3907270E-04  0.1392665E+04  0.7818609E-02  0.8959145E-01
       -1   -1    0    0    0  501  0.00000000000E+00  0.00000000000E+00  0.29454218169E+03  0.29454218173E+03  0.50400001928E-02 0. -1.
        1   -1    0    0  501    0  0.00000000000E+00  0.00000000000E+00 -0.16462112329E+04  0.16462112330E+04  0.50400001928E-02 0.  1.
    10030    2    1    2    0    0  0.00000000000E+00  0.00000000000E+00 -0.13516690513E+04  0.19407534147E+04  0.13926645657E+04 0.  0.
        3    1    3    3  502    0  0.21212595122E+03  0.15967920341E+03  0.22123313834E+03  0.34559944862E+03  0.10100000352E+00 0. -1.
       -3    1    3    3    0  502 -0.21212595122E+03 -0.15967920341E+03 -0.15729021896E+04  0.15951539661E+04  0.10100000352E+00 0.  1.
</event>
<event>
 5   0  0.6959748E-04  0.1404950E+04  0.7818609E-02  0.8950243E-01
       -2   -1    0    0    0  501  0.00000000000E+00  0.00000000000E+00  0.92006208494E+03  0.92006208494E+03  0.25500000920E-02 0. -1.
        2   -1    0    0  501    0  0.00000000000E+00  0.00000000000E+00 -0.53634583683E+03  0.53634583684E+03  0.25500000920E-02 0.  1.
    10030    2    1    2    0    0  0.00000000000E+00  0.00000000000E+00  0.38371624810E+03  0.14564079218E+04  0.14049504887E+04 0.  0.
        5    1    3    3  502    0  0.35001615411E+03 -0.24436685115E+03  0.77016425210E+03  0.88056886799E+03  0.46999998093E+01 0. -1.
       -5    1    3    3    0  502 -0.35001615411E+03  0.24436685115E+03 -0.38644800399E+03  0.57583905378E+03  0.46999998093E+01 0.  1.
</event>
<event>
 5   0  0.3977658E-04  0.1404357E+04  0.7818609E-02  0.8950670E-01
        1   -1    0    0  501    0  0.00000000000E+00  0.00000000000E+00  0.57721035390E+03  0.57721035393E+03  0.50400001928E-02 0.  1.
       -1   -1    0    0    0  501  0.00000000000E+00  0.00000000000E+00 -0.85420319136E+03  0.85420319137E+03  0.50400001928E-02 0. -1.
    10030    2    1    2    0    0  0.00000000000E+00  0.00000000000E+00 -0.27699283745E+03  0.14314135453E+04  0.14043573995E+04 0.  0.
        5    1    3    3  502    0 -0.29538229607E+03 -0.78703222279E+02 -0.78280462224E+03  0.84038685415E+03  0.46999998093E+01 0. -1.
       -5    1    3    3    0  502  0.29538229607E+03  0.78703222279E+02  0.50581178478E+03  0.59102669115E+03  0.46999998093E+01 0.  1.
</event>
<event>
 5   0  0.3907270E-04  0.1436003E+04  0.7818609E-02  0.8928162E-01
        1   -1    0    0  501    0  0.00000000000E+00  0.00000000000E+00  0.13222099092E+04  0.13222099092E+04  0.50400001928E-02 0.  1.
       -1   -1    0    0    0  501  0.00000000000E+00  0.00000000000E+00 -0.38989737308E+03  0.38989737311E+03  0.50400001928E-02 0. -1.
    10030    2    1    2    0    0  0.00000000000E+00  0.00000000000E+00  0.93231253611E+03  0.17121072823E+04  0.14360030227E+04 0.  0.
        3    1    3    3  502    0  0.66918016012E+03  0.10854855637E+03  0.18416098965E+03  0.70249566269E+03  0.10100000352E+00 0. -1.
       -3    1    3    3    0  502 -0.66918016012E+03 -0.10854855637E+03  0.74815154646E+03  0.10096116196E+04  0.10100000352E+00 0.  1.
</event>
<event>
 5   0  0.7296966E-04  0.1412164E+04  0.7818609E-02  0.8945060E-01
       -2   -1    0    0    0  501  0.00000000000E+00  0.00000000000E+00  0.43658103849E+03  0.43658103850E+03  0.25500000920E-02 0. -1.
        2   -1    0    0  501    0  0.00000000000E+00  0.00000000000E+00 -0.11419454686E+04  0.11419454686E+04  0.25500000920E-02 0.  1.
    10030    2    1    2    0    0  0.00000000000E+00  0.00000000000E+00 -0.70536443008E+03  0.15785265071E+04  0.14121639262E+04 0.  0.
        3    1    3    3  502    0 -0.50082111455E+03 -0.10960274628E+03  0.19002098459E+03  0.54675637678E+03  0.10100000352E+00 0. -1.
       -3    1    3    3    0  502  0.50082111455E+03  0.10960274628E+03 -0.89538541467E+03  0.10317701303E+04  0.10100000352E+00 0.  1.
</event>
<event>
 5   0  0.3784219E-04  0.1392853E+04  0.7818609E-02  0.8959008E-01
        1   -1    0    0  501    0  0.00000000000E+00  0.00000000000E+00  0.84312634819E+03  0.84312634821E+03  0.50400001928E-02 0.  1.
       -1   -1    0    0    0  501  0.00000000000E+00  0.00000000000E+00 -0.57525195651E+03  0.57525195653E+03  0.50400001928E-02 0. -1.
    10030    2    1    2    0    0  0.00000000000E+00  0.00000000000E+00  0.26787439169E+03  0.14183783047E+04  0.13928533037E+04 0.  0.
        1    1    3    3  502    0  0.16747703057E+03  0.21564045428E+03  0.78635004000E+03  0.83240359606E+03  0.50400001928E-02 0.  1.
       -1    1    3    3    0  502 -0.16747703057E+03 -0.21564045428E+03 -0.51847564832E+03  0.58597470868E+03  0.50400001928E-02 0. -1.
</event>
<event>
 5   0  0.3907270E-04  0.1397732E+04  0.7818609E-02  0.8955462E-01
        1   -1    0    0  501    0  0.00000000000E+00  0.00000000000E+00  0.66300809022E+03  0.66300809024E+03  0.50400001928E-02 0. -1.
       -1   -1    0    0    0  501  0.00000000000E+00  0.00000000000E+00 -0.73666283259E+03  0.73666283261E+03  0.50400001928E-02 0.  1.
    10030    2    1    2    0    0  0.00000000000E+00  0.00000000000E+00 -0.73654742372E+02  0.13996709228E+04  0.13977316163E+04 0.  0.
        3    1    3    3  502    0  0.66209703277E+03  0.57184807251E+02 -0.25339306700E+03  0.71123177628E+03  0.10100000352E+00 0.  1.
       -3    1    3    3    0  502 -0.66209703277E+03 -0.57184807251E+02  0.17973832463E+03  0.68843914657E+03  0.10100000352E+00 0. -1.
</event>
<event>
 5   0  0.3756664E-04  0.1395224E+04  0.7818609E-02  0.8957283E-01
        1   -1    0    0  501    0  0.00000000000E+00  0.00000000000E+00  0.12166272458E+04  0.12166272458E+04  0.50400001928E-02 0.  1.
       -1   -1    0    0    0  501  0.00000000000E+00  0.00000000000E+00 -0.40000978169E+03  0.40000978172E+03  0.50400001928E-02 0. -1.
    10030    2    1    2    0    0  0.00000000000E+00  0.00000000000E+00  0.81661746412E+03  0.16166370276E+04  0.13952244250E+04 0.  0.
        2    1    3    3  502    0  0.40024397673E+03 -0.42326166820E+03  0.85303733146E+03  0.10329658124E+04  0.25500000920E-02 0.  1.
       -2    1    3    3    0  502 -0.40024397673E+03  0.42326166820E+03 -0.36419867337E+02  0.58367121517E+03  0.25500000920E-02 0. -1.
</event>
<event>
 5   0  0.3977658E-04  0.1396469E+04  0.7818609E-02  0.8956379E-01
        1   -1    0    0  501    0  0.00000000000E+00  0.00000000000E+00  0.14863438508E+04  0.14863438508E+04  0.50400001928E-02 0. -1.
       -1   -1    0    0    0  501  0.00000000000E+00  0.00000000000E+00 -0.32800707848E+03  0.32800707852E+03  0.50400001928E-02 0.  1.
    10030    2    1    2    0    0  0.00000000000E+00  0.00000000000E+00  0.11583367723E+04  0.18143509293E+04  0.13964688384E+04 0.  0.
        5    1    3    3  502    0  0.61919718959E+03  0.25707460484E+03  0.32584384639E+03  0.74544537981E+03  0.46999998093E+01 0.  1.
       -5    1    3    3    0  502 -0.61919718959E+03 -0.25707460484E+03  0.83249292592E+03  0.10689055495E+04  0.46999998093E+01 0. -1.
</event>
<event>
 5   0  0.6895048E-04  0.1240462E+04  0.7818609E-02  0.9078159E-01
       -2   -1    0    0    0  501  0.00000000000E+00  0.00000000000E+00  0.18330431810E+03  0.18330431812E+03  0.25500000920E-02 0.  1.
        2   -1    0    0  501    0  0.00000000000E+00  0.00000000000E+00 -0.20986225432E+04  0.20986225432E+04  0.25500000920E-02 0. -1.
    10030    2    1    2    0    0  0.00000000000E+00  0.00000000000E+00 -0.19153182251E+04  0.22819268613E+04  0.12404621304E+04 0.  0.
        4    1    3    3  502    0 -0.21711132561E+03 -0.19588223543E+03  0.48537568251E+02  0.29641978054E+03  0.12699999809E+01 0.  1.
       -4    1    3    3    0  502  0.21711132561E+03  0.19588223543E+03 -0.19638557934E+04  0.19855070808E+04  0.12699999809E+01 0. -1.
</event>
<event>
 5   0  0.7065539E-04  0.1401411E+04  0.7818609E-02  0.8952798E-01
        2   -1    0    0  501    0  0.00000000000E+00  0.00000000000E+00  0.10324281062E+04  0.10324281062E+04  0.25500000920E-02 0.  1.
       -2   -1    0    0    0  501  0.00000000000E+00  0.00000000000E+00 -0.47556643375E+03  0.47556643376E+03  0.25500000920E-02 0. -1.
    10030    2    1    2    0    0  0.00000000000E+00  0.00000000000E+00  0.55686167241E+03  0.15079945399E+04  0.14014109355E+04 0.  0.
        1    1    3    3  502    0 -0.61545375230E+03 -0.83700161837E+02 -0.70581122856E+02  0.62511657572E+03  0.50400001928E-02 0. -1.
       -1    1    3    3    0  502  0.61545375230E+03  0.83700161837E+02  0.62744279527E+03  0.88287796420E+03  0.50400001928E-02 0.  1.
</event>
<event>
 5   0  0.3907093E-04  0.1396350E+04  0.7818609E-02  0.8956465E-01
        1   -1    0    0  501    0  0.00000000000E+00  0.00000000000E+00  0.12231538914E+04  0.12231538914E+04  0.50400001928E-02 0. -1.
       -1   -1    0    0    0  501  0.00000000000E+00  0.00000000000E+00 -0.39851765533E+03  0.39851765536E+03  0.50400001928E-02 0.  1.
    10030    2    1    2    0    0  0.00000000000E+00  0.00000000000E+00  0.82463623610E+03  0.16216715468E+04  0.13963501294E+04 0.  0.
        4    1    3    3  502    0 -0.15822082747E+03 -0.42120112890E+03  0.10323199435E+04  0.11261129161E+04  0.12699999809E+01 0. -1.
       -4    1    3    3    0  502  0.15822082747E+03  0.42120112890E+03 -0.20768370738E+03  0.49555863068E+03  0.12699999809E+01 0.  1.
</event>
<event>
 5   0  0.6870835E-04  0.1397749E+04  0.7818609E-02  0.8955449E-01
       -2   -1    0    0    0  501  0.00000000000E+00  0.00000000000E+00  0.37840623922E+03  0.37840623923E+03  0.25500000920E-02 0. -1.
        2   -1    0    0  501    0  0.00000000000E+00  0.00000000000E+00 -0.12907441823E+04  0.12907441823E+04  0.25500000920E-02 0.  1.
    10030    2    1    2    0    0  0.00000000000E+00  0.00000000000E+00 -0.91233794311E+03  0.16691504216E+04  0.13977491218E+04 0.  0.
        2    1    3    3  502    0 -0.63006748656E+03  0.19976651204E+03 -0.18507929158E+03  0.68640078754E+03  0.25500000920E-02 0. -1.
       -2    1    3    3    0  502  0.63006748656E+03 -0.19976651204E+03 -0.72725865153E+03  0.98274963403E+03  0.25500000920E-02 0.  1.
</event>
<event>
 5   0  0.3977658E-04  0.1343687E+04  0.7818609E-02  0.8995620E-01
       -1   -1    0    0    0  501  0.00000000000E+00  0.00000000000E+00  0.11660097523E+04  0.11660097523E+04  0.50400001928E-02 0.  1.
        1   -1    0    0  501    0  0.00000000000E+00  0.00000000000E+00 -0.38710992658E+03  0.38710992662E+03  0.50400001928E-02 0. -1.
    10030    2    1    2    0    0  0.00000000000E+00  0.00000000000E+00  0.77889982569E+03  0.15531196789E+04  0.13436873887E+04 0.  0.
        5    1    3    3  502    0  0.14493217836E+02 -0.27638699755E+03 -0.31813518964E+03  0.42170121492E+03  0.46999998093E+01 0. -1.
       -5    1    3    3    0  502 -0.14493217836E+02  0.27638699755E+03  0.10970350153E+04  0.11314184640E+04  0.46999998093E+01 0.  1.
</event>
<event>
 5   0  0.6870835E-04  0.1401141E+04  0.7818609E-02  0.8952993E-01
       -2   -1    0    0    0  501  0.00000000000E+00  0.00000000000E+00  0.97542566912E+03  0.97542566913E+03  0.25500000920E-02 0.  1.
        2   -1    0    0  501    0  0.00000000000E+00  0.00000000000E+00 -0.50316400365E+03  0.50316400365E+03  0.25500000920E-02 0. -1.
    10030    2    1    2    0    0  0.00000000000E+00  0.00000000000E+00  0.47226166548E+03  0.14785896728E+04  0.14011410849E+04 0.  0.
        2    1    3    3  502    0 -0.51767832826E+03 -0.43851931217E+03  0.42045408144E+03  0.79816769748E+03  0.25500000920E-02 0. -1.
       -2    1    3    3    0  502  0.51767832826E+03  0.43851931217E+03  0.51807584039E+02  0.68042197530E+03  0.25500000920E-02 0.  1.
</event>
<event>
 5   0  0.3756664E-04  0.1409415E+04  0.7818609E-02  0.8947031E-01
        1   -1    0    0  501    0  0.00000000000E+00  0.00000000000E+00  0.15648023853E+04  0.15648023853E+04  0.50400001928E-02 0. -1.
       -1   -1    0    0    0  501  0.00000000000E+00  0.00000000000E+00 -0.31736466343E+03  0.31736466347E+03  0.50400001928E-02 0.  1.
    10030    2    1    2    0    0  0.00000000000E+00  0.00000000000E+00  0.12474377218E+04  0.18821670487E+04  0.14094154567E+04 0.  0.
        2    1    3    3  502    0  0.69703170639E+03  0.64980239095E+02  0.51574464873E+03  0.86952180759E+03  0.25500000920E-02 0.  1.
       -2    1    3    3    0  502 -0.69703170639E+03 -0.64980239095E+02  0.73169307310E+03  0.10126452411E+04  0.25500000920E-02 0. -1.
</event>
<event>
 5   0  0.3756664E-04  0.1467461E+04  0.7818609E-02  0.8906384E-01
       -1   -1    0    0    0  501  0.00000000000E+00  0.00000000000E+00  0.84375966915E+03  0.84375966917E+03  0.50400001928E-02 0. -1.
        1   -1    0    0  501    0  0.00000000000E+00  0.00000000000E+00 -0.63804977707E+03  0.63804977709E+03  0.50400001928E-02 0.  1.
    10030    2    1    2    0    0  0.00000000000E+00  0.00000000000E+00  0.20570989208E+03  0.14818094463E+04  0.14674613028E+04 0.  0.
        2    1    3    3  502    0 -0.10420069881E+03  0.64056603760E+03  0.44851469180E+03  0.78889039981E+03  0.25500000920E-02 0. -1.
       -2    1    3    3    0  502  0.10420069881E+03 -0.64056603760E+03 -0.24280479972E+03  0.69291904645E+03  0.25500000920E-02 0.  1.
</event>
<event>
 5   0  0.3756664E-04  0.1399654E+04  0.7818609E-02  0.8954069E-01
       -1   -1    0    0    0  501  0.00000000000E+00  0.00000000000E+00  0.46581142016E+03  0.46581142018E+03  0.50400001928E-02 0.  1.
        1   -1    0    0  501    0  0.00000000000E+00  0.00000000000E+00 -0.10514082890E+04  0.10514082890E+04  0.50400001928E-02 0. -1.
    10030    2    1    2    0    0  0.00000000000E+00  0.00000000000E+00 -0.58559686885E+03  0.15172197092E+04  0.13996542263E+04 0.  0.
        2    1    3    3  502    0 -0.27780672354E+02  0.58526995893E+03 -0.70762392120E+03  0.91871883862E+03  0.25500000920E-02 0. -1.
       -2    1    3    3    0  502  0.27780672354E+02 -0.58526995893E+03  0.12202705235E+03  0.59850087058E+03  0.25500000920E-02 0.  1.
</event>
<event>
 5   0  0.6870835E-04  0.1366173E+04  0.7818609E-02  0.8978675E-01
       -2   -1    0    0    0  501  0.00000000000E+00  0.00000000000E+00  0.25650605836E+03  0.25650605837E+03  0.25500000920E-02 0. -1.
        2   -1    0    0  501    0  0.00000000000E+00  0.00000000000E+00 -0.18190895344E+04  0.18190895344E+04  0.25500000920E-02 0.  1.
    10030    2    1    2    0    0  0.00000000000E+00  0.00000000000E+00 -0.15625834760E+04  0.20755955928E+04  0.13661734682E+04 0.  0.
        2    1    3    3  502    0 -0.31818813839E+03 -0.67899535073E+02 -0.16938112055E+04  0.17247754747E+04  0.25500000920E-02 0.  1.
       -2    1    3    3    0  502  0.31818813839E+03  0.67899535073E+02  0.13122772944E+03  0.35082011808E+03  0.25500000920E-02 0. -1.
</event>
<event>
 5   0  0.3977658E-04  0.1405957E+04  0.7818609E-02  0.8949518E-01
       -1   -1    0    0    0  501  0.00000000000E+00  0.00000000000E+00  0.19979071505E+03  0.19979071511E+03  0.50400001928E-02 0.  1.
        1   -1    0    0  501    0  0.00000000000E+00  0.00000000000E+00 -0.24734806663E+04  0.24734806663E+04  0.50400001928E-02 0. -1.
    10030    2    1    2    0    0  0.00000000000E+00  0.00000000000E+00 -0.22736899512E+04  0.26732713814E+04  0.14059565727E+04 0.  0.
        5    1    3    3  502    0 -0.20316811962E+03  0.66712226749E+03 -0.13050613067E+04  0.14797082512E+04  0.46999998093E+01 0. -1.
       -5    1    3    3    0  502  0.20316811962E+03 -0.66712226749E+03 -0.96862864457E+03  0.11935631302E+04  0.46999998093E+01 0.  1.
</event>
<event>
 5   0  0.6959748E-04  0.1407773E+04  0.7818609E-02  0.8948211E-01
       -2   -1    0    0    0  501  0.00000000000E+00  0.00000000000E+00  0.58120645732E+03  0.58120645732E+03  0.25500000920E-02 0. -1.
        2   -1    0    0  501    0  0.00000000000E+00  0.00000000000E+00 -0.85246179636E+03  0.85246179637E+03  0.25500000920E-02 0.  1.
    10030    2    1    2    0    0  0.00000000000E+00  0.00000000000E+00 -0.27125533904E+03  0.14336682537E+04  0.14077731361E+04 0.  0.
        5    1    3    3  502    0  0.52320711814E+03 -0.43000154880E+03  0.59700240916E+02  0.67987736336E+03  0.46999998093E+01 0. -1.
       -5    1    3    3    0  502 -0.52320711814E+03  0.43000154880E+03 -0.33095557996E+03  0.75379089033E+03  0.46999998093E+01 0.  1.
</event>
<event>
 5   0  0.6959748E-04  0.1395902E+04  0.7818609E-02  0.8956790E-01
        2   -1    0    0  501    0  0.00000000000E+00  0.00000000000E+00  0.69147525931E+03  0.69147525931E+03  0.25500000920E-02 0.  1.
       -2   -1    0    0    0  501  0.00000000000E+00  0.00000000000E+00 -0.70448717613E+03  0.70448717613E+03  0.25500000920E-02 0. -1.
    10030    2    1    2    0    0  0.00000000000E+00  0.00000000000E+00 -0.13011916821E+02  0.13959624354E+04  0.13959017914E+04 0.  0.
        5    1    3    3  502    0  0.36758244791E+03 -0.38625963299E+03  0.44384681900E+03  0.69378343078E+03  0.46999998093E+01 0.  1.
       -5    1    3    3    0  502 -0.36758244791E+03  0.38625963299E+03 -0.45685873583E+03  0.70217900466E+03  0.46999998093E+01 0. -1.
</event>
<event>
 5   0  0.6895048E-04  0.1397352E+04  0.7818609E-02  0.8955737E-01
       -2   -1    0    0    0  501  0.00000000000E+00  0.00000000000E+00  0.33077925577E+03  0.33077925578E+03  0.25500000920E-02 0. -1.
        2   -1    0    0  501    0  0.00000000000E+00  0.00000000000E+00 -0.14757523192E+04  0.14757523192E+04  0.25500000920E-02 0.  1.
    10030    2    1    2    0    0  0.00000000000E+00  0.00000000000E+00 -0.11449730635E+04  0.18065315750E+04  0.13973521444E+04 0.  0.
        4    1    3    3  502    0 -0.12963301209E+03  0.64407677558E+02 -0.14561524829E+04  0.14633300151E+04  0.12699999809E+01 0.  1.
       -4    1    3    3    0  502  0.12963301209E+03 -0.64407677558E+02  0.31117941943E+03  0.34320155991E+03  0.12699999809E+01 0. -1.
</event>
<event>
 5   0  0.3907093E-04  0.1397531E+04  0.7818609E-02  0.8955608E-01
       -1   -1    0    0    0  501  0.00000000000E+00  0.00000000000E+00  0.41688175728E+03  0.41688175731E+03  0.50400001928E-02 0.  1.
        1   -1    0    0  501    0  0.00000000000E+00  0.00000000000E+00 -0.11712510064E+04  0.11712510064E+04  0.50400001928E-02 0. -1.
    10030    2    1    2    0    0  0.00000000000E+00  0.00000000000E+00 -0.75436924911E+03  0.15881327637E+04  0.13975309339E+04 0.  0.
        4    1    3    3  502    0  0.17729299856E+03  0.55564005843E+03  0.60143222585E+02  0.58633395092E+03  0.12699999809E+01 0.  1.
       -4    1    3    3    0  502 -0.17729299856E+03 -0.55564005843E+03 -0.81451247169E+03  0.10017988128E+04  0.12699999809E+01 0. -1.
</event>
<event>
 5   0  0.3756664E-04  0.1396107E+04  0.7818609E-02  0.8956642E-01
       -1   -1    0    0    0  501  0.00000000000E+00  0.00000000000E+00  0.72540240903E+03  0.72540240905E+03  0.50400001928E-02 0. -1.
        1   -1    0    0  501    0  0.00000000000E+00  0.00000000000E+00 -0.67173532196E+03  0.67173532198E+03  0.50400001928E-02 0.  1.
    10030    2    1    2    0    0  0.00000000000E+00  0.00000000000E+00  0.53667087077E+02  0.13971377310E+04  0.13961066160E+04 0.  0.
        2    1    3    3  502    0  0.43276042328E+03  0.28479876970E+03  0.49503215598E+03  0.71655338855E+03  0.25500000920E-02 0. -1.
       -2    1    3    3    0  502 -0.43276042328E+03 -0.28479876970E+03 -0.44136506890E+03  0.68058434248E+03  0.25500000920E-02 0.  1.
</event>
<event>
 5   0  0.6870835E-04  0.1398276E+04  0.7818609E-02  0.8955067E-01
       -2   -1    0    0    0  501  0.00000000000E+00  0.00000000000E+00  0.42657791360E+03  0.42657791361E+03  0.25500000920E-02 0.  1.
        2   -1    0    0  501    0  0.00000000000E+00  0.00000000000E+00 -0.11458497566E+04  0.11458497566E+04  0.25500000920E-02 0. -1.
    10030    2    1    2    0    0  0.00000000000E+00  0.00000000000E+00 -0.71927184297E+03  0.15724276702E+04  0.13982763653E+04 0.  0.
        2    1    3    3  502    0  0.47821095543E+02  0.48929504021E+03  0.19936434688E+03  0.53051167411E+03  0.25500000920E-02 0.  1.
       -2    1    3    3    0  502 -0.47821095543E+02 -0.48929504021E+03 -0.91863618985E+03  0.10419159961E+04  0.25500000920E-02 0. -1.
</event>
<event>
 5   0  0.3756664E-04  0.1405309E+04  0.7818609E-02  0.8949985E-01
       -1   -1    0    0    0  501  0.00000000000E+00  0.00000000000E+00  0.69905255574E+03  0.69905255576E+03  0.50400001928E-02 0.  1.
        1   -1    0    0  501    0  0.00000000000E+00  0.00000000000E+00 -0.70627479740E+03  0.70627479742E+03  0.50400001928E-02 0. -1.
    10030    2    1    2    0    0  0.00000000000E+00  0.00000000000E+00 -0.72222416613E+01  0.14053273532E+04  0.14053087948E+04 0.  0.
        2    1    3    3  502    0  0.31797514373E+03 -0.17546645924E+03 -0.60513924851E+03  0.70575504281E+03  0.25500000920E-02 0. -1.
       -2    1    3    3    0  502 -0.31797514373E+03  0.17546645924E+03  0.59791700685E+03  0.69957231037E+03  0.25500000920E-02 0.  1.
</event>
<event>
 5   0  0.7296966E-04  0.1401656E+04  0.7818609E-02  0.8952621E-01
        2   -1    0    0  501    0  0.00000000000E+00  0.00000000000E+00  0.50206362817E+03  0.50206362817E+03  0.25500000920E-02 0.  1.
       -2   -1    0    0    0  501  0.00000000000E+00  0.00000000000E+00 -0.97828158171E+03  0.97828158171E+03  0.25500000920E-02 0. -1.
    10030    2    1    2    0    0  0.00000000000E+00  0.00000000000E+00 -0.47621795354E+03  0.14803452099E+04  0.14016555929E+04 0.  0.
        3    1    3    3  502    0  0.25094627947E+03  0.65399757719E+03 -0.26107181079E+03  0.74755960748E+03  0.10100000352E+00 0.  1.
       -3    1    3    3    0  502 -0.25094627947E+03 -0.65399757719E+03 -0.21514614276E+03  0.73278560241E+03  0.10100000352E+00 0. -1.
</event>
<event>
 5   0  0.6959748E-04  0.1398258E+04  0.7818609E-02  0.8955080E-01
       -2   -1    0    0    0  501  0.00000000000E+00  0.00000000000E+00  0.40881810011E+03  0.40881810012E+03  0.25500000920E-02 0. -1.
        2   -1    0    0  501    0  0.00000000000E+00  0.00000000000E+00 -0.11955969142E+04  0.11955969142E+04  0.25500000920E-02 0.  1.
    10030    2    1    2    0    0  0.00000000000E+00  0.00000000000E+00 -0.78677881413E+03  0.16044150144E+04  0.13982584296E+04 0.  0.
        5    1    3    3  502    0 -0.11635629167E+03 -0.41611622209E+03 -0.10240296534E+04  0.11114631428E+04  0.46999998093E+01 0.  1.
       -5    1    3    3    0  502  0.11635629167E+03  0.41611622209E+03  0.23725083925E+03  0.49295187151E+03  0.46999998093E+01 0. -1.
</event>
<event>
 5   0  0.3977658E-04  0.1407383E+04  0.7818609E-02  0.8948492E-01
        1   -1    0    0  501    0  0.00000000000E+00  0.00000000000E+00  0.85740296686E+03  0.85740296687E+03  0.50400001928E-02 0.  1.
       -1   -1    0    0    0  501  0.00000000000E+00  0.00000000000E+00 -0.57753690243E+03  0.57753690245E+03  0.50400001928E-02 0. -1.
    10030    2    1    2    0    0  0.00000000000E+00  0.00000000000E+00  0.27986606443E+03  0.14349398693E+04  0.14073831797E+04 0.  0.
        5    1    3    3  502    0 -0.12502335441E+03  0.31426175183E+03 -0.48921354612E+03  0.59476320625E+03  0.46999998093E+01 0. -1.
       -5    1    3    3    0  502  0.12502335441E+03 -0.31426175183E+03  0.76907961055E+03  0.84017666307E+03  0.46999998093E+01 0.  1.
</event>
<event>
 5   0  0.3907270E-04  0.1391148E+04  0.7818609E-02  0.8960251E-01
        1   -1    0    0  501    0  0.00000000000E+00  0.00000000000E+00  0.83893111805E+03  0.83893111806E+03  0.50400001928E-02 0. -1.
       -1   -1    0    0    0  501  0.00000000000E+00  0.00000000000E+00 -0.57671378116E+03  0.57671378119E+03  0.50400001928E-02 0.  1.
    10030    2    1    2    0    0  0.00000000000E+00  0.00000000000E+00  0.26221733688E+03  0.14156448992E+04  0.13911479249E+04 0.  0.
        3    1    3    3  502    0  0.63929959428E+03  0.21280114765E+03  0.30687787035E+03  0.74037986007E+03  0.10100000352E+00 0. -1.
       -3    1    3    3    0  502 -0.63929959428E+03 -0.21280114765E+03 -0.44660533467E+02  0.67526503918E+03  0.10100000352E+00 0.  1.
</event>
<event>
 5   0  0.7296966E-04  0.1399241E+04  0.7818609E-02  0.8954368E-01
       -2   -1    0    0    0  501  0.00000000000E+00  0.00000000000E+00  0.26419219477E+03  0.26419219479E+03  0.25500000920E-02 0.  1.
        2   -1    0    0  501    0  0.00000000000E+00  0.00000000000E+00 -0.18527010860E+04  0.18527010860E+04  0.25500000920E-02 0. -1.
    10030    2    1    2    0    0  0.00000000000E+00  0.00000000000E+00 -0.15885088913E+04  0.21168932808E+04  0.13992414605E+04 0.  0.
        3    1    3    3  502    0  0.48119178843E+03  0.33955387842E+03 -0.13656105105E+04  0.14871901190E+04  0.10100000352E+00 0. -1.
       -3    1    3    3    0  502 -0.48119178843E+03 -0.33955387842E+03 -0.22289838077E+03  0.62970316178E+03  0.10100000352E+00 0.  1.
</event>
<event>
 5   0  0.7065539E-04  0.1343203E+04  0.7818609E-02  0.8995989E-01
       -2   -1    0    0    0  501  0.00000000000E+00  0.00000000000E+00  0.31416793326E+03  0.31416793327E+03  0.25500000920E-02 0.  1.
        2   -1    0    0  501    0  0.00000000000E+00  0.00000000000E+00 -0.14356922579E+04  0.14356922579E+04  0.25500000920E-02 0. -1.
    10030    2    1    2    0    0  0.00000000000E+00  0.00000000000E+00 -0.11215243247E+04  0.17498601912E+04  0.13432028432E+04 0.  0.
        1    1    3    3  502    0  0.28179159848E+03 -0.60927544448E+03 -0.58763163086E+03  0.89215133572E+03  0.50400001928E-02 0. -1.
       -1    1    3    3    0  502 -0.28179159848E+03  0.60927544448E+03 -0.53389269382E+03  0.85770885548E+03  0.50400001928E-02 0.  1.
</event>
<event>
 5   0  0.7065539E-04  0.1381149E+04  0.7818609E-02  0.8967578E-01
       -2   -1    0    0    0  501  0.00000000000E+00  0.00000000000E+00  0.67269892855E+03  0.67269892856E+03  0.25500000920E-02 0.  1.
        2   -1    0    0  501    0  0.00000000000E+00  0.00000000000E+00 -0.70892536941E+03  0.70892536942E+03  0.25500000920E-02 0. -1.
    10030    2    1    2    0    0  0.00000000000E+00  0.00000000000E+00 -0.36226440860E+02  0.13816242980E+04  0.13811492844E+04 0.  0.
        1    1    3    3  502    0 -0.16393365603E+03 -0.45264294065E+03 -0.51339304619E+03  0.70379847627E+03  0.50400001928E-02 0. -1.
       -1    1    3    3    0  502  0.16393365603E+03  0.45264294065E+03  0.47716660533E+03  0.67782582170E+03  0.50400001928E-02 0.  1.
</event>
<event>
 5   0  0.6870835E-04  0.1397119E+04  0.7818609E-02  0.8955906E-01
        2   -1    0    0  501    0  0.00000000000E+00  0.00000000000E+00  0.12592912641E+04  0.12592912641E+04  0.25500000920E-02 0. -1.
       -2   -1    0    0    0  501  0.00000000000E+00  0.00000000000E+00 -0.38750819110E+03  0.38750819110E+03  0.25500000920E-02 0.  1.
    10030    2    1    2    0    0  0.00000000000E+00  0.00000000000E+00  0.87178307298E+03  0.16467994552E+04  0.13971194363E+04 0.  0.
        2    1    3    3  502    0 -0.35846211567E+03  0.59990487073E+02  0.11390709214E+04  0.11956489915E+04  0.25500000920E-02 0. -1.
       -2    1    3    3    0  502  0.35846211567E+03 -0.59990487073E+02 -0.26728784845E+03  0.45115046365E+03  0.25500000920E-02 0.  1.
</event>
<event>
 5   0  0.3784219E-04  0.1385623E+04  0.7818609E-02  0.8964291E-01
        1   -1    0    0  501    0  0.00000000000E+00  0.00000000000E+00  0.75656058582E+03  0.75656058583E+03  0.50400001928E-02 0. -1.
       -1   -1    0    0    0  501  0.00000000000E+00  0.00000000000E+00 -0.63443416552E+03  0.63443416554E+03  0.50400001928E-02 0.  1.
    10030    2    1    2    0    0  0.00000000000E+00  0.00000000000E+00  0.12212642030E+03  0.13909947514E+04  0.13856231579E+04 0.  0.
        1    1    3    3  502    0  0.42468508310E+03  0.30753712332E+03 -0.39351823861E+03  0.65558607838E+03  0.50400001928E-02 0.  1.
       -1    1    3    3    0  502 -0.42468508310E+03 -0.30753712332E+03  0.51564465890E+03  0.73540867299E+03  0.50400001928E-02 0. -1.
</event>
<event>
 5   0  0.7065539E-04  0.1393724E+04  0.7818609E-02  0.8958374E-01
        2   -1    0    0  501    0  0.00000000000E+00  0.00000000000E+00  0.88899016464E+03  0.88899016465E+03  0.25500000920E-02 0.  1.
       -2   -1    0    0    0  501  0.00000000000E+00  0.00000000000E+00 -0.54625642679E+03  0.54625642680E+03  0.25500000920E-02 0. -1.
    10030    2    1    2    0    0  0.00000000000E+00  0.00000000000E+00  0.34273373785E+03  0.14352465914E+04  0.13937239193E+04 0.  0.
        1    1    3    3  502    0  0.53800978411E+03  0.38973865356E+03 -0.45295830400E+02  0.66588471837E+03  0.50400001928E-02 0. -1.
       -1    1    3    3    0  502 -0.53800978411E+03 -0.38973865356E+03  0.38802956825E+03  0.76936187308E+03  0.50400001928E-02 0.  1.
</event>
<event>
 5   0  0.6895048E-04  0.1394453E+04  0.7818609E-02  0.8957844E-01
       -2   -1    0    0    0  501  0.00000000000E+00  0.00000000000E+00  0.47892142987E+03  0.47892142988E+03  0.25500000920E-02 0.  1.
        2   -1    0    0  501    0  0.00000000000E+00  0.00000000000E+00 -0.10150405929E+04  0.10150405929E+04  0.25500000920E-02 0. -1.
    10030    2    1    2    0    0  0.00000000000E+00  0.00000000000E+00 -0.53611916300E+03  0.14939620228E+04  0.13944528563E+04 0.  0.
        4    1    3    3  502    0 -0.63914610434E+03 -0.47644523332E+02 -0.56213851058E+03  0.85251337894E+03  0.12699999809E+01 0. -1.
       -4    1    3    3    0  502  0.63914610434E+03  0.47644523332E+02  0.26019347583E+02  0.64144864381E+03  0.12699999809E+01 0.  1.
</event>
<event>
 5   0  0.7296966E-04  0.1404421E+04  0.7818609E-02  0.8950625E-01
        2   -1    0    0  501    0  0.00000000000E+00  0.00000000000E+00  0.98237867854E+03  0.98237867854E+03  0.25500000920E-02 0.  1.
       -2   -1    0    0    0  501  0.00000000000E+00  0.00000000000E+00 -0.50194422043E+03  0.50194422044E+03  0.25500000920E-02 0. -1.
    10030    2    1    2    0    0  0.00000000000E+00  0.00000000000E+00  0.48043445810E+03  0.14843228990E+04  0.14044205922E+04 0.  0.
        3    1    3    3  502    0  0.66916076263E+03 -0.53429712754E+02  0.45802045020E+03  0.81265835592E+03  0.10100000352E+00 0. -1.
       -3    1    3    3    0  502 -0.66916076263E+03  0.53429712754E+02  0.22414007904E+02  0.67166454306E+03  0.10100000352E+00 0.  1.
</event>
<event>
 5   0  0.3907270E-04  0.1399642E+04  0.7818609E-02  0.8954078E-01
        1   -1    0    0  501    0  0.00000000000E+00  0.00000000000E+00  0.64740192073E+03  0.64740192075E+03  0.50400001928E-02 0.  1.
       -1   -1    0    0    0  501  0.00000000000E+00  0.00000000000E+00 -0.75648426407E+03  0.75648426409E+03  0.50400001928E-02 0. -1.
    10030    2    1    2    0    0  0.00000000000E+00  0.00000000000E+00 -0.10908234335E+03  0.14038861848E+04  0.13996419050E+04 0.  0.
        3    1    3    3  502    0 -0.62590494304E+03  0.24353534842E+03  0.14273490837E+03  0.68661468665E+03  0.10100000352E+00 0.  1.
       -3    1    3    3    0  502  0.62590494304E+03 -0.24353534842E+03 -0.25181725172E+03  0.71727149819E+03  0.10100000352E+00 0. -1.
</event>
<event>
 5   0  0.2660250E-04  0.1400205E+04  0.7818609E-02  0.8953670E-01
       -4   -1    0    0    0  501  0.00000000000E+00  0.00000000000E+00  0.61686885833E+03  0.61687016565E+03  0.12699999809E+01 0. -1.
        4   -1    0    0  501    0  0.00000000000E+00  0.00000000000E+00 -0.79456414380E+03  0.79456515876E+03  0.12699999809E+01 0.  1.
    10030    2    1    2    0    0  0.00000000000E+00  0.00000000000E+00 -0.17769528547E+03  0.14114353244E+04  0.14002050066E+04 0.  0.
        5    1    3    3  502    0  0.13855105261E+03 -0.62639208720E+03 -0.37137761139E+03  0.74128730012E+03  0.46999998093E+01 0.  1.
       -5    1    3    3    0  502 -0.13855105261E+03  0.62639208720E+03  0.19368232592E+03  0.67014802429E+03  0.46999998093E+01 0. -1.
</event>
<event>
 5   0  0.7065539E-04  0.1407499E+04  0.7818609E-02  0.8948409E-01
        2   -1    0    0  501    0  0.00000000000E+00  0.00000000000E+00  0.16080371499E+04  0.16080371499E+04  0.25500000920E-02 0. -1.
       -2   -1    0    0    0  501  0.00000000000E+00  0.00000000000E+00 -0.30799227376E+03  0.30799227377E+03  0.25500000920E-02 0.  1.
    10030    2    1    2    0    0  0.00000000000E+00  0.00000000000E+00  0.13000448761E+04  0.19160294237E+04  0.14074985159E+04 0.  0.
        1    1    3    3  502    0  0.20820306968E+03 -0.26669536382E+03  0.14900545778E+04  0.15279848102E+04  0.50400001928E-02 0. -1.
       -1    1    3    3    0  502 -0.20820306968E+03  0.26669536382E+03 -0.19000970166E+03  0.38804461349E+03  0.50400001928E-02 0.  1.
</event>
<event>
 5   0  0.6895048E-04  0.1411738E+04  0.7818609E-02  0.8945365E-01
        2   -1    0    0  501    0  0.00000000000E+00  0.00000000000E+00  0.87561702394E+03  0.87561702394E+03  0.25500000920E-02 0. -1.
       -2   -1    0    0    0  501  0.00000000000E+00  0.00000000000E+00 -0.56902856510E+03  0.56902856511E+03  0.25500000920E-02 0.  1.
    10030    2    1    2    0    0  0.00000000000E+00  0.00000000000E+00  0.30658845883E+03  0.14446455890E+04  0.14117380759E+04 0.  0.
        4    1    3    3  502    0 -0.17560809590E+02 -0.18622568991E+03  0.84979259709E+03  0.87013646090E+03  0.12699999809E+01 0. -1.
       -4    1    3    3    0  502  0.17560809590E+02  0.18622568991E+03 -0.54320413826E+03  0.57450912815E+03  0.12699999809E+01 0.  1.
</event>
<event>
 5   0  0.7296966E-04  0.1402807E+04  0.7818609E-02  0.8951789E-01
       -2   -1    0    0    0  501  0.00000000000E+00  0.00000000000E+00  0.38149116459E+03  0.38149116459E+03  0.25500000920E-02 0.  1.
        2   -1    0    0  501    0  0.00000000000E+00  0.00000000000E+00 -0.12895886550E+04  0.12895886550E+04  0.25500000920E-02 0. -1.
    10030    2    1    2    0    0  0.00000000000E+00  0.00000000000E+00 -0.90809749039E+03  0.16710798196E+04  0.14028067263E+04 0.  0.
        3    1    3    3  502    0 -0.14462075970E+03  0.63343213621E+03 -0.76880505768E+03  0.10065846523E+04  0.10100000352E+00 0.  1.
       -3    1    3    3    0  502  0.14462075970E+03 -0.63343213621E+03 -0.13929243270E+03  0.66449516727E+03  0.10100000352E+00 0. -1.
</event>
<event>
 5   0  0.3784219E-04  0.1396596E+04  0.7818609E-02  0.8956286E-01
       -1   -1    0    0    0  501  0.00000000000E+00  0.00000000000E+00  0.40203975020E+03  0.40203975023E+03  0.50400001928E-02 0.  1.
        1   -1    0    0  501    0  0.00000000000E+00  0.00000000000E+00 -0.12128662453E+04  0.12128662454E+04  0.50400001928E-02 0. -1.
    10030    2    1    2    0    0  0.00000000000E+00  0.00000000000E+00 -0.81082649515E+03  0.16149059956E+04  0.13965964948E+04 0.  0.
        1    1    3    3  502    0 -0.33085806321E+03 -0.43791103907E+03  0.93798118708E+02  0.55680447486E+03  0.50400001928E-02 0.  1.
       -1    1    3    3    0  502  0.33085806321E+03  0.43791103907E+03 -0.90462461386E+03  0.10581015207E+04  0.50400001928E-02 0. -1.
</event>
<event>
 5   0  0.6870835E-04  0.1404014E+04  0.7818609E-02  0.8950918E-01
       -2   -1    0    0    0  501  0.00000000000E+00  0.00000000000E+00  0.28358926094E+03  0.28358926095E+03  0.25500000920E-02 0.  1.
        2   -1    0    0  501    0  0.00000000000E+00  0.00000000000E+00 -0.17377729093E+04  0.17377729094E+04  0.25500000920E-02 0. -1.
    10030    2    1    2    0    0  0.00000000000E+00  0.00000000000E+00 -0.14541836484E+04  0.20213621703E+04  0.14040138675E+04 0.  0.
        2    1    3    3  502    0  0.33053867673E+03 -0.36138930339E+03 -0.14511858468E+04  0.15315999502E+04  0.25500000920E-02 0. -1.
       -2    1    3    3    0  502 -0.33053867673E+03  0.36138930339E+03 -0.29978015815E+01  0.48976222010E+03  0.25500000920E-02 0.  1.
</event>
<event>
 5   0  0.3784219E-04  0.1366909E+04  0.7818609E-02  0.8978126E-01
        1   -1    0    0  501    0  0.00000000000E+00  0.00000000000E+00  0.14705705292E+04  0.14705705292E+04  0.50400001928E-02 0.  1.
       -1   -1    0    0    0  501  0.00000000000E+00  0.00000000000E+00 -0.31763862090E+03  0.31763862094E+03  0.50400001928E-02 0. -1.
    10030    2    1    2    0    0  0.00000000000E+00  0.00000000000E+00  0.11529319083E+04  0.17882091501E+04  0.13669089141E+04 0.  0.
        1    1    3    3  502    0  0.63868714753E+02  0.67930225880E+03  0.52447826538E+03  0.86058597619E+03  0.50400001928E-02 0. -1.
       -1    1    3    3    0  502 -0.63868714753E+02 -0.67930225880E+03  0.62845364290E+03  0.92762317394E+03  0.50400001928E-02 0.  1.
</event>
<event>
 5   0  0.3756664E-04  0.1402211E+04  0.7818609E-02  0.8952219E-01
       -1   -1    0    0    0  501  0.00000000000E+00  0.00000000000E+00  0.35861456774E+03  0.35861456778E+03  0.50400001928E-02 0. -1.
        1   -1    0    0  501    0  0.00000000000E+00  0.00000000000E+00 -0.13706896192E+04  0.13706896192E+04  0.50400001928E-02 0.  1.
    10030    2    1    2    0    0  0.00000000000E+00  0.00000000000E+00 -0.10120750515E+04  0.17293041870E+04  0.14022114895E+04 0.  0.
        2    1    3    3  502    0 -0.13816332299E+02 -0.14580406623E+03  0.33953874848E+03  0.36977868853E+03  0.25500000920E-02 0. -1.
       -2    1    3    3    0  502  0.13816332299E+02  0.14580406623E+03 -0.13516137999E+04  0.13595254985E+04  0.25500000920E-02 0.  1.
</event>
<event>
 5   0  0.6959748E-04  0.1386214E+04  0.7818609E-02  0.8963858E-01
       -2   -1    0    0    0  501  0.00000000000E+00  0.00000000000E+00  0.40685979734E+03  0.40685979735E+03  0.25500000920E-02 0.  1.
        2   -1    0    0  501    0  0.00000000000E+00  0.00000000000E+00 -0.11807444412E+04  0.11807444412E+04  0.25500000920E-02 0. -1.
    10030    2    1    2    0    0  0.00000000000E+00  0.00000000000E+00 -0.77388464386E+03  0.15876042386E+04  0.13862141885E+04 0.  0.
        5    1    3    3  502    0  0.44008251351E+03 -0.45245798453E+03 -0.71486979791E+03  0.95365180460E+03  0.46999998093E+01 0. -1.
       -5    1    3    3    0  502 -0.44008251351E+03  0.45245798453E+03 -0.59014845948E+02  0.63395243395E+03  0.46999998093E+01 0.  1.
</event>
<event>
 5   0  0.3784219E-04  0.1411729E+04  0.7818609E-02  0.8945372E-01
       -1   -1    0    0    0  501  0.00000000000E+00  0.00000000000E+00  0.39252513453E+03  0.39252513456E+03  0.50400001928E-02 0. -1.
        1   -1    0    0  501    0  0.00000000000E+00  0.00000000000E+00 -0.12693315092E+04  0.12693315092E+04  0.50400001928E-02 0.  1.
    10030    2    1    2    0    0  0.00000000000E+00  0.00000000000E+00 -0.87680637466E+03  0.16618566438E+04  0.14117287579E+04 0.  0.
        1    1    3    3  502    0 -0.51932157587E+03  0.37019976045E+03 -0.82315449323E+02  0.64305411516E+03  0.50400001928E-02 0.  1.
       -1    1    3    3    0  502  0.51932157587E+03 -0.37019976045E+03 -0.79449092534E+03  0.10188025286E+04  0.50400001928E-02 0. -1.
</event>
<event>
 5   0  0.6895048E-04  0.1399221E+04  0.7818609E-02  0.8954383E-01
       -2   -1    0    0    0  501  0.00000000000E+00  0.00000000000E+00  0.81103382127E+03  0.81103382128E+03  0.25500000920E-02 0.  1.
        2   -1    0    0  501    0  0.00000000000E+00  0.00000000000E+00 -0.60349472696E+03  0.60349472697E+03  0.25500000920E-02 0. -1.
    10030    2    1    2    0    0  0.00000000000E+00  0.00000000000E+00  0.20753909431E+03  0.14145285482E+04  0.13992206896E+04 0.  0.
        4    1    3    3  502    0  0.63069509790E+03  0.60094268583E+02  0.40377430331E+03  0.75128085863E+03  0.12699999809E+01 0. -1.
       -4    1    3    3    0  502 -0.63069509790E+03 -0.60094268583E+02 -0.19623520900E+03  0.66324768961E+03  0.12699999809E+01 0.  1.
</event>
<event>
 5   0  0.3977658E-04  0.1392840E+04  0.7818609E-02  0.8959018E-01
        1   -1    0    0  501    0  0.00000000000E+00  0.00000000000E+00  0.10117266994E+04  0.10117266995E+04  0.50400001928E-02 0.  1.
       -1   -1    0    0    0  501  0.00000000000E+00  0.00000000000E+00 -0.47937896531E+03  0.47937896534E+03  0.50400001928E-02 0. -1.
    10030    2    1    2    0    0  0.00000000000E+00  0.00000000000E+00  0.53234773413E+03  0.14911056648E+04  0.13928395434E+04 0.  0.
        5    1    3    3  502    0 -0.16191054859E+03 -0.63447226578E+03  0.51998324226E+03  0.83616669631E+03  0.46999998093E+01 0.  1.
       -5    1    3    3    0  502  0.16191054859E+03  0.63447226578E+03  0.12364491869E+02  0.65493896849E+03  0.46999998093E+01 0. -1.
</event>
<event>
 5   0  0.7296966E-04  0.1393607E+04  0.7818609E-02  0.8958459E-01
       -2   -1    0    0    0  501  0.00000000000E+00  0.00000000000E+00  0.33504815989E+03  0.33504815990E+03  0.25500000920E-02 0. -1.
        2   -1    0    0  501    0  0.00000000000E+00  0.00000000000E+00 -0.14491492656E+04  0.14491492656E+04  0.25500000920E-02 0.  1.
    10030    2    1    2    0    0  0.00000000000E+00  0.00000000000E+00 -0.11141011057E+04  0.17841974255E+04  0.13936065368E+04 0.  0.
        3    1    3    3  502    0 -0.45062761744E+03 -0.13655386445E+03 -0.12146458715E+04  0.13027190068E+04  0.10100000352E+00 0.  1.
       -3    1    3    3    0  502  0.45062761744E+03  0.13655386445E+03  0.10054476577E+03  0.48147841865E+03  0.10100000352E+00 0. -1.
</event>
<event>
 5   0  0.7296966E-04  0.1395642E+04  0.7818609E-02  0.8956979E-01
       -2   -1    0    0    0  501  0.00000000000E+00  0.00000000000E+00  0.50804521807E+03  0.50804521807E+03  0.25500000920E-02 0.  1.
        2   -1    0    0  501    0  0.00000000000E+00  0.00000000000E+00 -0.95848596771E+03  0.95848596772E+03  0.25500000920E-02 0. -1.
    10030    2    1    2    0    0  0.00000000000E+00  0.00000000000E+00 -0.45044074965E+03  0.14665311858E+04  0.13956420924E+04 0.  0.
        3    1    3    3  502    0  0.59822713696E+03  0.35875258947E+03 -0.24557091654E+03  0.73951620206E+03  0.10100000352E+00 0. -1.
       -3    1    3    3    0  502 -0.59822713696E+03 -0.35875258947E+03 -0.20486983310E+03  0.72701498373E+03  0.10100000352E+00 0.  1.
</event>
<event>
 5   0  0.3907270E-04  0.1363181E+04  0.7818609E-02  0.8980910E-01
       -1   -1    0    0    0  501  0.00000000000E+00  0.00000000000E+00  0.67984190249E+03  0.67984190251E+03  0.50400001928E-02 0.  1.
        1   -1    0    0  501    0  0.00000000000E+00  0.00000000000E+00 -0.68334398056E+03  0.68334398058E+03  0.50400001928E-02 0. -1.
    10030    2    1    2    0    0  0.00000000000E+00  0.00000000000E+00 -0.35020780775E+01  0.13631858831E+04  0.13631813846E+04 0.  0.
        3    1    3    3  502    0 -0.58856963249E+03  0.11617452647E+03  0.32175447784E+03  0.68076184316E+03  0.10100000352E+00 0. -1.
       -3    1    3    3    0  502  0.58856963249E+03 -0.11617452647E+03 -0.32525655592E+03  0.68242403992E+03  0.10100000352E+00 0.  1.
</event>
<event>
 5   0  0.6870835E-04  0.1333595E+04  0.7818609E-02  0.9003340E-01
       -2   -1    0    0    0  501  0.00000000000E+00  0.00000000000E+00  0.36415174364E+03  0.36415174365E+03  0.25500000920E-02 0. -1.
        2   -1    0    0  501    0  0.00000000000E+00  0.00000000000E+00 -0.12209722297E+04  0.12209722297E+04  0.25500000920E-02 0.  1.
    10030    2    1    2    0    0  0.00000000000E+00  0.00000000000E+00 -0.85682048601E+03  0.15851239733E+04  0.13335953905E+04 0.  0.
        2    1    3    3  502    0 -0.55534119422E+03  0.94454021620E+02 -0.85248528103E+03  0.10217908585E+04  0.25500000920E-02 0.  1.
       -2    1    3    3    0  502  0.55534119422E+03 -0.94454021620E+02 -0.43352049788E+01  0.56333311478E+03  0.25500000920E-02 0. -1.
</event>
<event>
 5   0  0.6895048E-04  0.1395150E+04  0.7818609E-02  0.8957336E-01
        2   -1    0    0  501    0  0.00000000000E+00  0.00000000000E+00  0.18294023318E+04  0.18294023318E+04  0.25500000920E-02 0. -1.
       -2   -1    0    0    0  501  0.00000000000E+00  0.00000000000E+00 -0.26599462803E+03  0.26599462804E+03  0.25500000920E-02 0.  1.
    10030    2    1    2    0    0  0.00000000000E+00  0.00000000000E+00  0.15634077038E+04  0.20953969599E+04  0.13951504475E+04 0.  0.
        4    1    3    3  502    0  0.44201888583E+03 -0.12186033706E+03  0.15712867665E+04  0.16368183628E+04  0.12699999809E+01 0. -1.
       -4    1    3    3    0  502 -0.44201888583E+03  0.12186033706E+03 -0.78790627326E+01  0.45857859709E+03  0.12699999809E+01 0.  1.
</event>
<event>
 5   0  0.6895048E-04  0.1396114E+04  0.7818609E-02  0.8956636E-01
        2   -1    0    0  501    0  0.00000000000E+00  0.00000000000E+00  0.12185014158E+04  0.12185014158E+04  0.25500000920E-02 0.  1.
       -2   -1    0    0    0  501  0.00000000000E+00  0.00000000000E+00 -0.39990423256E+03  0.39990423257E+03  0.25500000920E-02 0. -1.
    10030    2    1    2    0    0  0.00000000000E+00  0.00000000000E+00  0.81859718328E+03  0.16184056484E+04  0.13961144274E+04 0.  0.
        4    1    3    3  502    0  0.80383449239E+02  0.56058439074E+03  0.88240564381E+03  0.10485025947E+04  0.12699999809E+01 0.  1.
       -4    1    3    3    0  502 -0.80383449239E+02 -0.56058439074E+03 -0.63808460527E+02  0.56990305368E+03  0.12699999809E+01 0. -1.
</event>
<event>
 5   0  0.3907093E-04  0.1403981E+04  0.7818609E-02  0.8950942E-01
       -1   -1    0    0    0  501  0.00000000000E+00  0.00000000000E+00  0.41567329370E+03  0.41567329373E+03  0.50400001928E-02 0. -1.
        1   -1    0    0  501    0  0.00000000000E+00  0.00000000000E+00 -0.11855238074E+04  0.11855238074E+04  0.50400001928E-02 0.  1.
    10030    2    1    2    0    0  0.00000000000E+00  0.00000000000E+00 -0.76985051370E+03  0.16011971011E+04  0.14039808913E+04 0.  0.
        4    1    3    3  502    0 -0.46813978045E+03  0.17108433284E+02 -0.98118614363E+03  0.10872789034E+04  0.12699999809E+01 0.  1.
       -4    1    3    3    0  502  0.46813978045E+03 -0.17108433284E+02  0.21133562993E+03  0.51391819768E+03  0.12699999809E+01 0. -1.
</event>
<event>
 5   0  0.3907270E-04  0.1338897E+04  0.7818609E-02  0.8999276E-01
       -1   -1    0    0    0  501  0.00000000000E+00  0.00000000000E+00  0.49861697436E+03  0.49861697439E+03  0.50400001928E-02 0.  1.
        1   -1    0    0  501    0  0.00000000000E+00  0.00000000000E+00 -0.89880888327E+03  0.89880888328E+03  0.50400001928E-02 0. -1.
    10030    2    1    2    0    0  0.00000000000E+00  0.00000000000E+00 -0.40019190890E+03  0.13974258577E+04  0.13388971072E+04 0.  0.
        3    1    3    3  502    0 -0.69756933611E+02  0.36002418057E+03  0.38445657400E+03  0.53130999226E+03  0.10100000352E+00 0.  1.
       -3    1    3    3    0  502  0.69756933611E+02 -0.36002418057E+03 -0.78464848291E+03  0.86611586541E+03  0.10100000352E+00 0. -1.
</event>
<event>
 5   0  0.3784219E-04  0.1343734E+04  0.7818609E-02  0.8995585E-01
        1   -1    0    0  501    0  0.00000000000E+00  0.00000000000E+00  0.61716923079E+03  0.61716923081E+03  0.50400001928E-02 0.  1.
       -1   -1    0    0    0  501  0.00000000000E+00  0.00000000000E+00 -0.73141254469E+03  0.73141254471E+03  0.50400001928E-02 0. -1.
    10030    2    1    2    0    0  0.00000000000E+00  0.00000000000E+00 -0.11424331391E+03  0.13485817755E+04  0.13437340773E+04 0.  0.
        1    1    3    3  502    0  0.22184432104E+03  0.32502674664E+03 -0.60364847309E+03  0.72058918108E+03  0.50400001928E-02 0. -1.
       -1    1    3    3    0  502 -0.22184432104E+03 -0.32502674664E+03  0.48940515918E+03  0.62799259443E+03  0.50400001928E-02 0.  1.
</event>
<event>
 5   0  0.3756664E-04  0.1400590E+04  0.7818609E-02  0.8953392E-01
       -1   -1    0    0    0  501  0.00000000000E+00  0.00000000000E+00  0.25731776897E+03  0.25731776902E+03  0.50400001928E-02 0. -1.
        1   -1    0    0  501    0  0.00000000000E+00  0.00000000000E+00 -0.19058645155E+04  0.19058645155E+04  0.50400001928E-02 0.  1.
    10030    2    1    2    0    0  0.00000000000E+00  0.00000000000E+00 -0.16485467466E+04  0.21631822846E+04  0.14005895975E+04 0.  0.
        2    1    3    3  502    0  0.34244804643E+03  0.33845087773E+03 -0.16096730612E+04  0.16801389899E+04  0.25500000920E-02 0.  1.
       -2    1    3    3    0  502 -0.34244804643E+03 -0.33845087773E+03 -0.38873685329E+02  0.48304329470E+03  0.25500000920E-02 0. -1.
</event>
<event>
 5   0  0.3784219E-04  0.1400299E+04  0.7818609E-02  0.8953602E-01
       -1   -1    0    0    0  501  0.00000000000E+00  0.00000000000E+00  0.26765815975E+03  0.26765815980E+03  0.50400001928E-02 0.  1.
        1   -1    0    0  501    0  0.00000000000E+00  0.00000000000E+00 -0.18314752280E+04  0.18314752280E+04  0.50400001928E-02 0. -1.
    10030    2    1    2    0    0  0.00000000000E+00  0.00000000000E+00 -0.15638170683E+04  0.20991333878E+04  0.14002989527E+04 0.  0.
        1    1    3    3  502    0 -0.56927664378E+03  0.39792644305E+03 -0.91419959958E+03  0.11481211866E+04  0.50400001928E-02 0. -1.
       -1    1    3    3    0  502  0.56927664378E+03 -0.39792644305E+03 -0.64961746871E+03  0.95101220124E+03  0.50400001928E-02 0.  1.
</event>
<event>
 5   0  0.6870835E-04  0.1390765E+04  0.7818609E-02  0.8960531E-01
        2   -1    0    0  501    0  0.00000000000E+00  0.00000000000E+00  0.66101263984E+03  0.66101263984E+03  0.25500000920E-02 0. -1.
       -2   -1    0    0    0  501  0.00000000000E+00  0.00000000000E+00 -0.73153949150E+03  0.73153949150E+03  0.25500000920E-02 0.  1.
    10030    2    1    2    0    0  0.00000000000E+00  0.00000000000E+00 -0.70526851661E+02  0.13925521313E+04  0.13907650419E+04 0.  0.
        2    1    3    3  502    0  0.17326560100E+03  0.54668061880E+03  0.35853086874E+03  0.67633205699E+03  0.25500000920E-02 0. -1.
       -2    1    3    3    0  502 -0.17326560100E+03 -0.54668061880E+03 -0.42905772040E+03  0.71622007436E+03  0.25500000920E-02 0.  1.
</event>
<event>
 5   0  0.3907093E-04  0.1444687E+04  0.7818609E-02  0.8922092E-01
       -1   -1    0    0    0  501  0.00000000000E+00  0.00000000000E+00  0.38592379265E+03  0.38592379268E+03  0.50400001928E-02 0. -1.
        1   -1    0    0  501    0  0.00000000000E+00  0.00000000000E+00 -0.13520281287E+04  0.13520281288E+04  0.50400001928E-02 0.  1.
    10030    2    1    2    0    0  0.00000000000E+00  0.00000000000E+00 -0.96610433610E+03  0.17379519214E+04  0.14446865726E+04 0.  0.
        4    1    3    3  502    0 -0.53903156242E+03 -0.45329804479E+03 -0.29003199277E+03  0.76167861492E+03  0.12699999809E+01 0. -1.
       -4    1    3    3    0  502  0.53903156242E+03  0.45329804479E+03 -0.67607234333E+03  0.97627330651E+03  0.12699999809E+01 0.  1.
</event>
<event>
 5   0  0.6870835E-04  0.1404293E+04  0.7818609E-02  0.8950717E-01
        2   -1    0    0  501    0  0.00000000000E+00  0.00000000000E+00  0.13386422202E+04  0.13386422202E+04  0.25500000920E-02 0.  1.
       -2   -1    0    0    0  501  0.00000000000E+00  0.00000000000E+00 -0.36829078273E+03  0.36829078274E+03  0.25500000920E-02 0. -1.
    10030    2    1    2    0    0  0.00000000000E+00  0.00000000000E+00  0.97035143752E+03  0.17069330030E+04  0.14042928343E+04 0.  0.
        2    1    3    3  502    0 -0.56854045314E+03 -0.84183785361E+02 -0.50903046690E+01  0.57476174872E+03  0.25500000920E-02 0. -1.
       -2    1    3    3    0  502  0.56854045314E+03  0.84183785361E+02  0.97544174219E+03  0.11321712543E+04  0.25500000920E-02 0.  1.
</event>
<event>
 5   0  0.3784219E-04  0.1395517E+04  0.7818609E-02  0.8957070E-01
        1   -1    0    0  501    0  0.00000000000E+00  0.00000000000E+00  0.15391254927E+04  0.15391254927E+04  0.50400001928E-02 0.  1.
       -1   -1    0    0    0  501  0.00000000000E+00  0.00000000000E+00 -0.31632689707E+03  0.31632689711E+03  0.50400001928E-02 0. -1.
    10030    2    1    2    0    0  0.00000000000E+00  0.00000000000E+00  0.12227985956E+04  0.18554523898E+04  0.13955168094E+04 0.  0.
        1    1    3    3  502    0  0.59872072502E+03 -0.22369668263E+03  0.23921146174E+03  0.68244328397E+03  0.50400001928E-02 0. -1.
       -1    1    3    3    0  502 -0.59872072502E+03  0.22369668263E+03  0.98358713387E+03  0.11730091058E+04  0.50400001928E-02 0.  1.
</event>
<event>
 5   0  0.3907270E-04  0.1398505E+04  0.7818609E-02  0.8954902E-01
        1   -1    0    0  501    0  0.00000000000E+00  0.00000000000E+00  0.16116023114E+04  0.16116023114E+04  0.50400001928E-02 0.  1.
       -1   -1    0    0    0  501  0.00000000000E+00  0.00000000000E+00 -0.30339603225E+03  0.30339603229E+03  0.50400001928E-02 0. -1.
    10030    2    1    2    0    0  0.00000000000E+00  0.00000000000E+00  0.13082062792E+04  0.19149983437E+04  0.13985045540E+04 0.  0.
        3    1    3    3  502    0  0.62331284195E+03 -0.60885228013E+02  0.22823001613E+03  0.66656947155E+03  0.10100000352E+00 0. -1.
       -3    1    3    3    0  502 -0.62331284195E+03  0.60885228013E+02  0.10799762630E+04  0.12484288722E+04  0.10100000352E+00 0.  1.
</event>
<event>
 5   0  0.6870835E-04  0.1397280E+04  0.7818609E-02  0.8955790E-01
        2   -1    0    0  501    0  0.00000000000E+00  0.00000000000E+00  0.36996099268E+03  0.36996099269E+03  0.25500000920E-02 0.  1.
       -2   -1    0    0    0  501  0.00000000000E+00  0.00000000000E+00 -0.13193223229E+04  0.13193223229E+04  0.25500000920E-02 0. -1.
    10030    2    1    2    0    0  0.00000000000E+00  0.00000000000E+00 -0.94936133018E+03  0.16892833155E+04  0.13972799236E+04 0.  0.
        2    1    3    3  502    0 -0.16789888997E+03 -0.49178371176E+03 -0.10392322511E+04  0.11619143377E+04  0.25500000920E-02 0.  1.
       -2    1    3    3    0  502  0.16789888997E+03  0.49178371176E+03  0.89870920895E+02  0.52736897788E+03  0.25500000920E-02 0. -1.
</event>
<event>
 5   0  0.7065539E-04  0.1379072E+04  0.7818609E-02  0.8969108E-01
        2   -1    0    0  501    0  0.00000000000E+00  0.00000000000E+00  0.70893121908E+03  0.70893121908E+03  0.25500000920E-02 0.  1.
       -2   -1    0    0    0  501  0.00000000000E+00  0.00000000000E+00 -0.67067152061E+03  0.67067152062E+03  0.25500000920E-02 0. -1.
    10030    2    1    2    0    0  0.00000000000E+00  0.00000000000E+00  0.38259698468E+02  0.13796027397E+04  0.13790721210E+04 0.  0.
        1    1    3    3  502    0 -0.41982070533E+03 -0.27316402636E+03  0.49322354492E+03  0.70294912704E+03  0.50400001928E-02 0.  1.
       -1    1    3    3    0  502  0.41982070533E+03  0.27316402636E+03 -0.45496384645E+03  0.67665361266E+03  0.50400001928E-02 0. -1.
</event>
<event>
 5   0  0.6959748E-04  0.1394888E+04  0.7818609E-02  0.8957527E-01
       -2   -1    0    0    0  501  0.00000000000E+00  0.00000000000E+00  0.52763137332E+03  0.52763137332E+03  0.25500000920E-02 0. -1.
        2   -1    0    0  501    0  0.00000000000E+00  0.00000000000E+00 -0.92190963921E+03  0.92190963921E+03  0.25500000920E-02 0.  1.
    10030    2    1    2    0    0  0.00000000000E+00  0.00000000000E+00 -0.39427826589E+03  0.14495410125E+04  0.13948884529E+04 0.  0.
        5    1    3    3  502    0  0.10386675794E+03 -0.93416322542E+02 -0.90720557324E+03  0.91791010172E+03  0.46999998093E+01 0.  1.
       -5    1    3    3    0  502 -0.10386675794E+03  0.93416322542E+02  0.51292730734E+03  0.53163091082E+03  0.46999998093E+01 0. -1.
</event>
<event>
 5   0  0.3907093E-04  0.1396677E+04  0.7818609E-02  0.8956228E-01
       -1   -1    0    0    0  501  0.00000000000E+00  0.00000000000E+00  0.50589663654E+03  0.50589663656E+03  0.50400001928E-02 0.  1.
        1   -1    0    0  501    0  0.00000000000E+00  0.00000000000E+00 -0.96398412019E+03  0.96398412020E+03  0.50400001928E-02 0. -1.
    10030    2    1    2    0    0  0.00000000000E+00  0.00000000000E+00 -0.45808748365E+03  0.14698807568E+04  0.13966765182E+04 0.  0.
        4    1    3    3  502    0 -0.56910577085E+02 -0.41344687917E+03  0.36021137980E+03  0.55129936216E+03  0.12699999809E+01 0.  1.
       -4    1    3    3    0  502  0.56910577085E+02  0.41344687917E+03 -0.81829886345E+03  0.91858139460E+03  0.12699999809E+01 0. -1.
</event>
<event>
 5   0  0.3784219E-04  0.1409010E+04  0.7818609E-02  0.8947322E-01
        1   -1    0    0  501    0  0.00000000000E+00  0.00000000000E+00  0.10020557235E+04  0.10020557235E+04  0.50400001928E-02 0.  1.
       -1   -1    0    0    0  501  0.00000000000E+00  0.00000000000E+00 -0.49530939582E+03  0.49530939584E+03  0.50400001928E-02 0. -1.
    10030    2    1    2    0    0  0.00000000000E+00  0.00000000000E+00  0.50674632772E+03  0.14973651194E+04  0.14090104542E+04 0.  0.
        1    1    3    3  502    0 -0.63155985853E+02 -0.30097604982E+03 -0.42021230832E+03  0.52072415462E+03  0.50400001928E-02 0. -1.
       -1    1    3    3    0  502  0.63155985853E+02  0.30097604982E+03  0.92695863604E+03  0.97664096477E+03  0.50400001928E-02 0.  1.
</event>
<event>
 5   0  0.3907270E-04  0.1390253E+04  0.7818609E-02  0.8960904E-01
       -1   -1    0    0    0  501  0.00000000000E+00  0.00000000000E+00  0.16225808714E+04  0.16225808714E+04  0.50400001928E-02 0.  1.
        1   -1    0    0  501    0  0.00000000000E+00  0.00000000000E+00 -0.29779785307E+03  0.29779785311E+03  0.50400001928E-02 0. -1.
    10030    2    1    2    0    0  0.00000000000E+00  0.00000000000E+00  0.13247830183E+04  0.19203787245E+04  0.13902533582E+04 0.  0.
        3    1    3    3  502    0 -0.19476768837E+03 -0.73930396921E+02  0.15784453640E+04  0.15921337674E+04  0.10100000352E+00 0.  1.
       -3    1    3    3    0  502  0.19476768837E+03  0.73930396921E+02 -0.25366234569E+03  0.32824495707E+03  0.10100000352E+00 0. -1.
</event>
<event>
 5   0  0.7296966E-04  0.1403569E+04  0.7818609E-02  0.8951239E-01
       -2   -1    0    0    0  501  0.00000000000E+00  0.00000000000E+00  0.33782117094E+03  0.33782117095E+03  0.25500000920E-02 0. -1.
        2   -1    0    0  501    0  0.00000000000E+00  0.00000000000E+00 -0.14578773305E+04  0.14578773305E+04  0.25500000920E-02 0.  1.
    10030    2    1    2    0    0  0.00000000000E+00  0.00000000000E+00 -0.11200561595E+04  0.17956985014E+04  0.14035694880E+04 0.  0.
        3    1    3    3  502    0 -0.36575141578E+03  0.59559156001E+03 -0.47912905566E+03  0.84738897012E+03  0.10100000352E+00 0. -1.
       -3    1    3    3    0  502  0.36575141578E+03 -0.59559156001E+03 -0.64092710388E+03  0.94830953132E+03  0.10100000352E+00 0.  1.
</event>
<event>
 5   0  0.6870835E-04  0.1382640E+04  0.7818609E-02  0.8966481E-01
       -2   -1    0    0    0  501  0.00000000000E+00  0.00000000000E+00  0.11004112358E+04  0.11004112358E+04  0.25500000920E-02 0.  1.
        2   -1    0    0  501    0  0.00000000000E+00  0.00000000000E+00 -0.43431349533E+03  0.43431349533E+03  0.25500000920E-02 0. -1.
    10030    2    1    2    0    0  0.00000000000E+00  0.00000000000E+00  0.66609774045E+03  0.15347247311E+04  0.13826401558E+04 0.  0.
        2    1    3    3  502    0 -0.59830143293E+03 -0.22654427640E+03  0.62385195234E+03  0.89357605846E+03  0.25500000920E-02 0.  1.
       -2    1    3    3    0  502  0.59830143293E+03  0.22654427640E+03  0.42245788111E+02  0.64114867265E+03  0.25500000920E-02 0. -1.
</event>
<event>
 5   0  0.2660250E-04  0.1403355E+04  0.7818609E-02  0.8951394E-01
        4   -1    0    0  501    0  0.00000000000E+00  0.00000000000E+00  0.12051647729E+04  0.12051654421E+04  0.12699999809E+01 0.  1.
       -4   -1    0    0    0  501  0.00000000000E+00  0.00000000000E+00 -0.40853251879E+03  0.40853449280E+03  0.12699999809E+01 0. -1.
    10030    2    1    2    0    0  0.00000000000E+00  0.00000000000E+00  0.79663225416E+03  0.16136999349E+04  0.14033547419E+04 0.  0.
        5    1    3    3  502    0 -0.41895584274E+03 -0.56285204362E+03  0.40017799152E+03  0.80776911062E+03  0.46999998093E+01 0. -1.
       -5    1    3    3    0  502  0.41895584274E+03  0.56285204362E+03  0.39645426264E+03  0.80593082429E+03  0.46999998093E+01 0.  1.
</event>
<event>
 5   0  0.3756664E-04  0.1387843E+04  0.7818609E-02  0.8962666E-01
        1   -1    0    0  501    0  0.00000000000E+00  0.00000000000E+00  0.16274116070E+04  0.16274116070E+04  0.50400001928E-02 0. -1.
       -1   -1    0    0    0  501  0.00000000000E+00  0.00000000000E+00 -0.29588505630E+03  0.29588505635E+03  0.50400001928E-02 0.  1.
    10030    2    1    2    0    0  0.00000000000E+00  0.00000000000E+00  0.13315265507E+04  0.19232966634E+04  0.13878426064E+04 0.  0.
        2    1    3    3  502    0 -0.48049722538E+03  0.11152381672E+03 -0.10611717354E+02  0.49338398215E+03  0.25500000920E-02 0.  1.
       -2    1    3    3    0  502  0.48049722538E+03 -0.11152381672E+03  0.13421382681E+04  0.14299126812E+04  0.25500000920E-02 0. -1.
</event>
<event>
 5   0  0.6895048E-04  0.1385659E+04  0.7818609E-02  0.8964265E-01
       -2   -1    0    0    0  501  0.00000000000E+00  0.00000000000E+00  0.70009498888E+03  0.70009498888E+03  0.25500000920E-02 0. -1.
        2   -1    0    0  501    0  0.00000000000E+00  0.00000000000E+00 -0.68563961690E+03  0.68563961691E+03  0.25500000920E-02 0.  1.
    10030    2    1    2    0    0  0.00000000000E+00  0.00000000000E+00  0.14455371979E+02  0.13857346058E+04  0.13856592077E+04 0.  0.
        4    1    3    3  502    0 -0.31646881099E+03  0.15108750254E+02 -0.60894743467E+03  0.68643963591E+03  0.12699999809E+01 0.  1.
       -4    1    3    3    0  502  0.31646881099E+03 -0.15108750254E+02  0.62340280665E+03  0.69929496988E+03  0.12699999809E+01 0. -1.
</event>
<event>
 5   0  0.3907270E-04  0.1410208E+04  0.7818609E-02  0.8946463E-01
        1   -1    0    0  501    0  0.00000000000E+00  0.00000000000E+00  0.17151555619E+04  0.17151555619E+04  0.50400001928E-02 0. -1.
       -1   -1    0    0    0  501  0.00000000000E+00  0.00000000000E+00 -0.28986952669E+03  0.28986952673E+03  0.50400001928E-02 0.  1.
    10030    2    1    2    0    0  0.00000000000E+00  0.00000000000E+00  0.14252860352E+04  0.20050250887E+04  0.14102075464E+04 0.  0.
        3    1    3    3  502    0  0.17058246091E+03 -0.57045767924E+03  0.12496428600E+04  0.13842426187E+04  0.10100000352E+00 0. -1.
       -3    1    3    3    0  502 -0.17058246091E+03  0.57045767924E+03  0.17564317525E+03  0.62078246994E+03  0.10100000352E+00 0.  1.
</event>
<event>
 5   0  0.7065539E-04  0.1397932E+04  0.7818609E-02  0.8955317E-01
       -2   -1    0    0    0  501  0.00000000000E+00  0.00000000000E+00  0.22814655519E+03  0.22814655521E+03  0.25500000920E-02 0.  1.
        2   -1    0    0  501    0  0.00000000000E+00  0.00000000000E+00 -0.21414016577E+04  0.21414016577E+04  0.25500000920E-02 0. -1.
    10030    2    1    2    0    0  0.00000000000E+00  0.00000000000E+00 -0.19132551025E+04  0.23695482129E+04  0.13979319175E+04 0.  0.
        1    1    3    3  502    0 -0.24927476785E+03 -0.63777055530E+03 -0.71893372856E+03  0.99285190093E+03  0.50400001928E-02 0.  1.
       -1    1    3    3    0  502  0.24927476785E+03  0.63777055530E+03 -0.11943213739E+04  0.13766963119E+04  0.50400001928E-02 0. -1.
</event>
<event>
 5   0  0.2660250E-04  0.1382772E+04  0.7818609E-02  0.8966384E-01
       -4   -1    0    0    0  501  0.00000000000E+00  0.00000000000E+00  0.45659871696E+03  0.45660048317E+03  0.12699999809E+01 0. -1.
        4   -1    0    0  501    0  0.00000000000E+00  0.00000000000E+00 -0.10468988527E+04  0.10468996230E+04  0.12699999809E+01 0.  1.
    10030    2    1    2    0    0  0.00000000000E+00  0.00000000000E+00 -0.59030013575E+03  0.15035001062E+04  0.13827719693E+04 0.  0.
        5    1    3    3  502    0 -0.22579094471E+03  0.29473130663E+02  0.41464046953E+03  0.47307401653E+03  0.46999998093E+01 0. -1.
       -5    1    3    3    0  502  0.22579094471E+03 -0.29473130663E+02 -0.10049406053E+04  0.10304260897E+04  0.46999998093E+01 0.  1.
</event>
<event>
 5   0  0.3907093E-04  0.1502545E+04  0.7818609E-02  0.8882762E-01
        1   -1    0    0  501    0  0.00000000000E+00  0.00000000000E+00  0.12256053207E+04  0.12256053207E+04  0.50400001928E-02 0. -1.
       -1   -1    0    0    0  501  0.00000000000E+00  0.00000000000E+00 -0.46051543131E+03  0.46051543134E+03  0.50400001928E-02 0.  1.
    10030    2    1    2    0    0  0.00000000000E+00  0.00000000000E+00  0.76508988936E+03  0.16861207520E+04  0.15025447253E+04 0.  0.
        4    1    3    3  502    0  0.17001010842E+03 -0.30842485852E+02 -0.43791427161E+03  0.47077087642E+03  0.12699999809E+01 0.  1.
       -4    1    3    3    0  502 -0.17001010842E+03  0.30842485852E+02  0.12030041610E+04  0.12153498756E+04  0.12699999809E+01 0. -1.
</event>
<event>
 5   0  0.6895048E-04  0.1400317E+04  0.7818609E-02  0.8953589E-01
       -2   -1    0    0    0  501  0.00000000000E+00  0.00000000000E+00  0.33804427110E+03  0.33804427111E+03  0.25500000920E-02 0. -1.
        2   -1    0    0  501    0  0.00000000000E+00  0.00000000000E+00 -0.14501698369E+04  0.14501698369E+04  0.25500000920E-02 0.  1.
    10030    2    1    2    0    0  0.00000000000E+00  0.00000000000E+00 -0.11121255658E+04  0.17882141080E+04  0.14003165435E+04 0.  0.
        4    1    3    3  502    0  0.33182496708E+03 -0.18805396720E+03 -0.13058604851E+04  0.13604210094E+04  0.12699999809E+01 0.  1.
       -4    1    3    3    0  502 -0.33182496708E+03  0.18805396720E+03  0.19373491931E+03  0.42779309861E+03  0.12699999809E+01 0. -1.
</event>
<event>
 5   0  0.6870835E-04  0.1402488E+04  0.7818609E-02  0.8952020E-01
        2   -1    0    0  501    0  0.00000000000E+00  0.00000000000E+00  0.27772135183E+04  0.27772135183E+04  0.25500000920E-02 0.  1.
       -2   -1    0    0    0  501  0.00000000000E+00  0.00000000000E+00 -0.17706340074E+03  0.17706340076E+03  0.25500000920E-02 0. -1.
    10030    2    1    2    0    0  0.00000000000E+00  0.00000000000E+00  0.26001501176E+04  0.29542769191E+04  0.14024876045E+04 0.  0.
        2    1    3    3  502    0 -0.38115297031E+03 -0.16755537574E+02  0.60690726870E+02  0.38631813205E+03  0.25500000920E-02 0. -1.
       -2    1    3    3    0  502  0.38115297031E+03  0.16755537574E+02  0.25394593907E+04  0.25679587870E+04  0.25500000920E-02 0.  1.
</event>
<event>
 5   0  0.3977658E-04  0.1393149E+04  0.7818609E-02  0.8958792E-01
       -1   -1    0    0    0  501  0.00000000000E+00  0.00000000000E+00  0.54252605063E+03  0.54252605065E+03  0.50400001928E-02 0.  1.
        1   -1    0    0  501    0  0.00000000000E+00  0.00000000000E+00 -0.89436487409E+03  0.89436487410E+03  0.50400001928E-02 0. -1.
    10030    2    1    2    0    0  0.00000000000E+00  0.00000000000E+00 -0.35183882346E+03  0.14368909248E+04  0.13931492999E+04 0.  0.
        5    1    3    3  502    0 -0.58268308046E+03  0.35734087235E+03 -0.31422703674E+03  0.75231163219E+03  0.46999998093E+01 0. -1.
       -5    1    3    3    0  502  0.58268308046E+03 -0.35734087235E+03 -0.37611786713E+02  0.68457929256E+03  0.46999998093E+01 0.  1.
</event>
<event>
 5   0  0.6959748E-04  0.1410406E+04  0.7818609E-02  0.8946320E-01
       -2   -1    0    0    0  501  0.00000000000E+00  0.00000000000E+00  0.59661429221E+03  0.59661429222E+03  0.25500000920E-02 0.  1.
        2   -1    0    0  501    0  0.00000000000E+00  0.00000000000E+00 -0.83355622926E+03  0.83355622927E+03  0.25500000920E-02 0. -1.
    10030    2    1    2    0    0  0.00000000000E+00  0.00000000000E+00 -0.23694193705E+03  0.14301705215E+04  0.14104064092E+04 0.  0.
        5    1    3    3  502    0  0.48410880882E+03  0.37138277768E+03 -0.47698297427E+03  0.77448134521E+03  0.46999998093E+01 0. -1.
       -5    1    3    3    0  502 -0.48410880882E+03 -0.37138277768E+03  0.24004103722E+03  0.65568917627E+03  0.46999998093E+01 0.  1.
</event>
<event>
 5   0  0.6870835E-04  0.1399159E+04  0.7818609E-02  0.8954428E-01
        2   -1    0    0  501    0  0.00000000000E+00  0.00000000000E+00  0.65997373092E+03  0.65997373093E+03  0.25500000920E-02 0.  1.
       -2   -1    0    0    0  501  0.00000000000E+00  0.00000000000E+00 -0.74156154760E+03  0.74156154760E+03  0.25500000920E-02 0. -1.
    10030    2    1    2    0    0  0.00000000000E+00  0.00000000000E+00 -0.81587816676E+02  0.14015352785E+04  0.13991585204E+04 0.  0.
        2    1    3    3  502    0  0.51343820687E+03 -0.16225313740E+03  0.40658122827E+03  0.67472451271E+03  0.25500000920E-02 0.  1.
       -2    1    3    3    0  502 -0.51343820687E+03  0.16225313740E+03 -0.48816904494E+03  0.72681076582E+03  0.25500000920E-02 0. -1.
</event>
<event>
 5   0  0.2660250E-04  0.1405369E+04  0.7818609E-02  0.8949941E-01
        4   -1    0    0  501    0  0.00000000000E+00  0.00000000000E+00  0.12467560070E+04  0.12467566538E+04  0.12699999809E+01 0. -1.
       -4   -1    0    0    0  501  0.00000000000E+00  0.00000000000E+00 -0.39603856696E+03  0.39604060325E+03  0.12699999809E+01 0.  1.
    10030    2    1    2    0    0  0.00000000000E+00  0.00000000000E+00  0.85071744003E+03  0.16427972571E+04  0.14053692273E+04 0.  0.
        2    1    3    3  502    0 -0.15431282667E+03  0.68219449305E+03  0.34638889384E+03  0.78050435015E+03  0.25500000920E-02 0.  1.
       -2    1    3    3    0  502  0.15431282667E+03 -0.68219449305E+03  0.50432854619E+03  0.86229290692E+03  0.25500000920E-02 0. -1.
</event>
<event>
 5   0  0.3907270E-04  0.1396166E+04  0.7818609E-02  0.8956598E-01
       -1   -1    0    0    0  501  0.00000000000E+00  0.00000000000E+00  0.75739042411E+03  0.75739042413E+03  0.50400001928E-02 0. -1.
        1   -1    0    0  501    0  0.00000000000E+00  0.00000000000E+00 -0.64341984407E+03  0.64341984409E+03  0.50400001928E-02 0.  1.
    10030    2    1    2    0    0  0.00000000000E+00  0.00000000000E+00  0.11397058004E+03  0.14008102682E+04  0.13961662202E+04 0.  0.
        3    1    3    3  502    0  0.43538197729E+02  0.69418556712E+03 -0.26332506249E+01  0.69555454169E+03  0.10100000352E+00 0. -1.
       -3    1    3    3    0  502 -0.43538197729E+02 -0.69418556712E+03  0.11660383067E+03  0.70525572652E+03  0.10100000352E+00 0.  1.
</event>
<event>
 5   0  0.7065539E-04  0.1399209E+04  0.7818609E-02  0.8954392E-01
        2   -1    0    0  501    0  0.00000000000E+00  0.00000000000E+00  0.70661808073E+03  0.70661808073E+03  0.25500000920E-02 0.  1.
       -2   -1    0    0    0  501  0.00000000000E+00  0.00000000000E+00 -0.69266024018E+03  0.69266024018E+03  0.25500000920E-02 0. -1.
    10030    2    1    2    0    0  0.00000000000E+00  0.00000000000E+00  0.13957840548E+02  0.13992783209E+04  0.13992087043E+04 0.  0.
        1    1    3    3  502    0  0.26131353605E+03  0.34425153742E+03  0.55714478764E+03  0.70512708043E+03  0.50400001928E-02 0.  1.
       -1    1    3    3    0  502 -0.26131353605E+03 -0.34425153742E+03 -0.54318694710E+03  0.69415124048E+03  0.50400001928E-02 0. -1.
</event>
<event>
 5   0  0.3907270E-04  0.1415083E+04  0.7818609E-02  0.8942973E-01
        1   -1    0    0  501    0  0.00000000000E+00  0.00000000000E+00  0.58809489054E+03  0.58809489056E+03  0.50400001928E-02 0.  1.
       -1   -1    0    0    0  501  0.00000000000E+00  0.00000000000E+00 -0.85124820454E+03  0.85124820455E+03  0.50400001928E-02 0. -1.
    10030    2    1    2    0    0  0.00000000000E+00  0.00000000000E+00 -0.26315331399E+03  0.14393430951E+04  0.14150826403E+04 0.  0.
        3    1    3    3  502    0  0.12088050771E+03 -0.65955299569E+03 -0.36126317282E+03  0.76166484854E+03  0.10100000352E+00 0. -1.
       -3    1    3    3    0  502 -0.12088050771E+03  0.65955299569E+03  0.98109858822E+02  0.67767824657E+03  0.10100000352E+00 0.  1.
</event>
<event>
 5   0  0.6870835E-04  0.1408828E+04  0.7818609E-02  0.8947453E-01
       -2   -1    0    0    0  501  0.00000000000E+00  0.00000000000E+00  0.46717982848E+03  0.46717982848E+03  0.25500000920E-02 0. -1.
        2   -1    0    0  501    0  0.00000000000E+00  0.00000000000E+00 -0.10621164501E+04  0.10621164501E+04  0.25500000920E-02 0.  1.
    10030    2    1    2    0    0  0.00000000000E+00  0.00000000000E+00 -0.59493662166E+03  0.15292962786E+04  0.14088284225E+04 0.  0.
        2    1    3    3  502    0  0.15006581663E+03 -0.11064616500E+03  0.43990898572E+03  0.47778890619E+03  0.25500000920E-02 0. -1.
       -2    1    3    3    0  502 -0.15006581663E+03  0.11064616500E+03 -0.10348456074E+04  0.10515073724E+04  0.25500000920E-02 0.  1.
</event>
<event>
 5   0  0.7296966E-04  0.1413055E+04  0.7818609E-02  0.8944422E-01
       -2   -1    0    0    0  501  0.00000000000E+00  0.00000000000E+00  0.54770635163E+03  0.54770635164E+03  0.25500000920E-02 0.  1.
        2   -1    0    0  501    0  0.00000000000E+00  0.00000000000E+00 -0.91140336482E+03  0.91140336482E+03  0.25500000920E-02 0. -1.
    10030    2    1    2    0    0  0.00000000000E+00  0.00000000000E+00 -0.36369701319E+03  0.14591097165E+04  0.14130554296E+04 0.  0.
        3    1    3    3  502    0 -0.56779500772E+02  0.48871253360E+03 -0.70544244657E+03  0.86006564158E+03  0.10100000352E+00 0. -1.
       -3    1    3    3    0  502  0.56779500772E+02 -0.48871253360E+03  0.34174543338E+03  0.59904407488E+03  0.10100000352E+00 0.  1.
</event>
<event>
 5   0  0.7065539E-04  0.1399610E+04  0.7818609E-02  0.8954101E-01
       -2   -1    0    0    0  501  0.00000000000E+00  0.00000000000E+00  0.61392703087E+03  0.61392703088E+03  0.25500000920E-02 0. -1.
        2   -1    0    0  501    0  0.00000000000E+00  0.00000000000E+00 -0.79769573585E+03  0.79769573586E+03  0.25500000920E-02 0.  1.
    10030    2    1    2    0    0  0.00000000000E+00  0.00000000000E+00 -0.18376870498E+03  0.14116227667E+04  0.13996099095E+04 0.  0.
        1    1    3    3  502    0 -0.83132395067E+02  0.30493950345E+03  0.53783652613E+03  0.62383268971E+03  0.50400001928E-02 0. -1.
       -1    1    3    3    0  502  0.83132395067E+02 -0.30493950345E+03 -0.72160523111E+03  0.78779007703E+03  0.50400001928E-02 0.  1.
</event>
<event>
 5   0  0.6959748E-04  0.1397846E+04  0.7818609E-02  0.8955379E-01
        2   -1    0    0  501    0  0.00000000000E+00  0.00000000000E+00  0.15114023505E+04  0.15114023505E+04  0.25500000920E-02 0.  1.
       -2   -1    0    0    0  501  0.00000000000E+00  0.00000000000E+00 -0.32320545591E+03  0.32320545592E+03  0.25500000920E-02 0. -1.
    10030    2    1    2    0    0  0.00000000000E+00  0.00000000000E+00  0.11881968946E+04  0.18346078064E+04  0.13978461801E+04 0.  0.
        5    1    3    3  502    0 -0.15128947062E+03 -0.36885470421E+03  0.13475073342E+04  0.14052545685E+04  0.46999998093E+01 0.  1.
       -5    1    3    3    0  502  0.15128947062E+03  0.36885470421E+03 -0.15931043959E+03  0.42935323790E+03  0.46999998093E+01 0. -1.
</event>
<event>
 5   0  0.3907093E-04  0.1398691E+04  0.7818609E-02  0.8954766E-01
        1   -1    0    0  501    0  0.00000000000E+00  0.00000000000E+00  0.13572803495E+04  0.13572803495E+04  0.50400001928E-02 0.  1.
       -1   -1    0    0    0  501  0.00000000000E+00  0.00000000000E+00 -0.36034143801E+03  0.36034143805E+03  0.50400001928E-02 0. -1.
    10030    2    1    2    0    0  0.00000000000E+00  0.00000000000E+00  0.99693891151E+03  0.17176217876E+04  0.13986913212E+04 0.  0.
        4    1    3    3  502    0 -0.67441223087E+03  0.17666137838E+02  0.72470135463E+03  0.99012000075E+03  0.12699999809E+01 0.  1.
       -4    1    3    3    0  502  0.67441223087E+03 -0.17666137838E+02  0.27223755689E+03  0.72750178684E+03  0.12699999809E+01 0. -1.
</event>
<event>
 5   0  0.3977658E-04  0.1400121E+04  0.7818609E-02  0.8953731E-01
        1   -1    0    0  501    0  0.00000000000E+00  0.00000000000E+00  0.10995665209E+04  0.10995665209E+04  0.50400001928E-02 0.  1.
       -1   -1    0    0    0  501  0.00000000000E+00  0.00000000000E+00 -0.44570704521E+03  0.44570704524E+03  0.50400001928E-02 0. -1.
    10030    2    1    2    0    0  0.00000000000E+00  0.00000000000E+00  0.65385947572E+03  0.15452735662E+04  0.14001207735E+04 0.  0.
        5    1    3    3  502    0  0.40354923712E+03  0.16188787336E+03  0.93244505429E+03  0.10288515634E+04  0.46999998093E+01 0.  1.
       -5    1    3    3    0  502 -0.40354923712E+03 -0.16188787336E+03 -0.27858557858E+03  0.51642200274E+03  0.46999998093E+01 0. -1.
</event>
<event>
 5   0  0.2660250E-04  0.1399577E+04  0.7818609E-02  0.8954125E-01
        3   -1    0    0  501    0  0.00000000000E+00  0.00000000000E+00  0.19671127958E+04  0.19671127984E+04  0.10100000352E+00 0. -1.
       -3   -1    0    0    0  501  0.00000000000E+00  0.00000000000E+00 -0.24894562133E+03  0.24894564181E+03  0.10100000352E+00 0.  1.
    10030    2    1    2    0    0  0.00000000000E+00  0.00000000000E+00  0.17181671745E+04  0.22160584402E+04  0.13995772830E+04 0.  0.
        5    1    3    3  502    0 -0.40543714032E+01 -0.30083893780E+02 -0.24787763529E+03  0.24977367889E+03  0.46999998093E+01 0.  1.
       -5    1    3    3    0  502  0.40543714032E+01  0.30083893780E+02  0.19660448098E+04  0.19662847613E+04  0.46999998093E+01 0. -1.
</event>
<event>
 5   0  0.6895048E-04  0.1406696E+04  0.7818609E-02  0.8948986E-01
        2   -1    0    0  501    0  0.00000000000E+00  0.00000000000E+00  0.16384754105E+04  0.16384754105E+04  0.25500000920E-02 0.  1.
       -2   -1    0    0    0  501  0.00000000000E+00  0.00000000000E+00 -0.30192592131E+03  0.30192592132E+03  0.25500000920E-02 0. -1.
    10030    2    1    2    0    0  0.00000000000E+00  0.00000000000E+00  0.13365494892E+04  0.19404013318E+04  0.14066956997E+04 0.  0.
        4    1    3    3  502    0  0.22917149545E+03 -0.18411281136E+03  0.15496689327E+04  0.15773054605E+04  0.12699999809E+01 0.  1.
       -4    1    3    3    0  502 -0.22917149545E+03  0.18411281136E+03 -0.21311944358E+03  0.36309587131E+03  0.12699999809E+01 0. -1.
</event>
<event>
 5   0  0.3907093E-04  0.1393791E+04  0.7818609E-02  0.8958325E-01
       -1   -1    0    0    0  501  0.00000000000E+00  0.00000000000E+00  0.13116986011E+04  0.13116986011E+04  0.50400001928E-02 0.  1.
        1   -1    0    0  501    0  0.00000000000E+00  0.00000000000E+00 -0.37025529593E+03  0.37025529597E+03  0.50400001928E-02 0. -1.
    10030    2    1    2    0    0  0.00000000000E+00  0.00000000000E+00  0.94144330512E+03  0.16819538970E+04  0.13937910227E+04 0.  0.
        4    1    3    3  502    0  0.58339251665E+03 -0.25053011841E+03  0.81743761599E+03  0.10350449447E+04  0.12699999809E+01 0.  1.
       -4    1    3    3    0  502 -0.58339251665E+03  0.25053011841E+03  0.12400568913E+03  0.64690895229E+03  0.12699999809E+01 0. -1.
</event>
<event>
 5   0  0.2660250E-04  0.1400293E+04  0.7818609E-02  0.8953607E-01
        3   -1    0    0  501    0  0.00000000000E+00  0.00000000000E+00  0.10282778968E+04  0.10282779018E+04  0.10100000352E+00 0.  1.
       -3   -1    0    0    0  501  0.00000000000E+00  0.00000000000E+00 -0.47672407130E+03  0.47672408200E+03  0.10100000352E+00 0. -1.
    10030    2    1    2    0    0  0.00000000000E+00  0.00000000000E+00  0.55155382550E+03  0.15050019838E+04  0.14002925940E+04 0.  0.
        5    1    3    3  502    0 -0.13113314238E+03  0.52211146616E+03  0.75689587099E+03  0.92882169099E+03  0.46999998093E+01 0.  1.
       -5    1    3    3    0  502  0.13113314238E+03 -0.52211146616E+03 -0.20534204549E+03  0.57618029277E+03  0.46999998093E+01 0. -1.
</event>
<event>
 5   0  0.3784219E-04  0.1401510E+04  0.7818609E-02  0.8952726E-01
        1   -1    0    0  501    0  0.00000000000E+00  0.00000000000E+00  0.48099212695E+03  0.48099212698E+03  0.50400001928E-02 0.  1.
       -1   -1    0    0    0  501  0.00000000000E+00  0.00000000000E+00 -0.10209264844E+04  0.10209264844E+04  0.50400001928E-02 0. -1.
    10030    2    1    2    0    0  0.00000000000E+00  0.00000000000E+00 -0.53993435746E+03  0.15019186114E+04  0.14015100445E+04 0.  0.
        1    1    3    3  502    0  0.31190295998E+03 -0.18373899400E+03  0.37303131517E+03  0.51980365185E+03  0.50400001928E-02 0.  1.
       -1    1    3    3    0  502 -0.31190295998E+03  0.18373899400E+03 -0.91296567263E+03  0.98211495956E+03  0.50400001928E-02 0. -1.
</event>
<event>
 5   0  0.7065539E-04  0.1404570E+04  0.7818609E-02  0.8950517E-01
        2   -1    0    0  501    0  0.00000000000E+00  0.00000000000E+00  0.19832834071E+04  0.19832834071E+04  0.25500000920E-02 0. -1.
       -2   -1    0    0    0  501  0.00000000000E+00  0.00000000000E+00 -0.24868050354E+03  0.24868050355E+03  0.25500000920E-02 0.  1.
    10030    2    1    2    0    0  0.00000000000E+00  0.00000000000E+00  0.17346029036E+04  0.22319639107E+04  0.14045695659E+04 0.  0.
        1    1    3    3  502    0  0.37860194801E+03 -0.41268095460E+02 -0.70334476218E+02  0.38728468768E+03  0.50400001928E-02 0.  1.
       -1    1    3    3    0  502 -0.37860194801E+03  0.41268095460E+02  0.18049373798E+04  0.18446792230E+04  0.50400001928E-02 0. -1.
</event>
<event>
 5   0  0.3977658E-04  0.1407607E+04  0.7818609E-02  0.8948331E-01
        1   -1    0    0  501    0  0.00000000000E+00  0.00000000000E+00  0.86816579704E+03  0.86816579705E+03  0.50400001928E-02 0.  1.
       -1   -1    0    0    0  501  0.00000000000E+00  0.00000000000E+00 -0.57055843745E+03  0.57055843747E+03  0.50400001928E-02 0. -1.
    10030    2    1    2    0    0  0.00000000000E+00  0.00000000000E+00  0.29760735959E+03  0.14387242345E+04  0.14076069347E+04 0.  0.
        5    1    3    3  502    0  0.25302140246E+03  0.51445589252E+03  0.56603419321E+03  0.80566835195E+03  0.46999998093E+01 0.  1.
       -5    1    3    3    0  502 -0.25302140246E+03 -0.51445589252E+03 -0.26842683362E+03  0.63305588257E+03  0.46999998093E+01 0. -1.
</event>
<event>
 5   0  0.6895048E-04  0.1411984E+04  0.7818609E-02  0.8945189E-01
       -2   -1    0    0    0  501  0.00000000000E+00  0.00000000000E+00  0.31294130105E+03  0.31294130106E+03  0.25500000920E-02 0.  1.
        2   -1    0    0  501    0  0.00000000000E+00  0.00000000000E+00 -0.15927105188E+04  0.15927105188E+04  0.25500000920E-02 0. -1.
    10030    2    1    2    0    0  0.00000000000E+00  0.00000000000E+00 -0.12797692177E+04  0.19056518198E+04  0.14119842803E+04 0.  0.
        4    1    3    3  502    0 -0.60410246016E+03  0.33789194722E+02 -0.11308628050E+04  0.12825497217E+04  0.12699999809E+01 0. -1.
       -4    1    3    3    0  502  0.60410246016E+03 -0.33789194722E+02 -0.14890641275E+03  0.62310209814E+03  0.12699999809E+01 0.  1.
</event>
<event>
 5   0  0.7065539E-04  0.1395891E+04  0.7818609E-02  0.8956798E-01
        2   -1    0    0  501    0  0.00000000000E+00  0.00000000000E+00  0.57252520057E+03  0.57252520058E+03  0.25500000920E-02 0.  1.
       -2   -1    0    0    0  501  0.00000000000E+00  0.00000000000E+00 -0.85084158160E+03  0.85084158161E+03  0.25500000920E-02 0. -1.
    10030    2    1    2    0    0  0.00000000000E+00  0.00000000000E+00 -0.27831638103E+03  0.14233667822E+04  0.13958914674E+04 0.  0.
        1    1    3    3  502    0 -0.43602554686E+03 -0.47942739493E+03  0.12509387579E+03  0.66001316828E+03  0.50400001928E-02 0.  1.
       -1    1    3    3    0  502  0.43602554686E+03  0.47942739493E+03 -0.40341025682E+03  0.76335361390E+03  0.50400001928E-02 0. -1.
</event>
<event>
 5   0  0.7296966E-04  0.1400440E+04  0.7818609E-02  0.8953500E-01
       -2   -1    0    0    0  501  0.00000000000E+00  0.00000000000E+00  0.25803848954E+03  0.25803848955E+03  0.25500000920E-02 0.  1.
        2   -1    0    0  501    0  0.00000000000E+00  0.00000000000E+00 -0.19001345768E+04  0.19001345768E+04  0.25500000920E-02 0. -1.
    10030    2    1    2    0    0  0.00000000000E+00  0.00000000000E+00 -0.16420960873E+04  0.21581730664E+04  0.14004397254E+04 0.  0.
        3    1    3    3  502    0  0.24564536717E+03 -0.51596851511E+03 -0.19745277946E+03  0.60460959744E+03  0.10100000352E+00 0.  1.
       -3    1    3    3    0  502 -0.24564536717E+03  0.51596851511E+03 -0.14446433078E+04  0.15535634690E+04  0.10100000352E+00 0. -1.
</event>
<event>
 5   0  0.6870835E-04  0.1397520E+04  0.7818609E-02  0.8955616E-01
       -2   -1    0    0    0  501  0.00000000000E+00  0.00000000000E+00  0.37499031347E+03  0.37499031348E+03  0.25500000920E-02 0.  1.
        2   -1    0    0  501    0  0.00000000000E+00  0.00000000000E+00 -0.13020752714E+04  0.13020752714E+04  0.25500000920E-02 0. -1.
    10030    2    1    2    0    0  0.00000000000E+00  0.00000000000E+00 -0.92708495795E+03  0.16770655849E+04  0.13975201096E+04 0.  0.
        2    1    3    3  502    0 -0.20189083700E+03 -0.65338238786E+03 -0.29131769622E+03  0.74332661393E+03  0.25500000920E-02 0.  1.
       -2    1    3    3    0  502  0.20189083700E+03  0.65338238786E+03 -0.63576726172E+03  0.93373897098E+03  0.25500000920E-02 0. -1.
</event>
<event>
 5   0  0.7065539E-04  0.1425415E+04  0.7818609E-02  0.8935625E-01
        2   -1    0    0  501    0  0.00000000000E+00  0.00000000000E+00  0.15403890750E+04  0.15403890750E+04  0.25500000920E-02 0.  1.
       -2   -1    0    0    0  501  0.00000000000E+00  0.00000000000E+00 -0.32975561623E+03  0.32975561624E+03  0.25500000920E-02 0. -1.
    10030    2    1    2    0    0  0.00000000000E+00  0.00000000000E+00  0.12106334588E+04  0.18701446913E+04  0.14254149553E+04 0.  0.
        1    1    3    3  502    0 -0.32384706563E+03  0.39627007197E+03 -0.45473793368E+02  0.51378473874E+03  0.50400001928E-02 0. -1.
       -1    1    3    3    0  502  0.32384706563E+03 -0.39627007197E+03  0.12561072522E+04  0.13563599525E+04  0.50400001928E-02 0.  1.
</event>
<event>
 5   0  0.6959748E-04  0.1399736E+04  0.7818609E-02  0.8954009E-01
       -2   -1    0    0    0  501  0.00000000000E+00  0.00000000000E+00  0.56610527307E+03  0.56610527308E+03  0.25500000920E-02 0. -1.
        2   -1    0    0  501    0  0.00000000000E+00  0.00000000000E+00 -0.86523737136E+03  0.86523737137E+03  0.25500000920E-02 0.  1.
    10030    2    1    2    0    0  0.00000000000E+00  0.00000000000E+00 -0.29913209829E+03  0.14313426444E+04  0.13997363157E+04 0.  0.
        5    1    3    3  502    0 -0.39386808782E+03  0.96141629560E+02 -0.73290128344E+03  0.83758084076E+03  0.46999998093E+01 0.  1.
       -5    1    3    3    0  502  0.39386808782E+03 -0.96141629560E+02  0.43376918515E+03  0.59376180369E+03  0.46999998093E+01 0. -1.
</event>
<event>
 5   0  0.6870835E-04  0.1399135E+04  0.7818609E-02  0.8954445E-01
        2   -1    0    0  501    0  0.00000000000E+00  0.00000000000E+00  0.11811311377E+04  0.11811311377E+04  0.25500000920E-02 0. -1.
       -2   -1    0    0    0  501  0.00000000000E+00  0.00000000000E+00 -0.41434402400E+03  0.41434402401E+03  0.25500000920E-02 0.  1.
    10030    2    1    2    0    0  0.00000000000E+00  0.00000000000E+00  0.76678711366E+03  0.15954751617E+04  0.13991349162E+04 0.  0.
        2    1    3    3  502    0  0.10699743935E+03  0.42743167807E+02  0.11702369443E+04  0.11758953764E+04  0.25500000920E-02 0. -1.
       -2    1    3    3    0  502 -0.10699743935E+03 -0.42743167807E+02 -0.40344983060E+03  0.41957978531E+03  0.25500000920E-02 0.  1.
</event>
<event>
 5   0  0.3907270E-04  0.1398892E+04  0.7818609E-02  0.8954621E-01
        1   -1    0    0  501    0  0.00000000000E+00  0.00000000000E+00  0.95275349499E+03  0.95275349501E+03  0.50400001928E-02 0. -1.
       -1   -1    0    0    0  501  0.00000000000E+00  0.00000000000E+00 -0.51348508759E+03  0.51348508761E+03  0.50400001928E-02 0.  1.
    10030    2    1    2    0    0  0.00000000000E+00  0.00000000000E+00  0.43926840741E+03  0.14662385826E+04  0.13988920071E+04 0.  0.
        3    1    3    3  502    0 -0.21158537242E+03  0.27598469183E+02  0.91780640659E+03  0.94228374469E+03  0.10100000352E+00 0. -1.
       -3    1    3    3    0  502  0.21158537242E+03 -0.27598469183E+02 -0.47853799918E+03  0.52395483793E+03  0.10100000352E+00 0.  1.
</event>
<event>
 5   0  0.3784219E-04  0.1398829E+04  0.7818609E-02  0.8954667E-01
        1   -1    0    0  501    0  0.00000000000E+00  0.00000000000E+00  0.18362474650E+04  0.18362474650E+04  0.50400001928E-02 0. -1.
       -1   -1    0    0    0  501  0.00000000000E+00  0.00000000000E+00 -0.26640220211E+03  0.26640220216E+03  0.50400001928E-02 0.  1.
    10030    2    1    2    0    0  0.00000000000E+00  0.00000000000E+00  0.15698452629E+04  0.21026496672E+04  0.13988286076E+04 0.  0.
        1    1    3    3  502    0  0.27020592170E+03 -0.14871533948E+03 -0.15865940426E+03  0.34684333482E+03  0.50400001928E-02 0.  1.
       -1    1    3    3    0  502 -0.27020592170E+03  0.14871533948E+03  0.17285046672E+04  0.17558063324E+04  0.50400001928E-02 0. -1.
</event>
<event>
 5   0  0.6870835E-04  0.1396526E+04  0.7818609E-02  0.8956337E-01
        2   -1    0    0  501    0  0.00000000000E+00  0.00000000000E+00  0.90508662547E+03  0.90508662548E+03  0.25500000920E-02 0. -1.
       -2   -1    0    0    0  501  0.00000000000E+00  0.00000000000E+00 -0.53870111325E+03  0.53870111325E+03  0.25500000920E-02 0.  1.
    10030    2    1    2    0    0  0.00000000000E+00  0.00000000000E+00  0.36638551223E+03  0.14437877387E+04  0.13965259364E+04 0.  0.
        2    1    3    3  502    0 -0.66435776412E+03 -0.44090384438E+02 -0.34297740629E+02  0.66670198422E+03  0.25500000920E-02 0.  1.
       -2    1    3    3    0  502  0.66435776412E+03  0.44090384438E+02  0.40068325286E+03  0.77708575451E+03  0.25500000920E-02 0. -1.
</event>
<event>
 5   0  0.6959748E-04  0.1402530E+04  0.7818609E-02  0.8951989E-01
        2   -1    0    0  501    0  0.00000000000E+00  0.00000000000E+00  0.90100883717E+03  0.90100883718E+03  0.25500000920E-02 0. -1.
       -2   -1    0    0    0  501  0.00000000000E+00  0.00000000000E+00 -0.54580192086E+03  0.54580192086E+03  0.25500000920E-02 0.  1.
    10030    2    1    2    0    0  0.00000000000E+00  0.00000000000E+00  0.35520691631E+03  0.14468107580E+04  0.14025296490E+04 0.  0.
        5    1    3    3  502    0  0.15985711670E+03  0.11772162168E+03  0.87139821996E+03  0.89373912621E+03  0.46999998093E+01 0. -1.
       -5    1    3    3    0  502 -0.15985711670E+03 -0.11772162168E+03 -0.51619130365E+03  0.55307163183E+03  0.46999998093E+01 0.  1.
</event>
<event>
 5   0  0.6959748E-04  0.1377407E+04  0.7818609E-02  0.8970337E-01
        2   -1    0    0  501    0  0.00000000000E+00  0.00000000000E+00  0.14831594970E+04  0.14831594970E+04  0.25500000920E-02 0.  1.
       -2   -1    0    0    0  501  0.00000000000E+00  0.00000000000E+00 -0.31979878289E+03  0.31979878290E+03  0.25500000920E-02 0. -1.
    10030    2    1    2    0    0  0.00000000000E+00  0.00000000000E+00  0.11633607141E+04  0.18029582799E+04  0.13774071322E+04 0.  0.
        5    1    3    3  502    0 -0.99421760885E+02  0.26311698179E+03 -0.24116502167E+03  0.37053729950E+03  0.46999998093E+01 0. -1.
       -5    1    3    3    0  502  0.99421760885E+02 -0.26311698179E+03  0.14045257358E+04  0.14324209804E+04  0.46999998093E+01 0.  1.
</event>
<event>
 5   0  0.3907093E-04  0.1408508E+04  0.7818609E-02  0.8947683E-01
        1   -1    0    0  501    0  0.00000000000E+00  0.00000000000E+00  0.53849734652E+03  0.53849734655E+03  0.50400001928E-02 0. -1.
       -1   -1    0    0    0  501  0.00000000000E+00  0.00000000000E+00 -0.92103211463E+03  0.92103211465E+03  0.50400001928E-02 0.  1.
    10030    2    1    2    0    0  0.00000000000E+00  0.00000000000E+00 -0.38253476811E+03  0.14595294612E+04  0.14085075077E+04 0.  0.
        4    1    3    3  502    0 -0.13784118035E+02  0.43337820512E+03 -0.76631582109E+03  0.88048181193E+03  0.12699999809E+01 0.  1.
       -4    1    3    3    0  502  0.13784118035E+02 -0.43337820512E+03  0.38378105298E+03  0.57904764926E+03  0.12699999809E+01 0. -1.
</event>
<event>
 5   0  0.3977658E-04  0.1415873E+04  0.7818609E-02  0.8942409E-01
       -1   -1    0    0    0  501  0.00000000000E+00  0.00000000000E+00  0.70993102458E+03  0.70993102460E+03  0.50400001928E-02 0.  1.
        1   -1    0    0  501    0  0.00000000000E+00  0.00000000000E+00 -0.70594711177E+03  0.70594711179E+03  0.50400001928E-02 0. -1.
    10030    2    1    2    0    0  0.00000000000E+00  0.00000000000E+00  0.39839128118E+01  0.14158781364E+04  0.14158725315E+04 0.  0.
        5    1    3    3  502    0 -0.29978308738E+02 -0.36450509419E+03  0.60812058334E+03  0.70964455650E+03  0.46999998093E+01 0.  1.
       -5    1    3    3    0  502  0.29978308738E+02  0.36450509419E+03 -0.60413667053E+03  0.70623357989E+03  0.46999998093E+01 0. -1.
</event>
<event>
 5   0  0.7065539E-04  0.1401720E+04  0.7818609E-02  0.8952574E-01
        2   -1    0    0  501    0  0.00000000000E+00  0.00000000000E+00  0.15892094528E+04  0.15892094528E+04  0.25500000920E-02 0. -1.
       -2   -1    0    0    0  501  0.00000000000E+00  0.00000000000E+00 -0.30908748684E+03  0.30908748685E+03  0.25500000920E-02 0.  1.
    10030    2    1    2    0    0  0.00000000000E+00  0.00000000000E+00  0.12801219660E+04  0.18982969397E+04  0.14017200232E+04 0.  0.
        1    1    3    3  502    0  0.18594587449E+03  0.63246686231E+03  0.96229168836E+03  0.11664456668E+04  0.50400001928E-02 0. -1.
       -1    1    3    3    0  502 -0.18594587449E+03 -0.63246686231E+03  0.31783027762E+03  0.73185127284E+03  0.50400001928E-02 0.  1.
</event>
<event>
 5   0  0.6895048E-04  0.1412937E+04  0.7818609E-02  0.8944507E-01
        2   -1    0    0  501    0  0.00000000000E+00  0.00000000000E+00  0.89382502271E+03  0.89382502272E+03  0.25500000920E-02 0.  1.
       -2   -1    0    0    0  501  0.00000000000E+00  0.00000000000E+00 -0.55838455537E+03  0.55838455538E+03  0.25500000920E-02 0. -1.
    10030    2    1    2    0    0  0.00000000000E+00  0.00000000000E+00  0.33544046734E+03  0.14522095781E+04  0.14129374903E+04 0.  0.
        4    1    3    3  502    0 -0.61213272287E+03  0.21838964738E+03  0.45235805755E+03  0.79185221704E+03  0.12699999809E+01 0.  1.
       -4    1    3    3    0  502  0.61213272287E+03 -0.21838964738E+03 -0.11691759021E+03  0.66035736105E+03  0.12699999809E+01 0. -1.
</event>
<event>
 5   0  0.6870835E-04  0.1374950E+04  0.7818609E-02  0.8972153E-01
       -2   -1    0    0    0  501  0.00000000000E+00  0.00000000000E+00  0.60738944065E+03  0.60738944066E+03  0.25500000920E-02 0.  1.
        2   -1    0    0  501    0  0.00000000000E+00  0.00000000000E+00 -0.77811974895E+03  0.77811974896E+03  0.25500000920E-02 0. -1.
    10030    2    1    2    0    0  0.00000000000E+00  0.00000000000E+00 -0.17073030830E+03  0.13855091896E+04  0.13749497723E+04 0.  0.
        2    1    3    3  502    0  0.47688962046E+03  0.42249846523E+03  0.17486815589E+03  0.66068716892E+03  0.25500000920E-02 0. -1.
       -2    1    3    3    0  502 -0.47688962046E+03 -0.42249846523E+03 -0.34559846419E+03  0.72482202069E+03  0.25500000920E-02 0.  1.
</event>
<event>
 5   0  0.6870835E-04  0.1399412E+04  0.7818609E-02  0.8954244E-01
        2   -1    0    0  501    0  0.00000000000E+00  0.00000000000E+00  0.11197532512E+04  0.11197532512E+04  0.25500000920E-02 0. -1.
       -2   -1    0    0    0  501  0.00000000000E+00  0.00000000000E+00 -0.43722874174E+03  0.43722874174E+03  0.25500000920E-02 0.  1.
    10030    2    1    2    0    0  0.00000000000E+00  0.00000000000E+00  0.68252450946E+03  0.15569819929E+04  0.13994117408E+04 0.  0.
        2    1    3    3  502    0  0.45251924715E+03 -0.29625518443E+03 -0.15262013752E+03  0.56199084488E+03  0.25500000920E-02 0.  1.
       -2    1    3    3    0  502 -0.45251924715E+03  0.29625518443E+03  0.83514464698E+03  0.99499114807E+03  0.25500000920E-02 0. -1.
</event>
<event>
 5   0  0.2660250E-04  0.1395726E+04  0.7818609E-02  0.8956918E-01
        4   -1    0    0  501    0  0.00000000000E+00  0.00000000000E+00  0.43983554537E+03  0.43983737889E+03  0.12699999809E+01 0. -1.
       -4   -1    0    0    0  501  0.00000000000E+00  0.00000000000E+00 -0.11072571169E+04  0.11072578452E+04  0.12699999809E+01 0.  1.
    10030    2    1    2    0    0  0.00000000000E+00  0.00000000000E+00 -0.66742157152E+03  0.15470952241E+04  0.13957263623E+04 0.  0.
        3    1    3    3  502    0  0.23324118841E+02 -0.18925871309E+03  0.41039814414E+03  0.45253676305E+03  0.10100000352E+00 0. -1.
       -3    1    3    3    0  502 -0.23324118841E+02  0.18925871309E+03 -0.10778197157E+04  0.10945584611E+04  0.10100000352E+00 0.  1.
</event>
<event>
 5   0  0.3784219E-04  0.1399534E+04  0.7818609E-02  0.8954156E-01
       -1   -1    0    0    0  501  0.00000000000E+00  0.00000000000E+00  0.16356373816E+03  0.16356373824E+03  0.50400001928E-02 0.  1.
        1   -1    0    0  501    0  0.00000000000E+00  0.00000000000E+00 -0.29937805525E+04  0.29937805525E+04  0.50400001928E-02 0. -1.
    10030    2    1    2    0    0  0.00000000000E+00  0.00000000000E+00 -0.28302168144E+04  0.31573442908E+04  0.13995341204E+04 0.  0.
        1    1    3    3  502    0  0.12691123225E+03  0.46812849661E+03 -0.27717513436E+03  0.55863834933E+03  0.50400001928E-02 0.  1.
       -1    1    3    3    0  502 -0.12691123225E+03 -0.46812849661E+03 -0.25530416800E+04  0.25987059414E+04  0.50400001928E-02 0. -1.
</event>
<event>
 5   0  0.6959748E-04  0.1398287E+04  0.7818609E-02  0.8955060E-01
       -2   -1    0    0    0  501  0.00000000000E+00  0.00000000000E+00  0.18390376634E+03  0.18390376636E+03  0.25500000920E-02 0. -1.
        2   -1    0    0  501    0  0.00000000000E+00  0.00000000000E+00 -0.26579203284E+04  0.26579203284E+04  0.25500000920E-02 0.  1.
    10030    2    1    2    0    0  0.00000000000E+00  0.00000000000E+00 -0.24740165621E+04  0.28418240948E+04  0.13982868934E+04 0.  0.
        5    1    3    3  502    0  0.90540599130E+02  0.69081733677E+03 -0.13546971983E+04  0.15233688923E+04  0.46999998093E+01 0.  1.
       -5    1    3    3    0  502 -0.90540599130E+02 -0.69081733677E+03 -0.11193193637E+04  0.13184552025E+04  0.46999998093E+01 0. -1.
</event>
<event>
 5   0  0.7065539E-04  0.1433672E+04  0.7818609E-02  0.8929800E-01
        2   -1    0    0  501    0  0.00000000000E+00  0.00000000000E+00  0.12538422485E+04  0.12538422485E+04  0.25500000920E-02 0. -1.
       -2   -1    0    0    0  501  0.00000000000E+00  0.00000000000E+00 -0.40982313871E+03  0.40982313872E+03  0.25500000920E-02 0.  1.
    10030    2    1    2    0    0  0.00000000000E+00  0.00000000000E+00  0.84401910981E+03  0.16636653872E+04  0.14336716022E+04 0.  0.
        1    1    3    3  502    0 -0.14438845472E+03 -0.50245445964E+02  0.12347041356E+04  0.12441330046E+04  0.50400001928E-02 0. -1.
       -1    1    3    3    0  502  0.14438845472E+03  0.50245445964E+02 -0.39068502577E+03  0.41953238264E+03  0.50400001928E-02 0.  1.
</event>
<event>
 5   0  0.3907093E-04  0.1394255E+04  0.7818609E-02  0.8957987E-01
        1   -1    0    0  501    0  0.00000000000E+00  0.00000000000E+00  0.46577426710E+03  0.46577426713E+03  0.50400001928E-02 0. -1.
       -1   -1    0    0    0  501  0.00000000000E+00  0.00000000000E+00 -0.10433959803E+04  0.10433959803E+04  0.50400001928E-02 0.  1.
    10030    2    1    2    0    0  0.00000000000E+00  0.00000000000E+00 -0.57762171316E+03  0.15091702474E+04  0.13942553540E+04 0.  0.
        4    1    3    3  502    0  0.41123068143E+03  0.53207906615E+03 -0.48771299228E+03  0.83071317657E+03  0.12699999809E+01 0. -1.
       -4    1    3    3    0  502 -0.41123068143E+03 -0.53207906615E+03 -0.89908720873E+02  0.67845707084E+03  0.12699999809E+01 0.  1.
</event>
<event>
 5   0  0.3907270E-04  0.1403140E+04  0.7818609E-02  0.8951549E-01
       -1   -1    0    0    0  501  0.00000000000E+00  0.00000000000E+00  0.76202258831E+03  0.76202258833E+03  0.50400001928E-02 0.  1.
        1   -1    0    0  501    0  0.00000000000E+00  0.00000000000E+00 -0.64591283805E+03  0.64591283807E+03  0.50400001928E-02 0. -1.
    10030    2    1    2    0    0  0.00000000000E+00  0.00000000000E+00  0.11610975026E+03  0.14079354264E+04  0.14031395835E+04 0.  0.
        3    1    3    3  502    0 -0.42257536762E+02  0.10724785400E+03  0.75245514902E+03  0.76123357985E+03  0.10100000352E+00 0.  1.
       -3    1    3    3    0  502  0.42257536762E+02 -0.10724785400E+03 -0.63634539876E+03  0.64670184655E+03  0.10100000352E+00 0. -1.
</event>
<event>
 5   0  0.6959748E-04  0.1469125E+04  0.7818609E-02  0.8905248E-01
        2   -1    0    0  501    0  0.00000000000E+00  0.00000000000E+00  0.12107489495E+04  0.12107489495E+04  0.25500000920E-02 0.  1.
       -2   -1    0    0    0  501  0.00000000000E+00  0.00000000000E+00 -0.44565955594E+03  0.44565955594E+03  0.25500000920E-02 0. -1.
    10030    2    1    2    0    0  0.00000000000E+00  0.00000000000E+00  0.76508939352E+03  0.16564085054E+04  0.14691246907E+04 0.  0.
        5    1    3    3  502    0 -0.98184491800E+02  0.67610569823E+03  0.68675673191E+03  0.96871874578E+03  0.46999998093E+01 0.  1.
       -5    1    3    3    0  502  0.98184491800E+02 -0.67610569823E+03  0.78332661607E+02  0.68768975962E+03  0.46999998093E+01 0. -1.
</event>
<event>
 5   0  0.6959748E-04  0.1504136E+04  0.7818609E-02  0.8881707E-01
        2   -1    0    0  501    0  0.00000000000E+00  0.00000000000E+00  0.13466636779E+04  0.13466636779E+04  0.25500000920E-02 0. -1.
       -2   -1    0    0    0  501  0.00000000000E+00  0.00000000000E+00 -0.42000545864E+03  0.42000545865E+03  0.25500000920E-02 0.  1.
    10030    2    1    2    0    0  0.00000000000E+00  0.00000000000E+00  0.92665821930E+03  0.17666691366E+04  0.15041357594E+04 0.  0.
        5    1    3    3  502    0 -0.13980959267E+03  0.52268465881E+03  0.10768376872E+04  0.12051337972E+04  0.46999998093E+01 0. -1.
       -5    1    3    3    0  502  0.13980959267E+03 -0.52268465881E+03 -0.15017946787E+03  0.56153533934E+03  0.46999998093E+01 0.  1.
</event>
<event>
 5   0  0.6870835E-04  0.1407146E+04  0.7818609E-02  0.8948662E-01
       -2   -1    0    0    0  501  0.00000000000E+00  0.00000000000E+00  0.25734722028E+03  0.25734722029E+03  0.25500000920E-02 0. -1.
        2   -1    0    0  501    0  0.00000000000E+00  0.00000000000E+00 -0.19235300659E+04  0.19235300659E+04  0.25500000920E-02 0.  1.
    10030    2    1    2    0    0  0.00000000000E+00  0.00000000000E+00 -0.16661828456E+04  0.21808772862E+04  0.14071462122E+04 0.  0.
        2    1    3    3  502    0  0.24762155894E+03 -0.10102723904E+03 -0.18416815183E+04  0.18609980533E+04  0.25500000920E-02 0.  1.
       -2    1    3    3    0  502 -0.24762155894E+03  0.10102723904E+03  0.17549867272E+03  0.31987923286E+03  0.25500000920E-02 0. -1.
</event>
<event>
 5   0  0.6895048E-04  0.1385050E+04  0.7818609E-02  0.8964712E-01
       -2   -1    0    0    0  501  0.00000000000E+00  0.00000000000E+00  0.94401711371E+03  0.94401711371E+03  0.25500000920E-02 0. -1.
        2   -1    0    0  501    0  0.00000000000E+00  0.00000000000E+00 -0.50803205385E+03  0.50803205386E+03  0.25500000920E-02 0.  1.
    10030    2    1    2    0    0  0.00000000000E+00  0.00000000000E+00  0.43598505986E+03  0.14520491676E+04  0.13850501120E+04 0.  0.
        4    1    3    3  502    0 -0.31818543398E+03  0.60524994488E+03  0.10305395865E+03  0.69151370013E+03  0.12699999809E+01 0. -1.
       -4    1    3    3    0  502  0.31818543398E+03 -0.60524994488E+03  0.33293110121E+03  0.76053546744E+03  0.12699999809E+01 0.  1.
</event>
<event>
 5   0  0.3784219E-04  0.1400706E+04  0.7818609E-02  0.8953308E-01
        1   -1    0    0  501    0  0.00000000000E+00  0.00000000000E+00  0.39108565788E+03  0.39108565791E+03  0.50400001928E-02 0. -1.
       -1   -1    0    0    0  501  0.00000000000E+00  0.00000000000E+00 -0.12541867801E+04  0.12541867801E+04  0.50400001928E-02 0.  1.
    10030    2    1    2    0    0  0.00000000000E+00  0.00000000000E+00 -0.86310112224E+03  0.16452724380E+04  0.14007061962E+04 0.  0.
        1    1    3    3  502    0 -0.30703940207E+03 -0.61285457758E+03 -0.26283854679E+03  0.73413079856E+03  0.50400001928E-02 0.  1.
       -1    1    3    3    0  502  0.30703940207E+03  0.61285457758E+03 -0.60026257544E+03  0.91114163948E+03  0.50400001928E-02 0. -1.
</event>
<event>
 5   0  0.3784219E-04  0.1377480E+04  0.7818609E-02  0.8970283E-01
       -1   -1    0    0    0  501  0.00000000000E+00  0.00000000000E+00  0.85951864815E+03  0.85951864817E+03  0.50400001928E-02 0.  1.
        1   -1    0    0  501    0  0.00000000000E+00  0.00000000000E+00 -0.55189366730E+03  0.55189366732E+03  0.50400001928E-02 0. -1.
    10030    2    1    2    0    0  0.00000000000E+00  0.00000000000E+00  0.30762498086E+03  0.14114123155E+04  0.13774801615E+04 0.  0.
        1    1    3    3  502    0 -0.26784239751E+03 -0.31940581312E+03 -0.40796638449E+03  0.58326340041E+03  0.50400001928E-02 0. -1.
       -1    1    3    3    0  502  0.26784239751E+03  0.31940581312E+03  0.71559136535E+03  0.82814891508E+03  0.50400001928E-02 0.  1.
</event>
<event>
 5   0  0.3907270E-04  0.1393633E+04  0.7818609E-02  0.8958440E-01
       -1   -1    0    0    0  501  0.00000000000E+00  0.00000000000E+00  0.78885192887E+03  0.78885192888E+03  0.50400001928E-02 0. -1.
        1   -1    0    0  501    0  0.00000000000E+00  0.00000000000E+00 -0.61551893181E+03  0.61551893183E+03  0.50400001928E-02 0.  1.
    10030    2    1    2    0    0  0.00000000000E+00  0.00000000000E+00  0.17333299706E+03  0.14043708607E+04  0.13936330889E+04 0.  0.
        3    1    3    3  502    0  0.54834251290E+01  0.41516112008E+03  0.65058922494E+03  0.77178700001E+03  0.10100000352E+00 0. -1.
       -3    1    3    3    0  502 -0.54834251290E+01 -0.41516112008E+03 -0.47725622788E+03  0.63258386071E+03  0.10100000352E+00 0.  1.
</event>
<event>
 5   0  0.7065539E-04  0.1405599E+04  0.7818609E-02  0.8949776E-01
        2   -1    0    0  501    0  0.00000000000E+00  0.00000000000E+00  0.61199419035E+03  0.61199419035E+03  0.25500000920E-02 0. -1.
       -2   -1    0    0    0  501  0.00000000000E+00  0.00000000000E+00 -0.80707804798E+03  0.80707804799E+03  0.25500000920E-02 0.  1.
    10030    2    1    2    0    0  0.00000000000E+00  0.00000000000E+00 -0.19508385763E+03  0.14190722383E+04  0.14055989137E+04 0.  0.
        1    1    3    3  502    0 -0.41257048601E+03 -0.45944005332E+03 -0.43635903477E+03  0.75611426106E+03  0.50400001928E-02 0.  1.
       -1    1    3    3    0  502  0.41257048601E+03  0.45944005332E+03  0.24127517714E+03  0.66295797729E+03  0.50400001928E-02 0. -1.
</event>
<event>
 5   0  0.2660250E-04  0.1385730E+04  0.7818609E-02  0.8964213E-01
        3   -1    0    0  501    0  0.00000000000E+00  0.00000000000E+00  0.37981592715E+03  0.37981594058E+03  0.10100000352E+00 0. -1.
       -3   -1    0    0    0  501  0.00000000000E+00  0.00000000000E+00 -0.12639328955E+04  0.12639328995E+04  0.10100000352E+00 0.  1.
    10030    2    1    2    0    0  0.00000000000E+00  0.00000000000E+00 -0.88411696835E+03  0.16437488401E+04  0.13857299288E+04 0.  0.
        1    1    3    3  502    0  0.35014978614E+03 -0.34171316207E+03 -0.10240076833E+04  0.11348852336E+04  0.50400001928E-02 0.  1.
       -1    1    3    3    0  502 -0.35014978614E+03  0.34171316207E+03  0.13989071499E+03  0.50886360651E+03  0.50400001928E-02 0. -1.
</event>
<event>
 5   0  0.6895048E-04  0.1400330E+04  0.7818609E-02  0.8953580E-01
        2   -1    0    0  501    0  0.00000000000E+00  0.00000000000E+00  0.95699714466E+03  0.95699714466E+03  0.25500000920E-02 0.  1.
       -2   -1    0    0    0  501  0.00000000000E+00  0.00000000000E+00 -0.51225953837E+03  0.51225953838E+03  0.25500000920E-02 0. -1.
    10030    2    1    2    0    0  0.00000000000E+00  0.00000000000E+00  0.44473760629E+03  0.14692566830E+04  0.14003298405E+04 0.  0.
        4    1    3    3  502    0 -0.52119898457E+03 -0.45952557705E+03  0.13200670499E+03  0.70727612751E+03  0.12699999809E+01 0. -1.
       -4    1    3    3    0  502  0.52119898457E+03  0.45952557705E+03  0.31273090130E+03  0.76198055553E+03  0.12699999809E+01 0.  1.
</event>
<event>
 5   0  0.3907093E-04  0.1397174E+04  0.7818609E-02  0.8955867E-01
        1   -1    0    0  501    0  0.00000000000E+00  0.00000000000E+00  0.14668761744E+04  0.14668761744E+04  0.50400001928E-02 0.  1.
       -1   -1    0    0    0  501  0.00000000000E+00  0.00000000000E+00 -0.33269605389E+03  0.33269605392E+03  0.50400001928E-02 0. -1.
    10030    2    1    2    0    0  0.00000000000E+00  0.00000000000E+00  0.11341801205E+04  0.17995722283E+04  0.13971741692E+04 0.  0.
        4    1    3    3  502    0 -0.44132721863E+03  0.25432460468E+03 -0.48695999335E+02  0.51168704468E+03  0.12699999809E+01 0. -1.
       -4    1    3    3    0  502  0.44132721863E+03 -0.25432460468E+03  0.11828761198E+04  0.12878851836E+04  0.12699999809E+01 0.  1.
</event>
<event>
 5   0  0.3977658E-04  0.1398322E+04  0.7818609E-02  0.8955034E-01
       -1   -1    0    0    0  501  0.00000000000E+00  0.00000000000E+00  0.42317992498E+03  0.42317992501E+03  0.50400001928E-02 0.  1.
        1   -1    0    0  501    0  0.00000000000E+00  0.00000000000E+00 -0.11551255668E+04  0.11551255668E+04  0.50400001928E-02 0. -1.
    10030    2    1    2    0    0  0.00000000000E+00  0.00000000000E+00 -0.73194564182E+03  0.15783054918E+04  0.13983217809E+04 0.  0.
        5    1    3    3  502    0 -0.33204892438E+03  0.59003792789E+03 -0.56277931449E+03  0.88042256408E+03  0.46999998093E+01 0. -1.
       -5    1    3    3    0  502  0.33204892438E+03 -0.59003792789E+03 -0.16916632733E+03  0.69788292774E+03  0.46999998093E+01 0.  1.
</event>
<event>
 5   0  0.7065539E-04  0.1407647E+04  0.7818609E-02  0.8948302E-01
       -2   -1    0    0    0  501  0.00000000000E+00  0.00000000000E+00  0.29267492888E+03  0.29267492890E+03  0.25500000920E-02 0. -1.
        2   -1    0    0  501    0  0.00000000000E+00  0.00000000000E+00 -0.16925523074E+04  0.16925523074E+04  0.25500000920E-02 0.  1.
    10030    2    1    2    0    0  0.00000000000E+00  0.00000000000E+00 -0.13998773785E+04  0.19852272363E+04  0.14076471521E+04 0.  0.
        1    1    3    3  502    0 -0.62569698363E+03  0.31036972264E+03 -0.57746392419E+03  0.90625088349E+03  0.50400001928E-02 0. -1.
       -1    1    3    3    0  502  0.62569698363E+03 -0.31036972264E+03 -0.82241345435E+03  0.10789763528E+04  0.50400001928E-02 0.  1.
</event>
<event>
 5   0  0.3907270E-04  0.1326398E+04  0.7818609E-02  0.9008890E-01
       -1   -1    0    0    0  501  0.00000000000E+00  0.00000000000E+00  0.59687544898E+03  0.59687544900E+03  0.50400001928E-02 0.  1.
        1   -1    0    0  501    0  0.00000000000E+00  0.00000000000E+00 -0.73689174006E+03  0.73689174007E+03  0.50400001928E-02 0. -1.
    10030    2    1    2    0    0  0.00000000000E+00  0.00000000000E+00 -0.14001629108E+03  0.13337671891E+04  0.13263975094E+04 0.  0.
        3    1    3    3  502    0 -0.12356962156E+03  0.75154078081E+02 -0.72084072214E+03  0.73520673536E+03  0.10100000352E+00 0. -1.
       -3    1    3    3    0  502  0.12356962156E+03 -0.75154078081E+02  0.58082443106E+03  0.59856045371E+03  0.10100000352E+00 0.  1.
</event>
<event>
 5   0  0.6870835E-04  0.1422948E+04  0.7818609E-02  0.8937373E-01
        2   -1    0    0  501    0  0.00000000000E+00  0.00000000000E+00  0.11317620511E+04  0.11317620511E+04  0.25500000920E-02 0. -1.
       -2   -1    0    0    0  501  0.00000000000E+00  0.00000000000E+00 -0.44726285260E+03  0.44726285261E+03  0.25500000920E-02 0.  1.
    10030    2    1    2    0    0  0.00000000000E+00  0.00000000000E+00  0.68449919850E+03  0.15790249037E+04  0.14229478184E+04 0.  0.
        2    1    3    3  502    0 -0.32990075193E+03 -0.62434054141E+03  0.24576750894E+03  0.74768796047E+03  0.25500000920E-02 0. -1.
       -2    1    3    3    0  502  0.32990075193E+03  0.62434054141E+03  0.43873168956E+03  0.83133694324E+03  0.25500000920E-02 0.  1.
</event>
<event>
 5   0  0.6870835E-04  0.1402052E+04  0.7818609E-02  0.8952335E-01
        2   -1    0    0  501    0  0.00000000000E+00  0.00000000000E+00  0.10604798125E+04  0.10604798125E+04  0.25500000920E-02 0. -1.
       -2   -1    0    0    0  501  0.00000000000E+00  0.00000000000E+00 -0.46341016422E+03  0.46341016423E+03  0.25500000920E-02 0.  1.
    10030    2    1    2    0    0  0.00000000000E+00  0.00000000000E+00  0.59706964832E+03  0.15238899768E+04  0.14020515313E+04 0.  0.
        2    1    3    3  502    0  0.41092776273E+03  0.48264077142E+03 -0.26870408397E+02  0.63444917785E+03  0.25500000920E-02 0.  1.
       -2    1    3    3    0  502 -0.41092776273E+03 -0.48264077142E+03  0.62394005671E+03  0.88944079892E+03  0.25500000920E-02 0. -1.
</event>
<event>
 5   0  0.6895048E-04  0.1397982E+04  0.7818609E-02  0.8955281E-01
        2   -1    0    0  501    0  0.00000000000E+00  0.00000000000E+00  0.46467311677E+03  0.46467311678E+03  0.25500000920E-02 0. -1.
       -2   -1    0    0    0  501  0.00000000000E+00  0.00000000000E+00 -0.10514670482E+04  0.10514670482E+04  0.25500000920E-02 0.  1.
    10030    2    1    2    0    0  0.00000000000E+00  0.00000000000E+00 -0.58679393141E+03  0.15161401650E+04  0.13979820750E+04 0.  0.
        4    1    3    3  502    0  0.51904538780E+03  0.94629355432E+02 -0.79065170015E+03  0.95052330500E+03  0.12699999809E+01 0.  1.
       -4    1    3    3    0  502 -0.51904538780E+03 -0.94629355432E+02  0.20385776873E+03  0.56561685997E+03  0.12699999809E+01 0. -1.
</event>
<event>
 5   0  0.7296966E-04  0.1400507E+04  0.7818609E-02  0.8953451E-01
       -2   -1    0    0    0  501  0.00000000000E+00  0.00000000000E+00  0.68593082903E+03  0.68593082904E+03  0.25500000920E-02 0. -1.
        2   -1    0    0  501    0  0.00000000000E+00  0.00000000000E+00 -0.71487557363E+03  0.71487557364E+03  0.25500000920E-02 0.  1.
    10030    2    1    2    0    0  0.00000000000E+00  0.00000000000E+00 -0.28944744598E+02  0.14008064027E+04  0.14005073293E+04 0.  0.
        3    1    3    3  502    0 -0.20503434382E+03  0.27115234916E+03  0.59786135564E+03  0.68775060114E+03  0.10100000352E+00 0. -1.
       -3    1    3    3    0  502  0.20503434382E+03 -0.27115234916E+03 -0.62680610024E+03  0.71305580153E+03  0.10100000352E+00 0.  1.
</event>
<event>
 5   0  0.7065539E-04  0.1393263E+04  0.7818609E-02  0.8958710E-01
       -2   -1    0    0    0  501  0.00000000000E+00  0.00000000000E+00  0.88600657674E+03  0.88600657674E+03  0.25500000920E-02 0.  1.
        2   -1    0    0  501    0  0.00000000000E+00  0.00000000000E+00 -0.54773327454E+03  0.54773327455E+03  0.25500000920E-02 0. -1.
    10030    2    1    2    0    0  0.00000000000E+00  0.00000000000E+00  0.33827330219E+03  0.14337398513E+04  0.13932627657E+04 0.  0.
        1    1    3    3  502    0 -0.27898034614E+03 -0.10447770072E+03  0.81715322963E+03  0.86976147546E+03  0.50400001928E-02 0.  1.
       -1    1    3    3    0  502  0.27898034614E+03  0.10447770072E+03 -0.47887992744E+03  0.56397837583E+03  0.50400001928E-02 0. -1.
</event>
<event>
 5   0  0.6959748E-04  0.1388781E+04  0.7818609E-02  0.8961979E-01
        2   -1    0    0  501    0  0.00000000000E+00  0.00000000000E+00  0.57909332236E+03  0.57909332237E+03  0.25500000920E-02 0. -1.
       -2   -1    0    0    0  501  0.00000000000E+00  0.00000000000E+00 -0.83264367859E+03  0.83264367860E+03  0.25500000920E-02 0.  1.
    10030    2    1    2    0    0  0.00000000000E+00  0.00000000000E+00 -0.25355035623E+03  0.14117370010E+04  0.13887813279E+04 0.  0.
        5    1    3    3  502    0  0.64387205524E+03  0.10245276024E+03  0.11610624152E+03  0.66224658619E+03  0.46999998093E+01 0. -1.
       -5    1    3    3    0  502 -0.64387205524E+03 -0.10245276024E+03 -0.36965659775E+03  0.74949041478E+03  0.46999998093E+01 0.  1.
</event>
<event>
 5   0  0.3907093E-04  0.1411129E+04  0.7818609E-02  0.8945802E-01
       -1   -1    0    0    0  501  0.00000000000E+00  0.00000000000E+00  0.37571253605E+03  0.37571253608E+03  0.50400001928E-02 0.  1.
        1   -1    0    0  501    0  0.00000000000E+00  0.00000000000E+00 -0.13250059672E+04  0.13250059672E+04  0.50400001928E-02 0. -1.
    10030    2    1    2    0    0  0.00000000000E+00  0.00000000000E+00 -0.94929343113E+03  0.17007185033E+04  0.14111291255E+04 0.  0.
        4    1    3    3  502    0 -0.61954918067E+03  0.22907240370E+02 -0.88059921923E+03  0.10769505684E+04  0.12699999809E+01 0. -1.
       -4    1    3    3    0  502  0.61954918067E+03 -0.22907240370E+02 -0.68694211900E+02  0.62376793488E+03  0.12699999809E+01 0.  1.
</event>
<event>
 5   0  0.3977658E-04  0.1399255E+04  0.7818609E-02  0.8954358E-01
       -1   -1    0    0    0  501  0.00000000000E+00  0.00000000000E+00  0.35067416730E+03  0.35067416734E+03  0.50400001928E-02 0. -1.
        1   -1    0    0  501    0  0.00000000000E+00  0.00000000000E+00 -0.13958214248E+04  0.13958214248E+04  0.50400001928E-02 0.  1.
    10030    2    1    2    0    0  0.00000000000E+00  0.00000000000E+00 -0.10451472575E+04  0.17464955921E+04  0.13992548244E+04 0.  0.
        5    1    3    3  502    0  0.45161932842E+03 -0.41290388824E+03 -0.94585817836E+03  0.11265520060E+04  0.46999998093E+01 0.  1.
       -5    1    3    3    0  502 -0.45161932842E+03  0.41290388824E+03 -0.99289079127E+02  0.61994358611E+03  0.46999998093E+01 0. -1.
</event>
<event>
 5   0  0.6895048E-04  0.1420990E+04  0.7818609E-02  0.8938764E-01
        2   -1    0    0  501    0  0.00000000000E+00  0.00000000000E+00  0.11344460773E+04  0.11344460773E+04  0.25500000920E-02 0.  1.
       -2   -1    0    0    0  501  0.00000000000E+00  0.00000000000E+00 -0.44497743052E+03  0.44497743053E+03  0.25500000920E-02 0. -1.
    10030    2    1    2    0    0  0.00000000000E+00  0.00000000000E+00  0.68946864675E+03  0.15794235078E+04  0.14209896559E+04 0.  0.
        4    1    3    3  502    0 -0.43554676017E+02  0.44504237078E+03 -0.26894963807E+03  0.52181916630E+03  0.12699999809E+01 0. -1.
       -4    1    3    3    0  502  0.43554676017E+02 -0.44504237078E+03  0.95841828483E+03  0.10576043415E+04  0.12699999809E+01 0.  1.
</event>
<event>
 5   0  0.6870835E-04  0.1377112E+04  0.7818609E-02  0.8970555E-01
       -2   -1    0    0    0  501  0.00000000000E+00  0.00000000000E+00  0.21985747411E+04  0.21985747411E+04  0.25500000920E-02 0.  1.
        2   -1    0    0  501    0  0.00000000000E+00  0.00000000000E+00 -0.21564398673E+03  0.21564398674E+03  0.25500000920E-02 0. -1.
    10030    2    1    2    0    0  0.00000000000E+00  0.00000000000E+00  0.19829307544E+04  0.24142187278E+04  0.13771120830E+04 0.  0.
        2    1    3    3  502    0 -0.45873677706E+03 -0.50437306695E+03  0.11603265699E+04  0.13458043580E+04  0.25500000920E-02 0.  1.
       -2    1    3    3    0  502  0.45873677706E+03  0.50437306695E+03  0.82260418452E+03  0.10684143698E+04  0.25500000920E-02 0. -1.
</event>
<event>
 5   0  0.3977658E-04  0.1395614E+04  0.7818609E-02  0.8957000E-01
        1   -1    0    0  501    0  0.00000000000E+00  0.00000000000E+00  0.57174984299E+03  0.57174984301E+03  0.50400001928E-02 0. -1.
       -1   -1    0    0    0  501  0.00000000000E+00  0.00000000000E+00 -0.85165645745E+03  0.85165645746E+03  0.50400001928E-02 0.  1.
    10030    2    1    2    0    0  0.00000000000E+00  0.00000000000E+00 -0.27990661446E+03  0.14234063005E+04  0.13956137658E+04 0.  0.
        5    1    3    3  502    0 -0.59216500273E+03 -0.30633660697E+03  0.70086746450E+02  0.67039969366E+03  0.46999998093E+01 0. -1.
       -5    1    3    3    0  502  0.59216500273E+03  0.30633660697E+03 -0.34999336091E+03  0.75300660682E+03  0.46999998093E+01 0.  1.
</event>
<event>
 5   0  0.3756664E-04  0.1421519E+04  0.7818609E-02  0.8938388E-01
        1   -1    0    0  501    0  0.00000000000E+00  0.00000000000E+00  0.76576573393E+03  0.76576573395E+03  0.50400001928E-02 0.  1.
       -1   -1    0    0    0  501  0.00000000000E+00  0.00000000000E+00 -0.65970400497E+03  0.65970400499E+03  0.50400001928E-02 0. -1.
    10030    2    1    2    0    0  0.00000000000E+00  0.00000000000E+00  0.10606172896E+03  0.14254697389E+04  0.14215185142E+04 0.  0.
        2    1    3    3  502    0 -0.30559669994E+03 -0.42360948765E+03 -0.43033009310E+03  0.67677051508E+03  0.25500000920E-02 0. -1.
       -2    1    3    3    0  502  0.30559669994E+03  0.42360948765E+03  0.53639182206E+03  0.74869922387E+03  0.25500000920E-02 0.  1.
</event>
<event>
 5   0  0.6959748E-04  0.1328926E+04  0.7818609E-02  0.9006936E-01
        2   -1    0    0  501    0  0.00000000000E+00  0.00000000000E+00  0.16366127352E+04  0.16366127352E+04  0.25500000920E-02 0. -1.
       -2   -1    0    0    0  501  0.00000000000E+00  0.00000000000E+00 -0.26977122614E+03  0.26977122615E+03  0.25500000920E-02 0.  1.
    10030    2    1    2    0    0  0.00000000000E+00  0.00000000000E+00  0.13668415091E+04  0.19063839614E+04  0.13289259187E+04 0.  0.
        5    1    3    3  502    0  0.58226842550E+03 -0.25734087846E+03  0.41037696276E+03  0.75742470822E+03  0.46999998093E+01 0.  1.
       -5    1    3    3    0  502 -0.58226842550E+03  0.25734087846E+03  0.95646454634E+03  0.11489592532E+04  0.46999998093E+01 0. -1.
</event>
<event>
 5   0  0.3756664E-04  0.1389911E+04  0.7818609E-02  0.8961154E-01
        1   -1    0    0  501    0  0.00000000000E+00  0.00000000000E+00  0.10335834191E+04  0.10335834191E+04  0.50400001928E-02 0.  1.
       -1   -1    0    0    0  501  0.00000000000E+00  0.00000000000E+00 -0.46727078054E+03  0.46727078057E+03  0.50400001928E-02 0. -1.
    10030    2    1    2    0    0  0.00000000000E+00  0.00000000000E+00  0.56631263855E+03  0.15008541997E+04  0.13899112648E+04 0.  0.
        2    1    3    3  502    0 -0.15181299088E+03  0.15908234459E+03 -0.42871380203E+03  0.48181936513E+03  0.25500000920E-02 0. -1.
       -2    1    3    3    0  502  0.15181299088E+03 -0.15908234459E+03  0.99502644057E+03  0.10190348345E+04  0.25500000920E-02 0.  1.
</event>
<event>
 5   0  0.3907270E-04  0.1388350E+04  0.7818609E-02  0.8962295E-01
        1   -1    0    0  501    0  0.00000000000E+00  0.00000000000E+00  0.57862690241E+03  0.57862690243E+03  0.50400001928E-02 0. -1.
       -1   -1    0    0    0  501  0.00000000000E+00  0.00000000000E+00 -0.83279674418E+03  0.83279674420E+03  0.50400001928E-02 0.  1.
    10030    2    1    2    0    0  0.00000000000E+00  0.00000000000E+00 -0.25416984178E+03  0.14114236466E+04  0.13883495244E+04 0.  0.
        3    1    3    3  502    0 -0.66336256221E+03  0.20908895561E+02  0.79745424754E+02  0.66846571627E+03  0.10100000352E+00 0. -1.
       -3    1    3    3    0  502  0.66336256221E+03 -0.20908895561E+02 -0.33391526653E+03  0.74295793036E+03  0.10100000352E+00 0.  1.
</event>
<event>
 5   0  0.3784219E-04  0.1408421E+04  0.7818609E-02  0.8947745E-01
        1   -1    0    0  501    0  0.00000000000E+00  0.00000000000E+00  0.58705385652E+03  0.58705385655E+03  0.50400001928E-02 0. -1.
       -1   -1    0    0    0  501  0.00000000000E+00  0.00000000000E+00 -0.84474804378E+03  0.84474804379E+03  0.50400001928E-02 0.  1.
    10030    2    1    2    0    0  0.00000000000E+00  0.00000000000E+00 -0.25769418725E+03  0.14318019003E+04  0.14084212394E+04 0.  0.
        1    1    3    3  502    0 -0.37271014290E+03 -0.50599184496E+03 -0.45188303573E+03  0.77404061637E+03  0.50400001928E-02 0.  1.
       -1    1    3    3    0  502  0.37271014290E+03  0.50599184496E+03  0.19418884848E+03  0.65776128396E+03  0.50400001928E-02 0. -1.
</event>
<event>
 5   0  0.7065539E-04  0.1384150E+04  0.7818609E-02  0.8965372E-01
       -2   -1    0    0    0  501  0.00000000000E+00  0.00000000000E+00  0.25136097297E+03  0.25136097299E+03  0.25500000920E-02 0. -1.
        2   -1    0    0  501    0  0.00000000000E+00  0.00000000000E+00 -0.19054976275E+04  0.19054976275E+04  0.25500000920E-02 0.  1.
    10030    2    1    2    0    0  0.00000000000E+00  0.00000000000E+00 -0.16541366545E+04  0.21568586004E+04  0.13841499018E+04 0.  0.
        1    1    3    3  502    0  0.42576683928E+03 -0.45556348767E+03 -0.35919657971E+03  0.71960939101E+03  0.50400001928E-02 0. -1.
       -1    1    3    3    0  502 -0.42576683928E+03  0.45556348767E+03 -0.12949400748E+04  0.14372492094E+04  0.50400001928E-02 0.  1.
</event>
<event>
 5   0  0.2660250E-04  0.1397620E+04  0.7818609E-02  0.8955543E-01
       -3   -1    0    0    0  501  0.00000000000E+00  0.00000000000E+00  0.85803240517E+03  0.85803241111E+03  0.10100000352E+00 0. -1.
        3   -1    0    0  501    0  0.00000000000E+00  0.00000000000E+00 -0.56913378159E+03  0.56913379055E+03  0.10100000352E+00 0.  1.
    10030    2    1    2    0    0  0.00000000000E+00  0.00000000000E+00  0.28889862358E+03  0.14271662017E+04  0.13976197453E+04 0.  0.
        1    1    3    3  502    0 -0.64608721438E+03  0.25622886389E+03  0.21846135663E+03  0.72856522265E+03  0.50400001928E-02 0.  1.
       -1    1    3    3    0  502  0.64608721438E+03 -0.25622886389E+03  0.70437266950E+02  0.69860097902E+03  0.50400001928E-02 0. -1.
</event>
<event>
 5   0  0.7296966E-04  0.1276146E+04  0.7818609E-02  0.9048698E-01
       -2   -1    0    0    0  501  0.00000000000E+00  0.00000000000E+00  0.43267126279E+03  0.43267126279E+03  0.25500000920E-02 0.  1.
        2   -1    0    0  501    0  0.00000000000E+00  0.00000000000E+00 -0.94098513997E+03  0.94098513997E+03  0.25500000920E-02 0. -1.
    10030    2    1    2    0    0  0.00000000000E+00  0.00000000000E+00 -0.50831387718E+03  0.13736564028E+04  0.12761461182E+04 0.  0.
        3    1    3    3  502    0 -0.54162132428E+03 -0.33357119430E+03 -0.20018790683E+03  0.66685726271E+03  0.10100000352E+00 0. -1.
       -3    1    3    3    0  502  0.54162132428E+03  0.33357119430E+03 -0.30812597035E+03  0.70679914006E+03  0.10100000352E+00 0.  1.
</event>
<event>
 5   0  0.6959748E-04  0.1400223E+04  0.7818609E-02  0.8953657E-01
       -2   -1    0    0    0  501  0.00000000000E+00  0.00000000000E+00  0.12741489138E+04  0.12741489138E+04  0.25500000920E-02 0.  1.
        2   -1    0    0  501    0  0.00000000000E+00  0.00000000000E+00 -0.38469297259E+03  0.38469297260E+03  0.25500000920E-02 0. -1.
    10030    2    1    2    0    0  0.00000000000E+00  0.00000000000E+00  0.88945594123E+03  0.16588418864E+04  0.14002230296E+04 0.  0.
        5    1    3    3  502    0 -0.34553841358E+03 -0.55445126627E+03  0.74284157851E+03  0.98926675002E+03  0.46999998093E+01 0.  1.
       -5    1    3    3    0  502  0.34553841358E+03  0.55445126627E+03  0.14661436271E+03  0.66957513639E+03  0.46999998093E+01 0. -1.
</event>
<event>
 5   0  0.6895048E-04  0.1403176E+04  0.7818609E-02  0.8951523E-01
       -2   -1    0    0    0  501  0.00000000000E+00  0.00000000000E+00  0.56473807392E+03  0.56473807393E+03  0.25500000920E-02 0.  1.
        2   -1    0    0  501    0  0.00000000000E+00  0.00000000000E+00 -0.87160022128E+03  0.87160022128E+03  0.25500000920E-02 0. -1.
    10030    2    1    2    0    0  0.00000000000E+00  0.00000000000E+00 -0.30686214735E+03  0.14363382952E+04  0.14031761546E+04 0.  0.
        4    1    3    3  502    0  0.25953321876E+03 -0.60559530025E+03 -0.40021183488E+03  0.77089187634E+03  0.12699999809E+01 0. -1.
       -4    1    3    3    0  502 -0.25953321876E+03  0.60559530025E+03  0.93349687530E+02  0.66544641887E+03  0.12699999809E+01 0.  1.
</event>
<event>
 5   0  0.7065539E-04  0.1393136E+04  0.7818609E-02  0.8958802E-01
        2   -1    0    0  501    0  0.00000000000E+00  0.00000000000E+00  0.14140237747E+04  0.14140237747E+04  0.25500000920E-02 0. -1.
       -2   -1    0    0    0  501  0.00000000000E+00  0.00000000000E+00 -0.34313920641E+03  0.34313920642E+03  0.25500000920E-02 0.  1.
    10030    2    1    2    0    0  0.00000000000E+00  0.00000000000E+00  0.10708845683E+04  0.17571629812E+04  0.13931360248E+04 0.  0.
        1    1    3    3  502    0  0.57052192414E+03 -0.31233060869E+03  0.84991186336E+03  0.10702316808E+04  0.50400001928E-02 0. -1.
       -1    1    3    3    0  502 -0.57052192414E+03  0.31233060869E+03  0.22097270496E+03  0.68693130036E+03  0.50400001928E-02 0.  1.
</event>
<event>
 5   0  0.3756664E-04  0.1358091E+04  0.7818609E-02  0.8984726E-01
        1   -1    0    0  501    0  0.00000000000E+00  0.00000000000E+00  0.10654023399E+04  0.10654023399E+04  0.50400001928E-02 0. -1.
       -1   -1    0    0    0  501  0.00000000000E+00  0.00000000000E+00 -0.43279711760E+03  0.43279711763E+03  0.50400001928E-02 0.  1.
    10030    2    1    2    0    0  0.00000000000E+00  0.00000000000E+00  0.63260522228E+03  0.14981994575E+04  0.13580913987E+04 0.  0.
        2    1    3    3  502    0 -0.51786119403E+03 -0.34607990753E+03  0.61467070707E+03  0.87508376560E+03  0.25500000920E-02 0. -1.
       -2    1    3    3    0  502  0.51786119403E+03  0.34607990753E+03  0.17934515214E+02  0.62311569192E+03  0.25500000920E-02 0.  1.
</event>
<event>
 5   0  0.3907270E-04  0.1396248E+04  0.7818609E-02  0.8956539E-01
        1   -1    0    0  501    0  0.00000000000E+00  0.00000000000E+00  0.93323155813E+03  0.93323155814E+03  0.50400001928E-02 0. -1.
       -1   -1    0    0    0  501  0.00000000000E+00  0.00000000000E+00 -0.52224664258E+03  0.52224664260E+03  0.50400001928E-02 0.  1.
    10030    2    1    2    0    0  0.00000000000E+00  0.00000000000E+00  0.41098491555E+03  0.14554782007E+04  0.13962478978E+04 0.  0.
        3    1    3    3  502    0 -0.11093083257E+03  0.48645721155E+03  0.71450012384E+03  0.87146813221E+03  0.10100000352E+00 0. -1.
       -3    1    3    3    0  502  0.11093083257E+03 -0.48645721155E+03 -0.30351520829E+03  0.58401006854E+03  0.10100000352E+00 0.  1.
</event>
<event>
 5   0  0.7296966E-04  0.1370721E+04  0.7818609E-02  0.8975290E-01
        2   -1    0    0  501    0  0.00000000000E+00  0.00000000000E+00  0.68071091488E+03  0.68071091489E+03  0.25500000920E-02 0. -1.
       -2   -1    0    0    0  501  0.00000000000E+00  0.00000000000E+00 -0.69004135496E+03  0.69004135496E+03  0.25500000920E-02 0.  1.
    10030    2    1    2    0    0  0.00000000000E+00  0.00000000000E+00 -0.93304400711E+01  0.13707522699E+04  0.13707205143E+04 0.  0.
        3    1    3    3  502    0 -0.17830470753E+03  0.49113815619E+03  0.43886440595E+03  0.68235711633E+03  0.10100000352E+00 0. -1.
       -3    1    3    3    0  502  0.17830470753E+03 -0.49113815619E+03 -0.44819484602E+03  0.68839515352E+03  0.10100000352E+00 0.  1.
</event>
<event>
 5   0  0.7296966E-04  0.1392660E+04  0.7818609E-02  0.8959149E-01
        2   -1    0    0  501    0  0.00000000000E+00  0.00000000000E+00  0.62125999553E+03  0.62125999554E+03  0.25500000920E-02 0. -1.
       -2   -1    0    0    0  501  0.00000000000E+00  0.00000000000E+00 -0.78047098963E+03  0.78047098964E+03  0.25500000920E-02 0.  1.
    10030    2    1    2    0    0  0.00000000000E+00  0.00000000000E+00 -0.15921099410E+03  0.14017309852E+04  0.13926599061E+04 0.  0.
        3    1    3    3  502    0 -0.17246169339E+03 -0.48313958657E+03 -0.55353175362E+03  0.75469484446E+03  0.10100000352E+00 0.  1.
       -3    1    3    3    0  502  0.17246169339E+03  0.48313958657E+03  0.39432075952E+03  0.64703614071E+03  0.10100000352E+00 0. -1.
</event>
<event>
 5   0  0.3756664E-04  0.1397206E+04  0.7818609E-02  0.8955843E-01
       -1   -1    0    0    0  501  0.00000000000E+00  0.00000000000E+00  0.27899763725E+03  0.27899763729E+03  0.50400001928E-02 0. -1.
        1   -1    0    0  501    0  0.00000000000E+00  0.00000000000E+00 -0.17492841782E+04  0.17492841782E+04  0.50400001928E-02 0.  1.
    10030    2    1    2    0    0  0.00000000000E+00  0.00000000000E+00 -0.14702865409E+04  0.20282818155E+04  0.13972060015E+04 0.  0.
        2    1    3    3  502    0  0.59829604058E+03  0.17522959610E+03 -0.11927822495E+04  0.13458800311E+04  0.25500000920E-02 0.  1.
       -2    1    3    3    0  502 -0.59829604058E+03 -0.17522959610E+03 -0.27750429147E+03  0.68240178437E+03  0.25500000920E-02 0. -1.
</event>
<event>
 5   0  0.3784219E-04  0.1415310E+04  0.7818609E-02  0.8942810E-01
       -1   -1    0    0    0  501  0.00000000000E+00  0.00000000000E+00  0.80050399718E+03  0.80050399719E+03  0.50400001928E-02 0.  1.
        1   -1    0    0  501    0  0.00000000000E+00  0.00000000000E+00 -0.62557550606E+03  0.62557550608E+03  0.50400001928E-02 0. -1.
    10030    2    1    2    0    0  0.00000000000E+00  0.00000000000E+00  0.17492849112E+03  0.14260795033E+04  0.14153101330E+04 0.  0.
        1    1    3    3  502    0 -0.16350251668E+03 -0.60866212489E+03 -0.23681225615E+03  0.67326272727E+03  0.50400001928E-02 0.  1.
       -1    1    3    3    0  502  0.16350251668E+03  0.60866212489E+03  0.41174074727E+03  0.75281677600E+03  0.50400001928E-02 0. -1.
</event>
<event>
 5   0  0.6959748E-04  0.1400282E+04  0.7818609E-02  0.8953615E-01
        2   -1    0    0  501    0  0.00000000000E+00  0.00000000000E+00  0.13947810918E+04  0.13947810918E+04  0.25500000920E-02 0.  1.
       -2   -1    0    0    0  501  0.00000000000E+00  0.00000000000E+00 -0.35145101059E+03  0.35145101060E+03  0.25500000920E-02 0. -1.
    10030    2    1    2    0    0  0.00000000000E+00  0.00000000000E+00  0.10433300812E+04  0.17462321024E+04  0.14002817206E+04 0.  0.
        5    1    3    3  502    0  0.16369131216E+02 -0.59891323458E+02 -0.34799138404E+03  0.35351805109E+03  0.46999998093E+01 0. -1.
       -5    1    3    3    0  502 -0.16369131216E+02  0.59891323458E+02  0.13913214652E+04  0.13927140513E+04  0.46999998093E+01 0.  1.
</event>
<event>
 5   0  0.3907093E-04  0.1404074E+04  0.7818609E-02  0.8950875E-01
       -1   -1    0    0    0  501  0.00000000000E+00  0.00000000000E+00  0.84333227418E+03  0.84333227419E+03  0.50400001928E-02 0.  1.
        1   -1    0    0  501    0  0.00000000000E+00  0.00000000000E+00 -0.58441473960E+03  0.58441473962E+03  0.50400001928E-02 0. -1.
    10030    2    1    2    0    0  0.00000000000E+00  0.00000000000E+00  0.25891753458E+03  0.14277470138E+04  0.14040738035E+04 0.  0.
        4    1    3    3  502    0  0.32606444130E+03 -0.14909973403E+03 -0.48429498017E+03  0.60257115040E+03  0.12699999809E+01 0. -1.
       -4    1    3    3    0  502 -0.32606444130E+03  0.14909973403E+03  0.74321251475E+03  0.82517586341E+03  0.12699999809E+01 0.  1.
</event>
<event>
 5   0  0.3784219E-04  0.1350675E+04  0.7818609E-02  0.8990317E-01
        1   -1    0    0  501    0  0.00000000000E+00  0.00000000000E+00  0.73322252637E+03  0.73322252639E+03  0.50400001928E-02 0. -1.
       -1   -1    0    0    0  501  0.00000000000E+00  0.00000000000E+00 -0.62202238754E+03  0.62202238756E+03  0.50400001928E-02 0.  1.
    10030    2    1    2    0    0  0.00000000000E+00  0.00000000000E+00  0.11120013883E+03  0.13552449140E+04  0.13506751297E+04 0.  0.
        1    1    3    3  502    0  0.78382049490E+02  0.53065570964E+03 -0.35608262042E+03  0.64384319554E+03  0.50400001928E-02 0.  1.
       -1    1    3    3    0  502 -0.78382049490E+02 -0.53065570964E+03  0.46728275924E+03  0.71140171842E+03  0.50400001928E-02 0. -1.
</event>
<event>
 5   0  0.6895048E-04  0.1405969E+04  0.7818609E-02  0.8949509E-01
       -2   -1    0    0    0  501  0.00000000000E+00  0.00000000000E+00  0.53744744330E+03  0.53744744330E+03  0.25500000920E-02 0. -1.
        2   -1    0    0  501    0  0.00000000000E+00  0.00000000000E+00 -0.91950829766E+03  0.91950829766E+03  0.25500000920E-02 0.  1.
    10030    2    1    2    0    0  0.00000000000E+00  0.00000000000E+00 -0.38206085436E+03  0.14569557410E+04  0.14059692510E+04 0.  0.
        4    1    3    3  502    0  0.34005237468E+02 -0.61694027537E+03 -0.53847133574E+03  0.81958809891E+03  0.12699999809E+01 0.  1.
       -4    1    3    3    0  502 -0.34005237468E+02  0.61694027537E+03  0.15641048138E+03  0.63736764205E+03  0.12699999809E+01 0. -1.
</event>
<event>
 5   0  0.3784219E-04  0.1401317E+04  0.7818609E-02  0.8952866E-01
       -1   -1    0    0    0  501  0.00000000000E+00  0.00000000000E+00  0.98859424295E+03  0.98859424296E+03  0.50400001928E-02 0. -1.
        1   -1    0    0  501    0  0.00000000000E+00  0.00000000000E+00 -0.49658655766E+03  0.49658655768E+03  0.50400001928E-02 0.  1.
    10030    2    1    2    0    0  0.00000000000E+00  0.00000000000E+00  0.49200768529E+03  0.14851808006E+04  0.14013173974E+04 0.  0.
        1    1    3    3  502    0  0.47844910951E+03 -0.49692643362E+03  0.37612420759E+03  0.78569641108E+03  0.50400001928E-02 0. -1.
       -1    1    3    3    0  502 -0.47844910951E+03  0.49692643362E+03  0.11588347770E+03  0.69948438957E+03  0.50400001928E-02 0.  1.
</event>
<event>
 5   0  0.3784219E-04  0.1395678E+04  0.7818609E-02  0.8956953E-01
       -1   -1    0    0    0  501  0.00000000000E+00  0.00000000000E+00  0.47562453972E+03  0.47562453974E+03  0.50400001928E-02 0. -1.
        1   -1    0    0  501    0  0.00000000000E+00  0.00000000000E+00 -0.10238737558E+04  0.10238737558E+04  0.50400001928E-02 0.  1.
    10030    2    1    2    0    0  0.00000000000E+00  0.00000000000E+00 -0.54824921611E+03  0.14994982956E+04  0.13956783066E+04 0.  0.
        1    1    3    3  502    0 -0.48038979421E+02  0.25884718453E+03  0.42022344904E+03  0.49588038440E+03  0.50400001928E-02 0. -1.
       -1    1    3    3    0  502  0.48038979421E+02 -0.25884718453E+03 -0.96847266514E+03  0.10036179112E+04  0.50400001928E-02 0.  1.
</event>
<event>
 5   0  0.3784219E-04  0.1391911E+04  0.7818609E-02  0.8959695E-01
       -1   -1    0    0    0  501  0.00000000000E+00  0.00000000000E+00  0.37388065635E+03  0.37388065638E+03  0.50400001928E-02 0. -1.
        1   -1    0    0  501    0  0.00000000000E+00  0.00000000000E+00 -0.12954773738E+04  0.12954773738E+04  0.50400001928E-02 0.  1.
    10030    2    1    2    0    0  0.00000000000E+00  0.00000000000E+00 -0.92159671747E+03  0.16693580302E+04  0.13919108173E+04 0.  0.
        1    1    3    3  502    0 -0.30327472808E+03  0.14967108601E+03  0.26870182629E+03  0.43194636954E+03  0.50400001928E-02 0. -1.
       -1    1    3    3    0  502  0.30327472808E+03 -0.14967108601E+03 -0.11902985438E+04  0.12374116607E+04  0.50400001928E-02 0.  1.
</event>
<event>
 5   0  0.3977658E-04  0.1407036E+04  0.7818609E-02  0.8948741E-01
        1   -1    0    0  501    0  0.00000000000E+00  0.00000000000E+00  0.27037862861E+03  0.27037862865E+03  0.50400001928E-02 0.  1.
       -1   -1    0    0    0  501  0.00000000000E+00  0.00000000000E+00 -0.18305346392E+04  0.18305346392E+04  0.50400001928E-02 0. -1.
    10030    2    1    2    0    0  0.00000000000E+00  0.00000000000E+00 -0.15601560106E+04  0.21009132679E+04  0.14070358139E+04 0.  0.
        5    1    3    3  502    0  0.38873752408E+03 -0.15803739017E+03  0.63019051667E+02  0.42436560911E+03  0.46999998093E+01 0.  1.
       -5    1    3    3    0  502 -0.38873752408E+03  0.15803739017E+03 -0.16231750623E+04  0.16765476588E+04  0.46999998093E+01 0. -1.
</event>
<event>
 5   0  0.3977658E-04  0.1428163E+04  0.7818609E-02  0.8933681E-01
       -1   -1    0    0    0  501  0.00000000000E+00  0.00000000000E+00  0.10054782504E+04  0.10054782504E+04  0.50400001928E-02 0. -1.
        1   -1    0    0  501    0  0.00000000000E+00  0.00000000000E+00 -0.50713402948E+03  0.50713402950E+03  0.50400001928E-02 0.  1.
    10030    2    1    2    0    0  0.00000000000E+00  0.00000000000E+00  0.49834422096E+03  0.15126122799E+04  0.14281627873E+04 0.  0.
        5    1    3    3  502    0  0.63489609959E+03 -0.32607442894E+03  0.27219589223E+03  0.76389153957E+03  0.46999998093E+01 0. -1.
       -5    1    3    3    0  502 -0.63489609959E+03  0.32607442894E+03  0.22614832873E+03  0.74872074038E+03  0.46999998093E+01 0.  1.
</event>
<event>
 5   0  0.3756664E-04  0.1380376E+04  0.7818609E-02  0.8968147E-01
       -1   -1    0    0    0  501  0.00000000000E+00  0.00000000000E+00  0.34695667726E+03  0.34695667729E+03  0.50400001928E-02 0. -1.
        1   -1    0    0  501    0  0.00000000000E+00  0.00000000000E+00 -0.13729658586E+04  0.13729658586E+04  0.50400001928E-02 0.  1.
    10030    2    1    2    0    0  0.00000000000E+00  0.00000000000E+00 -0.10260091813E+04  0.17199225359E+04  0.13803762854E+04 0.  0.
        2    1    3    3  502    0  0.51760004646E+03 -0.69420607472E+01  0.55798564720E+02  0.52064525364E+03  0.25500000920E-02 0. -1.
       -2    1    3    3    0  502 -0.51760004646E+03  0.69420607472E+01 -0.10818077460E+04  0.11992772822E+04  0.25500000920E-02 0.  1.
</event>
<event>
 5   0  0.3756664E-04  0.1393158E+04  0.7818609E-02  0.8958786E-01
       -1   -1    0    0    0  501  0.00000000000E+00  0.00000000000E+00  0.79650845191E+03  0.79650845193E+03  0.50400001928E-02 0. -1.
        1   -1    0    0  501    0  0.00000000000E+00  0.00000000000E+00 -0.60918663004E+03  0.60918663006E+03  0.50400001928E-02 0.  1.
    10030    2    1    2    0    0  0.00000000000E+00  0.00000000000E+00  0.18732182187E+03  0.14056950820E+04  0.13931579948E+04 0.  0.
        2    1    3    3  502    0 -0.46168414875E+03 -0.46936566495E+03  0.32322963373E+03  0.73343968857E+03  0.25500000920E-02 0.  1.
       -2    1    3    3    0  502  0.46168414875E+03  0.46936566495E+03 -0.13590781187E+03  0.67225539342E+03  0.25500000920E-02 0. -1.
</event>
<event>
 5   0  0.3756664E-04  0.1448991E+04  0.7818609E-02  0.8919100E-01
       -1   -1    0    0    0  501  0.00000000000E+00  0.00000000000E+00  0.42530916131E+03  0.42530916134E+03  0.50400001928E-02 0. -1.
        1   -1    0    0  501    0  0.00000000000E+00  0.00000000000E+00 -0.12341459798E+04  0.12341459798E+04  0.50400001928E-02 0.  1.
    10030    2    1    2    0    0  0.00000000000E+00  0.00000000000E+00 -0.80883681853E+03  0.16594551412E+04  0.14489908097E+04 0.  0.
        2    1    3    3  502    0 -0.19949928108E+01 -0.35422146090E+03 -0.11282091662E+04  0.11825112034E+04  0.25500000920E-02 0.  1.
       -2    1    3    3    0  502  0.19949928108E+01  0.35422146090E+03  0.31937234768E+03  0.47694393783E+03  0.25500000920E-02 0. -1.
</event>
<event>
 5   0  0.6959748E-04  0.1407467E+04  0.7818609E-02  0.8948431E-01
        2   -1    0    0  501    0  0.00000000000E+00  0.00000000000E+00  0.14802938810E+04  0.14802938810E+04  0.25500000920E-02 0.  1.
       -2   -1    0    0    0  501  0.00000000000E+00  0.00000000000E+00 -0.33455560515E+03  0.33455560516E+03  0.25500000920E-02 0. -1.
    10030    2    1    2    0    0  0.00000000000E+00  0.00000000000E+00  0.11457382758E+04  0.18148494861E+04  0.14074666819E+04 0.  0.
        5    1    3    3  502    0  0.21296193379E+03  0.57662557875E+03  0.10146212184E+04  0.11863086235E+04  0.46999998093E+01 0.  1.
       -5    1    3    3    0  502 -0.21296193379E+03 -0.57662557875E+03  0.13111705745E+03  0.62854086268E+03  0.46999998093E+01 0. -1.
</event>
<event>
 5   0  0.3784219E-04  0.1464096E+04  0.7818609E-02  0.8908686E-01
        1   -1    0    0  501    0  0.00000000000E+00  0.00000000000E+00  0.18161696926E+04  0.18161696926E+04  0.50400001928E-02 0.  1.
       -1   -1    0    0    0  501  0.00000000000E+00  0.00000000000E+00 -0.29506834671E+03  0.29506834675E+03  0.50400001928E-02 0. -1.
    10030    2    1    2    0    0  0.00000000000E+00  0.00000000000E+00  0.15211013459E+04  0.21112380394E+04  0.14640958829E+04 0.  0.
        1    1    3    3  502    0  0.42171984087E+03  0.56331014998E+03  0.46953558849E+03  0.84594894535E+03  0.50400001928E-02 0. -1.
       -1    1    3    3    0  502 -0.42171984087E+03 -0.56331014998E+03  0.10515657574E+04  0.12652890940E+04  0.50400001928E-02 0.  1.
</event>
<event>
 5   0  0.2660250E-04  0.1375489E+04  0.7818609E-02  0.8971754E-01
        3   -1    0    0  501    0  0.00000000000E+00  0.00000000000E+00  0.57368815288E+03  0.57368816177E+03  0.10100000352E+00 0. -1.
       -3   -1    0    0    0  501  0.00000000000E+00  0.00000000000E+00 -0.82447686014E+03  0.82447686633E+03  0.10100000352E+00 0.  1.
    10030    2    1    2    0    0  0.00000000000E+00  0.00000000000E+00 -0.25078870726E+03  0.13981650281E+04  0.13754891748E+04 0.  0.
        2    1    3    3  502    0 -0.60105606136E+03  0.66384094702E+02  0.20759955578E+03  0.63935343316E+03  0.25500000920E-02 0. -1.
       -2    1    3    3    0  502  0.60105606136E+03 -0.66384094702E+02 -0.45838826304E+03  0.75881159494E+03  0.25500000920E-02 0.  1.
</event>
<event>
 5   0  0.7296966E-04  0.1401233E+04  0.7818609E-02  0.8952926E-01
       -2   -1    0    0    0  501  0.00000000000E+00  0.00000000000E+00  0.41392570619E+03  0.41392570620E+03  0.25500000920E-02 0. -1.
        2   -1    0    0  501    0  0.00000000000E+00  0.00000000000E+00 -0.11858739792E+04  0.11858739792E+04  0.25500000920E-02 0.  1.
    10030    2    1    2    0    0  0.00000000000E+00  0.00000000000E+00 -0.77194827299E+03  0.15997996854E+04  0.14012333486E+04 0.  0.
        3    1    3    3  502    0 -0.50111093043E+03  0.36406148808E+03 -0.12143943455E+02  0.61951627684E+03  0.10100000352E+00 0. -1.
       -3    1    3    3    0  502  0.50111093043E+03 -0.36406148808E+03 -0.75980432954E+03  0.98028340855E+03  0.10100000352E+00 0.  1.
</event>
<event>
 5   0  0.3907093E-04  0.1399326E+04  0.7818609E-02  0.8954307E-01
       -1   -1    0    0    0  501  0.00000000000E+00  0.00000000000E+00  0.51997155255E+03  0.51997155258E+03  0.50400001928E-02 0. -1.
        1   -1    0    0  501    0  0.00000000000E+00  0.00000000000E+00 -0.94145190107E+03  0.94145190108E+03  0.50400001928E-02 0.  1.
    10030    2    1    2    0    0  0.00000000000E+00  0.00000000000E+00 -0.42148034852E+03  0.14614234537E+04  0.13993258472E+04 0.  0.
        4    1    3    3  502    0  0.27628934193E+03  0.21655426436E+03  0.42134082879E+03  0.54841704640E+03  0.12699999809E+01 0. -1.
       -4    1    3    3    0  502 -0.27628934193E+03 -0.21655426436E+03 -0.84282117731E+03  0.91300640726E+03  0.12699999809E+01 0.  1.
</event>
<event>
 5   0  0.6895048E-04  0.1398435E+04  0.7818609E-02  0.8954952E-01
       -2   -1    0    0    0  501  0.00000000000E+00  0.00000000000E+00  0.51341716473E+03  0.51341716474E+03  0.25500000920E-02 0.  1.
        2   -1    0    0  501    0  0.00000000000E+00  0.00000000000E+00 -0.95225755861E+03  0.95225755861E+03  0.25500000920E-02 0. -1.
    10030    2    1    2    0    0  0.00000000000E+00  0.00000000000E+00 -0.43884039387E+03  0.14656747234E+04  0.13984353769E+04 0.  0.
        4    1    3    3  502    0 -0.36720822467E+03 -0.52948895340E+03 -0.50395720070E+03  0.81803111498E+03  0.12699999809E+01 0. -1.
       -4    1    3    3    0  502  0.36720822467E+03  0.52948895340E+03  0.65116806829E+02  0.64764360837E+03  0.12699999809E+01 0.  1.
</event>
<event>
 5   0  0.7065539E-04  0.1406661E+04  0.7818609E-02  0.8949011E-01
        2   -1    0    0  501    0  0.00000000000E+00  0.00000000000E+00  0.20911080734E+04  0.20911080734E+04  0.25500000920E-02 0.  1.
       -2   -1    0    0    0  501  0.00000000000E+00  0.00000000000E+00 -0.23656068038E+03  0.23656068040E+03  0.25500000920E-02 0. -1.
    10030    2    1    2    0    0  0.00000000000E+00  0.00000000000E+00  0.18545473930E+04  0.23276687538E+04  0.14066612224E+04 0.  0.
        1    1    3    3  502    0  0.27594233609E+02  0.46372094138E+03  0.18011234356E+04  0.18600656395E+04  0.50400001928E-02 0.  1.
       -1    1    3    3    0  502 -0.27594233609E+02 -0.46372094138E+03  0.53423957440E+02  0.46760311425E+03  0.50400001928E-02 0. -1.
</event>
<event>
 5   0  0.3907270E-04  0.1396736E+04  0.7818609E-02  0.8956184E-01
        1   -1    0    0  501    0  0.00000000000E+00  0.00000000000E+00  0.10233081107E+04  0.10233081107E+04  0.50400001928E-02 0. -1.
       -1   -1    0    0    0  501  0.00000000000E+00  0.00000000000E+00 -0.47660912863E+03  0.47660912866E+03  0.50400001928E-02 0.  1.
    10030    2    1    2    0    0  0.00000000000E+00  0.00000000000E+00  0.54669898205E+03  0.14999172394E+04  0.13967361769E+04 0.  0.
        3    1    3    3  502    0 -0.11088562247E+03  0.14058883952E+02 -0.46694142261E+03  0.48013287311E+03  0.10100000352E+00 0.  1.
       -3    1    3    3    0  502  0.11088562247E+03 -0.14058883952E+02  0.10136404047E+04  0.10197843662E+04  0.10100000352E+00 0. -1.
</event>
<event>
 5   0  0.7296966E-04  0.1399101E+04  0.7818609E-02  0.8954470E-01
       -2   -1    0    0    0  501  0.00000000000E+00  0.00000000000E+00  0.70225120068E+03  0.70225120068E+03  0.25500000920E-02 0.  1.
        2   -1    0    0  501    0  0.00000000000E+00  0.00000000000E+00 -0.69685995990E+03  0.69685995990E+03  0.25500000920E-02 0. -1.
    10030    2    1    2    0    0  0.00000000000E+00  0.00000000000E+00  0.53912407776E+01  0.13991111606E+04  0.13991007734E+04 0.  0.
        3    1    3    3  502    0  0.38692661018E+03  0.20213059621E+03  0.54932729755E+03  0.70166193401E+03  0.10100000352E+00 0. -1.
       -3    1    3    3    0  502 -0.38692661018E+03 -0.20213059621E+03 -0.54393605678E+03  0.69744922658E+03  0.10100000352E+00 0.  1.
</event>
<event>
 5   0  0.3907093E-04  0.1412382E+04  0.7818609E-02  0.8944905E-01
        1   -1    0    0  501    0  0.00000000000E+00  0.00000000000E+00  0.61088893069E+03  0.61088893071E+03  0.50400001928E-02 0. -1.
       -1   -1    0    0    0  501  0.00000000000E+00  0.00000000000E+00 -0.81636035470E+03  0.81636035472E+03  0.50400001928E-02 0.  1.
    10030    2    1    2    0    0  0.00000000000E+00  0.00000000000E+00 -0.20547142402E+03  0.14272492854E+04  0.14123816824E+04 0.  0.
        4    1    3    3  502    0  0.21995512689E+02  0.36089460441E+03 -0.71573083181E+03  0.80187340309E+03  0.12699999809E+01 0.  1.
       -4    1    3    3    0  502 -0.21995512689E+02 -0.36089460441E+03  0.51025940779E+03  0.62537588234E+03  0.12699999809E+01 0. -1.
</event>
<event>
 5   0  0.6870835E-04  0.1394506E+04  0.7818609E-02  0.8957805E-01
        2   -1    0    0  501    0  0.00000000000E+00  0.00000000000E+00  0.57723549529E+03  0.57723549529E+03  0.25500000920E-02 0. -1.
       -2   -1    0    0    0  501  0.00000000000E+00  0.00000000000E+00 -0.84222447225E+03  0.84222447225E+03  0.25500000920E-02 0.  1.
    10030    2    1    2    0    0  0.00000000000E+00  0.00000000000E+00 -0.26498897696E+03  0.14194599675E+04  0.13945061640E+04 0.  0.
        2    1    3    3  502    0 -0.13047328013E+03  0.29082405813E+03  0.49873130549E+03  0.59189088919E+03  0.25500000920E-02 0. -1.
       -2    1    3    3    0  502  0.13047328013E+03 -0.29082405813E+03 -0.76372028245E+03  0.82756907836E+03  0.25500000920E-02 0.  1.
</event>
<event>
 5   0  0.3907093E-04  0.1400977E+04  0.7818609E-02  0.8953112E-01
        1   -1    0    0  501    0  0.00000000000E+00  0.00000000000E+00  0.16647488066E+04  0.16647488067E+04  0.50400001928E-02 0.  1.
       -1   -1    0    0    0  501  0.00000000000E+00  0.00000000000E+00 -0.29474969198E+03  0.29474969202E+03  0.50400001928E-02 0. -1.
    10030    2    1    2    0    0  0.00000000000E+00  0.00000000000E+00  0.13699991147E+04  0.19594984987E+04  0.14009770848E+04 0.  0.
        4    1    3    3  502    0 -0.20890734159E+03 -0.27769865205E+03  0.15356869968E+04  0.15745142056E+04  0.12699999809E+01 0.  1.
       -4    1    3    3    0  502  0.20890734159E+03  0.27769865205E+03 -0.16568788211E+03  0.38498429306E+03  0.12699999809E+01 0. -1.
</event>
<event>
 5   0  0.3907093E-04  0.1396977E+04  0.7818609E-02  0.8956010E-01
       -1   -1    0    0    0  501  0.00000000000E+00  0.00000000000E+00  0.41335222799E+03  0.41335222802E+03  0.50400001928E-02 0. -1.
        1   -1    0    0  501    0  0.00000000000E+00  0.00000000000E+00 -0.11803158198E+04  0.11803158198E+04  0.50400001928E-02 0.  1.
    10030    2    1    2    0    0  0.00000000000E+00  0.00000000000E+00 -0.76696359184E+03  0.15936680479E+04  0.13969769846E+04 0.  0.
        4    1    3    3  502    0  0.28768805945E+03 -0.53023569859E+03  0.18186306581E+02  0.60352851653E+03  0.12699999809E+01 0. -1.
       -4    1    3    3    0  502 -0.28768805945E+03  0.53023569859E+03 -0.78514989842E+03  0.99013953133E+03  0.12699999809E+01 0.  1.
</event>
<event>
 5   0  0.3756664E-04  0.1415395E+04  0.7818609E-02  0.8942749E-01
       -1   -1    0    0    0  501  0.00000000000E+00  0.00000000000E+00  0.14600731981E+04  0.14600731981E+04  0.50400001928E-02 0. -1.
        1   -1    0    0  501    0  0.00000000000E+00  0.00000000000E+00 -0.34302113299E+03  0.34302113302E+03  0.50400001928E-02 0.  1.
    10030    2    1    2    0    0  0.00000000000E+00  0.00000000000E+00  0.11170520651E+04  0.18030943311E+04  0.14153952984E+04 0.  0.
        2    1    3    3  502    0 -0.17056663686E+03  0.65706702621E+03  0.30372407157E+03  0.74369238681E+03  0.25500000920E-02 0.  1.
       -2    1    3    3    0  502  0.17056663686E+03 -0.65706702621E+03  0.81332799354E+03  0.10594019443E+04  0.25500000920E-02 0. -1.
</event>
<event>
 5   0  0.6870835E-04  0.1402947E+04  0.7818609E-02  0.8951688E-01
       -2   -1    0    0    0  501  0.00000000000E+00  0.00000000000E+00  0.32219836434E+03  0.32219836435E+03  0.25500000920E-02 0.  1.
        2   -1    0    0  501    0  0.00000000000E+00  0.00000000000E+00 -0.15272125233E+04  0.15272125233E+04  0.25500000920E-02 0. -1.
    10030    2    1    2    0    0  0.00000000000E+00  0.00000000000E+00 -0.12050141589E+04  0.18494108876E+04  0.14029474359E+04 0.  0.
        2    1    3    3  502    0  0.20398312533E+03 -0.13732991844E+03 -0.14685334086E+04  0.14889791786E+04  0.25500000920E-02 0. -1.
       -2    1    3    3    0  502 -0.20398312533E+03  0.13732991844E+03  0.26351924970E+03  0.36043170905E+03  0.25500000920E-02 0.  1.
</event>
<event>
 5   0  0.7065539E-04  0.1399368E+04  0.7818609E-02  0.8954276E-01
        2   -1    0    0  501    0  0.00000000000E+00  0.00000000000E+00  0.17290893789E+04  0.17290893789E+04  0.25500000920E-02 0. -1.
       -2   -1    0    0    0  501  0.00000000000E+00  0.00000000000E+00 -0.28313053060E+03  0.28313053061E+03  0.25500000920E-02 0.  1.
    10030    2    1    2    0    0  0.00000000000E+00  0.00000000000E+00  0.14459588483E+04  0.20122199095E+04  0.13993684194E+04 0.  0.
        1    1    3    3  502    0 -0.34038084392E+03 -0.18491101949E+03  0.15608319916E+04  0.16081814916E+04  0.50400001928E-02 0. -1.
       -1    1    3    3    0  502  0.34038084392E+03  0.18491101949E+03 -0.11487314330E+03  0.40403841787E+03  0.50400001928E-02 0.  1.
</event>
<event>
 5   0  0.6959748E-04  0.1408368E+04  0.7818609E-02  0.8947783E-01
        2   -1    0    0  501    0  0.00000000000E+00  0.00000000000E+00  0.11566626096E+04  0.11566626096E+04  0.25500000920E-02 0. -1.
       -2   -1    0    0    0  501  0.00000000000E+00  0.00000000000E+00 -0.42871216266E+03  0.42871216267E+03  0.25500000920E-02 0.  1.
    10030    2    1    2    0    0  0.00000000000E+00  0.00000000000E+00  0.72795044698E+03  0.15853747723E+04  0.14083683167E+04 0.  0.
        5    1    3    3  502    0 -0.59517463510E+02  0.58691856463E+03  0.79679591507E+03  0.99142400125E+03  0.46999998093E+01 0. -1.
       -5    1    3    3    0  502  0.59517463510E+02 -0.58691856463E+03 -0.68845468097E+02  0.59395077106E+03  0.46999998093E+01 0.  1.
</event>
<event>
 5   0  0.7065539E-04  0.1270617E+04  0.7818609E-02  0.9053196E-01
       -2   -1    0    0    0  501  0.00000000000E+00  0.00000000000E+00  0.11543418868E+04  0.11543418868E+04  0.25500000920E-02 0.  1.
        2   -1    0    0  501    0  0.00000000000E+00  0.00000000000E+00 -0.34965135540E+03  0.34965135541E+03  0.25500000920E-02 0. -1.
    10030    2    1    2    0    0  0.00000000000E+00  0.00000000000E+00  0.80469053144E+03  0.15039932422E+04  0.12706174961E+04 0.  0.
        1    1    3    3  502    0 -0.32538699838E+03 -0.30764989087E+03 -0.13108483261E+03  0.46659231395E+03  0.50400001928E-02 0. -1.
       -1    1    3    3    0  502  0.32538699838E+03  0.30764989087E+03  0.93577536404E+03  0.10374009283E+04  0.50400001928E-02 0.  1.
</event>
<event>
 5   0  0.3784219E-04  0.1396805E+04  0.7818609E-02  0.8956134E-01
       -1   -1    0    0    0  501  0.00000000000E+00  0.00000000000E+00  0.37054261508E+03  0.37054261511E+03  0.50400001928E-02 0.  1.
        1   -1    0    0  501    0  0.00000000000E+00  0.00000000000E+00 -0.13163565156E+04  0.13163565156E+04  0.50400001928E-02 0. -1.
    10030    2    1    2    0    0  0.00000000000E+00  0.00000000000E+00 -0.94581390051E+03  0.16868991307E+04  0.13968051914E+04 0.  0.
        1    1    3    3  502    0  0.51810509317E+03 -0.25224203145E+03  0.36421996290E+01  0.57625705691E+03  0.50400001928E-02 0.  1.
       -1    1    3    3    0  502 -0.51810509317E+03  0.25224203145E+03 -0.94945610014E+03  0.11106420738E+04  0.50400001928E-02 0. -1.
</event>
<event>
 5   0  0.6959748E-04  0.1402898E+04  0.7818609E-02  0.8951723E-01
        2   -1    0    0  501    0  0.00000000000E+00  0.00000000000E+00  0.82292958163E+03  0.82292958164E+03  0.25500000920E-02 0.  1.
       -2   -1    0    0    0  501  0.00000000000E+00  0.00000000000E+00 -0.59790175674E+03  0.59790175674E+03  0.25500000920E-02 0. -1.
    10030    2    1    2    0    0  0.00000000000E+00  0.00000000000E+00  0.22502782489E+03  0.14208313384E+04  0.14028984889E+04 0.  0.
        5    1    3    3  502    0 -0.33176675361E+03  0.60684801576E+03  0.23095000433E+03  0.72917329047E+03  0.46999998093E+01 0.  1.
       -5    1    3    3    0  502  0.33176675361E+03 -0.60684801576E+03 -0.59221794314E+01  0.69165804791E+03  0.46999998093E+01 0. -1.
</event>
<event>
 5   0  0.2660250E-04  0.1279646E+04  0.7818609E-02  0.9045863E-01
        3   -1    0    0  501    0  0.00000000000E+00  0.00000000000E+00  0.57512640639E+03  0.57512641526E+03  0.10100000352E+00 0. -1.
       -3   -1    0    0    0  501  0.00000000000E+00  0.00000000000E+00 -0.71179772974E+03  0.71179773691E+03  0.10100000352E+00 0.  1.
    10030    2    1    2    0    0  0.00000000000E+00  0.00000000000E+00 -0.13667132335E+03  0.12869241522E+04  0.12796463272E+04 0.  0.
        4    1    3    3  502    0  0.31464202762E+03 -0.21380646752E+03 -0.58571197425E+03  0.69840743179E+03  0.12699999809E+01 0.  1.
       -4    1    3    3    0  502 -0.31464202762E+03  0.21380646752E+03  0.44904065090E+03  0.58851672037E+03  0.12699999809E+01 0. -1.
</event>
<event>
 5   0  0.6895048E-04  0.1453933E+04  0.7818609E-02  0.8915679E-01
       -2   -1    0    0    0  501  0.00000000000E+00  0.00000000000E+00  0.25463770487E+03  0.25463770489E+03  0.25500000920E-02 0.  1.
        2   -1    0    0  501    0  0.00000000000E+00  0.00000000000E+00 -0.20754194395E+04  0.20754194395E+04  0.25500000920E-02 0. -1.
    10030    2    1    2    0    0  0.00000000000E+00  0.00000000000E+00 -0.18207817346E+04  0.23300571444E+04  0.14539326570E+04 0.  0.
        4    1    3    3  502    0 -0.17804954080E+03 -0.64142554467E+03 -0.44219863947E+03  0.79916807868E+03  0.12699999809E+01 0. -1.
       -4    1    3    3    0  502  0.17804954080E+03  0.64142554467E+03 -0.13785830952E+04  0.15308890657E+04  0.12699999809E+01 0.  1.
</event>
<event>
 5   0  0.6895048E-04  0.1401471E+04  0.7818609E-02  0.8952755E-01
       -2   -1    0    0    0  501  0.00000000000E+00  0.00000000000E+00  0.86349144855E+03  0.86349144855E+03  0.25500000920E-02 0.  1.
        2   -1    0    0  501    0  0.00000000000E+00  0.00000000000E+00 -0.56865668634E+03  0.56865668634E+03  0.25500000920E-02 0. -1.
    10030    2    1    2    0    0  0.00000000000E+00  0.00000000000E+00  0.29483476221E+03  0.14321481349E+04  0.14014709213E+04 0.  0.
        4    1    3    3  502    0  0.49312105820E+03  0.40368694266E+03  0.44516626573E+03  0.77737130302E+03  0.12699999809E+01 0.  1.
       -4    1    3    3    0  502 -0.49312105820E+03 -0.40368694266E+03 -0.15033150352E+03  0.65477683188E+03  0.12699999809E+01 0. -1.
</event>
<event>
 5   0  0.3756664E-04  0.1399422E+04  0.7818609E-02  0.8954237E-01
       -1   -1    0    0    0  501  0.00000000000E+00  0.00000000000E+00  0.31303134261E+03  0.31303134265E+03  0.50400001928E-02 0.  1.
        1   -1    0    0  501    0  0.00000000000E+00  0.00000000000E+00 -0.15640456099E+04  0.15640456099E+04  0.50400001928E-02 0. -1.
    10030    2    1    2    0    0  0.00000000000E+00  0.00000000000E+00 -0.12510142673E+04  0.18770769525E+04  0.13994217337E+04 0.  0.
        2    1    3    3  502    0  0.34271106169E+03 -0.23519108474E+03  0.12949177356E+03  0.43535484099E+03  0.25500000920E-02 0.  1.
       -2    1    3    3    0  502 -0.34271106169E+03  0.23519108474E+03 -0.13805060408E+04  0.14417221116E+04  0.25500000920E-02 0. -1.
</event>
<event>
 5   0  0.3784219E-04  0.1405760E+04  0.7818609E-02  0.8949659E-01
        1   -1    0    0  501    0  0.00000000000E+00  0.00000000000E+00  0.13533973271E+04  0.13533973271E+04  0.50400001928E-02 0. -1.
       -1   -1    0    0    0  501  0.00000000000E+00  0.00000000000E+00 -0.36503735011E+03  0.36503735015E+03  0.50400001928E-02 0.  1.
    10030    2    1    2    0    0  0.00000000000E+00  0.00000000000E+00  0.98835997700E+03  0.17184346773E+04  0.14057603978E+04 0.  0.
        1    1    3    3  502    0  0.54277818221E+03 -0.22164296756E+03  0.20253418037E+02  0.58663784494E+03  0.50400001928E-02 0.  1.
       -1    1    3    3    0  502 -0.54277818221E+03  0.22164296756E+03  0.96810655896E+03  0.11317968323E+04  0.50400001928E-02 0. -1.
</event>
<event>
 5   0  0.3977658E-04  0.1407624E+04  0.7818609E-02  0.8948319E-01
       -1   -1    0    0    0  501  0.00000000000E+00  0.00000000000E+00  0.10644156604E+04  0.10644156604E+04  0.50400001928E-02 0.  1.
        1   -1    0    0  501    0  0.00000000000E+00  0.00000000000E+00 -0.46537365944E+03  0.46537365947E+03  0.50400001928E-02 0. -1.
    10030    2    1    2    0    0  0.00000000000E+00  0.00000000000E+00  0.59904200093E+03  0.15297893199E+04  0.14076235449E+04 0.  0.
        5    1    3    3  502    0 -0.64428841129E+03 -0.16866835197E+03  0.54680387826E+03  0.86172683674E+03  0.46999998093E+01 0.  1.
       -5    1    3    3    0  502  0.64428841129E+03  0.16866835197E+03  0.52238122667E+02  0.66806248311E+03  0.46999998093E+01 0. -1.
</event>
<event>
 5   0  0.6895048E-04  0.1402781E+04  0.7818609E-02  0.8951808E-01
       -2   -1    0    0    0  501  0.00000000000E+00  0.00000000000E+00  0.48684840638E+03  0.48684840639E+03  0.25500000920E-02 0.  1.
        2   -1    0    0  501    0  0.00000000000E+00  0.00000000000E+00 -0.10104765305E+04  0.10104765305E+04  0.25500000920E-02 0. -1.
    10030    2    1    2    0    0  0.00000000000E+00  0.00000000000E+00 -0.52362812413E+03  0.14973249369E+04  0.14027813637E+04 0.  0.
        4    1    3    3  502    0  0.30631991781E+03  0.28589856775E+03  0.33856949735E+03  0.53870288705E+03  0.12699999809E+01 0.  1.
       -4    1    3    3    0  502 -0.30631991781E+03 -0.28589856775E+03 -0.86219762148E+03  0.95862204985E+03  0.12699999809E+01 0. -1.
</event>
<event>
 5   0  0.6959748E-04  0.1395959E+04  0.7818609E-02  0.8956749E-01
       -2   -1    0    0    0  501  0.00000000000E+00  0.00000000000E+00  0.38791907537E+03  0.38791907538E+03  0.25500000920E-02 0.  1.
        2   -1    0    0  501    0  0.00000000000E+00  0.00000000000E+00 -0.12558683716E+04  0.12558683716E+04  0.25500000920E-02 0. -1.
    10030    2    1    2    0    0  0.00000000000E+00  0.00000000000E+00 -0.86794929622E+03  0.16437874470E+04  0.13959588783E+04 0.  0.
        5    1    3    3  502    0  0.31262648082E+03  0.14973804477E+03 -0.11473267443E+04  0.11985564428E+04  0.46999998093E+01 0. -1.
       -5    1    3    3    0  502 -0.31262648082E+03 -0.14973804477E+03  0.27937744805E+03  0.44523100413E+03  0.46999998093E+01 0.  1.
</event>
<event>
 5   0  0.7065539E-04  0.1401005E+04  0.7818609E-02  0.8953091E-01
       -2   -1    0    0    0  501  0.00000000000E+00  0.00000000000E+00  0.67693929301E+03  0.67693929301E+03  0.25500000920E-02 0. -1.
        2   -1    0    0  501    0  0.00000000000E+00  0.00000000000E+00 -0.72488622433E+03  0.72488622434E+03  0.25500000920E-02 0.  1.
    10030    2    1    2    0    0  0.00000000000E+00  0.00000000000E+00 -0.47946931328E+02  0.14018255174E+04  0.14010053079E+04 0.  0.
        1    1    3    3  502    0  0.64136346452E+03  0.27510090026E+03  0.36695102168E+02  0.69883769896E+03  0.50400001928E-02 0.  1.
       -1    1    3    3    0  502 -0.64136346452E+03 -0.27510090026E+03 -0.84642033496E+02  0.70298781839E+03  0.50400001928E-02 0. -1.
</event>
<event>
 5   0  0.7065539E-04  0.1404777E+04  0.7818609E-02  0.8950368E-01
       -2   -1    0    0    0  501  0.00000000000E+00  0.00000000000E+00  0.45719278112E+03  0.45719278113E+03  0.25500000920E-02 0.  1.
        2   -1    0    0  501    0  0.00000000000E+00  0.00000000000E+00 -0.10790844948E+04  0.10790844948E+04  0.25500000920E-02 0. -1.
    10030    2    1    2    0    0  0.00000000000E+00  0.00000000000E+00 -0.62189171367E+03  0.15362772759E+04  0.14047770517E+04 0.  0.
        1    1    3    3  502    0 -0.36305194580E+03  0.24269971070E+02  0.34608848307E+03  0.50216828353E+03  0.50400001928E-02 0.  1.
       -1    1    3    3    0  502  0.36305194580E+03 -0.24269971070E+02 -0.96798019674E+03  0.10341089924E+04  0.50400001928E-02 0. -1.
</event>
<event>
 5   0  0.3977658E-04  0.1400499E+04  0.7818609E-02  0.8953458E-01
        1   -1    0    0  501    0  0.00000000000E+00  0.00000000000E+00  0.74436962887E+03  0.74436962889E+03  0.50400001928E-02 0. -1.
       -1   -1    0    0    0  501  0.00000000000E+00  0.00000000000E+00 -0.65874433955E+03  0.65874433957E+03  0.50400001928E-02 0.  1.
    10030    2    1    2    0    0  0.00000000000E+00  0.00000000000E+00  0.85625289322E+02  0.14031139685E+04  0.14004988819E+04 0.  0.
        5    1    3    3  502    0  0.37057718172E+03  0.26693603248E+03  0.57460025000E+03  0.73400942116E+03  0.46999998093E+01 0. -1.
       -5    1    3    3    0  502 -0.37057718172E+03 -0.26693603248E+03 -0.48897496068E+03  0.66910454730E+03  0.46999998093E+01 0.  1.
</event>
<event>
 5   0  0.3977658E-04  0.1304409E+04  0.7818609E-02  0.9026076E-01
        1   -1    0    0  501    0  0.00000000000E+00  0.00000000000E+00  0.72109405277E+03  0.72109405279E+03  0.50400001928E-02 0. -1.
       -1   -1    0    0    0  501  0.00000000000E+00  0.00000000000E+00 -0.58989605328E+03  0.58989605330E+03  0.50400001928E-02 0.  1.
    10030    2    1    2    0    0  0.00000000000E+00  0.00000000000E+00  0.13119799950E+03  0.13109901061E+04  0.13044087332E+04 0.  0.
        5    1    3    3  502    0 -0.68053368459E+02 -0.88048751029E+02 -0.58026656472E+03  0.59085972925E+03  0.46999998093E+01 0.  1.
       -5    1    3    3    0  502  0.68053368459E+02  0.88048751029E+02  0.71146456422E+03  0.72013037684E+03  0.46999998093E+01 0. -1.
</event>
<event>
 5   0  0.6895048E-04  0.1432681E+04  0.7818609E-02  0.8930496E-01
       -2   -1    0    0    0  501  0.00000000000E+00  0.00000000000E+00  0.70976310323E+03  0.70976310324E+03  0.25500000920E-02 0.  1.
        2   -1    0    0  501    0  0.00000000000E+00  0.00000000000E+00 -0.72297921482E+03  0.72297921483E+03  0.25500000920E-02 0. -1.
    10030    2    1    2    0    0  0.00000000000E+00  0.00000000000E+00 -0.13216111588E+02  0.14327423181E+04  0.14326813618E+04 0.  0.
        4    1    3    3  502    0 -0.67308858890E+03  0.88935874438E+02 -0.23505708863E+03  0.71847845207E+03  0.12699999809E+01 0. -1.
       -4    1    3    3    0  502  0.67308858890E+03 -0.88935874438E+02  0.22184097704E+03  0.71426386599E+03  0.12699999809E+01 0.  1.
</event>
<event>
 5   0  0.3907093E-04  0.1327498E+04  0.7818609E-02  0.9008039E-01
       -1   -1    0    0    0  501  0.00000000000E+00  0.00000000000E+00  0.31429127436E+03  0.31429127440E+03  0.50400001928E-02 0.  1.
        1   -1    0    0  501    0  0.00000000000E+00  0.00000000000E+00 -0.14017660180E+04  0.14017660180E+04  0.50400001928E-02 0. -1.
    10030    2    1    2    0    0  0.00000000000E+00  0.00000000000E+00 -0.10874747437E+04  0.17160572924E+04  0.13274981404E+04 0.  0.
        4    1    3    3  502    0  0.26724193943E+03  0.30704949829E+03 -0.12214669666E+04  0.12875095386E+04  0.12699999809E+01 0. -1.
       -4    1    3    3    0  502 -0.26724193943E+03 -0.30704949829E+03  0.13399222295E+03  0.42854775382E+03  0.12699999809E+01 0.  1.
</event>
<event>
 5   0  0.6895048E-04  0.1489162E+04  0.7818609E-02  0.8891692E-01
       -2   -1    0    0    0  501  0.00000000000E+00  0.00000000000E+00  0.39186526598E+03  0.39186526598E+03  0.25500000920E-02 0.  1.
        2   -1    0    0  501    0  0.00000000000E+00  0.00000000000E+00 -0.14147742237E+04  0.14147742237E+04  0.25500000920E-02 0. -1.
    10030    2    1    2    0    0  0.00000000000E+00  0.00000000000E+00 -0.10229089578E+04  0.18066394897E+04  0.14891620160E+04 0.  0.
        4    1    3    3  502    0  0.47023656358E+03 -0.37104542553E+03 -0.10480120653E+04  0.12071155849E+04  0.12699999809E+01 0. -1.
       -4    1    3    3    0  502 -0.47023656358E+03  0.37104542553E+03  0.25103107485E+02  0.59952390481E+03  0.12699999809E+01 0.  1.
</event>
<event>
 5   0  0.3907270E-04  0.1393747E+04  0.7818609E-02  0.8958358E-01
       -1   -1    0    0    0  501  0.00000000000E+00  0.00000000000E+00  0.25361214889E+03  0.25361214894E+03  0.50400001928E-02 0. -1.
        1   -1    0    0  501    0  0.00000000000E+00  0.00000000000E+00 -0.19148625217E+04  0.19148625217E+04  0.50400001928E-02 0.  1.
    10030    2    1    2    0    0  0.00000000000E+00  0.00000000000E+00 -0.16612503728E+04  0.21684746706E+04  0.13937466040E+04 0.  0.
        3    1    3    3  502    0  0.64326700651E+03  0.21574752597E+02 -0.12462887930E+04  0.14026737601E+04  0.10100000352E+00 0. -1.
       -3    1    3    3    0  502 -0.64326700651E+03 -0.21574752597E+02 -0.41496157982E+03  0.76580091052E+03  0.10100000352E+00 0.  1.
</event>
<event>
 5   0  0.3907093E-04  0.1393078E+04  0.7818609E-02  0.8958844E-01
        1   -1    0    0  501    0  0.00000000000E+00  0.00000000000E+00  0.16749599381E+04  0.16749599381E+04  0.50400001928E-02 0.  1.
       -1   -1    0    0    0  501  0.00000000000E+00  0.00000000000E+00 -0.28965877563E+03  0.28965877567E+03  0.50400001928E-02 0. -1.
    10030    2    1    2    0    0  0.00000000000E+00  0.00000000000E+00  0.13853011624E+04  0.19646187137E+04  0.13930783825E+04 0.  0.
        4    1    3    3  502    0  0.16619906826E+03 -0.34751477899E+03  0.15110657400E+04  0.15593940924E+04  0.12699999809E+01 0.  1.
       -4    1    3    3    0  502 -0.16619906826E+03  0.34751477899E+03 -0.12576457754E+03  0.40522462138E+03  0.12699999809E+01 0. -1.
</event>
<event>
 5   0  0.3756664E-04  0.1405021E+04  0.7818609E-02  0.8950192E-01
        1   -1    0    0  501    0  0.00000000000E+00  0.00000000000E+00  0.16107983272E+04  0.16107983272E+04  0.50400001928E-02 0. -1.
       -1   -1    0    0    0  501  0.00000000000E+00  0.00000000000E+00 -0.30638287793E+03  0.30638287798E+03  0.50400001928E-02 0.  1.
    10030    2    1    2    0    0  0.00000000000E+00  0.00000000000E+00  0.13044154492E+04  0.19171812052E+04  0.14050210351E+04 0.  0.
        2    1    3    3  502    0  0.70561295940E+02 -0.61193802470E+03  0.11130726348E+04  0.12721547598E+04  0.25500000920E-02 0. -1.
       -2    1    3    3    0  502 -0.70561295940E+02  0.61193802470E+03  0.19134281443E+03  0.64502644535E+03  0.25500000920E-02 0.  1.
</event>
<event>
 5   0  0.7065539E-04  0.1388181E+04  0.7818609E-02  0.8962419E-01
       -2   -1    0    0    0  501  0.00000000000E+00  0.00000000000E+00  0.23804420737E+03  0.23804420739E+03  0.25500000920E-02 0. -1.
        2   -1    0    0  501    0  0.00000000000E+00  0.00000000000E+00 -0.20238318265E+04  0.20238318265E+04  0.25500000920E-02 0.  1.
    10030    2    1    2    0    0  0.00000000000E+00  0.00000000000E+00 -0.17857876191E+04  0.22618760339E+04  0.13881807419E+04 0.  0.
        1    1    3    3  502    0 -0.63680210327E+03 -0.25975949074E+03 -0.74030911478E+03  0.10104699388E+04  0.50400001928E-02 0. -1.
       -1    1    3    3    0  502  0.63680210327E+03  0.25975949074E+03 -0.10454785043E+04  0.12514060951E+04  0.50400001928E-02 0.  1.
</event>
<event>
 5   0  0.3784219E-04  0.1433128E+04  0.7818609E-02  0.8930182E-01
        1   -1    0    0  501    0  0.00000000000E+00  0.00000000000E+00  0.79183153539E+03  0.79183153540E+03  0.50400001928E-02 0.  1.
       -1   -1    0    0    0  501  0.00000000000E+00  0.00000000000E+00 -0.64845121620E+03  0.64845121622E+03  0.50400001928E-02 0. -1.
    10030    2    1    2    0    0  0.00000000000E+00  0.00000000000E+00  0.14338031919E+03  0.14402827516E+04  0.14331282178E+04 0.  0.
        1    1    3    3  502    0 -0.15545576498E+03  0.43435238421E+03  0.62272992447E+03  0.77499744993E+03  0.50400001928E-02 0.  1.
       -1    1    3    3    0  502  0.15545576498E+03 -0.43435238421E+03 -0.47934960529E+03  0.66528530169E+03  0.50400001928E-02 0. -1.
</event>
<event>
 5   0  0.7065539E-04  0.1376769E+04  0.7818609E-02  0.8970808E-01
       -2   -1    0    0    0  501  0.00000000000E+00  0.00000000000E+00  0.22848856492E+03  0.22848856493E+03  0.25500000920E-02 0. -1.
        2   -1    0    0  501    0  0.00000000000E+00  0.00000000000E+00 -0.20739474350E+04  0.20739474350E+04  0.25500000920E-02 0.  1.
    10030    2    1    2    0    0  0.00000000000E+00  0.00000000000E+00 -0.18454588700E+04  0.23024359999E+04  0.13767690774E+04 0.  0.
        1    1    3    3  502    0  0.43799255877E+02  0.16248780530E+03 -0.20390166758E+04  0.20459495756E+04  0.50400001928E-02 0.  1.
       -1    1    3    3    0  502 -0.43799255877E+02 -0.16248780530E+03  0.19355780572E+03  0.25648642433E+03  0.50400001928E-02 0. -1.
</event>
<event>
 5   0  0.6870835E-04  0.1359245E+04  0.7818609E-02  0.8983859E-01
        2   -1    0    0  501    0  0.00000000000E+00  0.00000000000E+00  0.12547156819E+04  0.12547156819E+04  0.25500000920E-02 0.  1.
       -2   -1    0    0    0  501  0.00000000000E+00  0.00000000000E+00 -0.36812088711E+03  0.36812088712E+03  0.25500000920E-02 0. -1.
    10030    2    1    2    0    0  0.00000000000E+00  0.00000000000E+00  0.88659479475E+03  0.16228365690E+04  0.13592454523E+04 0.  0.
        2    1    3    3  502    0 -0.25453032456E+03 -0.43082429646E+03  0.99236226096E+03  0.11113856745E+04  0.25500000920E-02 0.  1.
       -2    1    3    3    0  502  0.25453032456E+03  0.43082429646E+03 -0.10576746620E+03  0.51145089447E+03  0.25500000920E-02 0. -1.
</event>
<event>
 5   0  0.6895048E-04  0.1398645E+04  0.7818609E-02  0.8954800E-01
       -2   -1    0    0    0  501  0.00000000000E+00  0.00000000000E+00  0.52454883687E+03  0.52454883688E+03  0.25500000920E-02 0. -1.
        2   -1    0    0  501    0  0.00000000000E+00  0.00000000000E+00 -0.93232828022E+03  0.93232828022E+03  0.25500000920E-02 0.  1.
    10030    2    1    2    0    0  0.00000000000E+00  0.00000000000E+00 -0.40777944335E+03  0.14568771171E+04  0.13986446511E+04 0.  0.
        4    1    3    3  502    0 -0.30736260334E+02  0.69632820116E+03 -0.26311123065E+03  0.74501464015E+03  0.12699999809E+01 0. -1.
       -4    1    3    3    0  502  0.30736260334E+02 -0.69632820116E+03 -0.14466821270E+03  0.71186247696E+03  0.12699999809E+01 0.  1.
</event>
<event>
 5   0  0.3756664E-04  0.1405429E+04  0.7818609E-02  0.8949898E-01
        1   -1    0    0  501    0  0.00000000000E+00  0.00000000000E+00  0.82853950016E+03  0.82853950017E+03  0.50400001928E-02 0.  1.
       -1   -1    0    0    0  501  0.00000000000E+00  0.00000000000E+00 -0.59599808079E+03  0.59599808082E+03  0.50400001928E-02 0. -1.
    10030    2    1    2    0    0  0.00000000000E+00  0.00000000000E+00  0.23254141936E+03  0.14245375810E+04  0.14054294034E+04 0.  0.
        2    1    3    3  502    0 -0.50372568696E+03 -0.10660107552E+03  0.60100341258E+03  0.79139652447E+03  0.25500000920E-02 0.  1.
       -2    1    3    3    0  502  0.50372568696E+03  0.10660107552E+03 -0.36846199321E+03  0.63314105652E+03  0.25500000920E-02 0. -1.
</event>
<event>
 5   0  0.3784219E-04  0.1401046E+04  0.7818609E-02  0.8953062E-01
        1   -1    0    0  501    0  0.00000000000E+00  0.00000000000E+00  0.17913503315E+04  0.17913503315E+04  0.50400001928E-02 0.  1.
       -1   -1    0    0    0  501  0.00000000000E+00  0.00000000000E+00 -0.27394555870E+03  0.27394555875E+03  0.50400001928E-02 0. -1.
    10030    2    1    2    0    0  0.00000000000E+00  0.00000000000E+00  0.15174047728E+04  0.20652958903E+04  0.14010459913E+04 0.  0.
        1    1    3    3  502    0  0.31696966027E+03  0.60880460795E+03  0.55222355646E+03  0.88094476133E+03  0.50400001928E-02 0. -1.
       -1    1    3    3    0  502 -0.31696966027E+03 -0.60880460795E+03  0.96518121636E+03  0.11843511289E+04  0.50400001928E-02 0.  1.
</event>
<event>
 5   0  0.6895048E-04  0.1410537E+04  0.7818609E-02  0.8946227E-01
        2   -1    0    0  501    0  0.00000000000E+00  0.00000000000E+00  0.11815494448E+04  0.11815494448E+04  0.25500000920E-02 0.  1.
       -2   -1    0    0    0  501  0.00000000000E+00  0.00000000000E+00 -0.42097551904E+03  0.42097551905E+03  0.25500000920E-02 0. -1.
    10030    2    1    2    0    0  0.00000000000E+00  0.00000000000E+00  0.76057392576E+03  0.16025249639E+04  0.14105366224E+04 0.  0.
        4    1    3    3  502    0 -0.20206904550E+03  0.49345064593E+03 -0.14414366816E+03  0.55236260652E+03  0.12699999809E+01 0. -1.
       -4    1    3    3    0  502  0.20206904550E+03 -0.49345064593E+03  0.90471759391E+03  0.10501623573E+04  0.12699999809E+01 0.  1.
</event>
<event>
 5   0  0.6959748E-04  0.1479764E+04  0.7818609E-02  0.8898022E-01
        2   -1    0    0  501    0  0.00000000000E+00  0.00000000000E+00  0.59754657596E+03  0.59754657597E+03  0.25500000920E-02 0. -1.
       -2   -1    0    0    0  501  0.00000000000E+00  0.00000000000E+00 -0.91612129020E+03  0.91612129020E+03  0.25500000920E-02 0.  1.
    10030    2    1    2    0    0  0.00000000000E+00  0.00000000000E+00 -0.31857471424E+03  0.15136678662E+04  0.14797636840E+04 0.  0.
        5    1    3    3  502    0 -0.84168519227E+02  0.37688899148E+03  0.48626114328E+03  0.62096830917E+03  0.46999998093E+01 0. -1.
       -5    1    3    3    0  502  0.84168519227E+02 -0.37688899148E+03 -0.80483585752E+03  0.89269955700E+03  0.46999998093E+01 0.  1.
</event>
<event>
 5   0  0.3756664E-04  0.1461005E+04  0.7818609E-02  0.8910806E-01
       -1   -1    0    0    0  501  0.00000000000E+00  0.00000000000E+00  0.35096008529E+03  0.35096008532E+03  0.50400001928E-02 0. -1.
        1   -1    0    0  501    0  0.00000000000E+00  0.00000000000E+00 -0.15204976517E+04  0.15204976518E+04  0.50400001928E-02 0.  1.
    10030    2    1    2    0    0  0.00000000000E+00  0.00000000000E+00 -0.11695375665E+04  0.18714577371E+04  0.14610051137E+04 0.  0.
        2    1    3    3  502    0 -0.67628616432E+03 -0.16890883570E+03 -0.86464964413E+03  0.11106359340E+04  0.25500000920E-02 0. -1.
       -2    1    3    3    0  502  0.67628616432E+03  0.16890883570E+03 -0.30488792233E+03  0.76082180306E+03  0.25500000920E-02 0.  1.
</event>
<event>
 5   0  0.2660250E-04  0.1400072E+04  0.7818609E-02  0.8953766E-01
       -3   -1    0    0    0  501  0.00000000000E+00  0.00000000000E+00  0.89715663722E+03  0.89715664291E+03  0.10100000352E+00 0. -1.
        3   -1    0    0  501    0  0.00000000000E+00  0.00000000000E+00 -0.54622633195E+03  0.54622634129E+03  0.10100000352E+00 0.  1.
    10030    2    1    2    0    0  0.00000000000E+00  0.00000000000E+00  0.35093030527E+03  0.14433829842E+04  0.14000722695E+04 0.  0.
        3    1    3    3  502    0  0.58338622430E+03 -0.29631030143E+03 -0.81051806606E+02  0.65932441711E+03  0.10100000352E+00 0.  1.
       -3    1    3    3    0  502 -0.58338622430E+03  0.29631030143E+03  0.43198211188E+03  0.78405856709E+03  0.10100000352E+00 0. -1.
</event>
<event>
 5   0  0.3907270E-04  0.1392724E+04  0.7818609E-02  0.8959102E-01
        1   -1    0    0  501    0  0.00000000000E+00  0.00000000000E+00  0.16183474720E+04  0.16183474721E+04  0.50400001928E-02 0.  1.
       -1   -1    0    0    0  501  0.00000000000E+00  0.00000000000E+00 -0.29963890949E+03  0.29963890953E+03  0.50400001928E-02 0. -1.
    10030    2    1    2    0    0  0.00000000000E+00  0.00000000000E+00  0.13187085626E+04  0.19179863816E+04  0.13927237655E+04 0.  0.
        3    1    3    3  502    0 -0.73844693623E+02  0.25898042832E+03  0.15437318814E+04  0.15670456384E+04  0.10100000352E+00 0.  1.
       -3    1    3    3    0  502  0.73844693623E+02 -0.25898042832E+03 -0.22502331881E+03  0.35094074320E+03  0.10100000352E+00 0. -1.
</event>
<event>
 5   0  0.6870835E-04  0.1401488E+04  0.7818609E-02  0.8952742E-01
       -2   -1    0    0    0  501  0.00000000000E+00  0.00000000000E+00  0.78746901371E+03  0.78746901372E+03  0.25500000920E-02 0. -1.
        2   -1    0    0  501    0  0.00000000000E+00  0.00000000000E+00 -0.62357040382E+03  0.62357040383E+03  0.25500000920E-02 0.  1.
    10030    2    1    2    0    0  0.00000000000E+00  0.00000000000E+00  0.16389860989E+03  0.14110394175E+04  0.14014883102E+04 0.  0.
        2    1    3    3  502    0  0.49051623226E+03  0.46588318849E+02 -0.41970904993E+03  0.64724982206E+03  0.25500000920E-02 0.  1.
       -2    1    3    3    0  502 -0.49051623226E+03 -0.46588318849E+02  0.58360765982E+03  0.76378959548E+03  0.25500000920E-02 0. -1.
</event>
<event>
 5   0  0.6895048E-04  0.1393023E+04  0.7818609E-02  0.8958885E-01
        2   -1    0    0  501    0  0.00000000000E+00  0.00000000000E+00  0.11885881038E+04  0.11885881038E+04  0.25500000920E-02 0. -1.
       -2   -1    0    0    0  501  0.00000000000E+00  0.00000000000E+00 -0.40815486054E+03  0.40815486055E+03  0.25500000920E-02 0.  1.
    10030    2    1    2    0    0  0.00000000000E+00  0.00000000000E+00  0.78043324328E+03  0.15967429644E+04  0.13930226298E+04 0.  0.
        4    1    3    3  502    0 -0.32788567402E+03  0.42777614994E+03  0.89589699234E+03  0.10455307186E+04  0.12699999809E+01 0. -1.
       -4    1    3    3    0  502  0.32788567402E+03 -0.42777614994E+03 -0.11546374905E+03  0.55121224581E+03  0.12699999809E+01 0.  1.
</event>
<event>
 5   0  0.3784219E-04  0.1402271E+04  0.7818609E-02  0.8952177E-01
       -1   -1    0    0    0  501  0.00000000000E+00  0.00000000000E+00  0.40623817957E+03  0.40623817960E+03  0.50400001928E-02 0.  1.
        1   -1    0    0  501    0  0.00000000000E+00  0.00000000000E+00 -0.12101048177E+04  0.12101048177E+04  0.50400001928E-02 0. -1.
    10030    2    1    2    0    0  0.00000000000E+00  0.00000000000E+00 -0.80386663811E+03  0.16163429973E+04  0.14022706989E+04 0.  0.
        1    1    3    3  502    0  0.22669308685E+03 -0.37459892275E+03 -0.10331420627E+04  0.11220947511E+04  0.50400001928E-02 0. -1.
       -1    1    3    3    0  502 -0.22669308685E+03  0.37459892275E+03  0.22927542462E+03  0.49424824624E+03  0.50400001928E-02 0.  1.
</event>
<event>
 5   0  0.3784219E-04  0.1402809E+04  0.7818609E-02  0.8951788E-01
       -1   -1    0    0    0  501  0.00000000000E+00  0.00000000000E+00  0.45454132110E+03  0.45454132113E+03  0.50400001928E-02 0.  1.
        1   -1    0    0  501    0  0.00000000000E+00  0.00000000000E+00 -0.10823393182E+04  0.10823393182E+04  0.50400001928E-02 0. -1.
    10030    2    1    2    0    0  0.00000000000E+00  0.00000000000E+00 -0.62779799710E+03  0.15368806393E+04  0.14028085309E+04 0.  0.
        1    1    3    3  502    0 -0.13221103635E+03 -0.39280304944E+03 -0.93383706168E+03  0.10216778610E+04  0.50400001928E-02 0. -1.
       -1    1    3    3    0  502  0.13221103635E+03  0.39280304944E+03  0.30603906457E+03  0.51520277838E+03  0.50400001928E-02 0.  1.
</event>
<event>
 5   0  0.7296966E-04  0.1355497E+04  0.7818609E-02  0.8986677E-01
       -2   -1    0    0    0  501  0.00000000000E+00  0.00000000000E+00  0.70582888233E+03  0.70582888234E+03  0.25500000920E-02 0. -1.
        2   -1    0    0  501    0  0.00000000000E+00  0.00000000000E+00 -0.65078565964E+03  0.65078565964E+03  0.25500000920E-02 0.  1.
    10030    2    1    2    0    0  0.00000000000E+00  0.00000000000E+00  0.55043222692E+02  0.13566145420E+04  0.13554974213E+04 0.  0.
        3    1    3    3  502    0  0.98563407335E+01 -0.41743693743E+03  0.56180852111E+03  0.69998540612E+03  0.10100000352E+00 0. -1.
       -3    1    3    3    0  502 -0.98563407335E+01  0.41743693743E+03 -0.50676529841E+03  0.65662913586E+03  0.10100000352E+00 0.  1.
</event>
<event>
 5   0  0.3907093E-04  0.1401476E+04  0.7818609E-02  0.8952751E-01
        1   -1    0    0  501    0  0.00000000000E+00  0.00000000000E+00  0.73238136874E+03  0.73238136875E+03  0.50400001928E-02 0. -1.
       -1   -1    0    0    0  501  0.00000000000E+00  0.00000000000E+00 -0.67046147178E+03  0.67046147180E+03  0.50400001928E-02 0.  1.
    10030    2    1    2    0    0  0.00000000000E+00  0.00000000000E+00  0.61919896958E+02  0.14028428406E+04  0.14014756372E+04 0.  0.
        4    1    3    3  502    0 -0.10227625289E+03  0.68201900876E+03  0.15526449690E+03  0.70690808251E+03  0.12699999809E+01 0. -1.
       -4    1    3    3    0  502  0.10227625289E+03 -0.68201900876E+03 -0.93344599938E+02  0.69593475805E+03  0.12699999809E+01 0.  1.
</event>
<event>
 5   0  0.3784219E-04  0.1407635E+04  0.7818609E-02  0.8948310E-01
       -1   -1    0    0    0  501  0.00000000000E+00  0.00000000000E+00  0.70236771028E+03  0.70236771030E+03  0.50400001928E-02 0.  1.
        1   -1    0    0  501    0  0.00000000000E+00  0.00000000000E+00 -0.70527059361E+03  0.70527059362E+03  0.50400001928E-02 0. -1.
    10030    2    1    2    0    0  0.00000000000E+00  0.00000000000E+00 -0.29028833242E+01  0.14076383039E+04  0.14076353107E+04 0.  0.
        1    1    3    3  502    0  0.82132272330E+01  0.67005881311E+03 -0.21665650385E+03  0.70426295573E+03  0.50400001928E-02 0.  1.
       -1    1    3    3    0  502 -0.82132272330E+01 -0.67005881311E+03  0.21375362053E+03  0.70337534819E+03  0.50400001928E-02 0. -1.
</event>
<event>
 5   0  0.2660250E-04  0.1411833E+04  0.7818609E-02  0.8945298E-01
        3   -1    0    0  501    0  0.00000000000E+00  0.00000000000E+00  0.23951843743E+03  0.23951845873E+03  0.10100000352E+00 0. -1.
       -3   -1    0    0    0  501  0.00000000000E+00  0.00000000000E+00 -0.20804987949E+04  0.20804987974E+04  0.10100000352E+00 0.  1.
    10030    2    1    2    0    0  0.00000000000E+00  0.00000000000E+00 -0.18409803575E+04  0.23200172561E+04  0.14118326360E+04 0.  0.
        5    1    3    3  502    0 -0.45810944884E+03 -0.51747518425E+03 -0.11566346317E+04  0.13473940013E+04  0.46999998093E+01 0. -1.
       -5    1    3    3    0  502  0.45810944884E+03  0.51747518425E+03 -0.68434572580E+03  0.97262325483E+03  0.46999998093E+01 0.  1.
</event>
<event>
 5   0  0.3784219E-04  0.1397360E+04  0.7818609E-02  0.8955732E-01
       -1   -1    0    0    0  501  0.00000000000E+00  0.00000000000E+00  0.45736799910E+03  0.45736799913E+03  0.50400001928E-02 0. -1.
        1   -1    0    0  501    0  0.00000000000E+00  0.00000000000E+00 -0.10673105013E+04  0.10673105013E+04  0.50400001928E-02 0.  1.
    10030    2    1    2    0    0  0.00000000000E+00  0.00000000000E+00 -0.60994250219E+03  0.15246785004E+04  0.13973598941E+04 0.  0.
        1    1    3    3  502    0  0.13380534310E+03  0.14891633728E+03 -0.10353443012E+04  0.10545225306E+04  0.50400001928E-02 0.  1.
       -1    1    3    3    0  502 -0.13380534310E+03 -0.14891633728E+03  0.42540179904E+03  0.47015596987E+03  0.50400001928E-02 0. -1.
</event>
<event>
 5   0  0.3907270E-04  0.1372071E+04  0.7818609E-02  0.8974287E-01
       -1   -1    0    0    0  501  0.00000000000E+00  0.00000000000E+00  0.53525194073E+03  0.53525194075E+03  0.50400001928E-02 0. -1.
        1   -1    0    0  501    0  0.00000000000E+00  0.00000000000E+00 -0.87929514360E+03  0.87929514362E+03  0.50400001928E-02 0.  1.
    10030    2    1    2    0    0  0.00000000000E+00  0.00000000000E+00 -0.34404320288E+03  0.14145470844E+04  0.13720705989E+04 0.  0.
        3    1    3    3  502    0 -0.24818420477E+03  0.35301688634E+03  0.37780683847E+03  0.57354541140E+03  0.10100000352E+00 0. -1.
       -3    1    3    3    0  502  0.24818420477E+03 -0.35301688634E+03 -0.72185004135E+03  0.84100167297E+03  0.10100000352E+00 0.  1.
</event>
<event>
 5   0  0.6959748E-04  0.1403742E+04  0.7818609E-02  0.8951114E-01
       -2   -1    0    0    0  501  0.00000000000E+00  0.00000000000E+00  0.32774469853E+03  0.32774469854E+03  0.25500000920E-02 0. -1.
        2   -1    0    0  501    0  0.00000000000E+00  0.00000000000E+00 -0.15030690186E+04  0.15030690186E+04  0.25500000920E-02 0.  1.
    10030    2    1    2    0    0  0.00000000000E+00  0.00000000000E+00 -0.11753243201E+04  0.18308137171E+04  0.14037420025E+04 0.  0.
        5    1    3    3  502    0 -0.47700237430E+03 -0.43087370600E+03 -0.22011363330E+03  0.67945236564E+03  0.46999998093E+01 0. -1.
       -5    1    3    3    0  502  0.47700237430E+03  0.43087370600E+03 -0.95521068676E+03  0.11513613515E+04  0.46999998093E+01 0.  1.
</event>
<event>
 5   0  0.3907093E-04  0.1399895E+04  0.7818609E-02  0.8953895E-01
       -1   -1    0    0    0  501  0.00000000000E+00  0.00000000000E+00  0.67010821220E+03  0.67010821222E+03  0.50400001928E-02 0.  1.
        1   -1    0    0  501    0  0.00000000000E+00  0.00000000000E+00 -0.73111522804E+03  0.73111522806E+03  0.50400001928E-02 0. -1.
    10030    2    1    2    0    0  0.00000000000E+00  0.00000000000E+00 -0.61007015840E+02  0.14012234403E+04  0.13998947366E+04 0.  0.
        4    1    3    3  502    0  0.27030719635E+03 -0.12580580154E+03 -0.66437515213E+03  0.72820947246E+03  0.12699999809E+01 0. -1.
       -4    1    3    3    0  502 -0.27030719635E+03  0.12580580154E+03  0.60336813629E+03  0.67301396783E+03  0.12699999809E+01 0.  1.
</event>
<event>
 5   0  0.3784219E-04  0.1403991E+04  0.7818609E-02  0.8950935E-01
        1   -1    0    0  501    0  0.00000000000E+00  0.00000000000E+00  0.14187339599E+04  0.14187339599E+04  0.50400001928E-02 0.  1.
       -1   -1    0    0    0  501  0.00000000000E+00  0.00000000000E+00 -0.34735014304E+03  0.34735014308E+03  0.50400001928E-02 0. -1.
    10030    2    1    2    0    0  0.00000000000E+00  0.00000000000E+00  0.10713838168E+04  0.17660841030E+04  0.14039906609E+04 0.  0.
        1    1    3    3  502    0 -0.60385556292E+03 -0.22126018036E+03  0.18168698465E+03  0.66828719028E+03  0.50400001928E-02 0. -1.
       -1    1    3    3    0  502  0.60385556292E+03  0.22126018036E+03  0.88969683220E+03  0.10977969127E+04  0.50400001928E-02 0.  1.
</event>
<event>
 5   0  0.3784219E-04  0.1379255E+04  0.7818609E-02  0.8968973E-01
        1   -1    0    0  501    0  0.00000000000E+00  0.00000000000E+00  0.97109969905E+03  0.97109969906E+03  0.50400001928E-02 0.  1.
       -1   -1    0    0    0  501  0.00000000000E+00  0.00000000000E+00 -0.48973945674E+03  0.48973945676E+03  0.50400001928E-02 0. -1.
    10030    2    1    2    0    0  0.00000000000E+00  0.00000000000E+00  0.48136024231E+03  0.14608391558E+04  0.13792546379E+04 0.  0.
        1    1    3    3  502    0  0.67823500874E+03  0.12422073129E+03  0.22760820954E+03  0.72611226008E+03  0.50400001928E-02 0.  1.
       -1    1    3    3    0  502 -0.67823500874E+03 -0.12422073129E+03  0.25375203277E+03  0.73472689574E+03  0.50400001928E-02 0. -1.
</event>
<event>
 5   0  0.6959748E-04  0.1415650E+04  0.7818609E-02  0.8942567E-01
        2   -1    0    0  501    0  0.00000000000E+00  0.00000000000E+00  0.11948476518E+04  0.11948476518E+04  0.25500000920E-02 0.  1.
       -2   -1    0    0    0  501  0.00000000000E+00  0.00000000000E+00 -0.41931402608E+03  0.41931402609E+03  0.25500000920E-02 0. -1.
    10030    2    1    2    0    0  0.00000000000E+00  0.00000000000E+00  0.77553362576E+03  0.16141616779E+04  0.14156502103E+04 0.  0.
        5    1    3    3  502    0 -0.41414804142E+03  0.56340943400E+03  0.51290892231E+03  0.86720611340E+03  0.46999998093E+01 0.  1.
       -5    1    3    3    0  502  0.41414804142E+03 -0.56340943400E+03  0.26262470345E+03  0.74695556454E+03  0.46999998093E+01 0. -1.
</event>
<event>
 5   0  0.6895048E-04  0.1394941E+04  0.7818609E-02  0.8957489E-01
       -2   -1    0    0    0  501  0.00000000000E+00  0.00000000000E+00  0.87582046933E+03  0.87582046933E+03  0.25500000920E-02 0.  1.
        2   -1    0    0  501    0  0.00000000000E+00  0.00000000000E+00 -0.55543916298E+03  0.55543916299E+03  0.25500000920E-02 0. -1.
    10030    2    1    2    0    0  0.00000000000E+00  0.00000000000E+00  0.32038130635E+03  0.14312596323E+04  0.13949408423E+04 0.  0.
        4    1    3    3  502    0 -0.88053844506E+02 -0.33514437378E+03 -0.46086903181E+03  0.57660827967E+03  0.12699999809E+01 0. -1.
       -4    1    3    3    0  502  0.88053844506E+02  0.33514437378E+03  0.78125033815E+03  0.85465135264E+03  0.12699999809E+01 0.  1.
</event>
<event>
 5   0  0.3977658E-04  0.1406641E+04  0.7818609E-02  0.8949026E-01
        1   -1    0    0  501    0  0.00000000000E+00  0.00000000000E+00  0.61630070019E+03  0.61630070021E+03  0.50400001928E-02 0. -1.
       -1   -1    0    0    0  501  0.00000000000E+00  0.00000000000E+00 -0.80262680203E+03  0.80262680205E+03  0.50400001928E-02 0.  1.
    10030    2    1    2    0    0  0.00000000000E+00  0.00000000000E+00 -0.18632610184E+03  0.14189275023E+04  0.14066406223E+04 0.  0.
        5    1    3    3  502    0 -0.16940112220E+03  0.50337431384E+03  0.37190086329E+03  0.64839400225E+03  0.46999998093E+01 0. -1.
       -5    1    3    3    0  502  0.16940112220E+03 -0.50337431384E+03 -0.55822696513E+03  0.77053350001E+03  0.46999998093E+01 0.  1.
</event>
<event>
 5   0  0.6895048E-04  0.1406423E+04  0.7818609E-02  0.8949182E-01
       -2   -1    0    0    0  501  0.00000000000E+00  0.00000000000E+00  0.27263316414E+03  0.27263316415E+03  0.25500000920E-02 0. -1.
        2   -1    0    0  501    0  0.00000000000E+00  0.00000000000E+00 -0.18138155044E+04  0.18138155044E+04  0.25500000920E-02 0.  1.
    10030    2    1    2    0    0  0.00000000000E+00  0.00000000000E+00 -0.15411823403E+04  0.20864486686E+04  0.14064227816E+04 0.  0.
        4    1    3    3  502    0 -0.60745021374E+03 -0.28409783200E+03 -0.10845825787E+04  0.12751581562E+04  0.12699999809E+01 0. -1.
       -4    1    3    3    0  502  0.60745021374E+03  0.28409783200E+03 -0.45659976156E+03  0.81129051238E+03  0.12699999809E+01 0.  1.
</event>
<event>
 5   0  0.3907270E-04  0.1407667E+04  0.7818609E-02  0.8948287E-01
       -1   -1    0    0    0  501  0.00000000000E+00  0.00000000000E+00  0.33245350877E+03  0.33245350881E+03  0.50400001928E-02 0.  1.
        1   -1    0    0  501    0  0.00000000000E+00  0.00000000000E+00 -0.14900776356E+04  0.14900776356E+04  0.50400001928E-02 0. -1.
    10030    2    1    2    0    0  0.00000000000E+00  0.00000000000E+00 -0.11576241268E+04  0.18225311444E+04  0.14076669185E+04 0.  0.
        3    1    3    3  502    0 -0.40421089190E+03 -0.28792739872E+02  0.16625946074E+03  0.43801562243E+03  0.10100000352E+00 0.  1.
       -3    1    3    3    0  502  0.40421089190E+03  0.28792739872E+02 -0.13238835876E+04  0.13845155220E+04  0.10100000352E+00 0. -1.
</event>
<event>
 5   0  0.6870835E-04  0.1433831E+04  0.7818609E-02  0.8929688E-01
       -2   -1    0    0    0  501  0.00000000000E+00  0.00000000000E+00  0.64407111967E+03  0.64407111968E+03  0.25500000920E-02 0.  1.
        2   -1    0    0  501    0  0.00000000000E+00  0.00000000000E+00 -0.79799834672E+03  0.79799834673E+03  0.25500000920E-02 0. -1.
    10030    2    1    2    0    0  0.00000000000E+00  0.00000000000E+00 -0.15392722705E+03  0.14420694664E+04  0.14338307971E+04 0.  0.
        2    1    3    3  502    0 -0.56524778615E+03  0.16165134085E+02  0.36625129754E+03  0.67372574855E+03  0.25500000920E-02 0.  1.
       -2    1    3    3    0  502  0.56524778615E+03 -0.16165134085E+02 -0.52017852459E+03  0.76834371785E+03  0.25500000920E-02 0. -1.
</event>
<event>
 5   0  0.7065539E-04  0.1411643E+04  0.7818609E-02  0.8945433E-01
        2   -1    0    0  501    0  0.00000000000E+00  0.00000000000E+00  0.50347195130E+03  0.50347195130E+03  0.25500000920E-02 0.  1.
       -2   -1    0    0    0  501  0.00000000000E+00  0.00000000000E+00 -0.98949735121E+03  0.98949735122E+03  0.25500000920E-02 0. -1.
    10030    2    1    2    0    0  0.00000000000E+00  0.00000000000E+00 -0.48602539992E+03  0.14929693025E+04  0.14116432442E+04 0.  0.
        1    1    3    3  502    0  0.54574679680E+03  0.22688159382E+03  0.16505155450E+03  0.61364227324E+03  0.50400001928E-02 0.  1.
       -1    1    3    3    0  502 -0.54574679680E+03 -0.22688159382E+03 -0.65107695442E+03  0.87932702928E+03  0.50400001928E-02 0. -1.
</event>
<event>
 5   0  0.3907093E-04  0.1399787E+04  0.7818609E-02  0.8953973E-01
        1   -1    0    0  501    0  0.00000000000E+00  0.00000000000E+00  0.10601212421E+04  0.10601212421E+04  0.50400001928E-02 0. -1.
       -1   -1    0    0    0  501  0.00000000000E+00  0.00000000000E+00 -0.46207071714E+03  0.46207071716E+03  0.50400001928E-02 0.  1.
    10030    2    1    2    0    0  0.00000000000E+00  0.00000000000E+00  0.59805052492E+03  0.15221919592E+04  0.13997871018E+04 0.  0.
        4    1    3    3  502    0  0.31465921471E+03 -0.44071993424E+03 -0.18314962908E+03  0.57165538690E+03  0.12699999809E+01 0.  1.
       -4    1    3    3    0  502 -0.31465921471E+03  0.44071993424E+03  0.78120015400E+03  0.95053657234E+03  0.12699999809E+01 0. -1.
</event>
<event>
 5   0  0.7065539E-04  0.1399483E+04  0.7818609E-02  0.8954193E-01
        2   -1    0    0  501    0  0.00000000000E+00  0.00000000000E+00  0.15658798660E+04  0.15658798660E+04  0.25500000920E-02 0. -1.
       -2   -1    0    0    0  501  0.00000000000E+00  0.00000000000E+00 -0.31269197879E+03  0.31269197880E+03  0.25500000920E-02 0.  1.
    10030    2    1    2    0    0  0.00000000000E+00  0.00000000000E+00  0.12531878872E+04  0.18785718448E+04  0.13994828671E+04 0.  0.
        1    1    3    3  502    0  0.51802070349E+03  0.14138625088E+03  0.24332772934E+02  0.53751986480E+03  0.50400001928E-02 0.  1.
       -1    1    3    3    0  502 -0.51802070349E+03 -0.14138625088E+03  0.12288551143E+04  0.13410519800E+04  0.50400001928E-02 0. -1.
</event>
<event>
 5   0  0.2660250E-04  0.1326664E+04  0.7818609E-02  0.9008684E-01
       -4   -1    0    0    0  501  0.00000000000E+00  0.00000000000E+00  0.76580752310E+03  0.76580857617E+03  0.12699999809E+01 0. -1.
        4   -1    0    0  501    0  0.00000000000E+00  0.00000000000E+00 -0.57456669339E+03  0.57456809697E+03  0.12699999809E+01 0.  1.
    10030    2    1    2    0    0  0.00000000000E+00  0.00000000000E+00  0.19124082972E+03  0.13403766731E+04  0.13266636993E+04 0.  0.
        5    1    3    3  502    0  0.55902797424E+03 -0.35602217378E+03  0.12278679168E+03  0.67406435183E+03  0.46999998093E+01 0.  1.
       -5    1    3    3    0  502 -0.55902797424E+03  0.35602217378E+03  0.68454038038E+02  0.66631232131E+03  0.46999998093E+01 0. -1.
</event>
<event>
 5   0  0.6895048E-04  0.1402389E+04  0.7818609E-02  0.8952091E-01
        2   -1    0    0  501    0  0.00000000000E+00  0.00000000000E+00  0.99700885857E+03  0.99700885857E+03  0.25500000920E-02 0. -1.
       -2   -1    0    0    0  501  0.00000000000E+00  0.00000000000E+00 -0.49314905978E+03  0.49314905978E+03  0.25500000920E-02 0.  1.
    10030    2    1    2    0    0  0.00000000000E+00  0.00000000000E+00  0.50385979879E+03  0.14901579184E+04  0.14023893628E+04 0.  0.
        4    1    3    3  502    0 -0.48552457649E+03 -0.39331387714E+03 -0.86169971335E+02  0.63075890575E+03  0.12699999809E+01 0. -1.
       -4    1    3    3    0  502  0.48552457649E+03  0.39331387714E+03  0.59002977013E+03  0.85939901260E+03  0.12699999809E+01 0.  1.
</event>
<event>
 5   0  0.7296966E-04  0.1407608E+04  0.7818609E-02  0.8948329E-01
       -2   -1    0    0    0  501  0.00000000000E+00  0.00000000000E+00  0.74612876668E+03  0.74612876668E+03  0.25500000920E-02 0.  1.
        2   -1    0    0  501    0  0.00000000000E+00  0.00000000000E+00 -0.66388058426E+03  0.66388058427E+03  0.25500000920E-02 0. -1.
    10030    2    1    2    0    0  0.00000000000E+00  0.00000000000E+00  0.82248182414E+02  0.14100093510E+04  0.14076084705E+04 0.  0.
        3    1    3    3  502    0  0.66215499130E+03 -0.92641469588E+02 -0.17904323736E+03  0.69216195029E+03  0.10100000352E+00 0. -1.
       -3    1    3    3    0  502 -0.66215499130E+03  0.92641469588E+02  0.26129141978E+03  0.71784740066E+03  0.10100000352E+00 0.  1.
</event>
<event>
 5   0  0.3756664E-04  0.1399393E+04  0.7818609E-02  0.8954258E-01
        1   -1    0    0  501    0  0.00000000000E+00  0.00000000000E+00  0.24021169224E+04  0.24021169224E+04  0.50400001928E-02 0. -1.
       -1   -1    0    0    0  501  0.00000000000E+00  0.00000000000E+00 -0.20380982278E+03  0.20380982284E+03  0.50400001928E-02 0.  1.
    10030    2    1    2    0    0  0.00000000000E+00  0.00000000000E+00  0.21983070996E+04  0.26059267452E+04  0.13993927602E+04 0.  0.
        2    1    3    3  502    0  0.48995637079E+03  0.44139479105E+03  0.15346355997E+04  0.16703272227E+04  0.25500000920E-02 0.  1.
       -2    1    3    3    0  502 -0.48995637079E+03 -0.44139479105E+03  0.66367149984E+03  0.93559952253E+03  0.25500000920E-02 0. -1.
</event>
<event>
 5   0  0.3907093E-04  0.1409431E+04  0.7818609E-02  0.8947020E-01
        1   -1    0    0  501    0  0.00000000000E+00  0.00000000000E+00  0.13715959361E+04  0.13715959361E+04  0.50400001928E-02 0. -1.
       -1   -1    0    0    0  501  0.00000000000E+00  0.00000000000E+00 -0.36207723808E+03  0.36207723811E+03  0.50400001928E-02 0.  1.
    10030    2    1    2    0    0  0.00000000000E+00  0.00000000000E+00  0.10095186980E+04  0.17336731743E+04  0.14094306203E+04 0.  0.
        4    1    3    3  502    0 -0.49737639592E+03  0.19786576643E+03 -0.59039340385E+02  0.53853634730E+03  0.12699999809E+01 0.  1.
       -4    1    3    3    0  502  0.49737639592E+03 -0.19786576643E+03  0.10685580384E+04  0.11951368270E+04  0.12699999809E+01 0. -1.
</event>
<event>
 5   0  0.3907270E-04  0.1401210E+04  0.7818609E-02  0.8952943E-01
        1   -1    0    0  501    0  0.00000000000E+00  0.00000000000E+00  0.61819125037E+03  0.61819125039E+03  0.50400001928E-02 0.  1.
       -1   -1    0    0    0  501  0.00000000000E+00  0.00000000000E+00 -0.79400577254E+03  0.79400577256E+03  0.50400001928E-02 0. -1.
    10030    2    1    2    0    0  0.00000000000E+00  0.00000000000E+00 -0.17581452217E+03  0.14121970229E+04  0.14012100790E+04 0.  0.
        3    1    3    3  502    0 -0.14738230550E+03 -0.39667628530E+03 -0.65065251581E+03  0.77615869887E+03  0.10100000352E+00 0. -1.
       -3    1    3    3    0  502  0.14738230550E+03  0.39667628530E+03  0.47483799364E+03  0.63603832408E+03  0.10100000352E+00 0.  1.
</event>
<event>
 5   0  0.3907270E-04  0.1338366E+04  0.7818609E-02  0.8999682E-01
        1   -1    0    0  501    0  0.00000000000E+00  0.00000000000E+00  0.98743361278E+03  0.98743361279E+03  0.50400001928E-02 0. -1.
       -1   -1    0    0    0  501  0.00000000000E+00  0.00000000000E+00 -0.45350459115E+03  0.45350459118E+03  0.50400001928E-02 0.  1.
    10030    2    1    2    0    0  0.00000000000E+00  0.00000000000E+00  0.53392902163E+03  0.14409382040E+04  0.13383656853E+04 0.  0.
        3    1    3    3  502    0 -0.38240908482E+03 -0.52553086720E+03  0.43850631658E+03  0.78403265264E+03  0.10100000352E+00 0.  1.
       -3    1    3    3    0  502  0.38240908482E+03  0.52553086720E+03  0.95422705046E+02  0.65690555133E+03  0.10100000352E+00 0. -1.
</event>
<event>
 5   0  0.7065539E-04  0.1393998E+04  0.7818609E-02  0.8958174E-01
        2   -1    0    0  501    0  0.00000000000E+00  0.00000000000E+00  0.13559850188E+04  0.13559850188E+04  0.25500000920E-02 0.  1.
       -2   -1    0    0    0  501  0.00000000000E+00  0.00000000000E+00 -0.35826931261E+03  0.35826931262E+03  0.25500000920E-02 0. -1.
    10030    2    1    2    0    0  0.00000000000E+00  0.00000000000E+00  0.99771570619E+03  0.17142543314E+04  0.13939983079E+04 0.  0.
        1    1    3    3  502    0 -0.55006091571E+03 -0.24464189209E+03  0.66886424981E+02  0.60571483409E+03  0.50400001928E-02 0.  1.
       -1    1    3    3    0  502  0.55006091571E+03  0.24464189209E+03  0.93082928121E+03  0.11085394973E+04  0.50400001928E-02 0. -1.
</event>
<event>
 5   0  0.6959748E-04  0.1402368E+04  0.7818609E-02  0.8952106E-01
       -2   -1    0    0    0  501  0.00000000000E+00  0.00000000000E+00  0.35581201010E+03  0.35581201010E+03  0.25500000920E-02 0. -1.
        2   -1    0    0  501    0  0.00000000000E+00  0.00000000000E+00 -0.13817940537E+04  0.13817940537E+04  0.25500000920E-02 0.  1.
    10030    2    1    2    0    0  0.00000000000E+00  0.00000000000E+00 -0.10259820436E+04  0.17376060638E+04  0.14023678830E+04 0.  0.
        5    1    3    3  502    0 -0.34222999981E+03  0.42718619172E+03 -0.10559549572E+04  0.11894000070E+04  0.46999998093E+01 0. -1.
       -5    1    3    3    0  502  0.34222999981E+03 -0.42718619172E+03  0.29972913538E+02  0.54820605680E+03  0.46999998093E+01 0.  1.
</event>
<event>
 5   0  0.6870835E-04  0.1392801E+04  0.7818609E-02  0.8959046E-01
       -2   -1    0    0    0  501  0.00000000000E+00  0.00000000000E+00  0.68178831137E+03  0.68178831138E+03  0.25500000920E-02 0.  1.
        2   -1    0    0  501    0  0.00000000000E+00  0.00000000000E+00 -0.71132578949E+03  0.71132578950E+03  0.25500000920E-02 0. -1.
    10030    2    1    2    0    0  0.00000000000E+00  0.00000000000E+00 -0.29537478118E+02  0.13931141009E+04  0.13928009317E+04 0.  0.
        2    1    3    3  502    0  0.39011989376E+03 -0.55407208825E+03  0.14584195406E+03  0.69315170494E+03  0.25500000920E-02 0. -1.
       -2    1    3    3    0  502 -0.39011989376E+03  0.55407208825E+03 -0.17537943218E+03  0.69996239594E+03  0.25500000920E-02 0.  1.
</event>
<event>
 5   0  0.3784219E-04  0.1433828E+04  0.7818609E-02  0.8929690E-01
       -1   -1    0    0    0  501  0.00000000000E+00  0.00000000000E+00  0.95091875392E+03  0.95091875393E+03  0.50400001928E-02 0. -1.
        1   -1    0    0  501    0  0.00000000000E+00  0.00000000000E+00 -0.54049389178E+03  0.54049389180E+03  0.50400001928E-02 0.  1.
    10030    2    1    2    0    0  0.00000000000E+00  0.00000000000E+00  0.41042486214E+03  0.14914126457E+04  0.14338281321E+04 0.  0.
        1    1    3    3  502    0  0.77647492527E+02 -0.49509983673E+02  0.94474113453E+03  0.94921872236E+03  0.50400001928E-02 0. -1.
       -1    1    3    3    0  502 -0.77647492527E+02  0.49509983673E+02 -0.53431627239E+03  0.54219392337E+03  0.50400001928E-02 0.  1.
</event>
<event>
 5   0  0.6870835E-04  0.1318366E+04  0.7818609E-02  0.9015126E-01
       -2   -1    0    0    0  501  0.00000000000E+00  0.00000000000E+00  0.15999074572E+03  0.15999074574E+03  0.25500000920E-02 0. -1.
        2   -1    0    0  501    0  0.00000000000E+00  0.00000000000E+00 -0.27159206743E+04  0.27159206743E+04  0.25500000920E-02 0.  1.
    10030    2    1    2    0    0  0.00000000000E+00  0.00000000000E+00 -0.25559299285E+04  0.28759114200E+04  0.13183659189E+04 0.  0.
        2    1    3    3  502    0 -0.16351715558E+03 -0.60522970082E+03 -0.83367568073E+03  0.10430992242E+04  0.25500000920E-02 0.  1.
       -2    1    3    3    0  502  0.16351715558E+03  0.60522970082E+03 -0.17222542478E+04  0.18328121958E+04  0.25500000920E-02 0. -1.
</event>
<event>
 5   0  0.3784219E-04  0.1413424E+04  0.7818609E-02  0.8944158E-01
       -1   -1    0    0    0  501  0.00000000000E+00  0.00000000000E+00  0.60703745515E+03  0.60703745517E+03  0.50400001928E-02 0.  1.
        1   -1    0    0  501    0  0.00000000000E+00  0.00000000000E+00 -0.82275316133E+03  0.82275316134E+03  0.50400001928E-02 0. -1.
    10030    2    1    2    0    0  0.00000000000E+00  0.00000000000E+00 -0.21571570618E+03  0.14297906165E+04  0.14134241901E+04 0.  0.
        1    1    3    3  502    0 -0.55182509765E+01 -0.13280554536E+03  0.59427889222E+03  0.60896236808E+03  0.50400001928E-02 0.  1.
       -1    1    3    3    0  502  0.55182509765E+01  0.13280554536E+03 -0.80999459840E+03  0.82082824844E+03  0.50400001928E-02 0. -1.
</event>
<event>
 5   0  0.3977658E-04  0.1403017E+04  0.7818609E-02  0.8951638E-01
       -1   -1    0    0    0  501  0.00000000000E+00  0.00000000000E+00  0.43319696360E+03  0.43319696363E+03  0.50400001928E-02 0. -1.
        1   -1    0    0  501    0  0.00000000000E+00  0.00000000000E+00 -0.11360057675E+04  0.11360057676E+04  0.50400001928E-02 0.  1.
    10030    2    1    2    0    0  0.00000000000E+00  0.00000000000E+00 -0.70280880394E+03  0.15692027312E+04  0.14030171049E+04 0.  0.
        5    1    3    3  502    0 -0.61544387694E+03 -0.33453681081E+03 -0.30946457624E+03  0.76581750920E+03  0.46999998093E+01 0.  1.
       -5    1    3    3    0  502  0.61544387694E+03  0.33453681081E+03 -0.39334422770E+03  0.80338522199E+03  0.46999998093E+01 0. -1.
</event>
<event>
 5   0  0.6895048E-04  0.1398171E+04  0.7818609E-02  0.8955143E-01
       -2   -1    0    0    0  501  0.00000000000E+00  0.00000000000E+00  0.31953995599E+03  0.31953995600E+03  0.25500000920E-02 0. -1.
        2   -1    0    0  501    0  0.00000000000E+00  0.00000000000E+00 -0.15294513255E+04  0.15294513255E+04  0.25500000920E-02 0.  1.
    10030    2    1    2    0    0  0.00000000000E+00  0.00000000000E+00 -0.12099113695E+04  0.18489912815E+04  0.13981713904E+04 0.  0.
        4    1    3    3  502    0  0.35945915036E+03  0.36465325188E+02  0.18649574269E+03  0.40659915845E+03  0.12699999809E+01 0. -1.
       -4    1    3    3    0  502 -0.35945915036E+03 -0.36465325188E+02 -0.13964071122E+04  0.14423921230E+04  0.12699999809E+01 0.  1.
</event>
<event>
 5   0  0.3784219E-04  0.1399362E+04  0.7818609E-02  0.8954281E-01
       -1   -1    0    0    0  501  0.00000000000E+00  0.00000000000E+00  0.71309023962E+03  0.71309023964E+03  0.50400001928E-02 0.  1.
        1   -1    0    0  501    0  0.00000000000E+00  0.00000000000E+00 -0.68652372415E+03  0.68652372417E+03  0.50400001928E-02 0. -1.
    10030    2    1    2    0    0  0.00000000000E+00  0.00000000000E+00  0.26566515474E+02  0.13996139638E+04  0.13993618074E+04 0.  0.
        1    1    3    3  502    0  0.20530017645E+03 -0.18047587081E+03 -0.63090862285E+03  0.68757937200E+03  0.50400001928E-02 0. -1.
       -1    1    3    3    0  502 -0.20530017645E+03  0.18047587081E+03  0.65747513832E+03  0.71203459181E+03  0.50400001928E-02 0.  1.
</event>
<event>
 5   0  0.2660250E-04  0.1401723E+04  0.7818609E-02  0.8952572E-01
       -3   -1    0    0    0  501  0.00000000000E+00  0.00000000000E+00  0.12990400540E+04  0.12990400579E+04  0.10100000352E+00 0.  1.
        3   -1    0    0  501    0  0.00000000000E+00  0.00000000000E+00 -0.37813084812E+03  0.37813086161E+03  0.10100000352E+00 0. -1.
    10030    2    1    2    0    0  0.00000000000E+00  0.00000000000E+00  0.92090920588E+03  0.16771709195E+04  0.14017234135E+04 0.  0.
        2    1    3    3  502    0 -0.58218237088E+03 -0.99850631856E+02  0.90993835463E+01  0.59075312985E+03  0.25500000920E-02 0. -1.
       -2    1    3    3    0  502  0.58218237088E+03  0.99850631856E+02  0.91180982234E+03  0.10864177897E+04  0.25500000920E-02 0.  1.
</event>
<event>
 5   0  0.3784219E-04  0.1398972E+04  0.7818609E-02  0.8954563E-01
       -1   -1    0    0    0  501  0.00000000000E+00  0.00000000000E+00  0.10476029408E+04  0.10476029408E+04  0.50400001928E-02 0. -1.
        1   -1    0    0  501    0  0.00000000000E+00  0.00000000000E+00 -0.46704814824E+03  0.46704814827E+03  0.50400001928E-02 0.  1.
    10030    2    1    2    0    0  0.00000000000E+00  0.00000000000E+00  0.58055479251E+03  0.15146510890E+04  0.13989724995E+04 0.  0.
        1    1    3    3  502    0  0.47016612688E+03 -0.12478224578E+03  0.83448762518E+03  0.96591738380E+03  0.50400001928E-02 0. -1.
       -1    1    3    3    0  502 -0.47016612688E+03  0.12478224578E+03 -0.25393283267E+03  0.54873370523E+03  0.50400001928E-02 0.  1.
</event>
<event>
 5   0  0.3756664E-04  0.1381966E+04  0.7818609E-02  0.8966977E-01
        1   -1    0    0  501    0  0.00000000000E+00  0.00000000000E+00  0.68281289052E+03  0.68281289054E+03  0.50400001928E-02 0.  1.
       -1   -1    0    0    0  501  0.00000000000E+00  0.00000000000E+00 -0.69925130846E+03  0.69925130848E+03  0.50400001928E-02 0. -1.
    10030    2    1    2    0    0  0.00000000000E+00  0.00000000000E+00 -0.16438417940E+02  0.13820641990E+04  0.13819664354E+04 0.  0.
        2    1    3    3  502    0 -0.17938413262E+03  0.59612797312E+03 -0.30809135039E+03  0.69459881051E+03  0.25500000920E-02 0. -1.
       -2    1    3    3    0  502  0.17938413262E+03 -0.59612797312E+03  0.29165293245E+03  0.68746538850E+03  0.25500000920E-02 0.  1.
</event>
<event>
 5   0  0.3756664E-04  0.1422165E+04  0.7818609E-02  0.8937929E-01
       -1   -1    0    0    0  501  0.00000000000E+00  0.00000000000E+00  0.28187564450E+03  0.28187564454E+03  0.50400001928E-02 0.  1.
        1   -1    0    0  501    0  0.00000000000E+00  0.00000000000E+00 -0.17938339525E+04  0.17938339525E+04  0.50400001928E-02 0. -1.
    10030    2    1    2    0    0  0.00000000000E+00  0.00000000000E+00 -0.15119583080E+04  0.20757095970E+04  0.14221646902E+04 0.  0.
        2    1    3    3  502    0 -0.45505539517E+02 -0.38599595548E+03  0.11312221226E+03  0.40479657445E+03  0.25500000920E-02 0.  1.
       -2    1    3    3    0  502  0.45505539517E+02  0.38599595548E+03 -0.16250805202E+04  0.16709130226E+04  0.25500000920E-02 0. -1.
</event>
<event>
 5   0  0.3977658E-04  0.1411431E+04  0.7818609E-02  0.8945585E-01
       -1   -1    0    0    0  501  0.00000000000E+00  0.00000000000E+00  0.63928057745E+03  0.63928057747E+03  0.50400001928E-02 0. -1.
        1   -1    0    0  501    0  0.00000000000E+00  0.00000000000E+00 -0.77905488868E+03  0.77905488869E+03  0.50400001928E-02 0.  1.
    10030    2    1    2    0    0  0.00000000000E+00  0.00000000000E+00 -0.13977431123E+03  0.14183354662E+04  0.14114314140E+04 0.  0.
        5    1    3    3  502    0 -0.10146989257E+03  0.44169887993E+03  0.47370113779E+03  0.65559812200E+03  0.46999998093E+01 0. -1.
       -5    1    3    3    0  502  0.10146989257E+03 -0.44169887993E+03 -0.61347544902E+03  0.76273734416E+03  0.46999998093E+01 0.  1.
</event>
<event>
 5   0  0.7065539E-04  0.1396762E+04  0.7818609E-02  0.8956166E-01
        2   -1    0    0  501    0  0.00000000000E+00  0.00000000000E+00  0.16635382997E+04  0.16635382997E+04  0.25500000920E-02 0. -1.
       -2   -1    0    0    0  501  0.00000000000E+00  0.00000000000E+00 -0.29319197745E+03  0.29319197746E+03  0.25500000920E-02 0.  1.
    10030    2    1    2    0    0  0.00000000000E+00  0.00000000000E+00  0.13703463222E+04  0.19567302771E+04  0.13967620895E+04 0.  0.
        1    1    3    3  502    0  0.67291313606E+00  0.40964654211E+03  0.14775519602E+04  0.15332874934E+04  0.50400001928E-02 0. -1.
       -1    1    3    3    0  502 -0.67291313606E+00 -0.40964654211E+03 -0.10720563796E+03  0.42344278375E+03  0.50400001928E-02 0.  1.
</event>
<event>
 5   0  0.3756664E-04  0.1401444E+04  0.7818609E-02  0.8952774E-01
       -1   -1    0    0    0  501  0.00000000000E+00  0.00000000000E+00  0.27962018386E+03  0.27962018390E+03  0.50400001928E-02 0. -1.
        1   -1    0    0  501    0  0.00000000000E+00  0.00000000000E+00 -0.17559947685E+04  0.17559947685E+04  0.50400001928E-02 0.  1.
    10030    2    1    2    0    0  0.00000000000E+00  0.00000000000E+00 -0.14763745847E+04  0.20356149524E+04  0.14014443693E+04 0.  0.
        2    1    3    3  502    0  0.41191638478E+03  0.15172744743E+03 -0.15315239087E+04  0.15931923328E+04  0.25500000920E-02 0.  1.
       -2    1    3    3    0  502 -0.41191638478E+03 -0.15172744743E+03  0.55149324098E+02  0.44242261957E+03  0.25500000920E-02 0. -1.
</event>
<event>
 5   0  0.7296966E-04  0.1384911E+04  0.7818609E-02  0.8964814E-01
       -2   -1    0    0    0  501  0.00000000000E+00  0.00000000000E+00  0.32364630111E+03  0.32364630112E+03  0.25500000920E-02 0. -1.
        2   -1    0    0  501    0  0.00000000000E+00  0.00000000000E+00 -0.14815386779E+04  0.14815386779E+04  0.25500000920E-02 0.  1.
    10030    2    1    2    0    0  0.00000000000E+00  0.00000000000E+00 -0.11578923768E+04  0.18051849791E+04  0.13849108463E+04 0.  0.
        3    1    3    3  502    0  0.48488910638E+03 -0.22911686640E+03 -0.11499218548E+04  0.12688310629E+04  0.10100000352E+00 0.  1.
       -3    1    3    3    0  502 -0.48488910638E+03  0.22911686640E+03 -0.79705220702E+01  0.53635391616E+03  0.10100000352E+00 0. -1.
</event>
<event>
 5   0  0.3907093E-04  0.1385939E+04  0.7818609E-02  0.8964060E-01
       -1   -1    0    0    0  501  0.00000000000E+00  0.00000000000E+00  0.56340913458E+03  0.56340913460E+03  0.50400001928E-02 0.  1.
        1   -1    0    0  501    0  0.00000000000E+00  0.00000000000E+00 -0.85232377338E+03  0.85232377339E+03  0.50400001928E-02 0. -1.
    10030    2    1    2    0    0  0.00000000000E+00  0.00000000000E+00 -0.28891463880E+03  0.14157329080E+04  0.13859393920E+04 0.  0.
        4    1    3    3  502    0  0.38649843791E+03 -0.98142111311E+02  0.43446429711E+03  0.58972345627E+03  0.12699999809E+01 0.  1.
       -4    1    3    3    0  502 -0.38649843791E+03  0.98142111311E+02 -0.72337893591E+03  0.82600945172E+03  0.12699999809E+01 0. -1.
</event>
<event>
 5   0  0.7065539E-04  0.1400510E+04  0.7818609E-02  0.8953449E-01
        2   -1    0    0  501    0  0.00000000000E+00  0.00000000000E+00  0.14020118813E+04  0.14020118813E+04  0.25500000920E-02 0. -1.
       -2   -1    0    0    0  501  0.00000000000E+00  0.00000000000E+00 -0.34975259203E+03  0.34975259204E+03  0.25500000920E-02 0.  1.
    10030    2    1    2    0    0  0.00000000000E+00  0.00000000000E+00  0.10522592893E+04  0.17517644734E+04  0.14005103206E+04 0.  0.
        1    1    3    3  502    0  0.10289762251E+03  0.19311807725E+02 -0.33990805022E+03  0.35566606426E+03  0.50400001928E-02 0.  1.
       -1    1    3    3    0  502 -0.10289762251E+03 -0.19311807725E+02  0.13921673395E+04  0.13960984091E+04  0.50400001928E-02 0. -1.
</event>
<event>
 5   0  0.3907270E-04  0.1401857E+04  0.7818609E-02  0.8952476E-01
       -1   -1    0    0    0  501  0.00000000000E+00  0.00000000000E+00  0.27572542017E+03  0.27572542022E+03  0.50400001928E-02 0.  1.
        1   -1    0    0  501    0  0.00000000000E+00  0.00000000000E+00 -0.17818473274E+04  0.17818473274E+04  0.50400001928E-02 0. -1.
    10030    2    1    2    0    0  0.00000000000E+00  0.00000000000E+00 -0.15061219072E+04  0.20575727476E+04  0.14018567731E+04 0.  0.
        3    1    3    3  502    0  0.42968947301E+03  0.53567905195E+03 -0.54697163412E+03  0.87793112979E+03  0.10100000352E+00 0. -1.
       -3    1    3    3    0  502 -0.42968947301E+03 -0.53567905195E+03 -0.95915027306E+03  0.11796416178E+04  0.10100000352E+00 0.  1.
</event>
<event>
 5   0  0.6895048E-04  0.1389628E+04  0.7818609E-02  0.8961361E-01
        2   -1    0    0  501    0  0.00000000000E+00  0.00000000000E+00  0.15169093482E+04  0.15169093482E+04  0.25500000920E-02 0.  1.
       -2   -1    0    0    0  501  0.00000000000E+00  0.00000000000E+00 -0.31825657877E+03  0.31825657878E+03  0.25500000920E-02 0. -1.
    10030    2    1    2    0    0  0.00000000000E+00  0.00000000000E+00  0.11986527694E+04  0.18351659269E+04  0.13896278343E+04 0.  0.
        4    1    3    3  502    0 -0.36029402201E+03  0.52183836700E+03  0.22431374407E+03  0.67264056690E+03  0.12699999809E+01 0. -1.
       -4    1    3    3    0  502  0.36029402201E+03 -0.52183836700E+03  0.97433902532E+03  0.11625253600E+04  0.12699999809E+01 0.  1.
</event>
<event>
 5   0  0.2660250E-04  0.1391794E+04  0.7818609E-02  0.8959780E-01
        3   -1    0    0  501    0  0.00000000000E+00  0.00000000000E+00  0.40686491943E+03  0.40686493197E+03  0.10100000352E+00 0.  1.
       -3   -1    0    0    0  501  0.00000000000E+00  0.00000000000E+00 -0.11902535238E+04  0.11902535281E+04  0.10100000352E+00 0. -1.
    10030    2    1    2    0    0  0.00000000000E+00  0.00000000000E+00 -0.78338860438E+03  0.15971184601E+04  0.13917936880E+04 0.  0.
        1    1    3    3  502    0 -0.62891554498E+03 -0.19979110288E+02 -0.50629225330E+02  0.63126638280E+03  0.50400001928E-02 0. -1.
       -1    1    3    3    0  502  0.62891554498E+03  0.19979110288E+02 -0.73275937905E+03  0.96585207728E+03  0.50400001928E-02 0.  1.
</event>
<event>
 5   0  0.6870835E-04  0.1395629E+04  0.7818609E-02  0.8956989E-01
        2   -1    0    0  501    0  0.00000000000E+00  0.00000000000E+00  0.63012106692E+03  0.63012106693E+03  0.25500000920E-02 0. -1.
       -2   -1    0    0    0  501  0.00000000000E+00  0.00000000000E+00 -0.77277998988E+03  0.77277998989E+03  0.25500000920E-02 0.  1.
    10030    2    1    2    0    0  0.00000000000E+00  0.00000000000E+00 -0.14265892296E+03  0.14029010568E+04  0.13956288213E+04 0.  0.
        2    1    3    3  502    0 -0.40073481722E+03  0.16434599092E+02  0.50268587657E+03  0.64307976199E+03  0.25500000920E-02 0. -1.
       -2    1    3    3    0  502  0.40073481722E+03 -0.16434599092E+02 -0.64534479953E+03  0.75982129482E+03  0.25500000920E-02 0.  1.
</event>
<event>
 5   0  0.6959748E-04  0.1335369E+04  0.7818609E-02  0.9001978E-01
       -2   -1    0    0    0  501  0.00000000000E+00  0.00000000000E+00  0.59406294996E+03  0.59406294996E+03  0.25500000920E-02 0. -1.
        2   -1    0    0  501    0  0.00000000000E+00  0.00000000000E+00 -0.75042943450E+03  0.75042943450E+03  0.25500000920E-02 0.  1.
    10030    2    1    2    0    0  0.00000000000E+00  0.00000000000E+00 -0.15636648454E+03  0.13444923845E+04  0.13353685987E+04 0.  0.
        5    1    3    3  502    0  0.37591577857E+03 -0.30736551737E+02 -0.63287647207E+03  0.73675784834E+03  0.46999998093E+01 0.  1.
       -5    1    3    3    0  502 -0.37591577857E+03  0.30736551737E+02  0.47650998753E+03  0.60773453613E+03  0.46999998093E+01 0. -1.
</event>
<event>
 5   0  0.6870835E-04  0.1400526E+04  0.7818609E-02  0.8953438E-01
        2   -1    0    0  501    0  0.00000000000E+00  0.00000000000E+00  0.20999452128E+04  0.20999452128E+04  0.25500000920E-02 0. -1.
       -2   -1    0    0    0  501  0.00000000000E+00  0.00000000000E+00 -0.23351462572E+03  0.23351462574E+03  0.25500000920E-02 0.  1.
    10030    2    1    2    0    0  0.00000000000E+00  0.00000000000E+00  0.18664305870E+04  0.23334598385E+04  0.14005255020E+04 0.  0.
        2    1    3    3  502    0 -0.54599917642E+03  0.23488010128E+03  0.15500984941E+04  0.16601473140E+04  0.25500000920E-02 0. -1.
       -2    1    3    3    0  502  0.54599917642E+03 -0.23488010128E+03  0.31633209288E+03  0.67331252448E+03  0.25500000920E-02 0.  1.
</event>
<event>
 5   0  0.7296966E-04  0.1397748E+04  0.7818609E-02  0.8955450E-01
        2   -1    0    0  501    0  0.00000000000E+00  0.00000000000E+00  0.23681407843E+04  0.23681407843E+04  0.25500000920E-02 0.  1.
       -2   -1    0    0    0  501  0.00000000000E+00  0.00000000000E+00 -0.20624829712E+03  0.20624829713E+03  0.25500000920E-02 0. -1.
    10030    2    1    2    0    0  0.00000000000E+00  0.00000000000E+00  0.21618924872E+04  0.25743890814E+04  0.13977481949E+04 0.  0.
        3    1    3    3  502    0  0.33435613709E+03 -0.53049696520E+02 -0.45147622256E+02  0.34153567121E+03  0.10100000352E+00 0. -1.
       -3    1    3    3    0  502 -0.33435613709E+03  0.53049696520E+02  0.22070401094E+04  0.22328534102E+04  0.10100000352E+00 0.  1.
</event>
<event>
 5   0  0.7296966E-04  0.1399338E+04  0.7818609E-02  0.8954298E-01
        2   -1    0    0  501    0  0.00000000000E+00  0.00000000000E+00  0.81926980677E+03  0.81926980678E+03  0.25500000920E-02 0. -1.
       -2   -1    0    0    0  501  0.00000000000E+00  0.00000000000E+00 -0.59752819417E+03  0.59752819418E+03  0.25500000920E-02 0.  1.
    10030    2    1    2    0    0  0.00000000000E+00  0.00000000000E+00  0.22174161260E+03  0.14167980010E+04  0.13993381410E+04 0.  0.
        3    1    3    3  502    0 -0.63211306067E+03  0.18750249823E+03  0.34791308894E+03  0.74549824679E+03  0.10100000352E+00 0. -1.
       -3    1    3    3    0  502  0.63211306067E+03 -0.18750249823E+03 -0.12617147633E+03  0.67129975417E+03  0.10100000352E+00 0.  1.
</event>
<event>
 5   0  0.6870835E-04  0.1395395E+04  0.7818609E-02  0.8957159E-01
       -2   -1    0    0    0  501  0.00000000000E+00  0.00000000000E+00  0.59051755686E+03  0.59051755687E+03  0.25500000920E-02 0. -1.
        2   -1    0    0  501    0  0.00000000000E+00  0.00000000000E+00 -0.82433098756E+03  0.82433098756E+03  0.25500000920E-02 0.  1.
    10030    2    1    2    0    0  0.00000000000E+00  0.00000000000E+00 -0.23381343069E+03  0.14148485444E+04  0.13953951710E+04 0.  0.
        2    1    3    3  502    0 -0.48549563490E+01 -0.10775089945E+03 -0.81582633569E+03  0.82292553548E+03  0.25500000920E-02 0.  1.
       -2    1    3    3    0  502  0.48549563490E+01  0.10775089945E+03  0.58201290500E+03  0.59192300895E+03  0.25500000920E-02 0. -1.
</event>
<event>
 5   0  0.2660250E-04  0.1403316E+04  0.7818609E-02  0.8951422E-01
       -3   -1    0    0    0  501  0.00000000000E+00  0.00000000000E+00  0.33103902746E+03  0.33103904287E+03  0.10100000352E+00 0.  1.
        3   -1    0    0  501    0  0.00000000000E+00  0.00000000000E+00 -0.14872084187E+04  0.14872084221E+04  0.10100000352E+00 0. -1.
    10030    2    1    2    0    0  0.00000000000E+00  0.00000000000E+00 -0.11561693912E+04  0.18182474650E+04  0.14033161378E+04 0.  0.
        4    1    3    3  502    0 -0.27695050207E+03 -0.94258731917E+02 -0.14044153319E+04  0.14345627649E+04  0.12699999809E+01 0. -1.
       -4    1    3    3    0  502  0.27695050207E+03  0.94258731917E+02  0.24824594064E+03  0.38368470009E+03  0.12699999809E+01 0.  1.
</event>
<event>
 5   0  0.6959748E-04  0.1390358E+04  0.7818609E-02  0.8960827E-01
       -2   -1    0    0    0  501  0.00000000000E+00  0.00000000000E+00  0.36316923176E+03  0.36316923177E+03  0.25500000920E-02 0.  1.
        2   -1    0    0  501    0  0.00000000000E+00  0.00000000000E+00 -0.13307130842E+04  0.13307130842E+04  0.25500000920E-02 0. -1.
    10030    2    1    2    0    0  0.00000000000E+00  0.00000000000E+00 -0.96754385245E+03  0.16938823160E+04  0.13903582970E+04 0.  0.
        5    1    3    3  502    0 -0.32737399384E+03  0.78108894351E+02 -0.12248159306E+04  0.12702247380E+04  0.46999998093E+01 0. -1.
       -5    1    3    3    0  502  0.32737399384E+03 -0.78108894351E+02  0.25727207812E+03  0.42365757800E+03  0.46999998093E+01 0.  1.
</event>
<event>
 5   0  0.7296966E-04  0.1400456E+04  0.7818609E-02  0.8953488E-01
       -2   -1    0    0    0  501  0.00000000000E+00  0.00000000000E+00  0.34108432931E+03  0.34108432932E+03  0.25500000920E-02 0. -1.
        2   -1    0    0  501    0  0.00000000000E+00  0.00000000000E+00 -0.14375313096E+04  0.14375313096E+04  0.25500000920E-02 0.  1.
    10030    2    1    2    0    0  0.00000000000E+00  0.00000000000E+00 -0.10964469803E+04  0.17786156390E+04  0.14004562151E+04 0.  0.
        3    1    3    3  502    0  0.27625168940E+03 -0.47176718925E+02  0.26675198306E+03  0.38690731367E+03  0.10100000352E+00 0. -1.
       -3    1    3    3    0  502 -0.27625168940E+03  0.47176718925E+02 -0.13631989634E+04  0.13917083253E+04  0.10100000352E+00 0.  1.
</event>
<event>
 5   0  0.3907093E-04  0.1250323E+04  0.7818609E-02  0.9069915E-01
       -1   -1    0    0    0  501  0.00000000000E+00  0.00000000000E+00  0.98419845102E+03  0.98419845103E+03  0.50400001928E-02 0.  1.
        1   -1    0    0  501    0  0.00000000000E+00  0.00000000000E+00 -0.39710142696E+03  0.39710142699E+03  0.50400001928E-02 0. -1.
    10030    2    1    2    0    0  0.00000000000E+00  0.00000000000E+00  0.58709702406E+03  0.13812998780E+04  0.12503225333E+04 0.  0.
        4    1    3    3  502    0  0.54955459961E+03 -0.23665912661E+03  0.93446952295E+02  0.60560031865E+03  0.12699999809E+01 0. -1.
       -4    1    3    3    0  502 -0.54955459961E+03  0.23665912661E+03  0.49365007176E+03  0.77569955937E+03  0.12699999809E+01 0.  1.
</event>
<event>
 5   0  0.7065539E-04  0.1402048E+04  0.7818609E-02  0.8952338E-01
        2   -1    0    0  501    0  0.00000000000E+00  0.00000000000E+00  0.65289987729E+03  0.65289987730E+03  0.25500000920E-02 0. -1.
       -2   -1    0    0    0  501  0.00000000000E+00  0.00000000000E+00 -0.75269497914E+03  0.75269497914E+03  0.25500000920E-02 0.  1.
    10030    2    1    2    0    0  0.00000000000E+00  0.00000000000E+00 -0.99795101851E+02  0.14055948564E+04  0.14020477303E+04 0.  0.
        1    1    3    3  502    0  0.59500768217E+03 -0.25498298032E+03  0.21982585944E+03  0.68364747538E+03  0.50400001928E-02 0. -1.
       -1    1    3    3    0  502 -0.59500768217E+03  0.25498298032E+03 -0.31962096129E+03  0.72194738106E+03  0.50400001928E-02 0.  1.
</event>
<event>
 5   0  0.6870835E-04  0.1365797E+04  0.7818609E-02  0.8978955E-01
        2   -1    0    0  501    0  0.00000000000E+00  0.00000000000E+00  0.10382557685E+04  0.10382557685E+04  0.25500000920E-02 0. -1.
       -2   -1    0    0    0  501  0.00000000000E+00  0.00000000000E+00 -0.44916738395E+03  0.44916738396E+03  0.25500000920E-02 0.  1.
    10030    2    1    2    0    0  0.00000000000E+00  0.00000000000E+00  0.58908838455E+03  0.14874231525E+04  0.13657973897E+04 0.  0.
        2    1    3    3  502    0 -0.66235978076E+03 -0.15440251601E+03  0.22749886571E+03  0.71715852504E+03  0.25500000920E-02 0.  1.
       -2    1    3    3    0  502  0.66235978076E+03  0.15440251601E+03  0.36158951884E+03  0.77026462743E+03  0.25500000920E-02 0. -1.
</event>
<event>
 5   0  0.3756664E-04  0.1413576E+04  0.7818609E-02  0.8944050E-01
        1   -1    0    0  501    0  0.00000000000E+00  0.00000000000E+00  0.12765546318E+04  0.12765546318E+04  0.50400001928E-02 0.  1.
       -1   -1    0    0    0  501  0.00000000000E+00  0.00000000000E+00 -0.39132616097E+03  0.39132616100E+03  0.50400001928E-02 0. -1.
    10030    2    1    2    0    0  0.00000000000E+00  0.00000000000E+00  0.88522847079E+03  0.16678807928E+04  0.14135759242E+04 0.  0.
        2    1    3    3  502    0  0.58433495423E+02  0.55686042296E+03  0.95153533428E+03  0.11040504954E+04  0.25500000920E-02 0.  1.
       -2    1    3    3    0  502 -0.58433495423E+02 -0.55686042296E+03 -0.66306863493E+02  0.56383029734E+03  0.25500000920E-02 0. -1.
</event>
<event>
 5   0  0.6959748E-04  0.1400134E+04  0.7818609E-02  0.8953721E-01
        2   -1    0    0  501    0  0.00000000000E+00  0.00000000000E+00  0.53143589042E+03  0.53143589042E+03  0.25500000920E-02 0. -1.
       -2   -1    0    0    0  501  0.00000000000E+00  0.00000000000E+00 -0.92220693950E+03  0.92220693951E+03  0.25500000920E-02 0.  1.
    10030    2    1    2    0    0  0.00000000000E+00  0.00000000000E+00 -0.39077104909E+03  0.14536428299E+04  0.14001340879E+04 0.  0.
        5    1    3    3  502    0  0.30385664116E+02  0.82314439376E+02 -0.91645895946E+03  0.92066175651E+03  0.46999998093E+01 0.  1.
       -5    1    3    3    0  502 -0.30385664116E+02 -0.82314439376E+02  0.52568791038E+03  0.53298107342E+03  0.46999998093E+01 0. -1.
</event>
<event>
 5   0  0.3907270E-04  0.1441566E+04  0.7818609E-02  0.8924269E-01
        1   -1    0    0  501    0  0.00000000000E+00  0.00000000000E+00  0.84090824083E+03  0.84090824084E+03  0.50400001928E-02 0.  1.
       -1   -1    0    0    0  501  0.00000000000E+00  0.00000000000E+00 -0.61781777821E+03  0.61781777823E+03  0.50400001928E-02 0. -1.
    10030    2    1    2    0    0  0.00000000000E+00  0.00000000000E+00  0.22309046262E+03  0.14587260191E+04  0.14415659001E+04 0.  0.
        3    1    3    3  502    0  0.34689598673E+03  0.61706947033E+03  0.24886804932E+03  0.75036449343E+03  0.10100000352E+00 0. -1.
       -3    1    3    3    0  502 -0.34689598673E+03 -0.61706947033E+03 -0.25777586707E+02  0.70836152564E+03  0.10100000352E+00 0.  1.
</event>
<event>
 5   0  0.3907270E-04  0.1399157E+04  0.7818609E-02  0.8954429E-01
        1   -1    0    0  501    0  0.00000000000E+00  0.00000000000E+00  0.72323058386E+03  0.72323058387E+03  0.50400001928E-02 0.  1.
       -1   -1    0    0    0  501  0.00000000000E+00  0.00000000000E+00 -0.67669998549E+03  0.67669998551E+03  0.50400001928E-02 0. -1.
    10030    2    1    2    0    0  0.00000000000E+00  0.00000000000E+00  0.46530598365E+02  0.13999305694E+04  0.13991570686E+04 0.  0.
        3    1    3    3  502    0 -0.65389634155E+03 -0.15720431369E+03 -0.16949762131E+03  0.69355827121E+03  0.10100000352E+00 0.  1.
       -3    1    3    3    0  502  0.65389634155E+03  0.15720431369E+03  0.21602821968E+03  0.70637229817E+03  0.10100000352E+00 0. -1.
</event>
<event>
 5   0  0.3907093E-04  0.1390639E+04  0.7818609E-02  0.8960623E-01
        1   -1    0    0  501    0  0.00000000000E+00  0.00000000000E+00  0.38494823739E+03  0.38494823742E+03  0.50400001928E-02 0.  1.
       -1   -1    0    0    0  501  0.00000000000E+00  0.00000000000E+00 -0.12559323270E+04  0.12559323270E+04  0.50400001928E-02 0. -1.
    10030    2    1    2    0    0  0.00000000000E+00  0.00000000000E+00 -0.87098408960E+03  0.16408805644E+04  0.13906386095E+04 0.  0.
        4    1    3    3  502    0 -0.39099339804E+03  0.51621004593E+03 -0.13670968447E+03  0.66184575209E+03  0.12699999809E+01 0.  1.
       -4    1    3    3    0  502  0.39099339804E+03 -0.51621004593E+03 -0.73427440513E+03  0.97903481233E+03  0.12699999809E+01 0. -1.
</event>
<event>
 5   0  0.6895048E-04  0.1409823E+04  0.7818609E-02  0.8946739E-01
        2   -1    0    0  501    0  0.00000000000E+00  0.00000000000E+00  0.13764343601E+04  0.13764343601E+04  0.25500000920E-02 0.  1.
       -2   -1    0    0    0  501  0.00000000000E+00  0.00000000000E+00 -0.36100530985E+03  0.36100530986E+03  0.25500000920E-02 0. -1.
    10030    2    1    2    0    0  0.00000000000E+00  0.00000000000E+00  0.10154290502E+04  0.17374396699E+04  0.14098228437E+04 0.  0.
        4    1    3    3  502    0 -0.24937301103E+02  0.44734340804E+03 -0.16295529202E+03  0.47675364057E+03  0.12699999809E+01 0. -1.
       -4    1    3    3    0  502  0.24937301103E+02 -0.44734340804E+03  0.11783843422E+04  0.12606860293E+04  0.12699999809E+01 0.  1.
</event>
<event>
 5   0  0.6870835E-04  0.1406781E+04  0.7818609E-02  0.8948925E-01
        2   -1    0    0  501    0  0.00000000000E+00  0.00000000000E+00  0.17022129496E+04  0.17022129496E+04  0.25500000920E-02 0. -1.
       -2   -1    0    0    0  501  0.00000000000E+00  0.00000000000E+00 -0.29065569837E+03  0.29065569838E+03  0.25500000920E-02 0.  1.
    10030    2    1    2    0    0  0.00000000000E+00  0.00000000000E+00  0.14115572512E+04  0.19928686480E+04  0.14067805709E+04 0.  0.
        2    1    3    3  502    0  0.62779620787E+03 -0.27732790048E+03  0.48760564526E+03  0.84190148373E+03  0.25500000920E-02 0.  1.
       -2    1    3    3    0  502 -0.62779620787E+03  0.27732790048E+03  0.92395160594E+03  0.11509671642E+04  0.25500000920E-02 0. -1.
</event>
<event>
 5   0  0.6895048E-04  0.1401026E+04  0.7818609E-02  0.8953076E-01
       -2   -1    0    0    0  501  0.00000000000E+00  0.00000000000E+00  0.98417584786E+03  0.98417584787E+03  0.25500000920E-02 0. -1.
        2   -1    0    0  501    0  0.00000000000E+00  0.00000000000E+00 -0.49860885265E+03  0.49860885265E+03  0.25500000920E-02 0.  1.
    10030    2    1    2    0    0  0.00000000000E+00  0.00000000000E+00  0.48556699522E+03  0.14827847005E+04  0.14010264670E+04 0.  0.
        4    1    3    3  502    0  0.22281191524E+03  0.22432217234E+01 -0.46010111735E+03  0.51121896747E+03  0.12699999809E+01 0.  1.
       -4    1    3    3    0  502 -0.22281191524E+03 -0.22432217234E+01  0.94566811256E+03  0.97156573305E+03  0.12699999809E+01 0. -1.
</event>
<event>
 5   0  0.7065539E-04  0.1430047E+04  0.7818609E-02  0.8932352E-01
        2   -1    0    0  501    0  0.00000000000E+00  0.00000000000E+00  0.11542010438E+04  0.11542010438E+04  0.25500000920E-02 0.  1.
       -2   -1    0    0    0  501  0.00000000000E+00  0.00000000000E+00 -0.44295467314E+03  0.44295467315E+03  0.25500000920E-02 0. -1.
    10030    2    1    2    0    0  0.00000000000E+00  0.00000000000E+00  0.71124637064E+03  0.15971557169E+04  0.14300471966E+04 0.  0.
        1    1    3    3  502    0  0.56861820116E+03  0.42894393973E+03  0.42572028039E+03  0.82979354015E+03  0.50400001928E-02 0. -1.
       -1    1    3    3    0  502 -0.56861820116E+03 -0.42894393973E+03  0.28552609025E+03  0.76736217678E+03  0.50400001928E-02 0.  1.
</event>
<event>
 5   0  0.7296966E-04  0.1382777E+04  0.7818609E-02  0.8966380E-01
       -2   -1    0    0    0  501  0.00000000000E+00  0.00000000000E+00  0.47480706959E+03  0.47480706959E+03  0.25500000920E-02 0. -1.
        2   -1    0    0  501    0  0.00000000000E+00  0.00000000000E+00 -0.10067630385E+04  0.10067630385E+04  0.25500000920E-02 0.  1.
    10030    2    1    2    0    0  0.00000000000E+00  0.00000000000E+00 -0.53195596888E+03  0.14815701081E+04  0.13827772172E+04 0.  0.
        3    1    3    3  502    0 -0.43080810648E+03  0.54066534441E+03 -0.25507455563E+03  0.73687019101E+03  0.10100000352E+00 0.  1.
       -3    1    3    3    0  502  0.43080810648E+03 -0.54066534441E+03 -0.27688141325E+03  0.74469991706E+03  0.10100000352E+00 0. -1.
</event>
<event>
 5   0  0.3784219E-04  0.1464372E+04  0.7818609E-02  0.8908497E-01
        1   -1    0    0  501    0  0.00000000000E+00  0.00000000000E+00  0.67384027214E+03  0.67384027216E+03  0.50400001928E-02 0.  1.
       -1   -1    0    0    0  501  0.00000000000E+00  0.00000000000E+00 -0.79558382150E+03  0.79558382151E+03  0.50400001928E-02 0. -1.
    10030    2    1    2    0    0  0.00000000000E+00  0.00000000000E+00 -0.12174354935E+03  0.14694240937E+04  0.14643721096E+04 0.  0.
        1    1    3    3  502    0  0.18933018644E+03  0.43386222040E+03 -0.62138104421E+03  0.78115091239E+03  0.50400001928E-02 0. -1.
       -1    1    3    3    0  502 -0.18933018644E+03 -0.43386222040E+03  0.49963749486E+03  0.68827318129E+03  0.50400001928E-02 0.  1.
</event>
<event>
 5   0  0.6870835E-04  0.1391599E+04  0.7818609E-02  0.8959922E-01
        2   -1    0    0  501    0  0.00000000000E+00  0.00000000000E+00  0.62447175027E+03  0.62447175028E+03  0.25500000920E-02 0. -1.
       -2   -1    0    0    0  501  0.00000000000E+00  0.00000000000E+00 -0.77527441548E+03  0.77527441549E+03  0.25500000920E-02 0.  1.
    10030    2    1    2    0    0  0.00000000000E+00  0.00000000000E+00 -0.15080266521E+03  0.13997461658E+04  0.13915990388E+04 0.  0.
        2    1    3    3  502    0 -0.23856690117E+03  0.25477886983E+03  0.53004499041E+03  0.63464488552E+03  0.25500000920E-02 0. -1.
       -2    1    3    3    0  502  0.23856690117E+03 -0.25477886983E+03 -0.68084765563E+03  0.76510128024E+03  0.25500000920E-02 0.  1.
</event>
<event>
 5   0  0.3756664E-04  0.1394338E+04  0.7818609E-02  0.8957927E-01
       -1   -1    0    0    0  501  0.00000000000E+00  0.00000000000E+00  0.31561403760E+03  0.31561403764E+03  0.50400001928E-02 0.  1.
        1   -1    0    0  501    0  0.00000000000E+00  0.00000000000E+00 -0.15399969832E+04  0.15399969832E+04  0.50400001928E-02 0. -1.
    10030    2    1    2    0    0  0.00000000000E+00  0.00000000000E+00 -0.12243829456E+04  0.18556110209E+04  0.13943380735E+04 0.  0.
        2    1    3    3  502    0 -0.65355747159E+03  0.13297928645E+03 -0.34198677066E+03  0.74951705158E+03  0.25500000920E-02 0.  1.
       -2    1    3    3    0  502  0.65355747159E+03 -0.13297928645E+03 -0.88239617495E+03  0.11060939693E+04  0.25500000920E-02 0. -1.
</event>
<event>
 5   0  0.6870835E-04  0.1399038E+04  0.7818609E-02  0.8954515E-01
        2   -1    0    0  501    0  0.00000000000E+00  0.00000000000E+00  0.13240308928E+04  0.13240308928E+04  0.25500000920E-02 0.  1.
       -2   -1    0    0    0  501  0.00000000000E+00  0.00000000000E+00 -0.36957341517E+03  0.36957341518E+03  0.25500000920E-02 0. -1.
    10030    2    1    2    0    0  0.00000000000E+00  0.00000000000E+00  0.95445747764E+03  0.16936043080E+04  0.13990376962E+04 0.  0.
        2    1    3    3  502    0  0.27181100803E+03 -0.20920862625E+03  0.12152442026E+04  0.12627224340E+04  0.25500000920E-02 0.  1.
       -2    1    3    3    0  502 -0.27181100803E+03  0.20920862625E+03 -0.26078672498E+03  0.43088187397E+03  0.25500000920E-02 0. -1.
</event>
<event>
 5   0  0.6895048E-04  0.1388803E+04  0.7818609E-02  0.8961964E-01
        2   -1    0    0  501    0  0.00000000000E+00  0.00000000000E+00  0.13434497159E+04  0.13434497159E+04  0.25500000920E-02 0. -1.
       -2   -1    0    0    0  501  0.00000000000E+00  0.00000000000E+00 -0.35892169378E+03  0.35892169379E+03  0.25500000920E-02 0.  1.
    10030    2    1    2    0    0  0.00000000000E+00  0.00000000000E+00  0.98452802208E+03  0.17023714097E+04  0.13888027182E+04 0.  0.
        4    1    3    3  502    0  0.63613323573E+03 -0.89327824204E+02  0.16900401513E+03  0.66423559360E+03  0.12699999809E+01 0.  1.
       -4    1    3    3    0  502 -0.63613323573E+03  0.89327824204E+02  0.81552400694E+03  0.10381358161E+04  0.12699999809E+01 0. -1.
</event>
<event>
 5   0  0.3784219E-04  0.1401751E+04  0.7818609E-02  0.8952552E-01
        1   -1    0    0  501    0  0.00000000000E+00  0.00000000000E+00  0.66073969552E+03  0.66073969553E+03  0.50400001928E-02 0.  1.
       -1   -1    0    0    0  501  0.00000000000E+00  0.00000000000E+00 -0.74344894182E+03  0.74344894183E+03  0.50400001928E-02 0. -1.
    10030    2    1    2    0    0  0.00000000000E+00  0.00000000000E+00 -0.82709246302E+02  0.14041886374E+04  0.14017506590E+04 0.  0.
        1    1    3    3  502    0  0.84624704644E+01  0.54557601843E+02 -0.74126724259E+03  0.74332043581E+03  0.50400001928E-02 0. -1.
       -1    1    3    3    0  502 -0.84624704644E+01 -0.54557601843E+02  0.65855799629E+03  0.66086820156E+03  0.50400001928E-02 0.  1.
</event>
<event>
 5   0  0.3907270E-04  0.1404285E+04  0.7818609E-02  0.8950723E-01
        1   -1    0    0  501    0  0.00000000000E+00  0.00000000000E+00  0.32569494676E+03  0.32569494680E+03  0.50400001928E-02 0.  1.
       -1   -1    0    0    0  501  0.00000000000E+00  0.00000000000E+00 -0.15136989208E+04  0.15136989208E+04  0.50400001928E-02 0. -1.
    10030    2    1    2    0    0  0.00000000000E+00  0.00000000000E+00 -0.11880039741E+04  0.18393938676E+04  0.14042849988E+04 0.  0.
        3    1    3    3  502    0 -0.28827928624E+03 -0.10880824289E+03  0.23240445084E+03  0.38594820840E+03  0.10100000352E+00 0.  1.
       -3    1    3    3    0  502  0.28827928624E+03  0.10880824289E+03 -0.14204084249E+04  0.14534456592E+04  0.10100000352E+00 0. -1.
</event>
<event>
 5   0  0.7296966E-04  0.1326874E+04  0.7818609E-02  0.9008521E-01
       -2   -1    0    0    0  501  0.00000000000E+00  0.00000000000E+00  0.17155673142E+03  0.17155673144E+03  0.25500000920E-02 0.  1.
        2   -1    0    0  501    0  0.00000000000E+00  0.00000000000E+00 -0.25656142304E+04  0.25656142304E+04  0.25500000920E-02 0. -1.
    10030    2    1    2    0    0  0.00000000000E+00  0.00000000000E+00 -0.23940574990E+04  0.27371709618E+04  0.13268736058E+04 0.  0.
        3    1    3    3  502    0 -0.35837753923E+03  0.52365832756E+03 -0.15964803122E+04  0.17179644647E+04  0.10100000352E+00 0. -1.
       -3    1    3    3    0  502  0.35837753923E+03 -0.52365832756E+03 -0.79757718678E+03  0.10192064971E+04  0.10100000352E+00 0.  1.
</event>
<event>
 5   0  0.3977658E-04  0.1400676E+04  0.7818609E-02  0.8953329E-01
       -1   -1    0    0    0  501  0.00000000000E+00  0.00000000000E+00  0.45487680806E+03  0.45487680809E+03  0.50400001928E-02 0. -1.
        1   -1    0    0  501    0  0.00000000000E+00  0.00000000000E+00 -0.10782551030E+04  0.10782551031E+04  0.50400001928E-02 0.  1.
    10030    2    1    2    0    0  0.00000000000E+00  0.00000000000E+00 -0.62337829499E+03  0.15331319111E+04  0.14006758934E+04 0.  0.
        5    1    3    3  502    0 -0.19242149413E+02  0.13272119826E+03 -0.10640516408E+04  0.10724799118E+04  0.46999998093E+01 0.  1.
       -5    1    3    3    0  502  0.19242149413E+02 -0.13272119826E+03  0.44067334585E+03  0.46065199937E+03  0.46999998093E+01 0. -1.
</event>
<event>
 5   0  0.3907093E-04  0.1401914E+04  0.7818609E-02  0.8952434E-01
       -1   -1    0    0    0  501  0.00000000000E+00  0.00000000000E+00  0.51080682493E+03  0.51080682495E+03  0.50400001928E-02 0. -1.
        1   -1    0    0  501    0  0.00000000000E+00  0.00000000000E+00 -0.96189128333E+03  0.96189128334E+03  0.50400001928E-02 0.  1.
    10030    2    1    2    0    0  0.00000000000E+00  0.00000000000E+00 -0.45108445840E+03  0.14726981083E+04  0.14019138809E+04 0.  0.
        4    1    3    3  502    0  0.12948460105E+03 -0.49847035204E+03  0.27396610340E+03  0.58335065997E+03  0.12699999809E+01 0. -1.
       -4    1    3    3    0  502 -0.12948460105E+03  0.49847035204E+03 -0.72505056180E+03  0.88934744832E+03  0.12699999809E+01 0.  1.
</event>
<event>
 5   0  0.6895048E-04  0.1416293E+04  0.7818609E-02  0.8942109E-01
        2   -1    0    0  501    0  0.00000000000E+00  0.00000000000E+00  0.11673728577E+04  0.11673728577E+04  0.25500000920E-02 0.  1.
       -2   -1    0    0    0  501  0.00000000000E+00  0.00000000000E+00 -0.42957240436E+03  0.42957240436E+03  0.25500000920E-02 0. -1.
    10030    2    1    2    0    0  0.00000000000E+00  0.00000000000E+00  0.73780045334E+03  0.15969452621E+04  0.14162925761E+04 0.  0.
        4    1    3    3  502    0 -0.13565377407E+03 -0.69227975076E+03  0.29924378262E+03  0.76629084170E+03  0.12699999809E+01 0. -1.
       -4    1    3    3    0  502  0.13565377407E+03  0.69227975076E+03  0.43855667072E+03  0.83065442036E+03  0.12699999809E+01 0.  1.
</event>
<event>
 5   0  0.7065539E-04  0.1399714E+04  0.7818609E-02  0.8954025E-01
        2   -1    0    0  501    0  0.00000000000E+00  0.00000000000E+00  0.69197672704E+03  0.69197672705E+03  0.25500000920E-02 0.  1.
       -2   -1    0    0    0  501  0.00000000000E+00  0.00000000000E+00 -0.70782725884E+03  0.70782725884E+03  0.25500000920E-02 0. -1.
    10030    2    1    2    0    0  0.00000000000E+00  0.00000000000E+00 -0.15850531796E+02  0.13998039859E+04  0.13997142421E+04 0.  0.
        1    1    3    3  502    0  0.19213718866E+03 -0.47684463619E+03  0.46697619863E+03  0.69452449664E+03  0.50400001928E-02 0.  1.
       -1    1    3    3    0  502 -0.19213718866E+03  0.47684463619E+03 -0.48282673042E+03  0.70527948925E+03  0.50400001928E-02 0. -1.
</event>
<event>
 5   0  0.3756664E-04  0.1422663E+04  0.7818609E-02  0.8937576E-01
        1   -1    0    0  501    0  0.00000000000E+00  0.00000000000E+00  0.12501783592E+04  0.12501783592E+04  0.50400001928E-02 0.  1.
       -1   -1    0    0    0  501  0.00000000000E+00  0.00000000000E+00 -0.40473604843E+03  0.40473604846E+03  0.50400001928E-02 0. -1.
    10030    2    1    2    0    0  0.00000000000E+00  0.00000000000E+00  0.84544231076E+03  0.16549144077E+04  0.14226626430E+04 0.  0.
        2    1    3    3  502    0  0.20163080906E+03  0.42283118255E+03 -0.19997275200E+03  0.50934300196E+03  0.25500000920E-02 0. -1.
       -2    1    3    3    0  502 -0.20163080906E+03 -0.42283118255E+03  0.10454150628E+04  0.11455714057E+04  0.25500000920E-02 0.  1.
</event>
<event>
 5   0  0.6870835E-04  0.1388691E+04  0.7818609E-02  0.8962046E-01
        2   -1    0    0  501    0  0.00000000000E+00  0.00000000000E+00  0.21775521267E+04  0.21775521267E+04  0.25500000920E-02 0. -1.
       -2   -1    0    0    0  501  0.00000000000E+00  0.00000000000E+00 -0.22140252246E+03  0.22140252247E+03  0.25500000920E-02 0.  1.
    10030    2    1    2    0    0  0.00000000000E+00  0.00000000000E+00  0.19561496042E+04  0.23989546492E+04  0.13886907988E+04 0.  0.
        2    1    3    3  502    0 -0.88548178452E+02  0.18999503186E+03  0.21215877625E+04  0.21319178047E+04  0.25500000920E-02 0. -1.
       -2    1    3    3    0  502  0.88548178452E+02 -0.18999503186E+03 -0.16543815831E+03  0.26703684441E+03  0.25500000920E-02 0.  1.
</event>
<event>
 5   0  0.7065539E-04  0.1399741E+04  0.7818609E-02  0.8954006E-01
       -2   -1    0    0    0  501  0.00000000000E+00  0.00000000000E+00  0.36835893865E+03  0.36835893866E+03  0.25500000920E-02 0. -1.
        2   -1    0    0  501    0  0.00000000000E+00  0.00000000000E+00 -0.13297312798E+04  0.13297312798E+04  0.25500000920E-02 0.  1.
    10030    2    1    2    0    0  0.00000000000E+00  0.00000000000E+00 -0.96137234112E+03  0.16980902184E+04  0.13997405516E+04 0.  0.
        1    1    3    3  502    0  0.19894694619E+03 -0.67086291692E+03 -0.49702821127E+03  0.85829714174E+03  0.50400001928E-02 0.  1.
       -1    1    3    3    0  502 -0.19894694619E+03  0.67086291692E+03 -0.46434412985E+03  0.83979307669E+03  0.50400001928E-02 0. -1.
</event>
<event>
 5   0  0.7296966E-04  0.1392586E+04  0.7818609E-02  0.8959202E-01
       -2   -1    0    0    0  501  0.00000000000E+00  0.00000000000E+00  0.50094868708E+03  0.50094868709E+03  0.25500000920E-02 0. -1.
        2   -1    0    0  501    0  0.00000000000E+00  0.00000000000E+00 -0.96781207169E+03  0.96781207169E+03  0.25500000920E-02 0.  1.
    10030    2    1    2    0    0  0.00000000000E+00  0.00000000000E+00 -0.46686338461E+03  0.14687607588E+04  0.13925863516E+04 0.  0.
        3    1    3    3  502    0  0.29467067329E+03  0.14251741434E+03 -0.88160651941E+03  0.94041059350E+03  0.10100000352E+00 0.  1.
       -3    1    3    3    0  502 -0.29467067329E+03 -0.14251741434E+03  0.41474313480E+03  0.52835016528E+03  0.10100000352E+00 0. -1.
</event>
<event>
 5   0  0.6870835E-04  0.1389808E+04  0.7818609E-02  0.8961230E-01
        2   -1    0    0  501    0  0.00000000000E+00  0.00000000000E+00  0.16687965523E+04  0.16687965523E+04  0.25500000920E-02 0.  1.
       -2   -1    0    0    0  501  0.00000000000E+00  0.00000000000E+00 -0.28936499742E+03  0.28936499744E+03  0.25500000920E-02 0. -1.
    10030    2    1    2    0    0  0.00000000000E+00  0.00000000000E+00  0.13794315549E+04  0.19581615497E+04  0.13898076271E+04 0.  0.
        2    1    3    3  502    0 -0.11182028384E+03  0.39876252155E+03 -0.96490279777E+02  0.42523605041E+03  0.25500000920E-02 0. -1.
       -2    1    3    3    0  502  0.11182028384E+03 -0.39876252155E+03  0.14759218347E+04  0.15329254993E+04  0.25500000920E-02 0.  1.
</event>
<event>
 5   0  0.3977658E-04  0.1403058E+04  0.7818609E-02  0.8951608E-01
        1   -1    0    0  501    0  0.00000000000E+00  0.00000000000E+00  0.87060548555E+03  0.87060548557E+03  0.50400001928E-02 0. -1.
       -1   -1    0    0    0  501  0.00000000000E+00  0.00000000000E+00 -0.56528830964E+03  0.56528830966E+03  0.50400001928E-02 0.  1.
    10030    2    1    2    0    0  0.00000000000E+00  0.00000000000E+00  0.30531717592E+03  0.14358937952E+04  0.14030582359E+04 0.  0.
        5    1    3    3  502    0  0.85707838902E+02  0.65873435029E+03  0.38342228167E+03  0.76701467651E+03  0.46999998093E+01 0. -1.
       -5    1    3    3    0  502 -0.85707838902E+02 -0.65873435029E+03 -0.78105105751E+02  0.66887911871E+03  0.46999998093E+01 0.  1.
</event>
<event>
 5   0  0.6895048E-04  0.1400210E+04  0.7818609E-02  0.8953667E-01
       -2   -1    0    0    0  501  0.00000000000E+00  0.00000000000E+00  0.77688467748E+03  0.77688467749E+03  0.25500000920E-02 0. -1.
        2   -1    0    0  501    0  0.00000000000E+00  0.00000000000E+00 -0.63091323510E+03  0.63091323510E+03  0.25500000920E-02 0.  1.
    10030    2    1    2    0    0  0.00000000000E+00  0.00000000000E+00  0.14597144239E+03  0.14077979126E+04  0.14002097345E+04 0.  0.
        4    1    3    3  502    0  0.63744524911E+02  0.31803229280E+03  0.69678120616E+03  0.76857892625E+03  0.12699999809E+01 0. -1.
       -4    1    3    3    0  502 -0.63744524911E+02 -0.31803229280E+03 -0.55080976378E+03  0.63921898633E+03  0.12699999809E+01 0.  1.
</event>
<event>
 5   0  0.3907270E-04  0.1387271E+04  0.7818609E-02  0.8963085E-01
        1   -1    0    0  501    0  0.00000000000E+00  0.00000000000E+00  0.70085926542E+03  0.70085926544E+03  0.50400001928E-02 0.  1.
       -1   -1    0    0    0  501  0.00000000000E+00  0.00000000000E+00 -0.68648578498E+03  0.68648578500E+03  0.50400001928E-02 0. -1.
    10030    2    1    2    0    0  0.00000000000E+00  0.00000000000E+00  0.14373480440E+02  0.13873450504E+04  0.13872705908E+04 0.  0.
        3    1    3    3  502    0  0.24587148436E+03  0.58502011994E+03 -0.27287933153E+03  0.69077092248E+03  0.10100000352E+00 0. -1.
       -3    1    3    3    0  502 -0.24587148436E+03 -0.58502011994E+03  0.28725281197E+03  0.69657412796E+03  0.10100000352E+00 0.  1.
</event>
<event>
 5   0  0.3784219E-04  0.1392419E+04  0.7818609E-02  0.8959325E-01
       -1   -1    0    0    0  501  0.00000000000E+00  0.00000000000E+00  0.26128694438E+04  0.26128694438E+04  0.50400001928E-02 0. -1.
        1   -1    0    0  501    0  0.00000000000E+00  0.00000000000E+00 -0.18550771473E+03  0.18550771480E+03  0.50400001928E-02 0.  1.
    10030    2    1    2    0    0  0.00000000000E+00  0.00000000000E+00  0.24273617290E+04  0.27983771586E+04  0.13924186720E+04 0.  0.
        1    1    3    3  502    0 -0.48326855270E+03 -0.23112107911E+03  0.31999299819E+03  0.62398795353E+03  0.50400001928E-02 0.  1.
       -1    1    3    3    0  502  0.48326855270E+03  0.23112107911E+03  0.21073687308E+04  0.21743892050E+04  0.50400001928E-02 0. -1.
</event>
<event>
 5   0  0.7296966E-04  0.1239676E+04  0.7818609E-02  0.9078820E-01
        2   -1    0    0  501    0  0.00000000000E+00  0.00000000000E+00  0.11313015764E+04  0.11313015764E+04  0.25500000920E-02 0.  1.
       -2   -1    0    0    0  501  0.00000000000E+00  0.00000000000E+00 -0.33960816282E+03  0.33960816283E+03  0.25500000920E-02 0. -1.
    10030    2    1    2    0    0  0.00000000000E+00  0.00000000000E+00  0.79169341361E+03  0.14709097393E+04  0.12396761674E+04 0.  0.
        3    1    3    3  502    0 -0.40293440295E+03  0.17769544458E+03  0.91340587242E+03  0.10140227325E+04  0.10100000352E+00 0.  1.
       -3    1    3    3    0  502  0.40293440295E+03 -0.17769544458E+03 -0.12171245881E+03  0.45688700675E+03  0.10100000352E+00 0. -1.
</event>
<event>
 5   0  0.2660250E-04  0.1427772E+04  0.7818609E-02  0.8933957E-01
       -3   -1    0    0    0  501  0.00000000000E+00  0.00000000000E+00  0.60726391230E+03  0.60726392070E+03  0.10100000352E+00 0. -1.
        3   -1    0    0  501    0  0.00000000000E+00  0.00000000000E+00 -0.83922878593E+03  0.83922879200E+03  0.10100000352E+00 0.  1.
    10030    2    1    2    0    0  0.00000000000E+00  0.00000000000E+00 -0.23196487363E+03  0.14464927127E+04  0.14277722036E+04 0.  0.
        2    1    3    3  502    0 -0.25159597133E+03  0.15938180128E+03 -0.77328058521E+03  0.82865309680E+03  0.25500000920E-02 0.  1.
       -2    1    3    3    0  502  0.25159597133E+03 -0.15938180128E+03  0.54131571158E+03  0.61783961590E+03  0.25500000920E-02 0. -1.
</event>
<event>
 5   0  0.3907270E-04  0.1392149E+04  0.7818609E-02  0.8959521E-01
        1   -1    0    0  501    0  0.00000000000E+00  0.00000000000E+00  0.82403376966E+03  0.82403376967E+03  0.50400001928E-02 0. -1.
       -1   -1    0    0    0  501  0.00000000000E+00  0.00000000000E+00 -0.58798519309E+03  0.58798519311E+03  0.50400001928E-02 0.  1.
    10030    2    1    2    0    0  0.00000000000E+00  0.00000000000E+00  0.23604857657E+03  0.14120189628E+04  0.13921489219E+04 0.  0.
        3    1    3    3  502    0 -0.60536579986E+02 -0.58389796665E+03  0.49741948910E+03  0.76943334429E+03  0.10100000352E+00 0. -1.
       -3    1    3    3    0  502  0.60536579986E+02  0.58389796665E+03 -0.26137091254E+03  0.64258561849E+03  0.10100000352E+00 0.  1.
</event>
<event>
 5   0  0.3907093E-04  0.1400963E+04  0.7818609E-02  0.8953122E-01
       -1   -1    0    0    0  501  0.00000000000E+00  0.00000000000E+00  0.58475486665E+03  0.58475486668E+03  0.50400001928E-02 0. -1.
        1   -1    0    0  501    0  0.00000000000E+00  0.00000000000E+00 -0.83911139529E+03  0.83911139530E+03  0.50400001928E-02 0.  1.
    10030    2    1    2    0    0  0.00000000000E+00  0.00000000000E+00 -0.25435652863E+03  0.14238662620E+04  0.14009632002E+04 0.  0.
        4    1    3    3  502    0  0.14209961022E+03 -0.23497384518E+03  0.52776944545E+03  0.59493462464E+03  0.12699999809E+01 0. -1.
       -4    1    3    3    0  502 -0.14209961022E+03  0.23497384518E+03 -0.78212597408E+03  0.82893163734E+03  0.12699999809E+01 0.  1.
</event>
<event>
 5   0  0.3977658E-04  0.1407267E+04  0.7818609E-02  0.8948575E-01
       -1   -1    0    0    0  501  0.00000000000E+00  0.00000000000E+00  0.72361918321E+03  0.72361918323E+03  0.50400001928E-02 0.  1.
        1   -1    0    0  501    0  0.00000000000E+00  0.00000000000E+00 -0.68419938168E+03  0.68419938169E+03  0.50400001928E-02 0. -1.
    10030    2    1    2    0    0  0.00000000000E+00  0.00000000000E+00  0.39419801537E+02  0.14078185649E+04  0.14072665671E+04 0.  0.
        5    1    3    3  502    0 -0.88979959796E+02 -0.23337124911E+03  0.67776586442E+03  0.72233526159E+03  0.46999998093E+01 0.  1.
       -5    1    3    3    0  502  0.88979959796E+02  0.23337124911E+03 -0.63834606288E+03  0.68548330334E+03  0.46999998093E+01 0. -1.
</event>
<event>
 5   0  0.3907093E-04  0.1403095E+04  0.7818609E-02  0.8951582E-01
        1   -1    0    0  501    0  0.00000000000E+00  0.00000000000E+00  0.62811161981E+03  0.62811161983E+03  0.50400001928E-02 0. -1.
       -1   -1    0    0    0  501  0.00000000000E+00  0.00000000000E+00 -0.78356869539E+03  0.78356869541E+03  0.50400001928E-02 0.  1.
    10030    2    1    2    0    0  0.00000000000E+00  0.00000000000E+00 -0.15545707558E+03  0.14116803152E+04  0.14030945834E+04 0.  0.
        4    1    3    3  502    0 -0.25228943547E+03  0.48135352703E+03  0.36862543479E+03  0.65668676042E+03  0.12699999809E+01 0. -1.
       -4    1    3    3    0  502  0.25228943547E+03 -0.48135352703E+03 -0.52408251037E+03  0.75499355482E+03  0.12699999809E+01 0.  1.
</event>
<event>
 5   0  0.7065539E-04  0.1397524E+04  0.7818609E-02  0.8955613E-01
       -2   -1    0    0    0  501  0.00000000000E+00  0.00000000000E+00  0.43914097105E+03  0.43914097106E+03  0.25500000920E-02 0. -1.
        2   -1    0    0  501    0  0.00000000000E+00  0.00000000000E+00 -0.11118712802E+04  0.11118712802E+04  0.25500000920E-02 0.  1.
    10030    2    1    2    0    0  0.00000000000E+00  0.00000000000E+00 -0.67273030911E+03  0.15510122512E+04  0.13975238584E+04 0.  0.
        1    1    3    3  502    0 -0.48676860363E+02  0.41978696669E+03  0.28124007321E+03  0.50762832165E+03  0.50400001928E-02 0. -1.
       -1    1    3    3    0  502  0.48676860363E+02 -0.41978696669E+03 -0.95397038232E+03  0.10433839296E+04  0.50400001928E-02 0.  1.
</event>
<event>
 5   0  0.3907093E-04  0.1438636E+04  0.7818609E-02  0.8926317E-01
        1   -1    0    0  501    0  0.00000000000E+00  0.00000000000E+00  0.13439206450E+04  0.13439206450E+04  0.50400001928E-02 0.  1.
       -1   -1    0    0    0  501  0.00000000000E+00  0.00000000000E+00 -0.38500647311E+03  0.38500647314E+03  0.50400001928E-02 0. -1.
    10030    2    1    2    0    0  0.00000000000E+00  0.00000000000E+00  0.95891417186E+03  0.17289271181E+04  0.14386356699E+04 0.  0.
        4    1    3    3  502    0  0.42330677125E+03 -0.14563260793E+03  0.11561140348E+04  0.12397575382E+04  0.12699999809E+01 0.  1.
       -4    1    3    3    0  502 -0.42330677125E+03  0.14563260793E+03 -0.19719986297E+03  0.48916957993E+03  0.12699999809E+01 0. -1.
</event>
<event>
 5   0  0.7296966E-04  0.1400351E+04  0.7818609E-02  0.8953564E-01
        2   -1    0    0  501    0  0.00000000000E+00  0.00000000000E+00  0.12628732816E+04  0.12628732816E+04  0.25500000920E-02 0.  1.
       -2   -1    0    0    0  501  0.00000000000E+00  0.00000000000E+00 -0.38819892441E+03  0.38819892442E+03  0.25500000920E-02 0. -1.
    10030    2    1    2    0    0  0.00000000000E+00  0.00000000000E+00  0.87467435722E+03  0.16510722061E+04  0.14003514553E+04 0.  0.
        3    1    3    3  502    0  0.20388121803E+03  0.40879555012E+03 -0.18829360861E+03  0.49410104848E+03  0.10100000352E+00 0. -1.
       -3    1    3    3    0  502 -0.20388121803E+03 -0.40879555012E+03  0.10629679658E+04  0.11569711576E+04  0.10100000352E+00 0.  1.
</event>
<event>
 5   0  0.6895048E-04  0.1390829E+04  0.7818609E-02  0.8960484E-01
        2   -1    0    0  501    0  0.00000000000E+00  0.00000000000E+00  0.68687998915E+03  0.68687998915E+03  0.25500000920E-02 0.  1.
       -2   -1    0    0    0  501  0.00000000000E+00  0.00000000000E+00 -0.70405471919E+03  0.70405471919E+03  0.25500000920E-02 0. -1.
    10030    2    1    2    0    0  0.00000000000E+00  0.00000000000E+00 -0.17174730039E+02  0.13909347083E+04  0.13908286708E+04 0.  0.
        4    1    3    3  502    0  0.52305286220E+03  0.88343928956E+02  0.44112517984E+03  0.68991447559E+03  0.12699999809E+01 0.  1.
       -4    1    3    3    0  502 -0.52305286220E+03 -0.88343928956E+02 -0.45829990988E+03  0.70102023275E+03  0.12699999809E+01 0. -1.
</event>
<event>
 5   0  0.3907093E-04  0.1400039E+04  0.7818609E-02  0.8953791E-01
        1   -1    0    0  501    0  0.00000000000E+00  0.00000000000E+00  0.12561485802E+04  0.12561485802E+04  0.50400001928E-02 0.  1.
       -1   -1    0    0    0  501  0.00000000000E+00  0.00000000000E+00 -0.39010279736E+03  0.39010279739E+03  0.50400001928E-02 0. -1.
    10030    2    1    2    0    0  0.00000000000E+00  0.00000000000E+00  0.86604578281E+03  0.16462513776E+04  0.14000386781E+04 0.  0.
        4    1    3    3  502    0  0.56541413252E+03  0.68841957255E+02 -0.45471931639E+02  0.57140324273E+03  0.12699999809E+01 0. -1.
       -4    1    3    3    0  502 -0.56541413252E+03 -0.68841957255E+02  0.91151771445E+03  0.10748481348E+04  0.12699999809E+01 0.  1.
</event>
<event>
 5   0  0.3784219E-04  0.1409933E+04  0.7818609E-02  0.8946660E-01
       -1   -1    0    0    0  501  0.00000000000E+00  0.00000000000E+00  0.46807922060E+03  0.46807922063E+03  0.50400001928E-02 0.  1.
        1   -1    0    0  501    0  0.00000000000E+00  0.00000000000E+00 -0.10617386404E+04  0.10617386404E+04  0.50400001928E-02 0. -1.
    10030    2    1    2    0    0  0.00000000000E+00  0.00000000000E+00 -0.59365941983E+03  0.15298178611E+04  0.14099330414E+04 0.  0.
        1    1    3    3  502    0 -0.30805661563E+03  0.36148434405E+02  0.39006478742E+03  0.49835341491E+03  0.50400001928E-02 0.  1.
       -1    1    3    3    0  502  0.30805661563E+03 -0.36148434405E+02 -0.98372420725E+03  0.10314644462E+04  0.50400001928E-02 0. -1.
</event>
<event>
 5   0  0.6870835E-04  0.1393884E+04  0.7818609E-02  0.8958258E-01
       -2   -1    0    0    0  501  0.00000000000E+00  0.00000000000E+00  0.67257672009E+03  0.67257672009E+03  0.25500000920E-02 0.  1.
        2   -1    0    0  501    0  0.00000000000E+00  0.00000000000E+00 -0.72218962033E+03  0.72218962033E+03  0.25500000920E-02 0. -1.
    10030    2    1    2    0    0  0.00000000000E+00  0.00000000000E+00 -0.49612900242E+02  0.13947663404E+04  0.13938836768E+04 0.  0.
        2    1    3    3  502    0  0.48169416806E+03 -0.44641430662E+03  0.20860703744E+03  0.68908047482E+03  0.25500000920E-02 0.  1.
       -2    1    3    3    0  502 -0.48169416806E+03  0.44641430662E+03 -0.25821993768E+03  0.70568586561E+03  0.25500000920E-02 0. -1.
</event>
<event>
 5   0  0.7296966E-04  0.1399413E+04  0.7818609E-02  0.8954244E-01
       -2   -1    0    0    0  501  0.00000000000E+00  0.00000000000E+00  0.54820596258E+03  0.54820596259E+03  0.25500000920E-02 0.  1.
        2   -1    0    0  501    0  0.00000000000E+00  0.00000000000E+00 -0.89307534407E+03  0.89307534407E+03  0.25500000920E-02 0. -1.
    10030    2    1    2    0    0  0.00000000000E+00  0.00000000000E+00 -0.34486938149E+03  0.14412813067E+04  0.13994130608E+04 0.  0.
        3    1    3    3  502    0  0.35068405259E+03 -0.60172383408E+03 -0.24181742387E+03  0.73724253400E+03  0.10100000352E+00 0. -1.
       -3    1    3    3    0  502 -0.35068405259E+03  0.60172383408E+03 -0.10305195762E+03  0.70403877267E+03  0.10100000352E+00 0.  1.
</event>
<event>
 5   0  0.3907093E-04  0.1403282E+04  0.7818609E-02  0.8951446E-01
        1   -1    0    0  501    0  0.00000000000E+00  0.00000000000E+00  0.48140791608E+03  0.48140791611E+03  0.50400001928E-02 0. -1.
       -1   -1    0    0    0  501  0.00000000000E+00  0.00000000000E+00 -0.10226255282E+04  0.10226255283E+04  0.50400001928E-02 0.  1.
    10030    2    1    2    0    0  0.00000000000E+00  0.00000000000E+00 -0.54121761216E+03  0.15040334444E+04  0.14032819026E+04 0.  0.
        4    1    3    3  502    0  0.12090742131E+03 -0.43560240168E+03  0.30450831327E+03  0.54506420047E+03  0.12699999809E+01 0. -1.
       -4    1    3    3    0  502 -0.12090742131E+03  0.43560240168E+03 -0.84572592543E+03  0.95896924389E+03  0.12699999809E+01 0.  1.
</event>
<event>
 5   0  0.3756664E-04  0.1397932E+04  0.7818609E-02  0.8955317E-01
       -1   -1    0    0    0  501  0.00000000000E+00  0.00000000000E+00  0.48692979040E+03  0.48692979043E+03  0.50400001928E-02 0. -1.
        1   -1    0    0  501    0  0.00000000000E+00  0.00000000000E+00 -0.10033349026E+04  0.10033349026E+04  0.50400001928E-02 0.  1.
    10030    2    1    2    0    0  0.00000000000E+00  0.00000000000E+00 -0.51640511218E+03  0.14902646930E+04  0.13979322642E+04 0.  0.
        2    1    3    3  502    0 -0.26063788519E+03 -0.35573523353E+03  0.31990093380E+03  0.54480847187E+03  0.25500000920E-02 0. -1.
       -2    1    3    3    0  502  0.26063788519E+03  0.35573523353E+03 -0.83630604597E+03  0.94545622115E+03  0.25500000920E-02 0.  1.
</event>
<event>
 5   0  0.3784219E-04  0.1401060E+04  0.7818609E-02  0.8953051E-01
       -1   -1    0    0    0  501  0.00000000000E+00  0.00000000000E+00  0.71786722809E+03  0.71786722810E+03  0.50400001928E-02 0.  1.
        1   -1    0    0  501    0  0.00000000000E+00  0.00000000000E+00 -0.68361178514E+03  0.68361178516E+03  0.50400001928E-02 0. -1.
    10030    2    1    2    0    0  0.00000000000E+00  0.00000000000E+00  0.34255442948E+02  0.14014790133E+04  0.14010603089E+04 0.  0.
        1    1    3    3  502    0 -0.53039566146E+03  0.32545279294E+03 -0.30468789657E+03  0.69287357611E+03  0.50400001928E-02 0. -1.
       -1    1    3    3    0  502  0.53039566146E+03 -0.32545279294E+03  0.33894333952E+03  0.70860543715E+03  0.50400001928E-02 0.  1.
</event>
<event>
 5   0  0.6870835E-04  0.1442956E+04  0.7818609E-02  0.8923299E-01
        2   -1    0    0  501    0  0.00000000000E+00  0.00000000000E+00  0.13013720783E+04  0.13013720783E+04  0.25500000920E-02 0.  1.
       -2   -1    0    0    0  501  0.00000000000E+00  0.00000000000E+00 -0.39998581329E+03  0.39998581330E+03  0.25500000920E-02 0. -1.
    10030    2    1    2    0    0  0.00000000000E+00  0.00000000000E+00  0.90138626499E+03  0.17013578916E+04  0.14429558124E+04 0.  0.
        2    1    3    3  502    0 -0.21440924221E+03  0.45396273545E+03 -0.16024339866E+03  0.52700231038E+03  0.25500000920E-02 0. -1.
       -2    1    3    3    0  502  0.21440924221E+03 -0.45396273545E+03  0.10616296637E+04  0.11743555812E+04  0.25500000920E-02 0.  1.
</event>
<event>
 5   0  0.3977658E-04  0.1352614E+04  0.7818609E-02  0.8988852E-01
        1   -1    0    0  501    0  0.00000000000E+00  0.00000000000E+00  0.20420751416E+04  0.20420751416E+04  0.50400001928E-02 0.  1.
       -1   -1    0    0    0  501  0.00000000000E+00  0.00000000000E+00 -0.22398357337E+03  0.22398357343E+03  0.50400001928E-02 0. -1.
    10030    2    1    2    0    0  0.00000000000E+00  0.00000000000E+00  0.18180915682E+04  0.22660587150E+04  0.13526141909E+04 0.  0.
        5    1    3    3  502    0  0.29846759140E+03  0.59850949484E+03  0.10771852691E+04  0.12679300898E+04  0.46999998093E+01 0.  1.
       -5    1    3    3    0  502 -0.29846759140E+03 -0.59850949484E+03  0.74090629913E+03  0.99812862529E+03  0.46999998093E+01 0. -1.
</event>
<event>
 5   0  0.3907270E-04  0.1395088E+04  0.7818609E-02  0.8957382E-01
        1   -1    0    0  501    0  0.00000000000E+00  0.00000000000E+00  0.99793454038E+03  0.99793454040E+03  0.50400001928E-02 0.  1.
       -1   -1    0    0    0  501  0.00000000000E+00  0.00000000000E+00 -0.48757439849E+03  0.48757439851E+03  0.50400001928E-02 0. -1.
    10030    2    1    2    0    0  0.00000000000E+00  0.00000000000E+00  0.51036014190E+03  0.14855089389E+04  0.13950875719E+04 0.  0.
        3    1    3    3  502    0  0.42375786782E+03 -0.26992917451E+03  0.77041680048E+03  0.91976874618E+03  0.10100000352E+00 0.  1.
       -3    1    3    3    0  502 -0.42375786782E+03  0.26992917451E+03 -0.26005665858E+03  0.56574019273E+03  0.10100000352E+00 0. -1.
</event>
<event>
 5   0  0.7296966E-04  0.1399059E+04  0.7818609E-02  0.8954500E-01
        2   -1    0    0  501    0  0.00000000000E+00  0.00000000000E+00  0.47456156425E+03  0.47456156426E+03  0.25500000920E-02 0.  1.
       -2   -1    0    0    0  501  0.00000000000E+00  0.00000000000E+00 -0.10311442140E+04  0.10311442140E+04  0.25500000920E-02 0. -1.
    10030    2    1    2    0    0  0.00000000000E+00  0.00000000000E+00 -0.55658264972E+03  0.15057057782E+04  0.13990588424E+04 0.  0.
        3    1    3    3  502    0 -0.59049546427E+03 -0.58210857071E+02 -0.67703039825E+03  0.90024639270E+03  0.10100000352E+00 0. -1.
       -3    1    3    3    0  502  0.59049546427E+03  0.58210857071E+02  0.12044774853E+03  0.60545938554E+03  0.10100000352E+00 0.  1.
</event>
<event>
 5   0  0.7296966E-04  0.1387955E+04  0.7818609E-02  0.8962584E-01
       -2   -1    0    0    0  501  0.00000000000E+00  0.00000000000E+00  0.29303558418E+03  0.29303558419E+03  0.25500000920E-02 0. -1.
        2   -1    0    0  501    0  0.00000000000E+00  0.00000000000E+00 -0.16435023526E+04  0.16435023526E+04  0.25500000920E-02 0.  1.
    10030    2    1    2    0    0  0.00000000000E+00  0.00000000000E+00 -0.13504667684E+04  0.19365379368E+04  0.13879548581E+04 0.  0.
        3    1    3    3  502    0  0.52701931801E+03 -0.40825700517E+03 -0.40619501233E+03  0.78065199806E+03  0.10100000352E+00 0. -1.
       -3    1    3    3    0  502 -0.52701931801E+03  0.40825700517E+03 -0.94427175607E+03  0.11558859387E+04  0.10100000352E+00 0.  1.
</event>
<event>
 5   0  0.3784219E-04  0.1399039E+04  0.7818609E-02  0.8954514E-01
        1   -1    0    0  501    0  0.00000000000E+00  0.00000000000E+00  0.89288499901E+03  0.89288499903E+03  0.50400001928E-02 0.  1.
       -1   -1    0    0    0  501  0.00000000000E+00  0.00000000000E+00 -0.54802971696E+03  0.54802971698E+03  0.50400001928E-02 0. -1.
    10030    2    1    2    0    0  0.00000000000E+00  0.00000000000E+00  0.34485528206E+03  0.14409147160E+04  0.13990389749E+04 0.  0.
        1    1    3    3  502    0  0.92607028142E+02 -0.33477776048E+03  0.79778819864E+03  0.87012540504E+03  0.50400001928E-02 0.  1.
       -1    1    3    3    0  502 -0.92607028142E+02  0.33477776048E+03 -0.45293291659E+03  0.57078931098E+03  0.50400001928E-02 0. -1.
</event>
<event>
 5   0  0.7065539E-04  0.1350745E+04  0.7818609E-02  0.8990264E-01
       -2   -1    0    0    0  501  0.00000000000E+00  0.00000000000E+00  0.56527590519E+03  0.56527590520E+03  0.25500000920E-02 0. -1.
        2   -1    0    0  501    0  0.00000000000E+00  0.00000000000E+00 -0.80691266851E+03  0.80691266851E+03  0.25500000920E-02 0.  1.
    10030    2    1    2    0    0  0.00000000000E+00  0.00000000000E+00 -0.24163676332E+03  0.13721885737E+04  0.13507454077E+04 0.  0.
        1    1    3    3  502    0  0.10239557033E+02 -0.14471939975E+03  0.54925864264E+03  0.56809647924E+03  0.50400001928E-02 0. -1.
       -1    1    3    3    0  502 -0.10239557033E+02  0.14471939975E+03 -0.79089540596E+03  0.80409209446E+03  0.50400001928E-02 0.  1.
</event>
<event>
 5   0  0.3756664E-04  0.1408164E+04  0.7818609E-02  0.8947930E-01
        1   -1    0    0  501    0  0.00000000000E+00  0.00000000000E+00  0.13901680426E+04  0.13901680426E+04  0.50400001928E-02 0.  1.
       -1   -1    0    0    0  501  0.00000000000E+00  0.00000000000E+00 -0.35659812569E+03  0.35659812573E+03  0.50400001928E-02 0. -1.
    10030    2    1    2    0    0  0.00000000000E+00  0.00000000000E+00  0.10335699169E+04  0.17467661683E+04  0.14081637951E+04 0.  0.
        2    1    3    3  502    0 -0.21744812064E+03 -0.11859063718E+03  0.13343427369E+04  0.13571359415E+04  0.25500000920E-02 0.  1.
       -2    1    3    3    0  502  0.21744812064E+03  0.11859063718E+03 -0.30077281996E+03  0.38963022679E+03  0.25500000920E-02 0. -1.
</event>
<event>
 5   0  0.3784219E-04  0.1406639E+04  0.7818609E-02  0.8949027E-01
       -1   -1    0    0    0  501  0.00000000000E+00  0.00000000000E+00  0.53554547033E+03  0.53554547035E+03  0.50400001928E-02 0.  1.
        1   -1    0    0  501    0  0.00000000000E+00  0.00000000000E+00 -0.92365277565E+03  0.92365277567E+03  0.50400001928E-02 0. -1.
    10030    2    1    2    0    0  0.00000000000E+00  0.00000000000E+00 -0.38810730532E+03  0.14591982460E+04  0.14066386319E+04 0.  0.
        1    1    3    3  502    0 -0.25596305251E+03  0.33183533272E+03 -0.77998265265E+03  0.88544040497E+03  0.50400001928E-02 0. -1.
       -1    1    3    3    0  502  0.25596305251E+03 -0.33183533272E+03  0.39187534733E+03  0.57375784105E+03  0.50400001928E-02 0.  1.
</event>
<event>
 5   0  0.2660250E-04  0.1414616E+04  0.7818609E-02  0.8943306E-01
        4   -1    0    0  501    0  0.00000000000E+00  0.00000000000E+00  0.37090351676E+03  0.37090569104E+03  0.12699999809E+01 0.  1.
       -4   -1    0    0    0  501  0.00000000000E+00  0.00000000000E+00 -0.13488198955E+04  0.13488204933E+04  0.12699999809E+01 0. -1.
    10030    2    1    2    0    0  0.00000000000E+00  0.00000000000E+00 -0.97791637869E+03  0.17197261844E+04  0.14146157448E+04 0.  0.
        4    1    3    3  502    0 -0.11031265147E+03 -0.47696630031E+03  0.13165679088E+03  0.50695251868E+03  0.12699999809E+01 0.  1.
       -4    1    3    3    0  502  0.11031265147E+03  0.47696630031E+03 -0.11095731696E+04  0.12127736657E+04  0.12699999809E+01 0. -1.
</event>
<event>
 5   0  0.7065539E-04  0.1416888E+04  0.7818609E-02  0.8941684E-01
       -2   -1    0    0    0  501  0.00000000000E+00  0.00000000000E+00  0.36267383438E+03  0.36267383439E+03  0.25500000920E-02 0. -1.
        2   -1    0    0  501    0  0.00000000000E+00  0.00000000000E+00 -0.13838682165E+04  0.13838682165E+04  0.25500000920E-02 0.  1.
    10030    2    1    2    0    0  0.00000000000E+00  0.00000000000E+00 -0.10211943821E+04  0.17465420509E+04  0.14168878465E+04 0.  0.
        1    1    3    3  502    0  0.68924342607E+03  0.96009929972E+02 -0.67421351211E+03  0.96893666819E+03  0.50400001928E-02 0. -1.
       -1    1    3    3    0  502 -0.68924342607E+03 -0.96009929972E+02 -0.34698087001E+03  0.77760538270E+03  0.50400001928E-02 0.  1.
</event>
<event>
 5   0  0.3756664E-04  0.1404979E+04  0.7818609E-02  0.8950223E-01
       -1   -1    0    0    0  501  0.00000000000E+00  0.00000000000E+00  0.30601761715E+03  0.30601761719E+03  0.50400001928E-02 0.  1.
        1   -1    0    0  501    0  0.00000000000E+00  0.00000000000E+00 -0.16126236636E+04  0.16126236636E+04  0.50400001928E-02 0. -1.
    10030    2    1    2    0    0  0.00000000000E+00  0.00000000000E+00 -0.13066060465E+04  0.19186412808E+04  0.14049786489E+04 0.  0.
        2    1    3    3  502    0 -0.67488102018E+03  0.19334470363E+03 -0.61862950741E+03  0.93570777130E+03  0.25500000920E-02 0.  1.
       -2    1    3    3    0  502  0.67488102018E+03 -0.19334470363E+03 -0.68797653905E+03  0.98293350951E+03  0.25500000920E-02 0. -1.
</event>
<event>
 5   0  0.3756664E-04  0.1402050E+04  0.7818609E-02  0.8952336E-01
       -1   -1    0    0    0  501  0.00000000000E+00  0.00000000000E+00  0.54947770670E+03  0.54947770672E+03  0.50400001928E-02 0. -1.
        1   -1    0    0  501    0  0.00000000000E+00  0.00000000000E+00 -0.89436918234E+03  0.89436918236E+03  0.50400001928E-02 0.  1.
    10030    2    1    2    0    0  0.00000000000E+00  0.00000000000E+00 -0.34489147564E+03  0.14438468891E+04  0.14020498241E+04 0.  0.
        2    1    3    3  502    0  0.16848662023E+03 -0.67739464080E+03 -0.10582810930E+03  0.70601050226E+03  0.25500000920E-02 0. -1.
       -2    1    3    3    0  502 -0.16848662023E+03  0.67739464080E+03 -0.23906336635E+03  0.73783638682E+03  0.25500000920E-02 0.  1.
</event>
<event>
 5   0  0.6870835E-04  0.1367371E+04  0.7818609E-02  0.8977781E-01
        2   -1    0    0  501    0  0.00000000000E+00  0.00000000000E+00  0.88626008841E+03  0.88626008841E+03  0.25500000920E-02 0.  1.
       -2   -1    0    0    0  501  0.00000000000E+00  0.00000000000E+00 -0.52741408365E+03  0.52741408366E+03  0.25500000920E-02 0. -1.
    10030    2    1    2    0    0  0.00000000000E+00  0.00000000000E+00  0.35884600476E+03  0.14136741721E+04  0.13673712772E+04 0.  0.
        2    1    3    3  502    0 -0.99205483543E+02 -0.21126735067E+03 -0.48494978026E+03  0.53819319097E+03  0.25500000920E-02 0. -1.
       -2    1    3    3    0  502  0.99205483543E+02  0.21126735067E+03  0.84379578502E+03  0.87548098109E+03  0.25500000920E-02 0.  1.
</event>
<event>
 5   0  0.2660250E-04  0.1396320E+04  0.7818609E-02  0.8956486E-01
       -3   -1    0    0    0  501  0.00000000000E+00  0.00000000000E+00  0.57894682133E+03  0.57894683014E+03  0.10100000352E+00 0. -1.
        3   -1    0    0  501    0  0.00000000000E+00  0.00000000000E+00 -0.84192112093E+03  0.84192112699E+03  0.10100000352E+00 0.  1.
    10030    2    1    2    0    0  0.00000000000E+00  0.00000000000E+00 -0.26297429960E+03  0.14208679571E+04  0.13963202603E+04 0.  0.
        3    1    3    3  502    0  0.22916644399E+03 -0.18667769819E+03  0.51213678759E+03  0.59131203392E+03  0.10100000352E+00 0. -1.
       -3    1    3    3    0  502 -0.22916644399E+03  0.18667769819E+03 -0.77511108719E+03  0.82955592321E+03  0.10100000352E+00 0.  1.
</event>
<event>
 5   0  0.3907270E-04  0.1396870E+04  0.7818609E-02  0.8956087E-01
       -1   -1    0    0    0  501  0.00000000000E+00  0.00000000000E+00  0.28842242107E+03  0.28842242111E+03  0.50400001928E-02 0.  1.
        1   -1    0    0  501    0  0.00000000000E+00  0.00000000000E+00 -0.16913095504E+04  0.16913095504E+04  0.50400001928E-02 0. -1.
    10030    2    1    2    0    0  0.00000000000E+00  0.00000000000E+00 -0.14028871294E+04  0.19797319716E+04  0.13968702092E+04 0.  0.
        3    1    3    3  502    0  0.13933525359E+02 -0.38846713965E+03  0.12094831860E+03  0.40709871984E+03  0.10100000352E+00 0.  1.
       -3    1    3    3    0  502 -0.13933525359E+02  0.38846713965E+03 -0.15238354480E+04  0.15726332517E+04  0.10100000352E+00 0. -1.
</event>
<event>
 5   0  0.6959748E-04  0.1400113E+04  0.7818609E-02  0.8953737E-01
       -2   -1    0    0    0  501  0.00000000000E+00  0.00000000000E+00  0.50611399481E+03  0.50611399482E+03  0.25500000920E-02 0.  1.
        2   -1    0    0  501    0  0.00000000000E+00  0.00000000000E+00 -0.96831714559E+03  0.96831714560E+03  0.25500000920E-02 0. -1.
    10030    2    1    2    0    0  0.00000000000E+00  0.00000000000E+00 -0.46220315078E+03  0.14744311404E+04  0.14001126509E+04 0.  0.
        5    1    3    3  502    0  0.30611953543E+03  0.19165307138E+03  0.40041018134E+03  0.53924991707E+03  0.46999998093E+01 0.  1.
       -5    1    3    3    0  502 -0.30611953543E+03 -0.19165307138E+03 -0.86261333212E+03  0.93518122334E+03  0.46999998093E+01 0. -1.
</event>
<event>
 5   0  0.3907270E-04  0.1400480E+04  0.7818609E-02  0.8953472E-01
        1   -1    0    0  501    0  0.00000000000E+00  0.00000000000E+00  0.22189174125E+04  0.22189174125E+04  0.50400001928E-02 0.  1.
       -1   -1    0    0    0  501  0.00000000000E+00  0.00000000000E+00 -0.22097971029E+03  0.22097971034E+03  0.50400001928E-02 0. -1.
    10030    2    1    2    0    0  0.00000000000E+00  0.00000000000E+00  0.19979377022E+04  0.24398971228E+04  0.14004795279E+04 0.  0.
        3    1    3    3  502    0 -0.57815242611E+03  0.35847881068E+03  0.12882371073E+04  0.14568191859E+04  0.10100000352E+00 0.  1.
       -3    1    3    3    0  502  0.57815242611E+03 -0.35847881068E+03  0.70970059487E+03  0.98307793693E+03  0.10100000352E+00 0. -1.
</event>
<event>
 5   0  0.6870835E-04  0.1384021E+04  0.7818609E-02  0.8965467E-01
       -2   -1    0    0    0  501  0.00000000000E+00  0.00000000000E+00  0.27945836226E+03  0.27945836227E+03  0.25500000920E-02 0. -1.
        2   -1    0    0  501    0  0.00000000000E+00  0.00000000000E+00 -0.17135940540E+04  0.17135940540E+04  0.25500000920E-02 0.  1.
    10030    2    1    2    0    0  0.00000000000E+00  0.00000000000E+00 -0.14341356917E+04  0.19930524163E+04  0.13840205026E+04 0.  0.
        2    1    3    3  502    0 -0.16628847982E+03 -0.46604926857E+03 -0.14137052276E+04  0.14978038089E+04  0.25500000920E-02 0.  1.
       -2    1    3    3    0  502  0.16628847982E+03  0.46604926857E+03 -0.20430464118E+02  0.49524860740E+03  0.25500000920E-02 0. -1.
</event>
<event>
 5   0  0.6870835E-04  0.1395499E+04  0.7818609E-02  0.8957083E-01
       -2   -1    0    0    0  501  0.00000000000E+00  0.00000000000E+00  0.47786145293E+03  0.47786145294E+03  0.25500000920E-02 0.  1.
        2   -1    0    0  501    0  0.00000000000E+00  0.00000000000E+00 -0.10188186159E+04  0.10188186159E+04  0.25500000920E-02 0. -1.
    10030    2    1    2    0    0  0.00000000000E+00  0.00000000000E+00 -0.54095716299E+03  0.14966800689E+04  0.13954986837E+04 0.  0.
        2    1    3    3  502    0  0.64693609755E+03 -0.12796028758E+03 -0.26017901011E+02  0.65998263666E+03  0.25500000920E-02 0.  1.
       -2    1    3    3    0  502 -0.64693609755E+03  0.12796028758E+03 -0.51493926198E+03  0.83669743220E+03  0.25500000920E-02 0. -1.
</event>
<event>
 5   0  0.3784219E-04  0.1407717E+04  0.7818609E-02  0.8948251E-01
       -1   -1    0    0    0  501  0.00000000000E+00  0.00000000000E+00  0.81256686857E+03  0.81256686859E+03  0.50400001928E-02 0. -1.
        1   -1    0    0  501    0  0.00000000000E+00  0.00000000000E+00 -0.60969375819E+03  0.60969375821E+03  0.50400001928E-02 0.  1.
    10030    2    1    2    0    0  0.00000000000E+00  0.00000000000E+00  0.20287311038E+03  0.14222606268E+04  0.14077172272E+04 0.  0.
        1    1    3    3  502    0 -0.28992710435E+03 -0.63879289611E+03  0.15950079021E+03  0.71941267160E+03  0.50400001928E-02 0.  1.
       -1    1    3    3    0  502  0.28992710435E+03  0.63879289611E+03  0.43372320176E+02  0.70284795520E+03  0.50400001928E-02 0. -1.
</event>
<event>
 5   0  0.7296966E-04  0.1389016E+04  0.7818609E-02  0.8961808E-01
        2   -1    0    0  501    0  0.00000000000E+00  0.00000000000E+00  0.74677412362E+03  0.74677412362E+03  0.25500000920E-02 0.  1.
       -2   -1    0    0    0  501  0.00000000000E+00  0.00000000000E+00 -0.64589993609E+03  0.64589993610E+03  0.25500000920E-02 0. -1.
    10030    2    1    2    0    0  0.00000000000E+00  0.00000000000E+00  0.10087418752E+03  0.13926740597E+04  0.13890159952E+04 0.  0.
        3    1    3    3  502    0 -0.47618849005E+03  0.31382286819E+03  0.44784071656E+03  0.72512177478E+03  0.10100000352E+00 0.  1.
       -3    1    3    3    0  502  0.47618849005E+03 -0.31382286819E+03 -0.34696652903E+03  0.66755228494E+03  0.10100000352E+00 0. -1.
</event>
<event>
 5   0  0.6870835E-04  0.1385614E+04  0.7818609E-02  0.8964298E-01
        2   -1    0    0  501    0  0.00000000000E+00  0.00000000000E+00  0.76565914513E+03  0.76565914514E+03  0.25500000920E-02 0. -1.
       -2   -1    0    0    0  501  0.00000000000E+00  0.00000000000E+00 -0.62688634118E+03  0.62688634118E+03  0.25500000920E-02 0.  1.
    10030    2    1    2    0    0  0.00000000000E+00  0.00000000000E+00  0.13877280396E+03  0.13925454863E+04  0.13856135971E+04 0.  0.
        2    1    3    3  502    0 -0.57750013050E+03  0.33296444137E+03 -0.12026254521E+03  0.67737345662E+03  0.25500000920E-02 0.  1.
       -2    1    3    3    0  502  0.57750013050E+03 -0.33296444137E+03  0.25903534916E+03  0.71517202970E+03  0.25500000920E-02 0. -1.
</event>
<event>
 5   0  0.3907270E-04  0.1394101E+04  0.7818609E-02  0.8958100E-01
       -1   -1    0    0    0  501  0.00000000000E+00  0.00000000000E+00  0.68936177150E+03  0.68936177152E+03  0.50400001928E-02 0.  1.
        1   -1    0    0  501    0  0.00000000000E+00  0.00000000000E+00 -0.70482489146E+03  0.70482489148E+03  0.50400001928E-02 0. -1.
    10030    2    1    2    0    0  0.00000000000E+00  0.00000000000E+00 -0.15463119963E+02  0.13941866630E+04  0.13941009085E+04 0.  0.
        3    1    3    3  502    0 -0.22297479771E+03  0.51693502357E+03 -0.41877964841E+03  0.70165232354E+03  0.10100000352E+00 0. -1.
       -3    1    3    3    0  502  0.22297479771E+03 -0.51693502357E+03  0.40331652845E+03  0.69253433946E+03  0.10100000352E+00 0.  1.
</event>
<event>
 5   0  0.3907270E-04  0.1381245E+04  0.7818609E-02  0.8967508E-01
       -1   -1    0    0    0  501  0.00000000000E+00  0.00000000000E+00  0.16765879399E+04  0.16765879399E+04  0.50400001928E-02 0.  1.
        1   -1    0    0  501    0  0.00000000000E+00  0.00000000000E+00 -0.28448207421E+03  0.28448207425E+03  0.50400001928E-02 0. -1.
    10030    2    1    2    0    0  0.00000000000E+00  0.00000000000E+00  0.13921058657E+04  0.19610700142E+04  0.13812446775E+04 0.  0.
        3    1    3    3  502    0 -0.63176932423E+03 -0.64590650130E+02  0.31073170929E+03  0.70700681501E+03  0.10100000352E+00 0.  1.
       -3    1    3    3    0  502  0.63176932423E+03  0.64590650130E+02  0.10813741564E+04  0.12540631991E+04  0.10100000352E+00 0. -1.
</event>
<event>
 5   0  0.3907093E-04  0.1395106E+04  0.7818609E-02  0.8957369E-01
       -1   -1    0    0    0  501  0.00000000000E+00  0.00000000000E+00  0.45947658815E+03  0.45947658817E+03  0.50400001928E-02 0. -1.
        1   -1    0    0  501    0  0.00000000000E+00  0.00000000000E+00 -0.10589881734E+04  0.10589881734E+04  0.50400001928E-02 0.  1.
    10030    2    1    2    0    0  0.00000000000E+00  0.00000000000E+00 -0.59951158527E+03  0.15184647616E+04  0.13951061219E+04 0.  0.
        4    1    3    3  502    0  0.53723416925E+03 -0.36390525779E+03 -0.21130135806E+02  0.64922699020E+03  0.12699999809E+01 0.  1.
       -4    1    3    3    0  502 -0.53723416925E+03  0.36390525779E+03 -0.57838144947E+03  0.86923777141E+03  0.12699999809E+01 0. -1.
</event>
<event>
 5   0  0.7296966E-04  0.1401911E+04  0.7818609E-02  0.8952436E-01
       -2   -1    0    0    0  501  0.00000000000E+00  0.00000000000E+00  0.60996216778E+03  0.60996216778E+03  0.25500000920E-02 0.  1.
        2   -1    0    0  501    0  0.00000000000E+00  0.00000000000E+00 -0.80552357706E+03  0.80552357707E+03  0.25500000920E-02 0. -1.
    10030    2    1    2    0    0  0.00000000000E+00  0.00000000000E+00 -0.19556140928E+03  0.14154857448E+04  0.14019114198E+04 0.  0.
        3    1    3    3  502    0 -0.49882637068E+03  0.27512777347E+03  0.31460499077E+03  0.65076827691E+03  0.10100000352E+00 0.  1.
       -3    1    3    3    0  502  0.49882637068E+03 -0.27512777347E+03 -0.51016640005E+03  0.76471746793E+03  0.10100000352E+00 0. -1.
</event>
<event>
 5   0  0.6870835E-04  0.1401165E+04  0.7818609E-02  0.8952976E-01
       -2   -1    0    0    0  501  0.00000000000E+00  0.00000000000E+00  0.10861775477E+04  0.10861775477E+04  0.25500000920E-02 0.  1.
        2   -1    0    0  501    0  0.00000000000E+00  0.00000000000E+00 -0.45187430114E+03  0.45187430114E+03  0.25500000920E-02 0. -1.
    10030    2    1    2    0    0  0.00000000000E+00  0.00000000000E+00  0.63430324660E+03  0.15380518489E+04  0.14011648301E+04 0.  0.
        2    1    3    3  502    0 -0.28517341839E+03  0.62319911027E+03  0.47665662861E+03  0.83480689457E+03  0.25500000920E-02 0. -1.
       -2    1    3    3    0  502  0.28517341839E+03 -0.62319911027E+03  0.15764661799E+03  0.70324495432E+03  0.25500000920E-02 0.  1.
</event>
<event>
 5   0  0.6895048E-04  0.1397319E+04  0.7818609E-02  0.8955762E-01
        2   -1    0    0  501    0  0.00000000000E+00  0.00000000000E+00  0.87221821679E+03  0.87221821679E+03  0.25500000920E-02 0.  1.
       -2   -1    0    0    0  501  0.00000000000E+00  0.00000000000E+00 -0.55963640010E+03  0.55963640011E+03  0.25500000920E-02 0. -1.
    10030    2    1    2    0    0  0.00000000000E+00  0.00000000000E+00  0.31258181669E+03  0.14318546169E+04  0.13973189514E+04 0.  0.
        4    1    3    3  502    0 -0.53207794165E+03 -0.27952714741E+03  0.52129843658E+03  0.79561047945E+03  0.12699999809E+01 0.  1.
       -4    1    3    3    0  502  0.53207794165E+03  0.27952714741E+03 -0.20871661989E+03  0.63624413746E+03  0.12699999809E+01 0. -1.
</event>
<event>
 5   0  0.3756664E-04  0.1399980E+04  0.7818609E-02  0.8953833E-01
        1   -1    0    0  501    0  0.00000000000E+00  0.00000000000E+00  0.17261742182E+04  0.17261742182E+04  0.50400001928E-02 0.  1.
       -1   -1    0    0    0  501  0.00000000000E+00  0.00000000000E+00 -0.28385649181E+03  0.28385649185E+03  0.50400001928E-02 0. -1.
    10030    2    1    2    0    0  0.00000000000E+00  0.00000000000E+00  0.14423177264E+04  0.20100307101E+04  0.13999796540E+04 0.  0.
        2    1    3    3  502    0 -0.13198806715E+03  0.66122277602E+03  0.99110161797E+03  0.11987154902E+04  0.25500000920E-02 0.  1.
       -2    1    3    3    0  502  0.13198806715E+03 -0.66122277602E+03  0.45121610843E+03  0.81131521982E+03  0.25500000920E-02 0. -1.
</event>
<event>
 5   0  0.2660250E-04  0.1384733E+04  0.7818609E-02  0.8964944E-01
       -3   -1    0    0    0  501  0.00000000000E+00  0.00000000000E+00  0.14314150034E+04  0.14314150070E+04  0.10100000352E+00 0.  1.
        3   -1    0    0  501    0  0.00000000000E+00  0.00000000000E+00 -0.33489356396E+03  0.33489357919E+03  0.10100000352E+00 0. -1.
    10030    2    1    2    0    0  0.00000000000E+00  0.00000000000E+00  0.10965214395E+04  0.17663085862E+04  0.13847334597E+04 0.  0.
        4    1    3    3  502    0 -0.26261910787E+03  0.29483269661E+03  0.12737328418E+04  0.13335261827E+04  0.12699999809E+01 0.  1.
       -4    1    3    3    0  502  0.26261910787E+03 -0.29483269661E+03 -0.17721140228E+03  0.43278240353E+03  0.12699999809E+01 0. -1.
</event>
<event>
 5   0  0.7065539E-04  0.1396061E+04  0.7818609E-02  0.8956675E-01
        2   -1    0    0  501    0  0.00000000000E+00  0.00000000000E+00  0.61528914510E+03  0.61528914511E+03  0.25500000920E-02 0. -1.
       -2   -1    0    0    0  501  0.00000000000E+00  0.00000000000E+00 -0.79189867466E+03  0.79189867467E+03  0.25500000920E-02 0.  1.
    10030    2    1    2    0    0  0.00000000000E+00  0.00000000000E+00 -0.17660952956E+03  0.14071878198E+04  0.13960611141E+04 0.  0.
        1    1    3    3  502    0  0.18037552376E+02 -0.64160133204E+03  0.18823386952E+03  0.66888684561E+03  0.50400001928E-02 0. -1.
       -1    1    3    3    0  502 -0.18037552376E+02  0.64160133204E+03 -0.36484339908E+03  0.73830097416E+03  0.50400001928E-02 0.  1.
</event>
<event>
 5   0  0.6870835E-04  0.1405460E+04  0.7818609E-02  0.8949876E-01
       -2   -1    0    0    0  501  0.00000000000E+00  0.00000000000E+00  0.48478417967E+03  0.48478417968E+03  0.25500000920E-02 0.  1.
        2   -1    0    0  501    0  0.00000000000E+00  0.00000000000E+00 -0.10186577571E+04  0.10186577571E+04  0.25500000920E-02 0. -1.
    10030    2    1    2    0    0  0.00000000000E+00  0.00000000000E+00 -0.53387357740E+03  0.15034419368E+04  0.14054595905E+04 0.  0.
        2    1    3    3  502    0  0.99073599468E+02  0.31813200947E+03 -0.92878354478E+03  0.98674334385E+03  0.25500000920E-02 0. -1.
       -2    1    3    3    0  502 -0.99073599468E+02 -0.31813200947E+03  0.39490996738E+03  0.51669859290E+03  0.25500000920E-02 0.  1.
</event>
<event>
 5   0  0.3784219E-04  0.1384564E+04  0.7818609E-02  0.8965069E-01
       -1   -1    0    0    0  501  0.00000000000E+00  0.00000000000E+00  0.60094488216E+03  0.60094488218E+03  0.50400001928E-02 0. -1.
        1   -1    0    0  501    0  0.00000000000E+00  0.00000000000E+00 -0.79750095846E+03  0.79750095847E+03  0.50400001928E-02 0.  1.
    10030    2    1    2    0    0  0.00000000000E+00  0.00000000000E+00 -0.19655607630E+03  0.13984458407E+04  0.13845636418E+04 0.  0.
        1    1    3    3  502    0 -0.16695119830E+03  0.58686952330E+03  0.23205708494E+03  0.65279325264E+03  0.50400001928E-02 0. -1.
       -1    1    3    3    0  502  0.16695119830E+03 -0.58686952330E+03 -0.42861316124E+03  0.74565258801E+03  0.50400001928E-02 0.  1.
</event>
<event>
 5   0  0.3907270E-04  0.1417907E+04  0.7818609E-02  0.8940958E-01
        1   -1    0    0  501    0  0.00000000000E+00  0.00000000000E+00  0.51778833718E+03  0.51778833720E+03  0.50400001928E-02 0.  1.
       -1   -1    0    0    0  501  0.00000000000E+00  0.00000000000E+00 -0.97069606740E+03  0.97069606741E+03  0.50400001928E-02 0. -1.
    10030    2    1    2    0    0  0.00000000000E+00  0.00000000000E+00 -0.45290773022E+03  0.14884844046E+04  0.14179070529E+04 0.  0.
        3    1    3    3  502    0 -0.20885527168E+03  0.53541373336E+03 -0.66223940383E+03  0.87684059473E+03  0.10100000352E+00 0. -1.
       -3    1    3    3    0  502  0.20885527168E+03 -0.53541373336E+03  0.20933167362E+03  0.61164380988E+03  0.10100000352E+00 0.  1.
</event>
<event>
 5   0  0.3907093E-04  0.1406182E+04  0.7818609E-02  0.8949356E-01
       -1   -1    0    0    0  501  0.00000000000E+00  0.00000000000E+00  0.12739818388E+04  0.12739818388E+04  0.50400001928E-02 0.  1.
        1   -1    0    0  501    0  0.00000000000E+00  0.00000000000E+00 -0.38802530846E+03  0.38802530849E+03  0.50400001928E-02 0. -1.
    10030    2    1    2    0    0  0.00000000000E+00  0.00000000000E+00  0.88595653034E+03  0.16620071473E+04  0.14061823438E+04 0.  0.
        4    1    3    3  502    0  0.59213021965E+03 -0.18625044878E+03  0.52712387726E+02  0.62296680121E+03  0.12699999809E+01 0. -1.
       -4    1    3    3    0  502 -0.59213021965E+03  0.18625044878E+03  0.83324414261E+03  0.10390403461E+04  0.12699999809E+01 0.  1.
</event>
<event>
 5   0  0.2660250E-04  0.1361059E+04  0.7818609E-02  0.8982499E-01
       -3   -1    0    0    0  501  0.00000000000E+00  0.00000000000E+00  0.46014114377E+03  0.46014115486E+03  0.10100000352E+00 0.  1.
        3   -1    0    0  501    0  0.00000000000E+00  0.00000000000E+00 -0.10064739900E+04  0.10064739951E+04  0.10100000352E+00 0. -1.
    10030    2    1    2    0    0  0.00000000000E+00  0.00000000000E+00 -0.54633284627E+03  0.14666151500E+04  0.13610585657E+04 0.  0.
        3    1    3    3  502    0 -0.19503162740E+03  0.21239069537E+03  0.39105930710E+03  0.48587501998E+03  0.10100000352E+00 0.  1.
       -3    1    3    3    0  502  0.19503162740E+03 -0.21239069537E+03 -0.93739215337E+03  0.98074012999E+03  0.10100000352E+00 0. -1.
</event>
<event>
 5   0  0.3784219E-04  0.1408318E+04  0.7818609E-02  0.8947820E-01
        1   -1    0    0  501    0  0.00000000000E+00  0.00000000000E+00  0.26696551758E+03  0.26696551763E+03  0.50400001928E-02 0.  1.
       -1   -1    0    0    0  501  0.00000000000E+00  0.00000000000E+00 -0.18573175387E+04  0.18573175387E+04  0.50400001928E-02 0. -1.
    10030    2    1    2    0    0  0.00000000000E+00  0.00000000000E+00 -0.15903520211E+04  0.21242830563E+04  0.14083177739E+04 0.  0.
        1    1    3    3  502    0 -0.27604305045E+03  0.74996939372E+02  0.17537862691E+03  0.33553236717E+03  0.50400001928E-02 0. -1.
       -1    1    3    3    0  502  0.27604305045E+03 -0.74996939372E+02 -0.17657306480E+04  0.17887506892E+04  0.50400001928E-02 0.  1.
</event>
<event>
 5   0  0.7296966E-04  0.1398054E+04  0.7818609E-02  0.8955229E-01
        2   -1    0    0  501    0  0.00000000000E+00  0.00000000000E+00  0.88874247977E+03  0.88874247977E+03  0.25500000920E-02 0.  1.
       -2   -1    0    0    0  501  0.00000000000E+00  0.00000000000E+00 -0.54980899808E+03  0.54980899809E+03  0.25500000920E-02 0. -1.
    10030    2    1    2    0    0  0.00000000000E+00  0.00000000000E+00  0.33893348169E+03  0.14385514779E+04  0.13980538078E+04 0.  0.
        3    1    3    3  502    0  0.60229584080E+02 -0.34944140530E+03 -0.45039670231E+03  0.57323127810E+03  0.10100000352E+00 0. -1.
       -3    1    3    3    0  502 -0.60229584080E+02  0.34944140530E+03  0.78933018399E+03  0.86532019976E+03  0.10100000352E+00 0.  1.
</event>
<event>
 5   0  0.3756664E-04  0.1401883E+04  0.7818609E-02  0.8952457E-01
        1   -1    0    0  501    0  0.00000000000E+00  0.00000000000E+00  0.14817928841E+04  0.14817928841E+04  0.50400001928E-02 0.  1.
       -1   -1    0    0    0  501  0.00000000000E+00  0.00000000000E+00 -0.33157070443E+03  0.33157070446E+03  0.50400001928E-02 0. -1.
    10030    2    1    2    0    0  0.00000000000E+00  0.00000000000E+00  0.11502221797E+04  0.18133635886E+04  0.14018831769E+04 0.  0.
        2    1    3    3  502    0 -0.56999946738E+03  0.40753592182E+03  0.55146442885E+03  0.89168264348E+03  0.25500000920E-02 0.  1.
       -2    1    3    3    0  502  0.56999946738E+03 -0.40753592182E+03  0.59875775084E+03  0.92168094511E+03  0.25500000920E-02 0. -1.
</event>
<event>
 5   0  0.7065539E-04  0.1402532E+04  0.7818609E-02  0.8951988E-01
       -2   -1    0    0    0  501  0.00000000000E+00  0.00000000000E+00  0.26483660929E+03  0.26483660930E+03  0.25500000920E-02 0. -1.
        2   -1    0    0  501    0  0.00000000000E+00  0.00000000000E+00 -0.18568968734E+04  0.18568968734E+04  0.25500000920E-02 0.  1.
    10030    2    1    2    0    0  0.00000000000E+00  0.00000000000E+00 -0.15920602641E+04  0.21217334827E+04  0.14025323836E+04 0.  0.
        1    1    3    3  502    0 -0.43959944864E+03 -0.11667645989E+03 -0.16035146751E+04  0.16667694456E+04  0.50400001928E-02 0.  1.
       -1    1    3    3    0  502  0.43959944864E+03  0.11667645989E+03  0.11454410940E+02  0.45496403714E+03  0.50400001928E-02 0. -1.
</event>
<event>
 5   0  0.3756664E-04  0.1401573E+04  0.7818609E-02  0.8952681E-01
       -1   -1    0    0    0  501  0.00000000000E+00  0.00000000000E+00  0.72880612889E+03  0.72880612891E+03  0.50400001928E-02 0. -1.
        1   -1    0    0  501    0  0.00000000000E+00  0.00000000000E+00 -0.67384427794E+03  0.67384427796E+03  0.50400001928E-02 0.  1.
    10030    2    1    2    0    0  0.00000000000E+00  0.00000000000E+00  0.54961850952E+02  0.14026504069E+04  0.14015731728E+04 0.  0.
        2    1    3    3  502    0 -0.17791183773E+03 -0.22774249571E+03  0.66639354959E+03  0.72636053672E+03  0.25500000920E-02 0. -1.
       -2    1    3    3    0  502  0.17791183773E+03  0.22774249571E+03 -0.61143169864E+03  0.67628987015E+03  0.25500000920E-02 0.  1.
</event>
<event>
 5   0  0.3907270E-04  0.1386125E+04  0.7818609E-02  0.8963923E-01
        1   -1    0    0  501    0  0.00000000000E+00  0.00000000000E+00  0.65896094217E+03  0.65896094219E+03  0.50400001928E-02 0. -1.
       -1   -1    0    0    0  501  0.00000000000E+00  0.00000000000E+00 -0.72892912536E+03  0.72892912537E+03  0.50400001928E-02 0.  1.
    10030    2    1    2    0    0  0.00000000000E+00  0.00000000000E+00 -0.69968183186E+02  0.13878900676E+04  0.13861252804E+04 0.  0.
        3    1    3    3  502    0  0.95371469209E+02 -0.32715847705E+03  0.56928027149E+03  0.66348204493E+03  0.10100000352E+00 0. -1.
       -3    1    3    3    0  502 -0.95371469209E+02  0.32715847705E+03 -0.63924845467E+03  0.72440802263E+03  0.10100000352E+00 0.  1.
</event>
<event>
 5   0  0.6895048E-04  0.1401650E+04  0.7818609E-02  0.8952625E-01
        2   -1    0    0  501    0  0.00000000000E+00  0.00000000000E+00  0.10699034852E+04  0.10699034852E+04  0.25500000920E-02 0.  1.
       -2   -1    0    0    0  501  0.00000000000E+00  0.00000000000E+00 -0.45906528622E+03  0.45906528622E+03  0.25500000920E-02 0. -1.
    10030    2    1    2    0    0  0.00000000000E+00  0.00000000000E+00  0.61083819898E+03  0.15289687714E+04  0.14016498131E+04 0.  0.
        4    1    3    3  502    0  0.26568389883E+03  0.16581077132E+03 -0.37848559186E+03  0.49125767386E+03  0.12699999809E+01 0. -1.
       -4    1    3    3    0  502 -0.26568389883E+03 -0.16581077132E+03  0.98932379084E+03  0.10377110976E+04  0.12699999809E+01 0.  1.
</event>
<event>
 5   0  0.3907093E-04  0.1395224E+04  0.7818609E-02  0.8957283E-01
       -1   -1    0    0    0  501  0.00000000000E+00  0.00000000000E+00  0.20798660468E+03  0.20798660474E+03  0.50400001928E-02 0. -1.
        1   -1    0    0  501    0  0.00000000000E+00  0.00000000000E+00 -0.23398744733E+04  0.23398744733E+04  0.50400001928E-02 0.  1.
    10030    2    1    2    0    0  0.00000000000E+00  0.00000000000E+00 -0.21318878686E+04  0.25478610781E+04  0.13952240640E+04 0.  0.
        4    1    3    3  502    0  0.20607323810E+03  0.51849422096E+03 -0.18306511610E+04  0.19137888396E+04  0.12699999809E+01 0.  1.
       -4    1    3    3    0  502 -0.20607323810E+03 -0.51849422096E+03 -0.30123670768E+03  0.63407223846E+03  0.12699999809E+01 0. -1.
</event>
<event>
 5   0  0.6870835E-04  0.1423711E+04  0.7818609E-02  0.8936832E-01
        2   -1    0    0  501    0  0.00000000000E+00  0.00000000000E+00  0.11660204880E+04  0.11660204880E+04  0.25500000920E-02 0.  1.
       -2   -1    0    0    0  501  0.00000000000E+00  0.00000000000E+00 -0.43458789119E+03  0.43458789120E+03  0.25500000920E-02 0. -1.
    10030    2    1    2    0    0  0.00000000000E+00  0.00000000000E+00  0.73143259676E+03  0.16006083792E+04  0.14237111855E+04 0.  0.
        2    1    3    3  502    0  0.38652472244E+03  0.54687501358E+02  0.10349489791E+04  0.11061245288E+04  0.25500000920E-02 0.  1.
       -2    1    3    3    0  502 -0.38652472244E+03 -0.54687501358E+02 -0.30351638238E+03  0.49448385033E+03  0.25500000920E-02 0. -1.
</event>
<event>
 5   0  0.3907270E-04  0.1408100E+04  0.7818609E-02  0.8947976E-01
       -1   -1    0    0    0  501  0.00000000000E+00  0.00000000000E+00  0.26817208388E+03  0.26817208393E+03  0.50400001928E-02 0. -1.
        1   -1    0    0  501    0  0.00000000000E+00  0.00000000000E+00 -0.18483889315E+04  0.18483889315E+04  0.50400001928E-02 0.  1.
    10030    2    1    2    0    0  0.00000000000E+00  0.00000000000E+00 -0.15802168477E+04  0.21165610155E+04  0.14080998710E+04 0.  0.
        3    1    3    3  502    0 -0.44338147142E+03 -0.53853323651E+03 -0.64686748102E+03  0.95133733461E+03  0.10100000352E+00 0. -1.
       -3    1    3    3    0  502  0.44338147142E+03  0.53853323651E+03 -0.93334936664E+03  0.11652236809E+04  0.10100000352E+00 0.  1.
</event>
<event>
 5   0  0.7296966E-04  0.1378138E+04  0.7818609E-02  0.8969797E-01
       -2   -1    0    0    0  501  0.00000000000E+00  0.00000000000E+00  0.97826575580E+03  0.97826575580E+03  0.25500000920E-02 0. -1.
        2   -1    0    0  501    0  0.00000000000E+00  0.00000000000E+00 -0.48536529093E+03  0.48536529094E+03  0.25500000920E-02 0.  1.
    10030    2    1    2    0    0  0.00000000000E+00  0.00000000000E+00  0.49290046487E+03  0.14636310467E+04  0.13781382270E+04 0.  0.
        3    1    3    3  502    0  0.13497538150E+03  0.43983364019E+02  0.96256693669E+03  0.97297893488E+03  0.10100000352E+00 0. -1.
       -3    1    3    3    0  502 -0.13497538150E+03 -0.43983364019E+02 -0.46966647182E+03  0.49065211186E+03  0.10100000352E+00 0.  1.
</event>
<event>
 5   0  0.3756664E-04  0.1381393E+04  0.7818609E-02  0.8967399E-01
       -1   -1    0    0    0  501  0.00000000000E+00  0.00000000000E+00  0.71640762761E+03  0.71640762763E+03  0.50400001928E-02 0. -1.
        1   -1    0    0  501    0  0.00000000000E+00  0.00000000000E+00 -0.66590797919E+03  0.66590797921E+03  0.50400001928E-02 0.  1.
    10030    2    1    2    0    0  0.00000000000E+00  0.00000000000E+00  0.50499648420E+02  0.13823156068E+04  0.13813928559E+04 0.  0.
        2    1    3    3  502    0 -0.15868874090E+03 -0.73965204386E+01  0.69787792151E+03  0.71573068841E+03  0.25500000920E-02 0. -1.
       -2    1    3    3    0  502  0.15868874090E+03  0.73965204386E+01 -0.64737827309E+03  0.66658491843E+03  0.25500000920E-02 0.  1.
</event>
<event>
 5   0  0.6870835E-04  0.1397188E+04  0.7818609E-02  0.8955856E-01
       -2   -1    0    0    0  501  0.00000000000E+00  0.00000000000E+00  0.21003104923E+03  0.21003104925E+03  0.25500000920E-02 0.  1.
        2   -1    0    0  501    0  0.00000000000E+00  0.00000000000E+00 -0.23236262874E+04  0.23236262874E+04  0.25500000920E-02 0. -1.
    10030    2    1    2    0    0  0.00000000000E+00  0.00000000000E+00 -0.21135952382E+04  0.25336573367E+04  0.13971881293E+04 0.  0.
        2    1    3    3  502    0  0.58907931381E+03  0.33737641874E+03 -0.75774435149E+03  0.10173562739E+04  0.25500000920E-02 0.  1.
       -2    1    3    3    0  502 -0.58907931381E+03 -0.33737641874E+03 -0.13558508867E+04  0.15163010627E+04  0.25500000920E-02 0. -1.
</event>
<event>
 5   0  0.7065539E-04  0.1398415E+04  0.7818609E-02  0.8954966E-01
       -2   -1    0    0    0  501  0.00000000000E+00  0.00000000000E+00  0.77988071860E+03  0.77988071861E+03  0.25500000920E-02 0. -1.
        2   -1    0    0  501    0  0.00000000000E+00  0.00000000000E+00 -0.62687963758E+03  0.62687963759E+03  0.25500000920E-02 0.  1.
    10030    2    1    2    0    0  0.00000000000E+00  0.00000000000E+00  0.15300108102E+03  0.14067603562E+04  0.13984153063E+04 0.  0.
        1    1    3    3  502    0  0.13941805951E+03 -0.54209220166E+03 -0.34503464539E+03  0.65753346452E+03  0.50400001928E-02 0.  1.
       -1    1    3    3    0  502 -0.13941805951E+03  0.54209220166E+03  0.49803572641E+03  0.74922689168E+03  0.50400001928E-02 0. -1.
</event>
<event>
 5   0  0.3907270E-04  0.1398453E+04  0.7818609E-02  0.8954939E-01
       -1   -1    0    0    0  501  0.00000000000E+00  0.00000000000E+00  0.43699774047E+03  0.43699774050E+03  0.50400001928E-02 0. -1.
        1   -1    0    0  501    0  0.00000000000E+00  0.00000000000E+00 -0.11188108109E+04  0.11188108109E+04  0.50400001928E-02 0.  1.
    10030    2    1    2    0    0  0.00000000000E+00  0.00000000000E+00 -0.68181307046E+03  0.15558085514E+04  0.13984531403E+04 0.  0.
        3    1    3    3  502    0 -0.84193639443E+02  0.28989323349E+03 -0.10425811800E+04  0.10854041565E+04  0.10100000352E+00 0.  1.
       -3    1    3    3    0  502  0.84193639443E+02 -0.28989323349E+03  0.36076810956E+03  0.47040439498E+03  0.10100000352E+00 0. -1.
</event>
<event>
 5   0  0.3756664E-04  0.1405700E+04  0.7818609E-02  0.8949703E-01
       -1   -1    0    0    0  501  0.00000000000E+00  0.00000000000E+00  0.80714977649E+03  0.80714977651E+03  0.50400001928E-02 0. -1.
        1   -1    0    0  501    0  0.00000000000E+00  0.00000000000E+00 -0.61202803771E+03  0.61202803773E+03  0.50400001928E-02 0.  1.
    10030    2    1    2    0    0  0.00000000000E+00  0.00000000000E+00  0.19512173878E+03  0.14191778142E+04  0.14057002438E+04 0.  0.
        2    1    3    3  502    0  0.18301296346E+03 -0.49640849417E+03  0.56468826958E+03  0.77381391800E+03  0.25500000920E-02 0. -1.
       -2    1    3    3    0  502 -0.18301296346E+03  0.49640849417E+03 -0.36956653080E+03  0.64536389624E+03  0.25500000920E-02 0.  1.
</event>
<event>
 5   0  0.6870835E-04  0.1398631E+04  0.7818609E-02  0.8954810E-01
        2   -1    0    0  501    0  0.00000000000E+00  0.00000000000E+00  0.15860625406E+04  0.15860625406E+04  0.25500000920E-02 0. -1.
       -2   -1    0    0    0  501  0.00000000000E+00  0.00000000000E+00 -0.30833738798E+03  0.30833738799E+03  0.25500000920E-02 0.  1.
    10030    2    1    2    0    0  0.00000000000E+00  0.00000000000E+00  0.12777251527E+04  0.18943999286E+04  0.13986313037E+04 0.  0.
        2    1    3    3  502    0 -0.13813425912E+03 -0.35946310582E+03 -0.15178840878E+03  0.41392574097E+03  0.25500000920E-02 0.  1.
       -2    1    3    3    0  502  0.13813425912E+03  0.35946310582E+03  0.14295135614E+04  0.14804741877E+04  0.25500000920E-02 0. -1.
</event>
<event>
 5   0  0.6895048E-04  0.1403243E+04  0.7818609E-02  0.8951474E-01
        2   -1    0    0  501    0  0.00000000000E+00  0.00000000000E+00  0.21309521975E+04  0.21309521975E+04  0.25500000920E-02 0. -1.
       -2   -1    0    0    0  501  0.00000000000E+00  0.00000000000E+00 -0.23101069614E+03  0.23101069615E+03  0.25500000920E-02 0.  1.
    10030    2    1    2    0    0  0.00000000000E+00  0.00000000000E+00  0.18999415014E+04  0.23619628937E+04  0.14032430304E+04 0.  0.
        4    1    3    3  502    0  0.15329459697E+03 -0.31014466240E+03 -0.77456839210E+02  0.35452802416E+03  0.12699999809E+01 0.  1.
       -4    1    3    3    0  502 -0.15329459697E+03  0.31014466240E+03  0.19773983406E+04  0.20074348695E+04  0.12699999809E+01 0. -1.
</event>
<event>
 5   0  0.7296966E-04  0.1389010E+04  0.7818609E-02  0.8961812E-01
        2   -1    0    0  501    0  0.00000000000E+00  0.00000000000E+00  0.24347999269E+03  0.24347999270E+03  0.25500000920E-02 0. -1.
       -2   -1    0    0    0  501  0.00000000000E+00  0.00000000000E+00 -0.19810138302E+04  0.19810138302E+04  0.25500000920E-02 0.  1.
    10030    2    1    2    0    0  0.00000000000E+00  0.00000000000E+00 -0.17375338375E+04  0.22244938229E+04  0.13890100546E+04 0.  0.
        3    1    3    3  502    0 -0.88017234176E+02  0.35520727946E+03 -0.18140809248E+04  0.18506239102E+04  0.10100000352E+00 0.  1.
       -3    1    3    3    0  502  0.88017234176E+02 -0.35520727946E+03  0.76547087285E+02  0.37386991275E+03  0.10100000352E+00 0. -1.
</event>
<event>
 5   0  0.6959748E-04  0.1390304E+04  0.7818609E-02  0.8960867E-01
        2   -1    0    0  501    0  0.00000000000E+00  0.00000000000E+00  0.87527031938E+03  0.87527031939E+03  0.25500000920E-02 0. -1.
       -2   -1    0    0    0  501  0.00000000000E+00  0.00000000000E+00 -0.55209964683E+03  0.55209964683E+03  0.25500000920E-02 0.  1.
    10030    2    1    2    0    0  0.00000000000E+00  0.00000000000E+00  0.32317067256E+03  0.14273699662E+04  0.13903041886E+04 0.  0.
        5    1    3    3  502    0 -0.25348109125E+03  0.58748589997E+03 -0.11736033132E+03  0.65052892607E+03  0.46999998093E+01 0.  1.
       -5    1    3    3    0  502  0.25348109125E+03 -0.58748589997E+03  0.44053100387E+03  0.77684104015E+03  0.46999998093E+01 0. -1.
</event>
<event>
 5   0  0.3907093E-04  0.1402584E+04  0.7818609E-02  0.8951950E-01
       -1   -1    0    0    0  501  0.00000000000E+00  0.00000000000E+00  0.33898359147E+03  0.33898359151E+03  0.50400001928E-02 0.  1.
        1   -1    0    0  501    0  0.00000000000E+00  0.00000000000E+00 -0.14508389702E+04  0.14508389702E+04  0.50400001928E-02 0. -1.
    10030    2    1    2    0    0  0.00000000000E+00  0.00000000000E+00 -0.11118553787E+04  0.17898225617E+04  0.14025841932E+04 0.  0.
        4    1    3    3  502    0  0.44284116917E+03 -0.17020713506E+03  0.10312046975E+03  0.48550408249E+03  0.12699999809E+01 0.  1.
       -4    1    3    3    0  502 -0.44284116917E+03  0.17020713506E+03 -0.12149758484E+04  0.13043184792E+04  0.12699999809E+01 0. -1.
</event>
<event>
 5   0  0.3907270E-04  0.1389487E+04  0.7818609E-02  0.8961464E-01
        1   -1    0    0  501    0  0.00000000000E+00  0.00000000000E+00  0.66810891908E+03  0.66810891909E+03  0.50400001928E-02 0. -1.
       -1   -1    0    0    0  501  0.00000000000E+00  0.00000000000E+00 -0.72243946054E+03  0.72243946055E+03  0.50400001928E-02 0.  1.
    10030    2    1    2    0    0  0.00000000000E+00  0.00000000000E+00 -0.54330541460E+02  0.13905483796E+04  0.13894865917E+04 0.  0.
        3    1    3    3  502    0  0.19297618110E+03 -0.12960878831E+03 -0.68236396213E+03  0.72087365849E+03  0.10100000352E+00 0.  1.
       -3    1    3    3    0  502 -0.19297618110E+03  0.12960878831E+03  0.62803342067E+03  0.66967472116E+03  0.10100000352E+00 0. -1.
</event>
<event>
 5   0  0.3784219E-04  0.1389833E+04  0.7818609E-02  0.8961211E-01
        1   -1    0    0  501    0  0.00000000000E+00  0.00000000000E+00  0.15058348965E+04  0.15058348965E+04  0.50400001928E-02 0. -1.
       -1   -1    0    0    0  501  0.00000000000E+00  0.00000000000E+00 -0.32069192735E+03  0.32069192739E+03  0.50400001928E-02 0.  1.
    10030    2    1    2    0    0  0.00000000000E+00  0.00000000000E+00  0.11851429691E+04  0.18265268239E+04  0.13898332206E+04 0.  0.
        1    1    3    3  502    0 -0.18484773732E+03  0.30039239247E+03  0.13794557581E+04  0.14238337206E+04  0.50400001928E-02 0. -1.
       -1    1    3    3    0  502  0.18484773732E+03 -0.30039239247E+03 -0.19431278895E+03  0.40269310327E+03  0.50400001928E-02 0.  1.
</event>
<event>
 5   0  0.6895048E-04  0.1395966E+04  0.7818609E-02  0.8956744E-01
       -2   -1    0    0    0  501  0.00000000000E+00  0.00000000000E+00  0.51864459481E+03  0.51864459481E+03  0.25500000920E-02 0.  1.
        2   -1    0    0  501    0  0.00000000000E+00  0.00000000000E+00 -0.93933384348E+03  0.93933384348E+03  0.25500000920E-02 0. -1.
    10030    2    1    2    0    0  0.00000000000E+00  0.00000000000E+00 -0.42068924867E+03  0.14579784383E+04  0.13959662183E+04 0.  0.
        4    1    3    3  502    0  0.24813550915E+03 -0.11286501525E+03 -0.88143709247E+03  0.92262815015E+03  0.12699999809E+01 0. -1.
       -4    1    3    3    0  502 -0.24813550915E+03  0.11286501525E+03  0.46074784379E+03  0.53535028815E+03  0.12699999809E+01 0.  1.
</event>
<event>
 5   0  0.6895048E-04  0.1396738E+04  0.7818609E-02  0.8956183E-01
       -2   -1    0    0    0  501  0.00000000000E+00  0.00000000000E+00  0.78160610872E+03  0.78160610872E+03  0.25500000920E-02 0.  1.
        2   -1    0    0  501    0  0.00000000000E+00  0.00000000000E+00 -0.62399642865E+03  0.62399642866E+03  0.25500000920E-02 0. -1.
    10030    2    1    2    0    0  0.00000000000E+00  0.00000000000E+00  0.15760968007E+03  0.14056025374E+04  0.13967382295E+04 0.  0.
        4    1    3    3  502    0  0.66931417143E+02 -0.10539778392E+03  0.77028223781E+03  0.78033636737E+03  0.12699999809E+01 0.  1.
       -4    1    3    3    0  502 -0.66931417143E+02  0.10539778392E+03 -0.61267255774E+03  0.62526617001E+03  0.12699999809E+01 0. -1.
</event>
<event>
 5   0  0.3977658E-04  0.1407360E+04  0.7818609E-02  0.8948508E-01
        1   -1    0    0  501    0  0.00000000000E+00  0.00000000000E+00  0.76031576891E+03  0.76031576893E+03  0.50400001928E-02 0.  1.
       -1   -1    0    0    0  501  0.00000000000E+00  0.00000000000E+00 -0.65126297219E+03  0.65126297221E+03  0.50400001928E-02 0. -1.
    10030    2    1    2    0    0  0.00000000000E+00  0.00000000000E+00  0.10905279672E+03  0.14115787411E+04  0.14073599504E+04 0.  0.
        5    1    3    3  502    0 -0.19336903006E+03 -0.67879991842E+02  0.72970412396E+03  0.75795083852E+03  0.46999998093E+01 0.  1.
       -5    1    3    3    0  502  0.19336903006E+03  0.67879991842E+02 -0.62065132724E+03  0.65362790262E+03  0.46999998093E+01 0. -1.
</event>
<event>
 5   0  0.6870835E-04  0.1401900E+04  0.7818609E-02  0.8952445E-01
       -2   -1    0    0    0  501  0.00000000000E+00  0.00000000000E+00  0.26062855400E+03  0.26062855401E+03  0.25500000920E-02 0. -1.
        2   -1    0    0  501    0  0.00000000000E+00  0.00000000000E+00 -0.18851759246E+04  0.18851759246E+04  0.25500000920E-02 0.  1.
    10030    2    1    2    0    0  0.00000000000E+00  0.00000000000E+00 -0.16245473706E+04  0.21458044786E+04  0.14018996758E+04 0.  0.
        2    1    3    3  502    0 -0.14866156297E+03 -0.68103755820E+03 -0.92494233876E+03  0.11582015136E+04  0.25500000920E-02 0.  1.
       -2    1    3    3    0  502  0.14866156297E+03  0.68103755820E+03 -0.69960503183E+03  0.98760296504E+03  0.25500000920E-02 0. -1.
</event>
<event>
 5   0  0.3756664E-04  0.1394968E+04  0.7818609E-02  0.8957469E-01
        1   -1    0    0  501    0  0.00000000000E+00  0.00000000000E+00  0.48631036898E+03  0.48631036900E+03  0.50400001928E-02 0.  1.
       -1   -1    0    0    0  501  0.00000000000E+00  0.00000000000E+00 -0.10003568427E+04  0.10003568427E+04  0.50400001928E-02 0. -1.
    10030    2    1    2    0    0  0.00000000000E+00  0.00000000000E+00 -0.51404647370E+03  0.14866672117E+04  0.13949679642E+04 0.  0.
        2    1    3    3  502    0 -0.26750856403E+03 -0.17925206110E+03  0.40234925695E+03  0.51534169035E+03  0.25500000920E-02 0.  1.
       -2    1    3    3    0  502  0.26750856403E+03  0.17925206110E+03 -0.91639573066E+03  0.97132552134E+03  0.25500000920E-02 0. -1.
</event>
<event>
 5   0  0.3907270E-04  0.1407549E+04  0.7818609E-02  0.8948372E-01
        1   -1    0    0  501    0  0.00000000000E+00  0.00000000000E+00  0.10069711879E+04  0.10069711880E+04  0.50400001928E-02 0. -1.
       -1   -1    0    0    0  501  0.00000000000E+00  0.00000000000E+00 -0.49186953185E+03  0.49186953187E+03  0.50400001928E-02 0.  1.
    10030    2    1    2    0    0  0.00000000000E+00  0.00000000000E+00  0.51510165610E+03  0.14988407198E+04  0.14075488579E+04 0.  0.
        3    1    3    3  502    0  0.49468446408E+03  0.49600545232E+03  0.32949233299E+03  0.77414426009E+03  0.10100000352E+00 0. -1.
       -3    1    3    3    0  502 -0.49468446408E+03 -0.49600545232E+03  0.18560932311E+03  0.72469645974E+03  0.10100000352E+00 0.  1.
</event>
<event>
 5   0  0.6959748E-04  0.1418877E+04  0.7818609E-02  0.8940267E-01
        2   -1    0    0  501    0  0.00000000000E+00  0.00000000000E+00  0.47228225722E+03  0.47228225723E+03  0.25500000920E-02 0.  1.
       -2   -1    0    0    0  501  0.00000000000E+00  0.00000000000E+00 -0.10656828787E+04  0.10656828787E+04  0.25500000920E-02 0. -1.
    10030    2    1    2    0    0  0.00000000000E+00  0.00000000000E+00 -0.59340062145E+03  0.15379651359E+04  0.14188771834E+04 0.  0.
        5    1    3    3  502    0  0.45115298878E+03 -0.83428734706E+02  0.28980724903E+03  0.54268748341E+03  0.46999998093E+01 0.  1.
       -5    1    3    3    0  502 -0.45115298878E+03  0.83428734706E+02 -0.88320787048E+03  0.99527765248E+03  0.46999998093E+01 0. -1.
</event>
<event>
 5   0  0.7065539E-04  0.1401527E+04  0.7818609E-02  0.8952714E-01
        2   -1    0    0  501    0  0.00000000000E+00  0.00000000000E+00  0.96710287801E+03  0.96710287801E+03  0.25500000920E-02 0. -1.
       -2   -1    0    0    0  501  0.00000000000E+00  0.00000000000E+00 -0.50777373071E+03  0.50777373072E+03  0.25500000920E-02 0.  1.
    10030    2    1    2    0    0  0.00000000000E+00  0.00000000000E+00  0.45932914730E+03  0.14748766087E+04  0.14015269335E+04 0.  0.
        1    1    3    3  502    0 -0.60069828742E+02 -0.64918034561E+03 -0.40738426703E+02  0.65322517166E+03  0.50400001928E-02 0.  1.
       -1    1    3    3    0  502  0.60069828742E+02  0.64918034561E+03  0.50006757400E+03  0.82165143707E+03  0.50400001928E-02 0. -1.
</event>
<event>
 5   0  0.3907093E-04  0.1397449E+04  0.7818609E-02  0.8955668E-01
        1   -1    0    0  501    0  0.00000000000E+00  0.00000000000E+00  0.15160309277E+04  0.15160309277E+04  0.50400001928E-02 0. -1.
       -1   -1    0    0    0  501  0.00000000000E+00  0.00000000000E+00 -0.32203537162E+03  0.32203537166E+03  0.50400001928E-02 0.  1.
    10030    2    1    2    0    0  0.00000000000E+00  0.00000000000E+00  0.11939955561E+04  0.18380662994E+04  0.13974485082E+04 0.  0.
        4    1    3    3  502    0 -0.57684052924E+02  0.67390969906E+03  0.36641734464E+03  0.76924964466E+03  0.12699999809E+01 0.  1.
       -4    1    3    3    0  502  0.57684052924E+02 -0.67390969906E+03  0.82757821144E+03  0.10688166547E+04  0.12699999809E+01 0. -1.
</event>
<event>
 5   0  0.3907093E-04  0.1394191E+04  0.7818609E-02  0.8958034E-01
       -1   -1    0    0    0  501  0.00000000000E+00  0.00000000000E+00  0.48905419844E+03  0.48905419847E+03  0.50400001928E-02 0.  1.
        1   -1    0    0  501    0  0.00000000000E+00  0.00000000000E+00 -0.99363702830E+03  0.99363702831E+03  0.50400001928E-02 0. -1.
    10030    2    1    2    0    0  0.00000000000E+00  0.00000000000E+00 -0.50458282985E+03  0.14826912268E+04  0.13941913218E+04 0.  0.
        4    1    3    3  502    0  0.21980200622E+03 -0.43091799157E+03  0.28150390181E+03  0.55968678476E+03  0.12699999809E+01 0.  1.
       -4    1    3    3    0  502 -0.21980200622E+03  0.43091799157E+03 -0.78608673166E+03  0.92300444202E+03  0.12699999809E+01 0. -1.
</event>
<event>
 5   0  0.3907270E-04  0.1400173E+04  0.7818609E-02  0.8953693E-01
        1   -1    0    0  501    0  0.00000000000E+00  0.00000000000E+00  0.96845036684E+03  0.96845036685E+03  0.50400001928E-02 0.  1.
       -1   -1    0    0    0  501  0.00000000000E+00  0.00000000000E+00 -0.50608794856E+03  0.50608794859E+03  0.50400001928E-02 0. -1.
    10030    2    1    2    0    0  0.00000000000E+00  0.00000000000E+00  0.46236241828E+03  0.14745383154E+04  0.14001729314E+04 0.  0.
        3    1    3    3  502    0  0.11790848114E+03 -0.48082636255E+03  0.75247106278E+03  0.90072699047E+03  0.10100000352E+00 0.  1.
       -3    1    3    3    0  502 -0.11790848114E+03  0.48082636255E+03 -0.29010864450E+03  0.57381132497E+03  0.10100000352E+00 0. -1.
</event>
<event>
 5   0  0.6895048E-04  0.1394121E+04  0.7818609E-02  0.8958085E-01
       -2   -1    0    0    0  501  0.00000000000E+00  0.00000000000E+00  0.65505748287E+03  0.65505748287E+03  0.25500000920E-02 0.  1.
        2   -1    0    0  501    0  0.00000000000E+00  0.00000000000E+00 -0.74175682117E+03  0.74175682118E+03  0.25500000920E-02 0. -1.
    10030    2    1    2    0    0  0.00000000000E+00  0.00000000000E+00 -0.86699338305E+02  0.13968143040E+04  0.13941210223E+04 0.  0.
        4    1    3    3  502    0 -0.30924994538E+03 -0.32722096039E+03 -0.57652681355E+03  0.73150110409E+03  0.12699999809E+01 0. -1.
       -4    1    3    3    0  502  0.30924994538E+03  0.32722096039E+03  0.48982747525E+03  0.66531319996E+03  0.12699999809E+01 0.  1.
</event>
<event>
 5   0  0.3977658E-04  0.1394392E+04  0.7818609E-02  0.8957888E-01
       -1   -1    0    0    0  501  0.00000000000E+00  0.00000000000E+00  0.12341720536E+04  0.12341720536E+04  0.50400001928E-02 0.  1.
        1   -1    0    0  501    0  0.00000000000E+00  0.00000000000E+00 -0.39385269826E+03  0.39385269829E+03  0.50400001928E-02 0. -1.
    10030    2    1    2    0    0  0.00000000000E+00  0.00000000000E+00  0.84031935536E+03  0.16280247519E+04  0.13943916142E+04 0.  0.
        5    1    3    3  502    0 -0.57004405656E+03  0.40124803362E+03  0.43238794276E+03  0.82032410299E+03  0.46999998093E+01 0.  1.
       -5    1    3    3    0  502  0.57004405656E+03 -0.40124803362E+03  0.40793141260E+03  0.80770064893E+03  0.46999998093E+01 0. -1.
</event>
<event>
 5   0  0.7296966E-04  0.1391725E+04  0.7818609E-02  0.8959830E-01
        2   -1    0    0  501    0  0.00000000000E+00  0.00000000000E+00  0.12021241441E+04  0.12021241441E+04  0.25500000920E-02 0.  1.
       -2   -1    0    0    0  501  0.00000000000E+00  0.00000000000E+00 -0.40280778204E+03  0.40280778204E+03  0.25500000920E-02 0. -1.
    10030    2    1    2    0    0  0.00000000000E+00  0.00000000000E+00  0.79931636208E+03  0.16049319262E+04  0.13917254905E+04 0.  0.
        3    1    3    3  502    0 -0.49552206753E+03  0.47691463724E+03  0.52189290235E+03  0.86334344403E+03  0.10100000352E+00 0.  1.
       -3    1    3    3    0  502  0.49552206753E+03 -0.47691463724E+03  0.27742345973E+03  0.74158848213E+03  0.10100000352E+00 0. -1.
</event>
<event>
 5   0  0.7296966E-04  0.1401385E+04  0.7818609E-02  0.8952817E-01
        2   -1    0    0  501    0  0.00000000000E+00  0.00000000000E+00  0.14281315947E+04  0.14281315947E+04  0.25500000920E-02 0. -1.
       -2   -1    0    0    0  501  0.00000000000E+00  0.00000000000E+00 -0.34378476671E+03  0.34378476672E+03  0.25500000920E-02 0.  1.
    10030    2    1    2    0    0  0.00000000000E+00  0.00000000000E+00  0.10843468280E+04  0.17719163615E+04  0.14013848681E+04 0.  0.
        3    1    3    3  502    0  0.24102904322E+03  0.65594174849E+03  0.60683502776E+03  0.92552868038E+03  0.10100000352E+00 0. -1.
       -3    1    3    3    0  502 -0.24102904322E+03 -0.65594174849E+03  0.47751180027E+03  0.84638768108E+03  0.10100000352E+00 0.  1.
</event>
<event>
 5   0  0.2660250E-04  0.1404694E+04  0.7818609E-02  0.8950428E-01
       -3   -1    0    0    0  501  0.00000000000E+00  0.00000000000E+00  0.75851123605E+03  0.75851124277E+03  0.10100000352E+00 0.  1.
        3   -1    0    0  501    0  0.00000000000E+00  0.00000000000E+00 -0.65034150701E+03  0.65034151485E+03  0.10100000352E+00 0. -1.
    10030    2    1    2    0    0  0.00000000000E+00  0.00000000000E+00  0.10816972904E+03  0.14088527576E+04  0.14046940601E+04 0.  0.
        2    1    3    3  502    0 -0.15652042089E+03  0.27008515047E+03 -0.57694132730E+03  0.65597707720E+03  0.25500000920E-02 0. -1.
       -2    1    3    3    0  502  0.15652042089E+03 -0.27008515047E+03  0.68511105634E+03  0.75287568043E+03  0.25500000920E-02 0.  1.
</event>
<event>
 5   0  0.3977658E-04  0.1393445E+04  0.7818609E-02  0.8958577E-01
        1   -1    0    0  501    0  0.00000000000E+00  0.00000000000E+00  0.90459061722E+03  0.90459061724E+03  0.50400001928E-02 0. -1.
       -1   -1    0    0    0  501  0.00000000000E+00  0.00000000000E+00 -0.53662127128E+03  0.53662127130E+03  0.50400001928E-02 0.  1.
    10030    2    1    2    0    0  0.00000000000E+00  0.00000000000E+00  0.36796934595E+03  0.14412118885E+04  0.13934454665E+04 0.  0.
        5    1    3    3  502    0 -0.70604148436E+02 -0.59062335630E+03  0.55915813476E+03  0.81639500516E+03  0.46999998093E+01 0. -1.
       -5    1    3    3    0  502  0.70604148436E+02  0.59062335630E+03 -0.19118878881E+03  0.62481688338E+03  0.46999998093E+01 0.  1.
</event>
<event>
 5   0  0.7296966E-04  0.1404249E+04  0.7818609E-02  0.8950748E-01
       -2   -1    0    0    0  501  0.00000000000E+00  0.00000000000E+00  0.31889297469E+03  0.31889297470E+03  0.25500000920E-02 0.  1.
        2   -1    0    0  501    0  0.00000000000E+00  0.00000000000E+00 -0.15459076358E+04  0.15459076358E+04  0.25500000920E-02 0. -1.
    10030    2    1    2    0    0  0.00000000000E+00  0.00000000000E+00 -0.12270146611E+04  0.18648006105E+04  0.14042493861E+04 0.  0.
        3    1    3    3  502    0 -0.95555717433E+01  0.58307342319E+03 -0.11327980671E+04  0.12740868875E+04  0.10100000352E+00 0. -1.
       -3    1    3    3    0  502  0.95555717433E+01 -0.58307342319E+03 -0.94216593975E+02  0.59071372302E+03  0.10100000352E+00 0.  1.
</event>
<event>
 5   0  0.2660250E-04  0.1399699E+04  0.7818609E-02  0.8954036E-01
       -3   -1    0    0    0  501  0.00000000000E+00  0.00000000000E+00  0.80155780704E+03  0.80155781340E+03  0.10100000352E+00 0.  1.
        3   -1    0    0  501    0  0.00000000000E+00  0.00000000000E+00 -0.61104704774E+03  0.61104705608E+03  0.10100000352E+00 0. -1.
    10030    2    1    2    0    0  0.00000000000E+00  0.00000000000E+00  0.19051075930E+03  0.14126048695E+04  0.13996993134E+04 0.  0.
        4    1    3    3  502    0 -0.51681962022E+03 -0.39179255302E+03  0.36070908872E+03  0.74210281231E+03  0.12699999809E+01 0. -1.
       -4    1    3    3    0  502  0.51681962022E+03  0.39179255302E+03 -0.17019832942E+03  0.67050205718E+03  0.12699999809E+01 0.  1.
</event>
<event>
 5   0  0.6870835E-04  0.1399820E+04  0.7818609E-02  0.8953949E-01
       -2   -1    0    0    0  501  0.00000000000E+00  0.00000000000E+00  0.25682686102E+03  0.25682686103E+03  0.25500000920E-02 0. -1.
        2   -1    0    0  501    0  0.00000000000E+00  0.00000000000E+00 -0.19074106499E+04  0.19074106499E+04  0.25500000920E-02 0.  1.
    10030    2    1    2    0    0  0.00000000000E+00  0.00000000000E+00 -0.16505837888E+04  0.21642375109E+04  0.13998204026E+04 0.  0.
        2    1    3    3  502    0  0.28920654982E+03 -0.59429042634E+03 -0.11814038494E+04  0.13537121536E+04  0.25500000920E-02 0.  1.
       -2    1    3    3    0  502 -0.28920654982E+03  0.59429042634E+03 -0.46917993942E+03  0.81052535732E+03  0.25500000920E-02 0. -1.
</event>
<event>
 5   0  0.7065539E-04  0.1382017E+04  0.7818609E-02  0.8966940E-01
       -2   -1    0    0    0  501  0.00000000000E+00  0.00000000000E+00  0.37843580329E+03  0.37843580330E+03  0.25500000920E-02 0. -1.
        2   -1    0    0  501    0  0.00000000000E+00  0.00000000000E+00 -0.12617530631E+04  0.12617530631E+04  0.25500000920E-02 0.  1.
    10030    2    1    2    0    0  0.00000000000E+00  0.00000000000E+00 -0.88331725981E+03  0.16401888664E+04  0.13820166916E+04 0.  0.
        1    1    3    3  502    0  0.12457532249E+03 -0.22650095170E+03  0.31889090567E+03  0.41050347360E+03  0.50400001928E-02 0. -1.
       -1    1    3    3    0  502 -0.12457532249E+03  0.22650095170E+03 -0.12022081655E+04  0.12296853928E+04  0.50400001928E-02 0.  1.
</event>
<event>
 5   0  0.3784219E-04  0.1398477E+04  0.7818609E-02  0.8954922E-01
       -1   -1    0    0    0  501  0.00000000000E+00  0.00000000000E+00  0.78598019450E+03  0.78598019452E+03  0.50400001928E-02 0.  1.
        1   -1    0    0  501    0  0.00000000000E+00  0.00000000000E+00 -0.62206958511E+03  0.62206958513E+03  0.50400001928E-02 0. -1.
    10030    2    1    2    0    0  0.00000000000E+00  0.00000000000E+00  0.16391060940E+03  0.14080497796E+04  0.13984768479E+04 0.  0.
        1    1    3    3  502    0 -0.22633674212E+03 -0.81996373003E+02 -0.57903124221E+03  0.62707966440E+03  0.50400001928E-02 0. -1.
       -1    1    3    3    0  502  0.22633674212E+03  0.81996373003E+02  0.74294185161E+03  0.78097011525E+03  0.50400001928E-02 0.  1.
</event>
<event>
 5   0  0.6895048E-04  0.1393380E+04  0.7818609E-02  0.8958624E-01
        2   -1    0    0  501    0  0.00000000000E+00  0.00000000000E+00  0.97478401826E+03  0.97478401826E+03  0.25500000920E-02 0. -1.
       -2   -1    0    0    0  501  0.00000000000E+00  0.00000000000E+00 -0.49793312848E+03  0.49793312848E+03  0.25500000920E-02 0.  1.
    10030    2    1    2    0    0  0.00000000000E+00  0.00000000000E+00  0.47685088978E+03  0.14727171467E+04  0.13933804302E+04 0.  0.
        4    1    3    3  502    0 -0.31538772013E+03  0.31869861299E+03 -0.32516892779E+03  0.55387242613E+03  0.12699999809E+01 0.  1.
       -4    1    3    3    0  502  0.31538772013E+03 -0.31869861299E+03  0.80201981757E+03  0.91884472062E+03  0.12699999809E+01 0. -1.
</event>
<event>
 5   0  0.6895048E-04  0.1395332E+04  0.7818609E-02  0.8957204E-01
       -2   -1    0    0    0  501  0.00000000000E+00  0.00000000000E+00  0.86117721082E+03  0.86117721082E+03  0.25500000920E-02 0.  1.
        2   -1    0    0  501    0  0.00000000000E+00  0.00000000000E+00 -0.56520060420E+03  0.56520060420E+03  0.25500000920E-02 0. -1.
    10030    2    1    2    0    0  0.00000000000E+00  0.00000000000E+00  0.29597660662E+03  0.14263778150E+04  0.13953320463E+04 0.  0.
        4    1    3    3  502    0  0.33496217492E+03  0.14881661561E+03 -0.45884433646E+03  0.58726976911E+03  0.12699999809E+01 0. -1.
       -4    1    3    3    0  502 -0.33496217492E+03 -0.14881661561E+03  0.75482094308E+03  0.83910804591E+03  0.12699999809E+01 0.  1.
</event>
<event>
 5   0  0.6959748E-04  0.1312872E+04  0.7818609E-02  0.9019420E-01
       -2   -1    0    0    0  501  0.00000000000E+00  0.00000000000E+00  0.39049847771E+03  0.39049847772E+03  0.25500000920E-02 0.  1.
        2   -1    0    0  501    0  0.00000000000E+00  0.00000000000E+00 -0.11034817271E+04  0.11034817271E+04  0.25500000920E-02 0. -1.
    10030    2    1    2    0    0  0.00000000000E+00  0.00000000000E+00 -0.71298324936E+03  0.14939802048E+04  0.13128715621E+04 0.  0.
        5    1    3    3  502    0  0.56790842143E+03 -0.26502244452E+03 -0.13428850197E+03  0.64094645875E+03  0.46999998093E+01 0.  1.
       -5    1    3    3    0  502 -0.56790842143E+03  0.26502244452E+03 -0.57869474739E+03  0.85303374604E+03  0.46999998093E+01 0. -1.
</event>
<event>
 5   0  0.3907093E-04  0.1400347E+04  0.7818609E-02  0.8953567E-01
        1   -1    0    0  501    0  0.00000000000E+00  0.00000000000E+00  0.11695374546E+04  0.11695374546E+04  0.50400001928E-02 0.  1.
       -1   -1    0    0    0  501  0.00000000000E+00  0.00000000000E+00 -0.41917683689E+03  0.41917683693E+03  0.50400001928E-02 0. -1.
    10030    2    1    2    0    0  0.00000000000E+00  0.00000000000E+00  0.75036061766E+03  0.15887142915E+04  0.14003471153E+04 0.  0.
        4    1    3    3  502    0 -0.17652757056E+03  0.59092286213E+03 -0.90673255372E+00  0.61672866580E+03  0.12699999809E+01 0. -1.
       -4    1    3    3    0  502  0.17652757056E+03 -0.59092286213E+03  0.75126735021E+03  0.97198562569E+03  0.12699999809E+01 0.  1.
</event>
<event>
 5   0  0.3756664E-04  0.1402622E+04  0.7818609E-02  0.8951923E-01
       -1   -1    0    0    0  501  0.00000000000E+00  0.00000000000E+00  0.67271599508E+03  0.67271599510E+03  0.50400001928E-02 0. -1.
        1   -1    0    0  501    0  0.00000000000E+00  0.00000000000E+00 -0.73112115709E+03  0.73112115710E+03  0.50400001928E-02 0.  1.
    10030    2    1    2    0    0  0.00000000000E+00  0.00000000000E+00 -0.58405162008E+02  0.14038371522E+04  0.14026216835E+04 0.  0.
        2    1    3    3  502    0 -0.17019685397E+03 -0.14315758802E+03 -0.69489234610E+03  0.72961389569E+03  0.25500000920E-02 0.  1.
       -2    1    3    3    0  502  0.17019685397E+03  0.14315758802E+03  0.63648718409E+03  0.67422325652E+03  0.25500000920E-02 0. -1.
</event>
<event>
 5   0  0.7296966E-04  0.1382252E+04  0.7818609E-02  0.8966767E-01
        2   -1    0    0  501    0  0.00000000000E+00  0.00000000000E+00  0.12561109766E+04  0.12561109766E+04  0.25500000920E-02 0.  1.
       -2   -1    0    0    0  501  0.00000000000E+00  0.00000000000E+00 -0.38026491826E+03  0.38026491827E+03  0.25500000920E-02 0. -1.
    10030    2    1    2    0    0  0.00000000000E+00  0.00000000000E+00  0.87584605830E+03  0.16363758948E+04  0.13822516961E+04 0.  0.
        3    1    3    3  502    0  0.66096157872E+03 -0.14865654742E+03  0.59975097928E+03  0.90480397047E+03  0.10100000352E+00 0. -1.
       -3    1    3    3    0  502 -0.66096157872E+03  0.14865654742E+03  0.27609507901E+03  0.73157192435E+03  0.10100000352E+00 0.  1.
</event>
<event>
 5   0  0.6895048E-04  0.1367059E+04  0.7818609E-02  0.8978014E-01
       -2   -1    0    0    0  501  0.00000000000E+00  0.00000000000E+00  0.16363078417E+03  0.16363078419E+03  0.25500000920E-02 0.  1.
        2   -1    0    0  501    0  0.00000000000E+00  0.00000000000E+00 -0.28552842493E+04  0.28552842493E+04  0.25500000920E-02 0. -1.
    10030    2    1    2    0    0  0.00000000000E+00  0.00000000000E+00 -0.26916534652E+04  0.30189150335E+04  0.13670587416E+04 0.  0.
        4    1    3    3  502    0  0.54946556330E+03 -0.19801458871E+03 -0.56167224137E+03  0.81030827604E+03  0.12699999809E+01 0.  1.
       -4    1    3    3    0  502 -0.54946556330E+03  0.19801458871E+03 -0.21299812238E+04  0.22086067575E+04  0.12699999809E+01 0. -1.
</event>
<event>
 5   0  0.6895048E-04  0.1342239E+04  0.7818609E-02  0.8996724E-01
       -2   -1    0    0    0  501  0.00000000000E+00  0.00000000000E+00  0.35853878362E+03  0.35853878362E+03  0.25500000920E-02 0.  1.
        2   -1    0    0  501    0  0.00000000000E+00  0.00000000000E+00 -0.12562129223E+04  0.12562129223E+04  0.25500000920E-02 0. -1.
    10030    2    1    2    0    0  0.00000000000E+00  0.00000000000E+00 -0.89767413873E+03  0.16147517060E+04  0.13422385081E+04 0.  0.
        4    1    3    3  502    0  0.54662503213E+03  0.21662059720E+03 -0.83806113257E+03  0.10237536245E+04  0.12699999809E+01 0. -1.
       -4    1    3    3    0  502 -0.54662503213E+03 -0.21662059720E+03 -0.59613006160E+02  0.59099808146E+03  0.12699999809E+01 0.  1.
</event>
<event>
 5   0  0.3907270E-04  0.1361743E+04  0.7818609E-02  0.8981986E-01
       -1   -1    0    0    0  501  0.00000000000E+00  0.00000000000E+00  0.31608856727E+03  0.31608856731E+03  0.50400001928E-02 0.  1.
        1   -1    0    0  501    0  0.00000000000E+00  0.00000000000E+00 -0.14666330692E+04  0.14666330692E+04  0.50400001928E-02 0. -1.
    10030    2    1    2    0    0  0.00000000000E+00  0.00000000000E+00 -0.11505445019E+04  0.17827216365E+04  0.13617429208E+04 0.  0.
        3    1    3    3  502    0 -0.15461021901E+03 -0.30031843760E+03 -0.13492100654E+04  0.13908498461E+04  0.10100000352E+00 0. -1.
       -3    1    3    3    0  502  0.15461021901E+03  0.30031843760E+03  0.19866556345E+03  0.39187179037E+03  0.10100000352E+00 0.  1.
</event>
<event>
 5   0  0.3784219E-04  0.1411908E+04  0.7818609E-02  0.8945244E-01
       -1   -1    0    0    0  501  0.00000000000E+00  0.00000000000E+00  0.65482560247E+03  0.65482560249E+03  0.50400001928E-02 0. -1.
        1   -1    0    0  501    0  0.00000000000E+00  0.00000000000E+00 -0.76107456918E+03  0.76107456920E+03  0.50400001928E-02 0.  1.
    10030    2    1    2    0    0  0.00000000000E+00  0.00000000000E+00 -0.10624896671E+03  0.14159001717E+04  0.14119080895E+04 0.  0.
        1    1    3    3  502    0 -0.25155325155E+03  0.60422491613E+03  0.21220691517E+03  0.68803965184E+03  0.50400001928E-02 0.  1.
       -1    1    3    3    0  502  0.25155325155E+03 -0.60422491613E+03 -0.31845588188E+03  0.72786051985E+03  0.50400001928E-02 0. -1.
</event>
<event>
 5   0  0.3756664E-04  0.1396382E+04  0.7818609E-02  0.8956442E-01
        1   -1    0    0  501    0  0.00000000000E+00  0.00000000000E+00  0.18716660098E+04  0.18716660098E+04  0.50400001928E-02 0.  1.
       -1   -1    0    0    0  501  0.00000000000E+00  0.00000000000E+00 -0.26044744632E+03  0.26044744637E+03  0.50400001928E-02 0. -1.
    10030    2    1    2    0    0  0.00000000000E+00  0.00000000000E+00  0.16112185635E+04  0.21321134562E+04  0.13963819430E+04 0.  0.
        2    1    3    3  502    0  0.60441475249E+03  0.34882999553E+03  0.83874913574E+03  0.10911002115E+04  0.25500000920E-02 0.  1.
       -2    1    3    3    0  502 -0.60441475249E+03 -0.34882999553E+03  0.77246942776E+03  0.10410132447E+04  0.25500000920E-02 0. -1.
</event>
<event>
 5   0  0.7065539E-04  0.1399775E+04  0.7818609E-02  0.8953981E-01
        2   -1    0    0  501    0  0.00000000000E+00  0.00000000000E+00  0.22183639069E+04  0.22183639069E+04  0.25500000920E-02 0. -1.
       -2   -1    0    0    0  501  0.00000000000E+00  0.00000000000E+00 -0.22081260983E+03  0.22081260984E+03  0.25500000920E-02 0.  1.
    10030    2    1    2    0    0  0.00000000000E+00  0.00000000000E+00  0.19975512971E+04  0.24391765167E+04  0.13997753018E+04 0.  0.
        1    1    3    3  502    0  0.39178164916E+03 -0.34649061487E+03  0.18091902504E+04  0.18832732062E+04  0.50400001928E-02 0. -1.
       -1    1    3    3    0  502 -0.39178164916E+03  0.34649061487E+03  0.18836104666E+03  0.55590331060E+03  0.50400001928E-02 0.  1.
</event>
<event>
 5   0  0.6895048E-04  0.1399147E+04  0.7818609E-02  0.8954436E-01
        2   -1    0    0  501    0  0.00000000000E+00  0.00000000000E+00  0.13967780518E+04  0.13967780518E+04  0.25500000920E-02 0.  1.
       -2   -1    0    0    0  501  0.00000000000E+00  0.00000000000E+00 -0.35037983455E+03  0.35037983455E+03  0.25500000920E-02 0. -1.
    10030    2    1    2    0    0  0.00000000000E+00  0.00000000000E+00  0.10463982172E+04  0.17471578864E+04  0.13991466867E+04 0.  0.
        4    1    3    3  502    0 -0.21851702040E+03  0.65425480585E+03  0.37756146214E+03  0.78635444284E+03  0.12699999809E+01 0. -1.
       -4    1    3    3    0  502  0.21851702040E+03 -0.65425480585E+03  0.66883675511E+03  0.96080344351E+03  0.12699999809E+01 0.  1.
</event>
<event>
 5   0  0.3977658E-04  0.1400578E+04  0.7818609E-02  0.8953401E-01
       -1   -1    0    0    0  501  0.00000000000E+00  0.00000000000E+00  0.62246090672E+03  0.62246090674E+03  0.50400001928E-02 0. -1.
        1   -1    0    0  501    0  0.00000000000E+00  0.00000000000E+00 -0.78784764235E+03  0.78784764237E+03  0.50400001928E-02 0.  1.
    10030    2    1    2    0    0  0.00000000000E+00  0.00000000000E+00 -0.16538673563E+03  0.14103085491E+04  0.14005775349E+04 0.  0.
        5    1    3    3  502    0  0.15781025321E+03  0.34996273627E+03 -0.67242815818E+03  0.77431241156E+03  0.46999998093E+01 0.  1.
       -5    1    3    3    0  502 -0.15781025321E+03 -0.34996273627E+03  0.50704142255E+03  0.63599613754E+03  0.46999998093E+01 0. -1.
</event>
<event>
 5   0  0.7065539E-04  0.1397019E+04  0.7818609E-02  0.8955979E-01
       -2   -1    0    0    0  501  0.00000000000E+00  0.00000000000E+00  0.32739263241E+03  0.32739263242E+03  0.25500000920E-02 0. -1.
        2   -1    0    0  501    0  0.00000000000E+00  0.00000000000E+00 -0.14903067178E+04  0.14903067178E+04  0.25500000920E-02 0.  1.
    10030    2    1    2    0    0  0.00000000000E+00  0.00000000000E+00 -0.11629140854E+04  0.18176993503E+04  0.13970188824E+04 0.  0.
        1    1    3    3  502    0  0.30241034545E+03 -0.88431726066E+02 -0.13925961522E+04  0.14277941835E+04  0.50400001928E-02 0.  1.
       -1    1    3    3    0  502 -0.30241034545E+03  0.88431726066E+02  0.22968206681E+03  0.38990516674E+03  0.50400001928E-02 0. -1.
</event>
<event>
 5   0  0.3907270E-04  0.1401701E+04  0.7818609E-02  0.8952588E-01
        1   -1    0    0  501    0  0.00000000000E+00  0.00000000000E+00  0.55053823266E+03  0.55053823268E+03  0.50400001928E-02 0.  1.
       -1   -1    0    0    0  501  0.00000000000E+00  0.00000000000E+00 -0.89220201702E+03  0.89220201703E+03  0.50400001928E-02 0. -1.
    10030    2    1    2    0    0  0.00000000000E+00  0.00000000000E+00 -0.34166378435E+03  0.14427402497E+04  0.14017008549E+04 0.  0.
        3    1    3    3  502    0 -0.81440750277E+02  0.25398538596E+03 -0.83792027303E+03  0.87934723872E+03  0.10100000352E+00 0. -1.
       -3    1    3    3    0  502  0.81440750277E+02 -0.25398538596E+03  0.49625648868E+03  0.56339301100E+03  0.10100000352E+00 0.  1.
</event>
<event>
 5   0  0.3977658E-04  0.1391374E+04  0.7818609E-02  0.8960087E-01
       -1   -1    0    0    0  501  0.00000000000E+00  0.00000000000E+00  0.33648057527E+03  0.33648057530E+03  0.50400001928E-02 0.  1.
        1   -1    0    0  501    0  0.00000000000E+00  0.00000000000E+00 -0.14383596352E+04  0.14383596352E+04  0.50400001928E-02 0. -1.
    10030    2    1    2    0    0  0.00000000000E+00  0.00000000000E+00 -0.11018790599E+04  0.17748402105E+04  0.13913735336E+04 0.  0.
        5    1    3    3  502    0 -0.37212975273E+03 -0.55184510897E+03 -0.29282477464E+03  0.72717399280E+03  0.46999998093E+01 0.  1.
       -5    1    3    3    0  502  0.37212975273E+03  0.55184510897E+03 -0.80905428524E+03  0.10476662177E+04  0.46999998093E+01 0. -1.
</event>
<event>
 5   0  0.3977658E-04  0.1390878E+04  0.7818609E-02  0.8960448E-01
        1   -1    0    0  501    0  0.00000000000E+00  0.00000000000E+00  0.51620385329E+03  0.51620385332E+03  0.50400001928E-02 0. -1.
       -1   -1    0    0    0  501  0.00000000000E+00  0.00000000000E+00 -0.93690739968E+03  0.93690739969E+03  0.50400001928E-02 0.  1.
    10030    2    1    2    0    0  0.00000000000E+00  0.00000000000E+00 -0.42070354639E+03  0.14531112530E+04  0.13908777228E+04 0.  0.
        5    1    3    3  502    0 -0.40669251173E+03 -0.40931418491E+03 -0.61589044215E+03  0.84396684046E+03  0.46999998093E+01 0.  1.
       -5    1    3    3    0  502  0.40669251173E+03  0.40931418491E+03  0.19518689577E+03  0.60914441255E+03  0.46999998093E+01 0. -1.
</event>
<event>
 5   0  0.6959748E-04  0.1409293E+04  0.7818609E-02  0.8947119E-01
       -2   -1    0    0    0  501  0.00000000000E+00  0.00000000000E+00  0.53258083069E+03  0.53258083069E+03  0.25500000920E-02 0.  1.
        2   -1    0    0  501    0  0.00000000000E+00  0.00000000000E+00 -0.93230341465E+03  0.93230341465E+03  0.25500000920E-02 0. -1.
    10030    2    1    2    0    0  0.00000000000E+00  0.00000000000E+00 -0.39972258396E+03  0.14648842453E+04  0.14092933364E+04 0.  0.
        5    1    3    3  502    0  0.88719199943E+02 -0.64561907166E+03 -0.47840517914E+03  0.80844832089E+03  0.46999998093E+01 0. -1.
       -5    1    3    3    0  502 -0.88719199943E+02  0.64561907166E+03  0.78682595182E+02  0.65643592445E+03  0.46999998093E+01 0.  1.
</event>
<event>
 5   0  0.6959748E-04  0.1383691E+04  0.7818609E-02  0.8965709E-01
        2   -1    0    0  501    0  0.00000000000E+00  0.00000000000E+00  0.88976676187E+03  0.88976676187E+03  0.25500000920E-02 0.  1.
       -2   -1    0    0    0  501  0.00000000000E+00  0.00000000000E+00 -0.53795031483E+03  0.53795031483E+03  0.25500000920E-02 0. -1.
    10030    2    1    2    0    0  0.00000000000E+00  0.00000000000E+00  0.35181644704E+03  0.14277170767E+04  0.13836911645E+04 0.  0.
        5    1    3    3  502    0  0.42720058214E+02  0.65344539538E+03 -0.54379836568E+02  0.65711121185E+03  0.46999998093E+01 0.  1.
       -5    1    3    3    0  502 -0.42720058214E+02 -0.65344539538E+03  0.40619628361E+03  0.77060586485E+03  0.46999998093E+01 0. -1.
</event>
<event>
 5   0  0.6870835E-04  0.1361698E+04  0.7818609E-02  0.8982020E-01
       -2   -1    0    0    0  501  0.00000000000E+00  0.00000000000E+00  0.59268261394E+03  0.59268261394E+03  0.25500000920E-02 0. -1.
        2   -1    0    0  501    0  0.00000000000E+00  0.00000000000E+00 -0.78213061175E+03  0.78213061175E+03  0.25500000920E-02 0.  1.
    10030    2    1    2    0    0  0.00000000000E+00  0.00000000000E+00 -0.18944799781E+03  0.13748132257E+04  0.13616977865E+04 0.  0.
        2    1    3    3  502    0 -0.18003450016E+02  0.59074019673E+03  0.24655109088E+03  0.64037921941E+03  0.25500000920E-02 0. -1.
       -2    1    3    3    0  502  0.18003450016E+02 -0.59074019673E+03 -0.43599908869E+03  0.73443400628E+03  0.25500000920E-02 0.  1.
</event>
<event>
 5   0  0.3784219E-04  0.1405035E+04  0.7818609E-02  0.8950182E-01
       -1   -1    0    0    0  501  0.00000000000E+00  0.00000000000E+00  0.12916517377E+04  0.12916517377E+04  0.50400001928E-02 0. -1.
        1   -1    0    0  501    0  0.00000000000E+00  0.00000000000E+00 -0.38209261458E+03  0.38209261461E+03  0.50400001928E-02 0.  1.
    10030    2    1    2    0    0  0.00000000000E+00  0.00000000000E+00  0.90955912314E+03  0.16737443523E+04  0.14050346467E+04 0.  0.
        1    1    3    3  502    0 -0.62792375113E+02 -0.98498807315E+02  0.12800019307E+04  0.12853209093E+04  0.50400001928E-02 0. -1.
       -1    1    3    3    0  502  0.62792375113E+02  0.98498807315E+02 -0.37044280752E+03  0.38842344302E+03  0.50400001928E-02 0.  1.
</event>
<event>
 5   0  0.6959748E-04  0.1397256E+04  0.7818609E-02  0.8955807E-01
        2   -1    0    0  501    0  0.00000000000E+00  0.00000000000E+00  0.93740406121E+03  0.93740406121E+03  0.25500000920E-02 0.  1.
       -2   -1    0    0    0  501  0.00000000000E+00  0.00000000000E+00 -0.52067335020E+03  0.52067335020E+03  0.25500000920E-02 0. -1.
    10030    2    1    2    0    0  0.00000000000E+00  0.00000000000E+00  0.41673071101E+03  0.14580774114E+04  0.13972563302E+04 0.  0.
        5    1    3    3  502    0  0.13353082158E+03  0.61254460230E+03 -0.11330208427E+03  0.63710346288E+03  0.46999998093E+01 0. -1.
       -5    1    3    3    0  502 -0.13353082158E+03 -0.61254460230E+03  0.53003279528E+03  0.82097394854E+03  0.46999998093E+01 0.  1.
</event>
<event>
 5   0  0.3977658E-04  0.1411867E+04  0.7818609E-02  0.8945273E-01
       -1   -1    0    0    0  501  0.00000000000E+00  0.00000000000E+00  0.42464799049E+03  0.42464799051E+03  0.50400001928E-02 0.  1.
        1   -1    0    0  501    0  0.00000000000E+00  0.00000000000E+00 -0.11735411702E+04  0.11735411702E+04  0.50400001928E-02 0. -1.
    10030    2    1    2    0    0  0.00000000000E+00  0.00000000000E+00 -0.74889317968E+03  0.15981891607E+04  0.14118667072E+04 0.  0.
        5    1    3    3  502    0  0.27251883116E+03  0.63881059338E+03 -0.23137753679E+03  0.73205405680E+03  0.46999998093E+01 0.  1.
       -5    1    3    3    0  502 -0.27251883116E+03 -0.63881059338E+03 -0.51751564290E+03  0.86613510389E+03  0.46999998093E+01 0. -1.
</event>
<event>
 5   0  0.7296966E-04  0.1395770E+04  0.7818609E-02  0.8956886E-01
        2   -1    0    0  501    0  0.00000000000E+00  0.00000000000E+00  0.11023353363E+04  0.11023353363E+04  0.25500000920E-02 0.  1.
       -2   -1    0    0    0  501  0.00000000000E+00  0.00000000000E+00 -0.44182852787E+03  0.44182852788E+03  0.25500000920E-02 0. -1.
    10030    2    1    2    0    0  0.00000000000E+00  0.00000000000E+00  0.66050680844E+03  0.15441638642E+04  0.13957696069E+04 0.  0.
        3    1    3    3  502    0 -0.32859938649E+03 -0.36689414242E+03  0.87724229524E+03  0.10060531414E+04  0.10100000352E+00 0.  1.
       -3    1    3    3    0  502  0.32859938649E+03  0.36689414242E+03 -0.21673548680E+03  0.53811072279E+03  0.10100000352E+00 0. -1.
</event>
<event>
 5   0  0.6959748E-04  0.1404215E+04  0.7818609E-02  0.8950773E-01
       -2   -1    0    0    0  501  0.00000000000E+00  0.00000000000E+00  0.65478234648E+03  0.65478234649E+03  0.25500000920E-02 0.  1.
        2   -1    0    0  501    0  0.00000000000E+00  0.00000000000E+00 -0.75285307653E+03  0.75285307653E+03  0.25500000920E-02 0. -1.
    10030    2    1    2    0    0  0.00000000000E+00  0.00000000000E+00 -0.98070730046E+02  0.14076354230E+04  0.14042149465E+04 0.  0.
        5    1    3    3  502    0  0.10582218810E+02 -0.14311664070E+03 -0.73797829793E+03  0.75181674257E+03  0.46999998093E+01 0. -1.
       -5    1    3    3    0  502 -0.10582218810E+02  0.14311664070E+03  0.63990756788E+03  0.65581868045E+03  0.46999998093E+01 0.  1.
</event>
<event>
 5   0  0.3907093E-04  0.1398892E+04  0.7818609E-02  0.8954621E-01
       -1   -1    0    0    0  501  0.00000000000E+00  0.00000000000E+00  0.82869484475E+03  0.82869484477E+03  0.50400001928E-02 0.  1.
        1   -1    0    0  501    0  0.00000000000E+00  0.00000000000E+00 -0.59035541869E+03  0.59035541871E+03  0.50400001928E-02 0. -1.
    10030    2    1    2    0    0  0.00000000000E+00  0.00000000000E+00  0.23833942607E+03  0.14190502635E+04  0.13988916928E+04 0.  0.
        4    1    3    3  502    0  0.44138936178E+03 -0.37094558726E+03  0.52085276321E+03  0.77699061207E+03  0.12699999809E+01 0.  1.
       -4    1    3    3    0  502 -0.44138936178E+03  0.37094558726E+03 -0.28251333714E+03  0.64205965141E+03  0.12699999809E+01 0. -1.
</event>
<event>
 5   0  0.7296966E-04  0.1398106E+04  0.7818609E-02  0.8955191E-01
       -2   -1    0    0    0  501  0.00000000000E+00  0.00000000000E+00  0.47103177379E+03  0.47103177379E+03  0.25500000920E-02 0.  1.
        2   -1    0    0  501    0  0.00000000000E+00  0.00000000000E+00 -0.10374566755E+04  0.10374566755E+04  0.25500000920E-02 0. -1.
    10030    2    1    2    0    0  0.00000000000E+00  0.00000000000E+00 -0.56642490168E+03  0.15084884493E+04  0.13981059446E+04 0.  0.
        3    1    3    3  502    0  0.11472997188E+03 -0.35491087669E+03  0.35469368287E+03  0.51471576205E+03  0.10100000352E+00 0.  1.
       -3    1    3    3    0  502 -0.11472997188E+03  0.35491087669E+03 -0.92111858455E+03  0.99377268721E+03  0.10100000352E+00 0. -1.
</event>
<event>
 5   0  0.6870835E-04  0.1404073E+04  0.7818609E-02  0.8950876E-01
        2   -1    0    0  501    0  0.00000000000E+00  0.00000000000E+00  0.13972484290E+04  0.13972484290E+04  0.25500000920E-02 0. -1.
       -2   -1    0    0    0  501  0.00000000000E+00  0.00000000000E+00 -0.35273272317E+03  0.35273272318E+03  0.25500000920E-02 0.  1.
    10030    2    1    2    0    0  0.00000000000E+00  0.00000000000E+00  0.10445157058E+04  0.17499811521E+04  0.14040729943E+04 0.  0.
        2    1    3    3  502    0 -0.87963524962E+02 -0.18647949136E+03  0.13586605462E+04  0.13742163811E+04  0.25500000920E-02 0. -1.
       -2    1    3    3    0  502  0.87963524962E+02  0.18647949136E+03 -0.31414484036E+03  0.37576477104E+03  0.25500000920E-02 0.  1.
</event>
<event>
 5   0  0.6895048E-04  0.1401256E+04  0.7818609E-02  0.8952910E-01
       -2   -1    0    0    0  501  0.00000000000E+00  0.00000000000E+00  0.18837518066E+03  0.18837518067E+03  0.25500000920E-02 0. -1.
        2   -1    0    0  501    0  0.00000000000E+00  0.00000000000E+00 -0.26058603695E+04  0.26058603695E+04  0.25500000920E-02 0.  1.
    10030    2    1    2    0    0  0.00000000000E+00  0.00000000000E+00 -0.24174851888E+04  0.27942355501E+04  0.14012557481E+04 0.  0.
        4    1    3    3  502    0 -0.48187931481E+03  0.34924709678E+03 -0.19460090202E+04  0.20349776236E+04  0.12699999809E+01 0.  1.
       -4    1    3    3    0  502  0.48187931481E+03 -0.34924709678E+03 -0.47147616857E+03  0.75925792658E+03  0.12699999809E+01 0. -1.
</event>
<event>
 5   0  0.6959748E-04  0.1406264E+04  0.7818609E-02  0.8949297E-01
       -2   -1    0    0    0  501  0.00000000000E+00  0.00000000000E+00  0.12265790884E+04  0.12265790884E+04  0.25500000920E-02 0.  1.
        2   -1    0    0  501    0  0.00000000000E+00  0.00000000000E+00 -0.40306790480E+03  0.40306790481E+03  0.25500000920E-02 0. -1.
    10030    2    1    2    0    0  0.00000000000E+00  0.00000000000E+00  0.82351118360E+03  0.16296469932E+04  0.14062640765E+04 0.  0.
        5    1    3    3  502    0  0.65702512138E+03 -0.17660420694E+03  0.61743574758E+03  0.91876006031E+03  0.46999998093E+01 0. -1.
       -5    1    3    3    0  502 -0.65702512138E+03  0.17660420694E+03  0.20607543601E+03  0.71088693289E+03  0.46999998093E+01 0.  1.
</event>
<event>
 5   0  0.7065539E-04  0.1402154E+04  0.7818609E-02  0.8952261E-01
        2   -1    0    0  501    0  0.00000000000E+00  0.00000000000E+00  0.10627435120E+04  0.10627435120E+04  0.25500000920E-02 0.  1.
       -2   -1    0    0    0  501  0.00000000000E+00  0.00000000000E+00 -0.46249038249E+03  0.46249038250E+03  0.25500000920E-02 0. -1.
    10030    2    1    2    0    0  0.00000000000E+00  0.00000000000E+00  0.60025312952E+03  0.15252338945E+04  0.14021535627E+04 0.  0.
        1    1    3    3  502    0 -0.30316120028E+03  0.20206937146E+03 -0.35142512178E+03  0.50619992145E+03  0.50400001928E-02 0. -1.
       -1    1    3    3    0  502  0.30316120028E+03 -0.20206937146E+03  0.95167825130E+03  0.10190339731E+04  0.50400001928E-02 0.  1.
</event>
<event>
 5   0  0.7065539E-04  0.1401470E+04  0.7818609E-02  0.8952755E-01
        2   -1    0    0  501    0  0.00000000000E+00  0.00000000000E+00  0.10494226788E+04  0.10494226788E+04  0.25500000920E-02 0.  1.
       -2   -1    0    0    0  501  0.00000000000E+00  0.00000000000E+00 -0.46790461451E+03  0.46790461452E+03  0.25500000920E-02 0. -1.
    10030    2    1    2    0    0  0.00000000000E+00  0.00000000000E+00  0.58151806430E+03  0.15173272933E+04  0.14014702480E+04 0.  0.
        1    1    3    3  502    0 -0.69560260365E+03  0.12667837322E+02  0.38138203312E+03  0.79339505388E+03  0.50400001928E-02 0.  1.
       -1    1    3    3    0  502  0.69560260365E+03 -0.12667837322E+02  0.20013603118E+03  0.72393223945E+03  0.50400001928E-02 0. -1.
</event>
<event>
 5   0  0.3784219E-04  0.1403886E+04  0.7818609E-02  0.8951011E-01
        1   -1    0    0  501    0  0.00000000000E+00  0.00000000000E+00  0.66864922014E+03  0.66864922016E+03  0.50400001928E-02 0.  1.
       -1   -1    0    0    0  501  0.00000000000E+00  0.00000000000E+00 -0.73689422770E+03  0.73689422771E+03  0.50400001928E-02 0. -1.
    10030    2    1    2    0    0  0.00000000000E+00  0.00000000000E+00 -0.68245007560E+02  0.14055434479E+04  0.14038856801E+04 0.  0.
        1    1    3    3  502    0  0.50475980294E+03  0.22881617639E+03  0.39718133366E+03  0.68183012039E+03  0.50400001928E-02 0.  1.
       -1    1    3    3    0  502 -0.50475980294E+03 -0.22881617639E+03 -0.46542634122E+03  0.72371332748E+03  0.50400001928E-02 0. -1.
</event>
<event>
 5   0  0.3756664E-04  0.1351401E+04  0.7818609E-02  0.8989768E-01
        1   -1    0    0  501    0  0.00000000000E+00  0.00000000000E+00  0.78525186264E+03  0.78525186266E+03  0.50400001928E-02 0. -1.
       -1   -1    0    0    0  501  0.00000000000E+00  0.00000000000E+00 -0.58143300818E+03  0.58143300820E+03  0.50400001928E-02 0.  1.
    10030    2    1    2    0    0  0.00000000000E+00  0.00000000000E+00  0.20381885446E+03  0.13666848709E+04  0.13514012768E+04 0.  0.
        2    1    3    3  502    0  0.14362332763E+03  0.53245823193E+03  0.49675023088E+03  0.74222652935E+03  0.25500000920E-02 0. -1.
       -2    1    3    3    0  502 -0.14362332763E+03 -0.53245823193E+03 -0.29293137642E+03  0.62445834151E+03  0.25500000920E-02 0.  1.
</event>
<event>
 5   0  0.7065539E-04  0.1443087E+04  0.7818609E-02  0.8923207E-01
       -2   -1    0    0    0  501  0.00000000000E+00  0.00000000000E+00  0.43789075279E+03  0.43789075280E+03  0.25500000920E-02 0. -1.
        2   -1    0    0  501    0  0.00000000000E+00  0.00000000000E+00 -0.11889379394E+04  0.11889379394E+04  0.25500000920E-02 0.  1.
    10030    2    1    2    0    0  0.00000000000E+00  0.00000000000E+00 -0.75104718664E+03  0.16268286922E+04  0.14430868710E+04 0.  0.
        1    1    3    3  502    0 -0.48699828735E+03  0.51666571932E+03 -0.23065400624E+03  0.74653336699E+03  0.50400001928E-02 0.  1.
       -1    1    3    3    0  502  0.48699828735E+03 -0.51666571932E+03 -0.52039318040E+03  0.88029532524E+03  0.50400001928E-02 0. -1.
</event>
<event>
 5   0  0.3907270E-04  0.1394689E+04  0.7818609E-02  0.8957672E-01
       -1   -1    0    0    0  501  0.00000000000E+00  0.00000000000E+00  0.41495095772E+03  0.41495095775E+03  0.50400001928E-02 0.  1.
        1   -1    0    0  501    0  0.00000000000E+00  0.00000000000E+00 -0.11719206280E+04  0.11719206280E+04  0.50400001928E-02 0. -1.
    10030    2    1    2    0    0  0.00000000000E+00  0.00000000000E+00 -0.75696967026E+03  0.15868715858E+04  0.13946893374E+04 0.  0.
        3    1    3    3  502    0 -0.23270120682E+01  0.49211425891E+03  0.18366884551E+03  0.52527717809E+03  0.10100000352E+00 0. -1.
       -3    1    3    3    0  502  0.23270120682E+01 -0.49211425891E+03 -0.94063851578E+03  0.10615944077E+04  0.10100000352E+00 0.  1.
</event>
<event>
 5   0  0.6959748E-04  0.1399102E+04  0.7818609E-02  0.8954469E-01
       -2   -1    0    0    0  501  0.00000000000E+00  0.00000000000E+00  0.59558013496E+03  0.59558013496E+03  0.25500000920E-02 0.  1.
        2   -1    0    0  501    0  0.00000000000E+00  0.00000000000E+00 -0.82167245192E+03  0.82167245192E+03  0.25500000920E-02 0. -1.
    10030    2    1    2    0    0  0.00000000000E+00  0.00000000000E+00 -0.22609231696E+03  0.14172525869E+04  0.13991022690E+04 0.  0.
        5    1    3    3  502    0 -0.26148441067E+03 -0.60162101832E+03  0.13306195054E+03  0.66936501207E+03  0.46999998093E+01 0.  1.
       -5    1    3    3    0  502  0.26148441067E+03  0.60162101832E+03 -0.35915426750E+03  0.74788757482E+03  0.46999998093E+01 0. -1.
</event>
<event>
 5   0  0.3907270E-04  0.1395526E+04  0.7818609E-02  0.8957063E-01
        1   -1    0    0  501    0  0.00000000000E+00  0.00000000000E+00  0.50087854449E+03  0.50087854451E+03  0.50400001928E-02 0. -1.
       -1   -1    0    0    0  501  0.00000000000E+00  0.00000000000E+00 -0.97203857588E+03  0.97203857590E+03  0.50400001928E-02 0.  1.
    10030    2    1    2    0    0  0.00000000000E+00  0.00000000000E+00 -0.47116003140E+03  0.14729171204E+04  0.13955260902E+04 0.  0.
        3    1    3    3  502    0  0.29853404476E+03  0.55212679366E+03  0.86129444125E+02  0.63354941678E+03  0.10100000352E+00 0. -1.
       -3    1    3    3    0  502 -0.29853404476E+03 -0.55212679366E+03 -0.55728947552E+03  0.83936770363E+03  0.10100000352E+00 0.  1.
</event>
<event>
 5   0  0.6870835E-04  0.1363561E+04  0.7818609E-02  0.8980626E-01
        2   -1    0    0  501    0  0.00000000000E+00  0.00000000000E+00  0.88658161905E+03  0.88658161905E+03  0.25500000920E-02 0.  1.
       -2   -1    0    0    0  501  0.00000000000E+00  0.00000000000E+00 -0.52428871944E+03  0.52428871944E+03  0.25500000920E-02 0. -1.
    10030    2    1    2    0    0  0.00000000000E+00  0.00000000000E+00  0.36229289961E+03  0.14108703385E+04  0.13635611343E+04 0.  0.
        2    1    3    3  502    0  0.37542567502E+03 -0.14684940883E+02  0.76980048890E+03  0.85659376467E+03  0.25500000920E-02 0.  1.
       -2    1    3    3    0  502 -0.37542567502E+03  0.14684940883E+02 -0.40750758929E+03  0.55427657382E+03  0.25500000920E-02 0. -1.
</event>
<event>
 5   0  0.3907093E-04  0.1391173E+04  0.7818609E-02  0.8960233E-01
        1   -1    0    0  501    0  0.00000000000E+00  0.00000000000E+00  0.61701329777E+03  0.61701329779E+03  0.50400001928E-02 0.  1.
       -1   -1    0    0    0  501  0.00000000000E+00  0.00000000000E+00 -0.78416542583E+03  0.78416542585E+03  0.50400001928E-02 0. -1.
    10030    2    1    2    0    0  0.00000000000E+00  0.00000000000E+00 -0.16715212806E+03  0.14011787236E+04  0.13911728799E+04 0.  0.
        4    1    3    3  502    0  0.26477097538E+03  0.55048513667E+03  0.25153506086E+03  0.66061263600E+03  0.12699999809E+01 0.  1.
       -4    1    3    3    0  502 -0.26477097538E+03 -0.55048513667E+03 -0.41868718892E+03  0.74056608764E+03  0.12699999809E+01 0. -1.
</event>
<event>
 5   0  0.3977658E-04  0.1391839E+04  0.7818609E-02  0.8959747E-01
        1   -1    0    0  501    0  0.00000000000E+00  0.00000000000E+00  0.50337885752E+03  0.50337885754E+03  0.50400001928E-02 0.  1.
       -1   -1    0    0    0  501  0.00000000000E+00  0.00000000000E+00 -0.96210566477E+03  0.96210566479E+03  0.50400001928E-02 0. -1.
    10030    2    1    2    0    0  0.00000000000E+00  0.00000000000E+00 -0.45872680726E+03  0.14654845223E+04  0.13918385688E+04 0.  0.
        5    1    3    3  502    0 -0.48850243574E+03  0.10377063110E+03  0.28092309963E+03  0.57301208670E+03  0.46999998093E+01 0.  1.
       -5    1    3    3    0  502  0.48850243574E+03 -0.10377063110E+03 -0.73964990689E+03  0.89247243563E+03  0.46999998093E+01 0. -1.
</event>
<event>
 5   0  0.3784219E-04  0.1402740E+04  0.7818609E-02  0.8951837E-01
        1   -1    0    0  501    0  0.00000000000E+00  0.00000000000E+00  0.16615478798E+04  0.16615478798E+04  0.50400001928E-02 0.  1.
       -1   -1    0    0    0  501  0.00000000000E+00  0.00000000000E+00 -0.29606139493E+03  0.29606139497E+03  0.50400001928E-02 0. -1.
    10030    2    1    2    0    0  0.00000000000E+00  0.00000000000E+00  0.13654864848E+04  0.19576092747E+04  0.14027404365E+04 0.  0.
        1    1    3    3  502    0  0.19672903902E+03  0.50341325195E+03  0.58952687591E+02  0.54369351332E+03  0.50400001928E-02 0. -1.
       -1    1    3    3    0  502 -0.19672903902E+03 -0.50341325195E+03  0.13065337972E+04  0.14139157614E+04  0.50400001928E-02 0.  1.
</event>
<event>
 5   0  0.3756664E-04  0.1429504E+04  0.7818609E-02  0.8932735E-01
        1   -1    0    0  501    0  0.00000000000E+00  0.00000000000E+00  0.15270197505E+04  0.15270197505E+04  0.50400001928E-02 0. -1.
       -1   -1    0    0    0  501  0.00000000000E+00  0.00000000000E+00 -0.33455368535E+03  0.33455368538E+03  0.50400001928E-02 0.  1.
    10030    2    1    2    0    0  0.00000000000E+00  0.00000000000E+00  0.11924660651E+04  0.18615734359E+04  0.14295035294E+04 0.  0.
        2    1    3    3  502    0 -0.54270399550E+03 -0.10194014251E+03  0.11872181457E+04  0.13093534072E+04  0.25500000920E-02 0. -1.
       -2    1    3    3    0  502  0.54270399550E+03  0.10194014251E+03  0.52479193865E+01  0.55222002866E+03  0.25500000920E-02 0.  1.
</event>
<event>
 5   0  0.7296966E-04  0.1383776E+04  0.7818609E-02  0.8965646E-01
        2   -1    0    0  501    0  0.00000000000E+00  0.00000000000E+00  0.94895891591E+03  0.94895891591E+03  0.25500000920E-02 0.  1.
       -2   -1    0    0    0  501  0.00000000000E+00  0.00000000000E+00 -0.50445727118E+03  0.50445727119E+03  0.25500000920E-02 0. -1.
    10030    2    1    2    0    0  0.00000000000E+00  0.00000000000E+00  0.44450164473E+03  0.14534161871E+04  0.13837763189E+04 0.  0.
        3    1    3    3  502    0  0.60287449242E+02  0.54847960868E+03 -0.21618290793E+03  0.59262088856E+03  0.10100000352E+00 0. -1.
       -3    1    3    3    0  502 -0.60287449242E+02 -0.54847960868E+03  0.66068455265E+03  0.86079529854E+03  0.10100000352E+00 0.  1.
</event>
<event>
 5   0  0.7065539E-04  0.1382938E+04  0.7818609E-02  0.8966262E-01
        2   -1    0    0  501    0  0.00000000000E+00  0.00000000000E+00  0.51069556025E+03  0.51069556026E+03  0.25500000920E-02 0. -1.
       -2   -1    0    0    0  501  0.00000000000E+00  0.00000000000E+00 -0.93623189316E+03  0.93623189316E+03  0.25500000920E-02 0.  1.
    10030    2    1    2    0    0  0.00000000000E+00  0.00000000000E+00 -0.42553633291E+03  0.14469274534E+04  0.13829381349E+04 0.  0.
        1    1    3    3  502    0  0.28194877379E+03 -0.56693928359E+02  0.44515231625E+03  0.52997160041E+03  0.50400001928E-02 0. -1.
       -1    1    3    3    0  502 -0.28194877379E+03  0.56693928359E+02 -0.87068864916E+03  0.91695585300E+03  0.50400001928E-02 0.  1.
</event>
<event>
 5   0  0.3756664E-04  0.1375640E+04  0.7818609E-02  0.8971643E-01
       -1   -1    0    0    0  501  0.00000000000E+00  0.00000000000E+00  0.64937132317E+03  0.64937132319E+03  0.50400001928E-02 0. -1.
        1   -1    0    0  501    0  0.00000000000E+00  0.00000000000E+00 -0.72854500368E+03  0.72854500369E+03  0.50400001928E-02 0.  1.
    10030    2    1    2    0    0  0.00000000000E+00  0.00000000000E+00 -0.79173680506E+02  0.13779163269E+04  0.13756398265E+04 0.  0.
        2    1    3    3  502    0 -0.28315645993E+03  0.51072450800E+03 -0.40361518745E+03  0.70987486462E+03  0.25500000920E-02 0.  1.
       -2    1    3    3    0  502  0.28315645993E+03 -0.51072450800E+03  0.32444150695E+03  0.66804146227E+03  0.25500000920E-02 0. -1.
</event>
<event>
 5   0  0.3907093E-04  0.1402025E+04  0.7818609E-02  0.8952354E-01
        1   -1    0    0  501    0  0.00000000000E+00  0.00000000000E+00  0.81712358752E+03  0.81712358754E+03  0.50400001928E-02 0. -1.
       -1   -1    0    0    0  501  0.00000000000E+00  0.00000000000E+00 -0.60140036436E+03  0.60140036438E+03  0.50400001928E-02 0.  1.
    10030    2    1    2    0    0  0.00000000000E+00  0.00000000000E+00  0.21572322316E+03  0.14185239519E+04  0.14020248547E+04 0.  0.
        4    1    3    3  502    0  0.17333043859E+02 -0.24814902871E+03 -0.55524288980E+03  0.60841980115E+03  0.12699999809E+01 0.  1.
       -4    1    3    3    0  502 -0.17333043859E+02  0.24814902871E+03  0.77096611296E+03  0.81010415077E+03  0.12699999809E+01 0. -1.
</event>
<event>
 5   0  0.3907270E-04  0.1361443E+04  0.7818609E-02  0.8982211E-01
        1   -1    0    0  501    0  0.00000000000E+00  0.00000000000E+00  0.82009284740E+03  0.82009284741E+03  0.50400001928E-02 0. -1.
       -1   -1    0    0    0  501  0.00000000000E+00  0.00000000000E+00 -0.56503607733E+03  0.56503607735E+03  0.50400001928E-02 0.  1.
    10030    2    1    2    0    0  0.00000000000E+00  0.00000000000E+00  0.25505677007E+03  0.13851289248E+04  0.13614434187E+04 0.  0.
        3    1    3    3  502    0  0.34683166658E+03  0.56828488844E+03 -0.16863620272E+02  0.66597620923E+03  0.10100000352E+00 0.  1.
       -3    1    3    3    0  502 -0.34683166658E+03 -0.56828488844E+03  0.27192039034E+03  0.71915271553E+03  0.10100000352E+00 0. -1.
</event>
<event>
 5   0  0.3907093E-04  0.1382399E+04  0.7818609E-02  0.8966658E-01
        1   -1    0    0  501    0  0.00000000000E+00  0.00000000000E+00  0.68188077249E+03  0.68188077251E+03  0.50400001928E-02 0. -1.
       -1   -1    0    0    0  501  0.00000000000E+00  0.00000000000E+00 -0.70064591240E+03  0.70064591242E+03  0.50400001928E-02 0.  1.
    10030    2    1    2    0    0  0.00000000000E+00  0.00000000000E+00 -0.18765139918E+02  0.13825266849E+04  0.13823993287E+04 0.  0.
        4    1    3    3  502    0 -0.56380280021E+03  0.23110066240E+03 -0.33571655320E+03  0.69569269846E+03  0.12699999809E+01 0.  1.
       -4    1    3    3    0  502  0.56380280021E+03 -0.23110066240E+03  0.31695141329E+03  0.68683398647E+03  0.12699999809E+01 0. -1.
</event>
<event>
 5   0  0.6870835E-04  0.1409281E+04  0.7818609E-02  0.8947128E-01
        2   -1    0    0  501    0  0.00000000000E+00  0.00000000000E+00  0.11903915879E+04  0.11903915879E+04  0.25500000920E-02 0.  1.
       -2   -1    0    0    0  501  0.00000000000E+00  0.00000000000E+00 -0.41710498815E+03  0.41710498815E+03  0.25500000920E-02 0. -1.
    10030    2    1    2    0    0  0.00000000000E+00  0.00000000000E+00  0.77328659970E+03  0.16074965760E+04  0.14092810495E+04 0.  0.
        2    1    3    3  502    0 -0.39299550657E+02 -0.24391195590E+02  0.11886581336E+04  0.11895577093E+04  0.25500000920E-02 0.  1.
       -2    1    3    3    0  502  0.39299550657E+02  0.24391195590E+02 -0.41537153392E+03  0.41793886671E+03  0.25500000920E-02 0. -1.
</event>
<event>
 5   0  0.7065539E-04  0.1396487E+04  0.7818609E-02  0.8956365E-01
       -2   -1    0    0    0  501  0.00000000000E+00  0.00000000000E+00  0.27838372945E+03  0.27838372946E+03  0.25500000920E-02 0. -1.
        2   -1    0    0  501    0  0.00000000000E+00  0.00000000000E+00 -0.17513390933E+04  0.17513390933E+04  0.25500000920E-02 0.  1.
    10030    2    1    2    0    0  0.00000000000E+00  0.00000000000E+00 -0.14729553639E+04  0.20297228228E+04  0.13964874627E+04 0.  0.
        1    1    3    3  502    0  0.94027506079E+02 -0.55925697219E+03 -0.13285413345E+04  0.14445177777E+04  0.50400001928E-02 0.  1.
       -1    1    3    3    0  502 -0.94027506079E+02  0.55925697219E+03 -0.14441402944E+03  0.58520504507E+03  0.50400001928E-02 0. -1.
</event>
<event>
 5   0  0.2660250E-04  0.1361232E+04  0.7818609E-02  0.8982369E-01
       -3   -1    0    0    0  501  0.00000000000E+00  0.00000000000E+00  0.91031535282E+03  0.91031535842E+03  0.10100000352E+00 0.  1.
        3   -1    0    0  501    0  0.00000000000E+00  0.00000000000E+00 -0.50887636794E+03  0.50887637796E+03  0.10100000352E+00 0. -1.
    10030    2    1    2    0    0  0.00000000000E+00  0.00000000000E+00  0.40143898487E+03  0.14191917364E+04  0.13612317679E+04 0.  0.
        5    1    3    3  502    0 -0.13188436591E+03  0.65120012769E+03  0.46923004218E+02  0.66609229885E+03  0.46999998093E+01 0. -1.
       -5    1    3    3    0  502  0.13188436591E+03 -0.65120012769E+03  0.35451598066E+03  0.75309943753E+03  0.46999998093E+01 0.  1.
</event>
<event>
 5   0  0.3784219E-04  0.1398183E+04  0.7818609E-02  0.8955135E-01
        1   -1    0    0  501    0  0.00000000000E+00  0.00000000000E+00  0.13122154561E+04  0.13122154561E+04  0.50400001928E-02 0.  1.
       -1   -1    0    0    0  501  0.00000000000E+00  0.00000000000E+00 -0.37244568211E+03  0.37244568215E+03  0.50400001928E-02 0. -1.
    10030    2    1    2    0    0  0.00000000000E+00  0.00000000000E+00  0.93976977395E+03  0.16846611382E+04  0.13981830791E+04 0.  0.
        1    1    3    3  502    0 -0.40738307914E+03 -0.41430451958E+03  0.93827655527E+03  0.11036177338E+04  0.50400001928E-02 0.  1.
       -1    1    3    3    0  502  0.40738307914E+03  0.41430451958E+03  0.14932186772E+01  0.58104340444E+03  0.50400001928E-02 0. -1.
</event>
<event>
 5   0  0.6870835E-04  0.1351544E+04  0.7818609E-02  0.8989660E-01
       -2   -1    0    0    0  501  0.00000000000E+00  0.00000000000E+00  0.57145272898E+03  0.57145272899E+03  0.25500000920E-02 0.  1.
        2   -1    0    0  501    0  0.00000000000E+00  0.00000000000E+00 -0.79913509778E+03  0.79913509778E+03  0.25500000920E-02 0. -1.
    10030    2    1    2    0    0  0.00000000000E+00  0.00000000000E+00 -0.22768236880E+03  0.13705878268E+04  0.13515442020E+04 0.  0.
        2    1    3    3  502    0 -0.21937549711E+03  0.33554175362E+03 -0.66552312063E+03  0.77693944504E+03  0.25500000920E-02 0. -1.
       -2    1    3    3    0  502  0.21937549711E+03 -0.33554175362E+03  0.43784075183E+03  0.59364838173E+03  0.25500000920E-02 0.  1.
</event>
<event>
 5   0  0.3784219E-04  0.1378458E+04  0.7818609E-02  0.8969561E-01
       -1   -1    0    0    0  501  0.00000000000E+00  0.00000000000E+00  0.24103310805E+03  0.24103310810E+03  0.50400001928E-02 0.  1.
        1   -1    0    0  501    0  0.00000000000E+00  0.00000000000E+00 -0.19708349257E+04  0.19708349257E+04  0.50400001928E-02 0. -1.
    10030    2    1    2    0    0  0.00000000000E+00  0.00000000000E+00 -0.17298018177E+04  0.22118680338E+04  0.13784577870E+04 0.  0.
        1    1    3    3  502    0  0.56277921369E+03 -0.17807095236E+03 -0.29395602077E+03  0.65942387703E+03  0.50400001928E-02 0.  1.
       -1    1    3    3    0  502 -0.56277921369E+03  0.17807095236E+03 -0.14358457969E+04  0.15524441568E+04  0.50400001928E-02 0. -1.
</event>
<event>
 5   0  0.7065539E-04  0.1398723E+04  0.7818609E-02  0.8954744E-01
       -2   -1    0    0    0  501  0.00000000000E+00  0.00000000000E+00  0.18097269838E+04  0.18097269838E+04  0.25500000920E-02 0.  1.
        2   -1    0    0  501    0  0.00000000000E+00  0.00000000000E+00 -0.27026520900E+03  0.27026520902E+03  0.25500000920E-02 0. -1.
    10030    2    1    2    0    0  0.00000000000E+00  0.00000000000E+00  0.15394617748E+04  0.20799921928E+04  0.13987226194E+04 0.  0.
        1    1    3    3  502    0 -0.24126935940E+03  0.87734912836E+02  0.17371215037E+04  0.17559895892E+04  0.50400001928E-02 0.  1.
       -1    1    3    3    0  502  0.24126935940E+03 -0.87734912836E+02 -0.19765972889E+03  0.32400260364E+03  0.50400001928E-02 0. -1.
</event>
<event>
 5   0  0.3907270E-04  0.1395303E+04  0.7818609E-02  0.8957225E-01
       -1   -1    0    0    0  501  0.00000000000E+00  0.00000000000E+00  0.33751109366E+03  0.33751109370E+03  0.50400001928E-02 0.  1.
        1   -1    0    0  501    0  0.00000000000E+00  0.00000000000E+00 -0.14420796328E+04  0.14420796328E+04  0.50400001928E-02 0. -1.
    10030    2    1    2    0    0  0.00000000000E+00  0.00000000000E+00 -0.11045685391E+04  0.17795907265E+04  0.13953033706E+04 0.  0.
        3    1    3    3  502    0 -0.28681963282E+03 -0.29085047317E+03 -0.12736082102E+04  0.13375116384E+04  0.10100000352E+00 0. -1.
       -3    1    3    3    0  502  0.28681963282E+03  0.29085047317E+03  0.16903967110E+03  0.44207908808E+03  0.10100000352E+00 0.  1.
</event>
<event>
 5   0  0.6959748E-04  0.1245522E+04  0.7818609E-02  0.9073918E-01
        2   -1    0    0  501    0  0.00000000000E+00  0.00000000000E+00  0.73956084989E+03  0.73956084989E+03  0.25500000920E-02 0. -1.
       -2   -1    0    0    0  501  0.00000000000E+00  0.00000000000E+00 -0.52440771567E+03  0.52440771567E+03  0.25500000920E-02 0.  1.
    10030    2    1    2    0    0  0.00000000000E+00  0.00000000000E+00  0.21515313422E+03  0.12639685656E+04  0.12455222453E+04 0.  0.
        5    1    3    3  502    0  0.38562037075E+03 -0.39570651541E+03 -0.18394538292E+03  0.58236132304E+03  0.46999998093E+01 0. -1.
       -5    1    3    3    0  502 -0.38562037075E+03  0.39570651541E+03  0.39909851714E+03  0.68160724252E+03  0.46999998093E+01 0.  1.
</event>
<event>
 5   0  0.7065539E-04  0.1441577E+04  0.7818609E-02  0.8924261E-01
        2   -1    0    0  501    0  0.00000000000E+00  0.00000000000E+00  0.22841799745E+04  0.22841799745E+04  0.25500000920E-02 0.  1.
       -2   -1    0    0    0  501  0.00000000000E+00  0.00000000000E+00 -0.22744983716E+03  0.22744983717E+03  0.25500000920E-02 0. -1.
    10030    2    1    2    0    0  0.00000000000E+00  0.00000000000E+00  0.20567301374E+04  0.25116298117E+04  0.14415774183E+04 0.  0.
        1    1    3    3  502    0  0.46050710394E+03 -0.54769894501E+02  0.19897333525E+04  0.20430627372E+04  0.50400001928E-02 0.  1.
       -1    1    3    3    0  502 -0.46050710394E+03  0.54769894501E+02  0.66996784931E+02  0.46856707454E+03  0.50400001928E-02 0. -1.
</event>
<event>
 5   0  0.3756664E-04  0.1394094E+04  0.7818609E-02  0.8958105E-01
       -1   -1    0    0    0  501  0.00000000000E+00  0.00000000000E+00  0.40744921458E+03  0.40744921461E+03  0.50400001928E-02 0. -1.
        1   -1    0    0  501    0  0.00000000000E+00  0.00000000000E+00 -0.11924791351E+04  0.11924791351E+04  0.50400001928E-02 0.  1.
    10030    2    1    2    0    0  0.00000000000E+00  0.00000000000E+00 -0.78502992048E+03  0.15999283497E+04  0.13940942393E+04 0.  0.
        2    1    3    3  502    0 -0.64934507458E+03  0.25055098557E+03 -0.43621402563E+03  0.82140580617E+03  0.25500000920E-02 0.  1.
       -2    1    3    3    0  502  0.64934507458E+03 -0.25055098557E+03 -0.34881589485E+03  0.77852254351E+03  0.25500000920E-02 0. -1.
</event>
<event>
 5   0  0.6870835E-04  0.1321050E+04  0.7818609E-02  0.9013037E-01
        2   -1    0    0  501    0  0.00000000000E+00  0.00000000000E+00  0.10888483468E+04  0.10888483468E+04  0.25500000920E-02 0.  1.
       -2   -1    0    0    0  501  0.00000000000E+00  0.00000000000E+00 -0.40069268411E+03  0.40069268412E+03  0.25500000920E-02 0. -1.
    10030    2    1    2    0    0  0.00000000000E+00  0.00000000000E+00  0.68815566265E+03  0.14895410309E+04  0.13210504406E+04 0.  0.
        2    1    3    3  502    0  0.41879535217E+03  0.51075133243E+03  0.33721035684E+03  0.74159779891E+03  0.25500000920E-02 0. -1.
       -2    1    3    3    0  502 -0.41879535217E+03 -0.51075133243E+03  0.35094530581E+03  0.74794323197E+03  0.25500000920E-02 0.  1.
</event>
<event>
 5   0  0.7065539E-04  0.1406841E+04  0.7818609E-02  0.8948881E-01
        2   -1    0    0  501    0  0.00000000000E+00  0.00000000000E+00  0.13035287728E+04  0.13035287728E+04  0.25500000920E-02 0.  1.
       -2   -1    0    0    0  501  0.00000000000E+00  0.00000000000E+00 -0.37958541494E+03  0.37958541495E+03  0.25500000920E-02 0. -1.
    10030    2    1    2    0    0  0.00000000000E+00  0.00000000000E+00  0.92394335786E+03  0.16831141877E+04  0.14068411568E+04 0.  0.
        1    1    3    3  502    0 -0.53789582344E+03 -0.41968352049E+03  0.66687860854E+03  0.95404048803E+03  0.50400001928E-02 0.  1.
       -1    1    3    3    0  502  0.53789582344E+03  0.41968352049E+03  0.25706474932E+03  0.72907369971E+03  0.50400001928E-02 0. -1.
</event>
<event>
 5   0  0.3756664E-04  0.1403425E+04  0.7818609E-02  0.8951343E-01
        1   -1    0    0  501    0  0.00000000000E+00  0.00000000000E+00  0.92815751565E+03  0.92815751567E+03  0.50400001928E-02 0. -1.
       -1   -1    0    0    0  501  0.00000000000E+00  0.00000000000E+00 -0.53051372459E+03  0.53051372461E+03  0.50400001928E-02 0.  1.
    10030    2    1    2    0    0  0.00000000000E+00  0.00000000000E+00  0.39764379107E+03  0.14586712403E+04  0.14034248119E+04 0.  0.
        2    1    3    3  502    0  0.33125230437E+03 -0.35294348338E+03 -0.32921575245E+03  0.58538893334E+03  0.25500000920E-02 0.  1.
       -2    1    3    3    0  502 -0.33125230437E+03  0.35294348338E+03  0.72685954351E+03  0.87328230694E+03  0.25500000920E-02 0. -1.
</event>
<event>
 5   0  0.3907093E-04  0.1384588E+04  0.7818609E-02  0.8965051E-01
       -1   -1    0    0    0  501  0.00000000000E+00  0.00000000000E+00  0.78309056237E+03  0.78309056239E+03  0.50400001928E-02 0.  1.
        1   -1    0    0  501    0  0.00000000000E+00  0.00000000000E+00 -0.61202468643E+03  0.61202468645E+03  0.50400001928E-02 0. -1.
    10030    2    1    2    0    0  0.00000000000E+00  0.00000000000E+00  0.17106587595E+03  0.13951152488E+04  0.13845876728E+04 0.  0.
        4    1    3    3  502    0  0.80188134676E+01 -0.68992513938E+02 -0.60850387151E+03  0.61245640081E+03  0.12699999809E+01 0. -1.
       -4    1    3    3    0  502 -0.80188134676E+01  0.68992513938E+02  0.77956974745E+03  0.78265884803E+03  0.12699999809E+01 0.  1.
</event>
<event>
 5   0  0.6959748E-04  0.1376843E+04  0.7818609E-02  0.8970753E-01
       -2   -1    0    0    0  501  0.00000000000E+00  0.00000000000E+00  0.27207397474E+03  0.27207397476E+03  0.25500000920E-02 0.  1.
        2   -1    0    0  501    0  0.00000000000E+00  0.00000000000E+00 -0.17418944642E+04  0.17418944642E+04  0.25500000920E-02 0. -1.
    10030    2    1    2    0    0  0.00000000000E+00  0.00000000000E+00 -0.14698204895E+04  0.20139684390E+04  0.13768429838E+04 0.  0.
        5    1    3    3  502    0  0.79916220097E+02 -0.26376652518E+03  0.18782796344E+03  0.33355781491E+03  0.46999998093E+01 0.  1.
       -5    1    3    3    0  502 -0.79916220097E+02  0.26376652518E+03 -0.16576484529E+04  0.16804106241E+04  0.46999998093E+01 0. -1.
</event>
<event>
 5   0  0.3907270E-04  0.1406111E+04  0.7818609E-02  0.8949407E-01
        1   -1    0    0  501    0  0.00000000000E+00  0.00000000000E+00  0.20698946507E+04  0.20698946507E+04  0.50400001928E-02 0. -1.
       -1   -1    0    0    0  501  0.00000000000E+00  0.00000000000E+00 -0.23879809963E+03  0.23879809969E+03  0.50400001928E-02 0.  1.
    10030    2    1    2    0    0  0.00000000000E+00  0.00000000000E+00  0.18310965510E+04  0.23086927503E+04  0.14061108194E+04 0.  0.
        3    1    3    3  502    0 -0.61314354474E+03 -0.81387391981E+02  0.36675581540E+03  0.71908188154E+03  0.10100000352E+00 0.  1.
       -3    1    3    3    0  502  0.61314354474E+03  0.81387391981E+02  0.14643407356E+04  0.15896108688E+04  0.10100000352E+00 0. -1.
</event>
<event>
 5   0  0.3784219E-04  0.1440984E+04  0.7818609E-02  0.8924675E-01
        1   -1    0    0  501    0  0.00000000000E+00  0.00000000000E+00  0.12904523682E+04  0.12904523682E+04  0.50400001928E-02 0.  1.
       -1   -1    0    0    0  501  0.00000000000E+00  0.00000000000E+00 -0.40226891144E+03  0.40226891147E+03  0.50400001928E-02 0. -1.
    10030    2    1    2    0    0  0.00000000000E+00  0.00000000000E+00  0.88818345674E+03  0.16927212797E+04  0.14409842046E+04 0.  0.
        1    1    3    3  502    0  0.47055607533E+03  0.49001568023E+03  0.16223645264E+03  0.69846907841E+03  0.50400001928E-02 0. -1.
       -1    1    3    3    0  502 -0.47055607533E+03 -0.49001568023E+03  0.72594700410E+03  0.99425220125E+03  0.50400001928E-02 0.  1.
</event>
<event>
 5   0  0.7296966E-04  0.1404121E+04  0.7818609E-02  0.8950841E-01
        2   -1    0    0  501    0  0.00000000000E+00  0.00000000000E+00  0.93893492925E+03  0.93893492926E+03  0.25500000920E-02 0. -1.
       -2   -1    0    0    0  501  0.00000000000E+00  0.00000000000E+00 -0.52494498263E+03  0.52494498263E+03  0.25500000920E-02 0.  1.
    10030    2    1    2    0    0  0.00000000000E+00  0.00000000000E+00  0.41398994663E+03  0.14638799119E+04  0.14041213340E+04 0.  0.
        3    1    3    3  502    0  0.24997492989E+03  0.62270361911E+03  0.42228262623E+03  0.79282399651E+03  0.10100000352E+00 0.  1.
       -3    1    3    3    0  502 -0.24997492989E+03 -0.62270361911E+03 -0.82926796074E+01  0.67105591538E+03  0.10100000352E+00 0. -1.
</event>
<event>
 5   0  0.6959748E-04  0.1401996E+04  0.7818609E-02  0.8952375E-01
       -2   -1    0    0    0  501  0.00000000000E+00  0.00000000000E+00  0.77777494607E+03  0.77777494607E+03  0.25500000920E-02 0. -1.
        2   -1    0    0  501    0  0.00000000000E+00  0.00000000000E+00 -0.63179980242E+03  0.63179980243E+03  0.25500000920E-02 0.  1.
    10030    2    1    2    0    0  0.00000000000E+00  0.00000000000E+00  0.14597514365E+03  0.14095747485E+04  0.14019958021E+04 0.  0.
        5    1    3    3  502    0  0.88808637182E+01 -0.11774198622E+03  0.76768874814E+03  0.77673042240E+03  0.46999998093E+01 0. -1.
       -5    1    3    3    0  502 -0.88808637182E+01  0.11774198622E+03 -0.62171360450E+03  0.63284432610E+03  0.46999998093E+01 0.  1.
</event>
<event>
 5   0  0.3977658E-04  0.1403776E+04  0.7818609E-02  0.8951089E-01
        1   -1    0    0  501    0  0.00000000000E+00  0.00000000000E+00  0.66660822123E+03  0.66660822125E+03  0.50400001928E-02 0. -1.
       -1   -1    0    0    0  501  0.00000000000E+00  0.00000000000E+00 -0.73903543064E+03  0.73903543066E+03  0.50400001928E-02 0.  1.
    10030    2    1    2    0    0  0.00000000000E+00  0.00000000000E+00 -0.72427209413E+02  0.14056436519E+04  0.14037764692E+04 0.  0.
        5    1    3    3  502    0  0.31577708407E+03  0.43165431809E+03 -0.49133371388E+03  0.72627234943E+03  0.46999998093E+01 0.  1.
       -5    1    3    3    0  502 -0.31577708407E+03 -0.43165431809E+03  0.41890650447E+03  0.67937130248E+03  0.46999998093E+01 0. -1.
</event>
<event>
 5   0  0.3756664E-04  0.1474329E+04  0.7818609E-02  0.8901706E-01
       -1   -1    0    0    0  501  0.00000000000E+00  0.00000000000E+00  0.34547700959E+03  0.34547700963E+03  0.50400001928E-02 0.  1.
        1   -1    0    0  501    0  0.00000000000E+00  0.00000000000E+00 -0.15729299984E+04  0.15729299984E+04  0.50400001928E-02 0. -1.
    10030    2    1    2    0    0  0.00000000000E+00  0.00000000000E+00 -0.12274529888E+04  0.19184070080E+04  0.14743285281E+04 0.  0.
        2    1    3    3  502    0 -0.34691442892E+03  0.55136473473E+03 -0.16474688857E+03  0.67193320278E+03  0.25500000920E-02 0.  1.
       -2    1    3    3    0  502  0.34691442892E+03 -0.55136473473E+03 -0.10627061002E+04  0.12464738053E+04  0.25500000920E-02 0. -1.
</event>
<event>
 5   0  0.6895048E-04  0.1475359E+04  0.7818609E-02  0.8901006E-01
       -2   -1    0    0    0  501  0.00000000000E+00  0.00000000000E+00  0.14211000623E+04  0.14211000623E+04  0.25500000920E-02 0. -1.
        2   -1    0    0  501    0  0.00000000000E+00  0.00000000000E+00 -0.38292236291E+03  0.38292236292E+03  0.25500000920E-02 0.  1.
    10030    2    1    2    0    0  0.00000000000E+00  0.00000000000E+00  0.10381776994E+04  0.18040224252E+04  0.14753589310E+04 0.  0.
        4    1    3    3  502    0  0.61854949421E+03 -0.18948537667E+03  0.85633031776E+02  0.65256632903E+03  0.12699999809E+01 0.  1.
       -4    1    3    3    0  502 -0.61854949421E+03  0.18948537667E+03  0.95254466762E+03  0.11514560962E+04  0.12699999809E+01 0. -1.
</event>
<event>
 5   0  0.6959748E-04  0.1411821E+04  0.7818609E-02  0.8945306E-01
       -2   -1    0    0    0  501  0.00000000000E+00  0.00000000000E+00  0.95613557329E+03  0.95613557329E+03  0.25500000920E-02 0. -1.
        2   -1    0    0  501    0  0.00000000000E+00  0.00000000000E+00 -0.52117051364E+03  0.52117051365E+03  0.25500000920E-02 0.  1.
    10030    2    1    2    0    0  0.00000000000E+00  0.00000000000E+00  0.43496505965E+03  0.14773060869E+04  0.14118210479E+04 0.  0.
        5    1    3    3  502    0  0.62916120210E+03 -0.27635497636E+03  0.48525837360E+02  0.68890691539E+03  0.46999998093E+01 0.  1.
       -5    1    3    3    0  502 -0.62916120210E+03  0.27635497636E+03  0.38643922229E+03  0.78839917155E+03  0.46999998093E+01 0. -1.
</event>
<event>
 5   0  0.3784219E-04  0.1392849E+04  0.7818609E-02  0.8959011E-01
        1   -1    0    0  501    0  0.00000000000E+00  0.00000000000E+00  0.83248629486E+03  0.83248629488E+03  0.50400001928E-02 0.  1.
       -1   -1    0    0    0  501  0.00000000000E+00  0.00000000000E+00 -0.58260073794E+03  0.58260073796E+03  0.50400001928E-02 0. -1.
    10030    2    1    2    0    0  0.00000000000E+00  0.00000000000E+00  0.24988555692E+03  0.14150870328E+04  0.13928490654E+04 0.  0.
        1    1    3    3  502    0  0.40931440806E+03 -0.33792920731E+01  0.69737205732E+03  0.80862691682E+03  0.50400001928E-02 0.  1.
       -1    1    3    3    0  502 -0.40931440806E+03  0.33792920731E+01 -0.44748650039E+03  0.60646011602E+03  0.50400001928E-02 0. -1.
</event>
<event>
 5   0  0.6870835E-04  0.1411247E+04  0.7818609E-02  0.8945717E-01
        2   -1    0    0  501    0  0.00000000000E+00  0.00000000000E+00  0.13246710849E+04  0.13246710850E+04  0.25500000920E-02 0. -1.
       -2   -1    0    0    0  501  0.00000000000E+00  0.00000000000E+00 -0.37587026602E+03  0.37587026603E+03  0.25500000920E-02 0.  1.
    10030    2    1    2    0    0  0.00000000000E+00  0.00000000000E+00  0.94880081893E+03  0.17005413510E+04  0.14112469282E+04 0.  0.
        2    1    3    3  502    0 -0.32652650459E+03 -0.50322052852E+03  0.92212269016E+03  0.11000730495E+04  0.25500000920E-02 0. -1.
       -2    1    3    3    0  502  0.32652650459E+03  0.50322052852E+03  0.26678128773E+02  0.60046830148E+03  0.25500000920E-02 0.  1.
</event>
<event>
 5   0  0.3756664E-04  0.1553106E+04  0.7818609E-02  0.8849886E-01
        1   -1    0    0  501    0  0.00000000000E+00  0.00000000000E+00  0.11392992019E+04  0.11392992019E+04  0.50400001928E-02 0. -1.
       -1   -1    0    0    0  501  0.00000000000E+00  0.00000000000E+00 -0.52930299832E+03  0.52930299835E+03  0.50400001928E-02 0.  1.
    10030    2    1    2    0    0  0.00000000000E+00  0.00000000000E+00  0.60999620361E+03  0.16686022003E+04  0.15531058993E+04 0.  0.
        2    1    3    3  502    0 -0.10557765746E+03 -0.15898431549E+03 -0.50371515285E+03  0.53865722825E+03  0.25500000920E-02 0.  1.
       -2    1    3    3    0  502  0.10557765746E+03  0.15898431549E+03  0.11137113565E+04  0.11299449720E+04  0.25500000920E-02 0. -1.
</event>
<event>
 5   0  0.7065539E-04  0.1402417E+04  0.7818609E-02  0.8952071E-01
        2   -1    0    0  501    0  0.00000000000E+00  0.00000000000E+00  0.10839351774E+04  0.10839351774E+04  0.25500000920E-02 0.  1.
       -2   -1    0    0    0  501  0.00000000000E+00  0.00000000000E+00 -0.45361903815E+03  0.45361903815E+03  0.25500000920E-02 0. -1.
    10030    2    1    2    0    0  0.00000000000E+00  0.00000000000E+00  0.63031613923E+03  0.15375542155E+04  0.14024173881E+04 0.  0.
        1    1    3    3  502    0 -0.67362946804E+03 -0.77566924109E+02  0.51097527038E+03  0.84905183287E+03  0.50400001928E-02 0.  1.
       -1    1    3    3    0  502  0.67362946804E+03  0.77566924109E+02  0.11934086884E+03  0.68850238266E+03  0.50400001928E-02 0. -1.
</event>
<event>
 5   0  0.3784219E-04  0.1406728E+04  0.7818609E-02  0.8948963E-01
        1   -1    0    0  501    0  0.00000000000E+00  0.00000000000E+00  0.22948828713E+04  0.22948828713E+04  0.50400001928E-02 0. -1.
       -1   -1    0    0    0  501  0.00000000000E+00  0.00000000000E+00 -0.21557574871E+03  0.21557574877E+03  0.50400001928E-02 0.  1.
    10030    2    1    2    0    0  0.00000000000E+00  0.00000000000E+00  0.20793071226E+04  0.25104586201E+04  0.14067282513E+04 0.  0.
        1    1    3    3  502    0  0.37502532982E+02  0.56220320372E+03  0.17909761346E+04  0.18775181482E+04  0.50400001928E-02 0. -1.
       -1    1    3    3    0  502 -0.37502532982E+02 -0.56220320372E+03  0.28833098804E+03  0.63294047188E+03  0.50400001928E-02 0.  1.
</event>
<event>
 5   0  0.3907270E-04  0.1389772E+04  0.7818609E-02  0.8961256E-01
       -1   -1    0    0    0  501  0.00000000000E+00  0.00000000000E+00  0.20813094513E+03  0.20813094519E+03  0.50400001928E-02 0.  1.
        1   -1    0    0  501    0  0.00000000000E+00  0.00000000000E+00 -0.23200125348E+04  0.23200125348E+04  0.50400001928E-02 0. -1.
    10030    2    1    2    0    0  0.00000000000E+00  0.00000000000E+00 -0.21118815897E+04  0.25281434800E+04  0.13897717822E+04 0.  0.
        3    1    3    3  502    0  0.24998581781E+03  0.23941902438E+03  0.40140213725E+02  0.34846179892E+03  0.10100000352E+00 0.  1.
       -3    1    3    3    0  502 -0.24998581781E+03 -0.23941902438E+03 -0.21520218034E+04  0.21796816811E+04  0.10100000352E+00 0. -1.
</event>
<event>
 5   0  0.6895048E-04  0.1386769E+04  0.7818609E-02  0.8963452E-01
       -2   -1    0    0    0  501  0.00000000000E+00  0.00000000000E+00  0.57947995052E+03  0.57947995053E+03  0.25500000920E-02 0.  1.
        2   -1    0    0  501    0  0.00000000000E+00  0.00000000000E+00 -0.82967827163E+03  0.82967827163E+03  0.25500000920E-02 0. -1.
    10030    2    1    2    0    0  0.00000000000E+00  0.00000000000E+00 -0.25019832111E+03  0.14091582222E+04  0.13867687966E+04 0.  0.
        4    1    3    3  502    0 -0.86263394154E+02  0.59848343097E+03 -0.46992512935E+03  0.76580351946E+03  0.12699999809E+01 0. -1.
       -4    1    3    3    0  502  0.86263394154E+02 -0.59848343097E+03  0.21972680824E+03  0.64335470270E+03  0.12699999809E+01 0.  1.
</event>
<event>
 5   0  0.7065539E-04  0.1392774E+04  0.7818609E-02  0.8959066E-01
       -2   -1    0    0    0  501  0.00000000000E+00  0.00000000000E+00  0.89651388366E+03  0.89651388366E+03  0.25500000920E-02 0.  1.
        2   -1    0    0  501    0  0.00000000000E+00  0.00000000000E+00 -0.54093386865E+03  0.54093386866E+03  0.25500000920E-02 0. -1.
    10030    2    1    2    0    0  0.00000000000E+00  0.00000000000E+00  0.35558001500E+03  0.14374477523E+04  0.13927738128E+04 0.  0.
        1    1    3    3  502    0  0.26369657275E+03  0.34960997073E+03 -0.38104977930E+03  0.58048423618E+03  0.50400001928E-02 0. -1.
       -1    1    3    3    0  502 -0.26369657275E+03 -0.34960997073E+03  0.73662979430E+03  0.85696351614E+03  0.50400001928E-02 0.  1.
</event>
<event>
 5   0  0.2660250E-04  0.1395510E+04  0.7818609E-02  0.8957075E-01
       -4   -1    0    0    0  501  0.00000000000E+00  0.00000000000E+00  0.13127563666E+04  0.13127569809E+04  0.12699999809E+01 0.  1.
        4   -1    0    0  501    0  0.00000000000E+00  0.00000000000E+00 -0.37086819002E+03  0.37087036450E+03  0.12699999809E+01 0. -1.
    10030    2    1    2    0    0  0.00000000000E+00  0.00000000000E+00  0.94188817656E+03  0.16836273454E+04  0.13955098355E+04 0.  0.
        4    1    3    3  502    0  0.28274556481E+03  0.33003392002E+03 -0.18764723595E+03  0.47337146179E+03  0.12699999809E+01 0. -1.
       -4    1    3    3    0  502 -0.28274556481E+03 -0.33003392002E+03  0.11295354125E+04  0.12102558836E+04  0.12699999809E+01 0.  1.
</event>
<event>
 5   0  0.3907093E-04  0.1400298E+04  0.7818609E-02  0.8953603E-01
       -1   -1    0    0    0  501  0.00000000000E+00  0.00000000000E+00  0.10452455111E+04  0.10452455111E+04  0.50400001928E-02 0.  1.
        1   -1    0    0  501    0  0.00000000000E+00  0.00000000000E+00 -0.46898884910E+03  0.46898884913E+03  0.50400001928E-02 0. -1.
    10030    2    1    2    0    0  0.00000000000E+00  0.00000000000E+00  0.57625666200E+03  0.15142343602E+04  0.14002978102E+04 0.  0.
        4    1    3    3  502    0 -0.27225065283E+03 -0.59161381879E+03  0.10153024080E+02  0.65133096453E+03  0.12699999809E+01 0. -1.
       -4    1    3    3    0  502  0.27225065283E+03  0.59161381879E+03  0.56610363792E+03  0.86290339571E+03  0.12699999809E+01 0.  1.
</event>
<event>
 5   0  0.3977658E-04  0.1419903E+04  0.7818609E-02  0.8939536E-01
       -1   -1    0    0    0  501  0.00000000000E+00  0.00000000000E+00  0.35636134068E+03  0.35636134072E+03  0.50400001928E-02 0. -1.
        1   -1    0    0  501    0  0.00000000000E+00  0.00000000000E+00 -0.14143830005E+04  0.14143830005E+04  0.50400001928E-02 0.  1.
    10030    2    1    2    0    0  0.00000000000E+00  0.00000000000E+00 -0.10580216598E+04  0.17707443412E+04  0.14199034085E+04 0.  0.
        5    1    3    3  502    0  0.29070432875E+02 -0.21026914760E+03 -0.13738621395E+04  0.13901717422E+04  0.46999998093E+01 0.  1.
       -5    1    3    3    0  502 -0.29070432875E+02  0.21026914760E+03  0.31584047969E+03  0.38057259901E+03  0.46999998093E+01 0. -1.
</event>
<event>
 5   0  0.6870835E-04  0.1396246E+04  0.7818609E-02  0.8956540E-01
       -2   -1    0    0    0  501  0.00000000000E+00  0.00000000000E+00  0.93405419038E+03  0.93405419038E+03  0.25500000920E-02 0. -1.
        2   -1    0    0  501    0  0.00000000000E+00  0.00000000000E+00 -0.52178561781E+03  0.52178561782E+03  0.25500000920E-02 0.  1.
    10030    2    1    2    0    0  0.00000000000E+00  0.00000000000E+00  0.41226857256E+03  0.14558398082E+04  0.13962464579E+04 0.  0.
        2    1    3    3  502    0  0.12208623610E+03 -0.66926474316E+03  0.42743470235E+02  0.68165046008E+03  0.25500000920E-02 0.  1.
       -2    1    3    3    0  502 -0.12208623610E+03  0.66926474316E+03  0.36952510233E+03  0.77418934812E+03  0.25500000920E-02 0. -1.
</event>
<event>
 5   0  0.3907093E-04  0.1406898E+04  0.7818609E-02  0.8948841E-01
       -1   -1    0    0    0  501  0.00000000000E+00  0.00000000000E+00  0.29836770677E+03  0.29836770681E+03  0.50400001928E-02 0.  1.
        1   -1    0    0  501    0  0.00000000000E+00  0.00000000000E+00 -0.16584915736E+04  0.16584915736E+04  0.50400001928E-02 0. -1.
    10030    2    1    2    0    0  0.00000000000E+00  0.00000000000E+00 -0.13601238668E+04  0.19568592804E+04  0.14068977611E+04 0.  0.
        4    1    3    3  502    0  0.41629358492E+02 -0.23702401168E+03 -0.15994538239E+04  0.16174571194E+04  0.12699999809E+01 0. -1.
       -4    1    3    3    0  502 -0.41629358492E+02  0.23702401168E+03  0.23932995709E+03  0.33940216095E+03  0.12699999809E+01 0.  1.
</event>
<event>
 5   0  0.6959748E-04  0.1398758E+04  0.7818609E-02  0.8954718E-01
        2   -1    0    0  501    0  0.00000000000E+00  0.00000000000E+00  0.22033784196E+04  0.22033784196E+04  0.25500000920E-02 0. -1.
       -2   -1    0    0    0  501  0.00000000000E+00  0.00000000000E+00 -0.22199146167E+03  0.22199146169E+03  0.25500000920E-02 0.  1.
    10030    2    1    2    0    0  0.00000000000E+00  0.00000000000E+00  0.19813869579E+04  0.24253698813E+04  0.13987583008E+04 0.  0.
        5    1    3    3  502    0  0.12206314317E+03 -0.11758192277E+03  0.21672031521E+04  0.21738253177E+04  0.46999998093E+01 0. -1.
       -5    1    3    3    0  502 -0.12206314317E+03  0.11758192277E+03 -0.18581619413E+03  0.25154456361E+03  0.46999998093E+01 0.  1.
</event>
<event>
 5   0  0.3977658E-04  0.1392361E+04  0.7818609E-02  0.8959366E-01
        1   -1    0    0  501    0  0.00000000000E+00  0.00000000000E+00  0.39177048913E+03  0.39177048916E+03  0.50400001928E-02 0.  1.
       -1   -1    0    0    0  501  0.00000000000E+00  0.00000000000E+00 -0.12371210208E+04  0.12371210208E+04  0.50400001928E-02 0. -1.
    10030    2    1    2    0    0  0.00000000000E+00  0.00000000000E+00 -0.84535053168E+03  0.16288915100E+04  0.13923613144E+04 0.  0.
        5    1    3    3  502    0  0.31720355716E+03 -0.45062484168E+03  0.74989612557E+02  0.55617117563E+03  0.46999998093E+01 0.  1.
       -5    1    3    3    0  502 -0.31720355716E+03  0.45062484168E+03 -0.92034014424E+03  0.10727203343E+04  0.46999998093E+01 0. -1.
</event>
<event>
 5   0  0.3784219E-04  0.1399724E+04  0.7818609E-02  0.8954018E-01
       -1   -1    0    0    0  501  0.00000000000E+00  0.00000000000E+00  0.74098726875E+03  0.74098726876E+03  0.50400001928E-02 0. -1.
        1   -1    0    0  501    0  0.00000000000E+00  0.00000000000E+00 -0.66101964841E+03  0.66101964843E+03  0.50400001928E-02 0.  1.
    10030    2    1    2    0    0  0.00000000000E+00  0.00000000000E+00  0.79967620336E+02  0.14020069172E+04  0.13997244642E+04 0.  0.
        1    1    3    3  502    0  0.25797800985E+03 -0.64225448804E+03  0.14390106055E+03  0.70693068700E+03  0.50400001928E-02 0. -1.
       -1    1    3    3    0  502 -0.25797800985E+03  0.64225448804E+03 -0.63933440214E+02  0.69507623019E+03  0.50400001928E-02 0.  1.
</event>
<event>
 5   0  0.6870835E-04  0.1400898E+04  0.7818609E-02  0.8953169E-01
        2   -1    0    0  501    0  0.00000000000E+00  0.00000000000E+00  0.72615950443E+03  0.72615950444E+03  0.25500000920E-02 0.  1.
       -2   -1    0    0    0  501  0.00000000000E+00  0.00000000000E+00 -0.67564907454E+03  0.67564907454E+03  0.25500000920E-02 0. -1.
    10030    2    1    2    0    0  0.00000000000E+00  0.00000000000E+00  0.50510429894E+02  0.14018085790E+04  0.14008982792E+04 0.  0.
        2    1    3    3  502    0  0.16894858998E+03  0.21626738821E+03 -0.61961198280E+03  0.67766822155E+03  0.25500000920E-02 0. -1.
       -2    1    3    3    0  502 -0.16894858998E+03 -0.21626738821E+03  0.67012241269E+03  0.72414035743E+03  0.25500000920E-02 0.  1.
</event>
<event>
 5   0  0.3977658E-04  0.1394008E+04  0.7818609E-02  0.8958168E-01
       -1   -1    0    0    0  501  0.00000000000E+00  0.00000000000E+00  0.95165568817E+03  0.95165568818E+03  0.50400001928E-02 0. -1.
        1   -1    0    0  501    0  0.00000000000E+00  0.00000000000E+00 -0.51049373833E+03  0.51049373835E+03  0.50400001928E-02 0.  1.
    10030    2    1    2    0    0  0.00000000000E+00  0.00000000000E+00  0.44116194984E+03  0.14621494265E+04  0.13940075608E+04 0.  0.
        5    1    3    3  502    0 -0.14321482186E+03 -0.55786238969E+03 -0.19112524706E+03  0.60685408550E+03  0.46999998093E+01 0.  1.
       -5    1    3    3    0  502  0.14321482186E+03  0.55786238969E+03  0.63228719690E+03  0.85529534103E+03  0.46999998093E+01 0. -1.
</event>
<event>
 5   0  0.7065539E-04  0.1402153E+04  0.7818609E-02  0.8952261E-01
        2   -1    0    0  501    0  0.00000000000E+00  0.00000000000E+00  0.66958268398E+03  0.66958268398E+03  0.25500000920E-02 0. -1.
       -2   -1    0    0    0  501  0.00000000000E+00  0.00000000000E+00 -0.73405178739E+03  0.73405178740E+03  0.25500000920E-02 0.  1.
    10030    2    1    2    0    0  0.00000000000E+00  0.00000000000E+00 -0.64469103413E+02  0.14036344714E+04  0.14021531528E+04 0.  0.
        1    1    3    3  502    0 -0.32501696560E+03  0.37521620450E+03  0.46334920175E+03  0.67905501311E+03  0.50400001928E-02 0. -1.
       -1    1    3    3    0  502  0.32501696560E+03 -0.37521620450E+03 -0.52781830517E+03  0.72457945826E+03  0.50400001928E-02 0.  1.
</event>
<event>
 5   0  0.3784219E-04  0.1399077E+04  0.7818609E-02  0.8954487E-01
       -1   -1    0    0    0  501  0.00000000000E+00  0.00000000000E+00  0.48681027339E+03  0.48681027341E+03  0.50400001928E-02 0. -1.
        1   -1    0    0  501    0  0.00000000000E+00  0.00000000000E+00 -0.10052250433E+04  0.10052250433E+04  0.50400001928E-02 0.  1.
    10030    2    1    2    0    0  0.00000000000E+00  0.00000000000E+00 -0.51841476991E+03  0.14920353167E+04  0.13990766643E+04 0.  0.
        1    1    3    3  502    0 -0.18648361462E+03 -0.38828756649E+03  0.32860534037E+03  0.54177933013E+03  0.50400001928E-02 0. -1.
       -1    1    3    3    0  502  0.18648361462E+03  0.38828756649E+03 -0.84702011027E+03  0.95025598659E+03  0.50400001928E-02 0.  1.
</event>
<event>
 5   0  0.3756664E-04  0.1399203E+04  0.7818609E-02  0.8954396E-01
       -1   -1    0    0    0  501  0.00000000000E+00  0.00000000000E+00  0.45976378409E+03  0.45976378412E+03  0.50400001928E-02 0. -1.
        1   -1    0    0  501    0  0.00000000000E+00  0.00000000000E+00 -0.10645509424E+04  0.10645509425E+04  0.50400001928E-02 0.  1.
    10030    2    1    2    0    0  0.00000000000E+00  0.00000000000E+00 -0.60478715835E+03  0.15243147266E+04  0.13992025867E+04 0.  0.
        2    1    3    3  502    0 -0.24168316887E+03 -0.74994320941E+02  0.40815928827E+03  0.48023838549E+03  0.25500000920E-02 0. -1.
       -2    1    3    3    0  502  0.24168316887E+03  0.74994320941E+02 -0.10129464466E+04  0.10440763411E+04  0.25500000920E-02 0.  1.
</event>
<event>
 5   0  0.6895048E-04  0.1407965E+04  0.7818609E-02  0.8948073E-01
       -2   -1    0    0    0  501  0.00000000000E+00  0.00000000000E+00  0.60212140410E+03  0.60212140411E+03  0.25500000920E-02 0.  1.
        2   -1    0    0  501    0  0.00000000000E+00  0.00000000000E+00 -0.82307551315E+03  0.82307551315E+03  0.25500000920E-02 0. -1.
    10030    2    1    2    0    0  0.00000000000E+00  0.00000000000E+00 -0.22095410904E+03  0.14251969173E+04  0.14079650332E+04 0.  0.
        4    1    3    3  502    0 -0.12027983283E+02 -0.25728173962E+03 -0.77366827226E+03  0.81541570645E+03  0.12699999809E+01 0. -1.
       -4    1    3    3    0  502  0.12027983283E+02  0.25728173962E+03  0.55271416322E+03  0.60978121080E+03  0.12699999809E+01 0.  1.
</event>
<event>
 5   0  0.6870835E-04  0.1397934E+04  0.7818609E-02  0.8955315E-01
        2   -1    0    0  501    0  0.00000000000E+00  0.00000000000E+00  0.74653502414E+03  0.74653502415E+03  0.25500000920E-02 0.  1.
       -2   -1    0    0    0  501  0.00000000000E+00  0.00000000000E+00 -0.65443007581E+03  0.65443007581E+03  0.25500000920E-02 0. -1.
    10030    2    1    2    0    0  0.00000000000E+00  0.00000000000E+00  0.92104948334E+02  0.14009651000E+04  0.13979341507E+04 0.  0.
        2    1    3    3  502    0  0.21085205496E+03 -0.26376799171E+03  0.65936205641E+03  0.74080393085E+03  0.25500000920E-02 0.  1.
       -2    1    3    3    0  502 -0.21085205496E+03  0.26376799171E+03 -0.56725710808E+03  0.66016116911E+03  0.25500000920E-02 0. -1.
</event>
<event>
 5   0  0.6895048E-04  0.1413368E+04  0.7818609E-02  0.8944198E-01
       -2   -1    0    0    0  501  0.00000000000E+00  0.00000000000E+00  0.28748233293E+03  0.28748233294E+03  0.25500000920E-02 0.  1.
        2   -1    0    0  501    0  0.00000000000E+00  0.00000000000E+00 -0.17371591139E+04  0.17371591139E+04  0.25500000920E-02 0. -1.
    10030    2    1    2    0    0  0.00000000000E+00  0.00000000000E+00 -0.14496767810E+04  0.20246414468E+04  0.14133683947E+04 0.  0.
        4    1    3    3  502    0  0.79074178664E+02 -0.62759239710E+03 -0.11761898811E+04  0.13354958600E+04  0.12699999809E+01 0.  1.
       -4    1    3    3    0  502 -0.79074178664E+02  0.62759239710E+03 -0.27348689985E+03  0.68914558688E+03  0.12699999809E+01 0. -1.
</event>
<event>
 5   0  0.3756664E-04  0.1397390E+04  0.7818609E-02  0.8955710E-01
        1   -1    0    0  501    0  0.00000000000E+00  0.00000000000E+00  0.77532527350E+03  0.77532527352E+03  0.50400001928E-02 0. -1.
       -1   -1    0    0    0  501  0.00000000000E+00  0.00000000000E+00 -0.62963879120E+03  0.62963879122E+03  0.50400001928E-02 0.  1.
    10030    2    1    2    0    0  0.00000000000E+00  0.00000000000E+00  0.14568648231E+03  0.14049640647E+04  0.13973902361E+04 0.  0.
        2    1    3    3  502    0  0.32078883003E+03  0.45167498661E+03 -0.35520963817E+03  0.65809547488E+03  0.25500000920E-02 0.  1.
       -2    1    3    3    0  502 -0.32078883003E+03 -0.45167498661E+03  0.50089612048E+03  0.74686858986E+03  0.25500000920E-02 0. -1.
</event>
<event>
 5   0  0.7065539E-04  0.1403647E+04  0.7818609E-02  0.8951183E-01
       -2   -1    0    0    0  501  0.00000000000E+00  0.00000000000E+00  0.36178670484E+03  0.36178670485E+03  0.25500000920E-02 0. -1.
        2   -1    0    0  501    0  0.00000000000E+00  0.00000000000E+00 -0.13614542044E+04  0.13614542044E+04  0.25500000920E-02 0.  1.
    10030    2    1    2    0    0  0.00000000000E+00  0.00000000000E+00 -0.99966749957E+03  0.17232409093E+04  0.14036467225E+04 0.  0.
        1    1    3    3  502    0  0.48980330897E+03 -0.40032287452E+03 -0.12666825897E+03  0.64514380815E+03  0.50400001928E-02 0. -1.
       -1    1    3    3    0  502 -0.48980330897E+03  0.40032287452E+03 -0.87299924060E+03  0.10780971011E+04  0.50400001928E-02 0.  1.
</event>
<event>
 5   0  0.3907093E-04  0.1415950E+04  0.7818609E-02  0.8942354E-01
        1   -1    0    0  501    0  0.00000000000E+00  0.00000000000E+00  0.86467061283E+03  0.86467061285E+03  0.50400001928E-02 0.  1.
       -1   -1    0    0    0  501  0.00000000000E+00  0.00000000000E+00 -0.57967557731E+03  0.57967557733E+03  0.50400001928E-02 0. -1.
    10030    2    1    2    0    0  0.00000000000E+00  0.00000000000E+00  0.28499503553E+03  0.14443461902E+04  0.14159497685E+04 0.  0.
        4    1    3    3  502    0  0.12297781532E+03 -0.53892962365E+03 -0.30870593605E+03  0.63314267757E+03  0.12699999809E+01 0. -1.
       -4    1    3    3    0  502 -0.12297781532E+03  0.53892962365E+03  0.59370097158E+03  0.81120351260E+03  0.12699999809E+01 0.  1.
</event>
<event>
 5   0  0.3756664E-04  0.1395215E+04  0.7818609E-02  0.8957290E-01
       -1   -1    0    0    0  501  0.00000000000E+00  0.00000000000E+00  0.69018568002E+03  0.69018568004E+03  0.50400001928E-02 0.  1.
        1   -1    0    0  501    0  0.00000000000E+00  0.00000000000E+00 -0.70510887740E+03  0.70510887742E+03  0.50400001928E-02 0. -1.
    10030    2    1    2    0    0  0.00000000000E+00  0.00000000000E+00 -0.14923197386E+02  0.13952945575E+04  0.13952147506E+04 0.  0.
        2    1    3    3  502    0  0.63108547604E+03  0.24657042459E+02 -0.30375409698E+03  0.70081623787E+03  0.25500000920E-02 0. -1.
       -2    1    3    3    0  502 -0.63108547604E+03 -0.24657042459E+02  0.28883089960E+03  0.69447831959E+03  0.25500000920E-02 0.  1.
</event>
<event>
 5   0  0.3784219E-04  0.1389680E+04  0.7818609E-02  0.8961323E-01
        1   -1    0    0  501    0  0.00000000000E+00  0.00000000000E+00  0.37811988176E+03  0.37811988180E+03  0.50400001928E-02 0.  1.
       -1   -1    0    0    0  501  0.00000000000E+00  0.00000000000E+00 -0.12768498291E+04  0.12768498291E+04  0.50400001928E-02 0. -1.
    10030    2    1    2    0    0  0.00000000000E+00  0.00000000000E+00 -0.89872994735E+03  0.16549697109E+04  0.13896795407E+04 0.  0.
        1    1    3    3  502    0  0.18814998036E+03  0.14198052103E+02  0.34702618941E+03  0.39500528598E+03  0.50400001928E-02 0.  1.
       -1    1    3    3    0  502 -0.18814998036E+03 -0.14198052103E+02 -0.12457561368E+04  0.12599644249E+04  0.50400001928E-02 0. -1.
</event>
<event>
 5   0  0.7065539E-04  0.1403872E+04  0.7818609E-02  0.8951020E-01
        2   -1    0    0  501    0  0.00000000000E+00  0.00000000000E+00  0.52219368937E+03  0.52219368937E+03  0.25500000920E-02 0. -1.
       -2   -1    0    0    0  501  0.00000000000E+00  0.00000000000E+00 -0.94354702085E+03  0.94354702085E+03  0.25500000920E-02 0.  1.
    10030    2    1    2    0    0  0.00000000000E+00  0.00000000000E+00 -0.42135333148E+03  0.14657407102E+04  0.14038722163E+04 0.  0.
        1    1    3    3  502    0  0.69002539571E+03  0.78093227143E+02 -0.10378970271E+03  0.70214378960E+03  0.50400001928E-02 0. -1.
       -1    1    3    3    0  502 -0.69002539571E+03 -0.78093227143E+02 -0.31756362877E+03  0.76359692063E+03  0.50400001928E-02 0.  1.
</event>
<event>
 5   0  0.3907270E-04  0.1410512E+04  0.7818609E-02  0.8946244E-01
        1   -1    0    0  501    0  0.00000000000E+00  0.00000000000E+00  0.80566237426E+03  0.80566237428E+03  0.50400001928E-02 0. -1.
       -1   -1    0    0    0  501  0.00000000000E+00  0.00000000000E+00 -0.61736306806E+03  0.61736306808E+03  0.50400001928E-02 0.  1.
    10030    2    1    2    0    0  0.00000000000E+00  0.00000000000E+00  0.18829930620E+03  0.14230254424E+04  0.14105122406E+04 0.  0.
        3    1    3    3  502    0  0.39565316391E+03 -0.48993323614E+03  0.41447256752E+03  0.75389888010E+03  0.10100000352E+00 0. -1.
       -3    1    3    3    0  502 -0.39565316391E+03  0.48993323614E+03 -0.22617326132E+03  0.66912656226E+03  0.10100000352E+00 0.  1.
</event>
<event>
 5   0  0.3977658E-04  0.1395625E+04  0.7818609E-02  0.8956992E-01
        1   -1    0    0  501    0  0.00000000000E+00  0.00000000000E+00  0.12696445149E+04  0.12696445149E+04  0.50400001928E-02 0.  1.
       -1   -1    0    0    0  501  0.00000000000E+00  0.00000000000E+00 -0.38352637995E+03  0.38352637999E+03  0.50400001928E-02 0. -1.
    10030    2    1    2    0    0  0.00000000000E+00  0.00000000000E+00  0.88611813497E+03  0.16531708949E+04  0.13956248273E+04 0.  0.
        5    1    3    3  502    0 -0.10268223708E+03 -0.65891324812E+03  0.68642261508E+03  0.95703103756E+03  0.46999998093E+01 0.  1.
       -5    1    3    3    0  502  0.10268223708E+03  0.65891324812E+03  0.19969551989E+03  0.69613985737E+03  0.46999998093E+01 0. -1.
</event>
<event>
 5   0  0.3907270E-04  0.1402997E+04  0.7818609E-02  0.8951652E-01
       -1   -1    0    0    0  501  0.00000000000E+00  0.00000000000E+00  0.36749081674E+03  0.36749081678E+03  0.50400001928E-02 0. -1.
        1   -1    0    0  501    0  0.00000000000E+00  0.00000000000E+00 -0.13390809006E+04  0.13390809006E+04  0.50400001928E-02 0.  1.
    10030    2    1    2    0    0  0.00000000000E+00  0.00000000000E+00 -0.97159008382E+03  0.17065717173E+04  0.14029966983E+04 0.  0.
        3    1    3    3  502    0  0.29025279395E+03  0.32307670010E+03 -0.11558788590E+04  0.12347798126E+04  0.10100000352E+00 0.  1.
       -3    1    3    3    0  502 -0.29025279395E+03 -0.32307670010E+03  0.18428877523E+03  0.47179190478E+03  0.10100000352E+00 0. -1.
</event>
<event>
 5   0  0.6870835E-04  0.1364888E+04  0.7818609E-02  0.8979634E-01
        2   -1    0    0  501    0  0.00000000000E+00  0.00000000000E+00  0.14226129890E+04  0.14226129890E+04  0.25500000920E-02 0.  1.
       -2   -1    0    0    0  501  0.00000000000E+00  0.00000000000E+00 -0.32737618305E+03  0.32737618306E+03  0.25500000920E-02 0. -1.
    10030    2    1    2    0    0  0.00000000000E+00  0.00000000000E+00  0.10952368059E+04  0.17499891720E+04  0.13648877028E+04 0.  0.
        2    1    3    3  502    0  0.51951401181E+03 -0.17989014240E+03  0.10660163046E+04  0.11994357146E+04  0.25500000920E-02 0.  1.
       -2    1    3    3    0  502 -0.51951401181E+03  0.17989014240E+03  0.29220501344E+02  0.55055345745E+03  0.25500000920E-02 0. -1.
</event>
<event>
 5   0  0.6870835E-04  0.1399872E+04  0.7818609E-02  0.8953911E-01
        2   -1    0    0  501    0  0.00000000000E+00  0.00000000000E+00  0.11708801621E+04  0.11708801621E+04  0.25500000920E-02 0.  1.
       -2   -1    0    0    0  501  0.00000000000E+00  0.00000000000E+00 -0.41841237425E+03  0.41841237426E+03  0.25500000920E-02 0. -1.
    10030    2    1    2    0    0  0.00000000000E+00  0.00000000000E+00  0.75246778789E+03  0.15892925364E+04  0.13998724922E+04 0.  0.
        2    1    3    3  502    0  0.76742265204E+02  0.34777355158E+03 -0.30785650536E+03  0.47075624940E+03  0.25500000920E-02 0. -1.
       -2    1    3    3    0  502 -0.76742265204E+02 -0.34777355158E+03  0.10603242933E+04  0.11185362870E+04  0.25500000920E-02 0.  1.
</event>
<event>
 5   0  0.6895048E-04  0.1415749E+04  0.7818609E-02  0.8942497E-01
       -2   -1    0    0    0  501  0.00000000000E+00  0.00000000000E+00  0.12952583905E+04  0.12952583905E+04  0.25500000920E-02 0. -1.
        2   -1    0    0  501    0  0.00000000000E+00  0.00000000000E+00 -0.38686192511E+03  0.38686192511E+03  0.25500000920E-02 0.  1.
    10030    2    1    2    0    0  0.00000000000E+00  0.00000000000E+00  0.90839646540E+03  0.16821203156E+04  0.14157487835E+04 0.  0.
        4    1    3    3  502    0 -0.39341381069E+03 -0.10597228933E+03 -0.23357473957E+03  0.46964169790E+03  0.12699999809E+01 0.  1.
       -4    1    3    3    0  502  0.39341381069E+03  0.10597228933E+03  0.11419712050E+04  0.12124786177E+04  0.12699999809E+01 0. -1.
</event>
<event>
 5   0  0.2660250E-04  0.1395165E+04  0.7818609E-02  0.8957326E-01
        3   -1    0    0  501    0  0.00000000000E+00  0.00000000000E+00  0.11879725712E+04  0.11879725755E+04  0.10100000352E+00 0.  1.
       -3   -1    0    0    0  501  0.00000000000E+00  0.00000000000E+00 -0.40962310768E+03  0.40962312014E+03  0.10100000352E+00 0. -1.
    10030    2    1    2    0    0  0.00000000000E+00  0.00000000000E+00  0.77834946350E+03  0.15975956956E+04  0.13951645492E+04 0.  0.
        2    1    3    3  502    0 -0.54434731119E+03 -0.14253687097E+03  0.86129591577E+03  0.10288155371E+04  0.25500000920E-02 0.  1.
       -2    1    3    3    0  502  0.54434731119E+03  0.14253687097E+03 -0.82946452278E+02  0.56878015853E+03  0.25500000920E-02 0. -1.
</event>
<event>
 5   0  0.3907270E-04  0.1400193E+04  0.7818609E-02  0.8953679E-01
        1   -1    0    0  501    0  0.00000000000E+00  0.00000000000E+00  0.65249925896E+03  0.65249925898E+03  0.50400001928E-02 0. -1.
       -1   -1    0    0    0  501  0.00000000000E+00  0.00000000000E+00 -0.75116525186E+03  0.75116525188E+03  0.50400001928E-02 0.  1.
    10030    2    1    2    0    0  0.00000000000E+00  0.00000000000E+00 -0.98665992902E+02  0.14036645109E+04  0.14001925157E+04 0.  0.
        3    1    3    3  502    0 -0.39616389332E+03 -0.28746273118E+03 -0.55112799863E+03  0.73710428927E+03  0.10100000352E+00 0.  1.
       -3    1    3    3    0  502  0.39616389332E+03  0.28746273118E+03  0.45246200573E+03  0.66656022159E+03  0.10100000352E+00 0. -1.
</event>
<event>
 5   0  0.3907093E-04  0.1404081E+04  0.7818609E-02  0.8950870E-01
        1   -1    0    0  501    0  0.00000000000E+00  0.00000000000E+00  0.12759170773E+04  0.12759170773E+04  0.50400001928E-02 0.  1.
       -1   -1    0    0    0  501  0.00000000000E+00  0.00000000000E+00 -0.38627965084E+03  0.38627965087E+03  0.50400001928E-02 0. -1.
    10030    2    1    2    0    0  0.00000000000E+00  0.00000000000E+00  0.88963742650E+03  0.16621967282E+04  0.14040809139E+04 0.  0.
        4    1    3    3  502    0  0.38912410883E+03  0.47782772597E+03  0.84298489178E+03  0.10442040263E+04  0.12699999809E+01 0. -1.
       -4    1    3    3    0  502 -0.38912410883E+03 -0.47782772597E+03  0.46652534719E+02  0.61799270196E+03  0.12699999809E+01 0.  1.
</event>
<event>
 5   0  0.6959748E-04  0.1399428E+04  0.7818609E-02  0.8954233E-01
       -2   -1    0    0    0  501  0.00000000000E+00  0.00000000000E+00  0.14759816025E+04  0.14759816025E+04  0.25500000920E-02 0.  1.
        2   -1    0    0  501    0  0.00000000000E+00  0.00000000000E+00 -0.33171110223E+03  0.33171110224E+03  0.25500000920E-02 0. -1.
    10030    2    1    2    0    0  0.00000000000E+00  0.00000000000E+00  0.11442705003E+04  0.18076927048E+04  0.13994277177E+04 0.  0.
        5    1    3    3  502    0  0.10526127232E+02  0.28073947156E+03  0.13999079048E+04  0.14278269090E+04  0.46999998093E+01 0.  1.
       -5    1    3    3    0  502 -0.10526127232E+02 -0.28073947156E+03 -0.25563740446E+03  0.37986579578E+03  0.46999998093E+01 0. -1.
</event>
<event>
 5   0  0.3907270E-04  0.1400266E+04  0.7818609E-02  0.8953626E-01
        1   -1    0    0  501    0  0.00000000000E+00  0.00000000000E+00  0.68627369190E+03  0.68627369192E+03  0.50400001928E-02 0. -1.
       -1   -1    0    0    0  501  0.00000000000E+00  0.00000000000E+00 -0.71427250718E+03  0.71427250720E+03  0.50400001928E-02 0.  1.
    10030    2    1    2    0    0  0.00000000000E+00  0.00000000000E+00 -0.27998815284E+02  0.14005461991E+04  0.14002663040E+04 0.  0.
        3    1    3    3  502    0  0.37370572946E+03 -0.27567824961E+03 -0.53806210670E+03  0.71074982265E+03  0.10100000352E+00 0.  1.
       -3    1    3    3    0  502 -0.37370572946E+03  0.27567824961E+03  0.51006329142E+03  0.68979637647E+03  0.10100000352E+00 0. -1.
</event>
<event>
 5   0  0.3756664E-04  0.1395293E+04  0.7818609E-02  0.8957232E-01
       -1   -1    0    0    0  501  0.00000000000E+00  0.00000000000E+00  0.40017596439E+03  0.40017596442E+03  0.50400001928E-02 0. -1.
        1   -1    0    0  501    0  0.00000000000E+00  0.00000000000E+00 -0.12162422531E+04  0.12162422531E+04  0.50400001928E-02 0.  1.
    10030    2    1    2    0    0  0.00000000000E+00  0.00000000000E+00 -0.81606628872E+03  0.16164182175E+04  0.13952933980E+04 0.  0.
        2    1    3    3  502    0  0.37530634481E+03  0.58809296072E+03 -0.40611772806E+03  0.80724209005E+03  0.25500000920E-02 0.  1.
       -2    1    3    3    0  502 -0.37530634481E+03 -0.58809296072E+03 -0.40994856066E+03  0.80917612749E+03  0.25500000920E-02 0. -1.
</event>
<event>
 5   0  0.7296966E-04  0.1369794E+04  0.7818609E-02  0.8975978E-01
        2   -1    0    0  501    0  0.00000000000E+00  0.00000000000E+00  0.17449031434E+04  0.17449031434E+04  0.25500000920E-02 0.  1.
       -2   -1    0    0    0  501  0.00000000000E+00  0.00000000000E+00 -0.26883104694E+03  0.26883104695E+03  0.25500000920E-02 0. -1.
    10030    2    1    2    0    0  0.00000000000E+00  0.00000000000E+00  0.14760720965E+04  0.20137341904E+04  0.13697943479E+04 0.  0.
        3    1    3    3  502    0  0.38912167872E+03  0.40938758227E+03  0.13075365154E+04  0.14243123333E+04  0.10100000352E+00 0.  1.
       -3    1    3    3    0  502 -0.38912167872E+03 -0.40938758227E+03  0.16853558109E+03  0.58942185713E+03  0.10100000352E+00 0. -1.
</event>
<event>
 5   0  0.3907270E-04  0.1386397E+04  0.7818609E-02  0.8963724E-01
       -1   -1    0    0    0  501  0.00000000000E+00  0.00000000000E+00  0.63392602140E+03  0.63392602142E+03  0.50400001928E-02 0.  1.
        1   -1    0    0  501    0  0.00000000000E+00  0.00000000000E+00 -0.75801309324E+03  0.75801309326E+03  0.50400001928E-02 0. -1.
    10030    2    1    2    0    0  0.00000000000E+00  0.00000000000E+00 -0.12408707184E+03  0.13919391147E+04  0.13863970923E+04 0.  0.
        3    1    3    3  502    0 -0.65602131616E+03  0.20922207501E+03 -0.14227775822E+03  0.70312219038E+03  0.10100000352E+00 0. -1.
       -3    1    3    3    0  502  0.65602131616E+03 -0.20922207501E+03  0.18190686380E+02  0.68881692430E+03  0.10100000352E+00 0.  1.
</event>
<event>
 5   0  0.3907270E-04  0.1391624E+04  0.7818609E-02  0.8959904E-01
        1   -1    0    0  501    0  0.00000000000E+00  0.00000000000E+00  0.96611846005E+03  0.96611846006E+03  0.50400001928E-02 0. -1.
       -1   -1    0    0    0  501  0.00000000000E+00  0.00000000000E+00 -0.50113330530E+03  0.50113330532E+03  0.50400001928E-02 0.  1.
    10030    2    1    2    0    0  0.00000000000E+00  0.00000000000E+00  0.46498515475E+03  0.14672517654E+04  0.13916237095E+04 0.  0.
        3    1    3    3  502    0  0.37466372824E+03  0.38494271710E+03  0.69879492766E+03  0.88140125132E+03  0.10100000352E+00 0. -1.
       -3    1    3    3    0  502 -0.37466372824E+03 -0.38494271710E+03 -0.23380977291E+03  0.58585051406E+03  0.10100000352E+00 0.  1.
</event>
<event>
 5   0  0.3907270E-04  0.1396520E+04  0.7818609E-02  0.8956342E-01
        1   -1    0    0  501    0  0.00000000000E+00  0.00000000000E+00  0.67309640984E+03  0.67309640986E+03  0.50400001928E-02 0.  1.
       -1   -1    0    0    0  501  0.00000000000E+00  0.00000000000E+00 -0.72436397057E+03  0.72436397059E+03  0.50400001928E-02 0. -1.
    10030    2    1    2    0    0  0.00000000000E+00  0.00000000000E+00 -0.51267560736E+02  0.13974603804E+04  0.13965196569E+04 0.  0.
        3    1    3    3  502    0  0.19946410718E+03  0.22246264920E+03  0.60589451834E+03  0.67556179428E+03  0.10100000352E+00 0.  1.
       -3    1    3    3    0  502 -0.19946410718E+03 -0.22246264920E+03 -0.65716207907E+03  0.72189858617E+03  0.10100000352E+00 0. -1.
</event>
<event>
 5   0  0.2660250E-04  0.1417012E+04  0.7818609E-02  0.8941596E-01
        4   -1    0    0  501    0  0.00000000000E+00  0.00000000000E+00  0.45228355592E+03  0.45228533898E+03  0.12699999809E+01 0. -1.
       -4   -1    0    0    0  501  0.00000000000E+00  0.00000000000E+00 -0.11098760644E+04  0.11098767910E+04  0.12699999809E+01 0.  1.
    10030    2    1    2    0    0  0.00000000000E+00  0.00000000000E+00 -0.65759250850E+03  0.15621621300E+04  0.14170118606E+04 0.  0.
        4    1    3    3  502    0  0.37497489420E+03  0.55662881859E+02 -0.98866958595E+03  0.10588548960E+04  0.12699999809E+01 0.  1.
       -4    1    3    3    0  502 -0.37497489420E+03 -0.55662881859E+02  0.33107707745E+03  0.50330723401E+03  0.12699999809E+01 0. -1.
</event>
<event>
 5   0  0.3907093E-04  0.1457917E+04  0.7818609E-02  0.8912930E-01
        1   -1    0    0  501    0  0.00000000000E+00  0.00000000000E+00  0.10546777412E+04  0.10546777412E+04  0.50400001928E-02 0. -1.
       -1   -1    0    0    0  501  0.00000000000E+00  0.00000000000E+00 -0.50383214656E+03  0.50383214658E+03  0.50400001928E-02 0.  1.
    10030    2    1    2    0    0  0.00000000000E+00  0.00000000000E+00  0.55084559465E+03  0.15585098878E+04  0.14579170763E+04 0.  0.
        4    1    3    3  502    0 -0.26909278120E+03  0.36553080681E+03 -0.33433258592E+03  0.56374070860E+03  0.12699999809E+01 0.  1.
       -4    1    3    3    0  502  0.26909278120E+03 -0.36553080681E+03  0.88517818057E+03  0.99476917920E+03  0.12699999809E+01 0. -1.
</event>
<event>
 5   0  0.3756664E-04  0.1397930E+04  0.7818609E-02  0.8955318E-01
       -1   -1    0    0    0  501  0.00000000000E+00  0.00000000000E+00  0.53401450428E+03  0.53401450431E+03  0.50400001928E-02 0.  1.
        1   -1    0    0  501    0  0.00000000000E+00  0.00000000000E+00 -0.91486729848E+03  0.91486729849E+03  0.50400001928E-02 0. -1.
    10030    2    1    2    0    0  0.00000000000E+00  0.00000000000E+00 -0.38085279419E+03  0.14488818028E+04  0.13979304803E+04 0.  0.
        2    1    3    3  502    0  0.37449700253E+03  0.52902289012E+03  0.80717475279E+02  0.65316807485E+03  0.25500000920E-02 0.  1.
       -2    1    3    3    0  502 -0.37449700253E+03 -0.52902289012E+03 -0.46157026947E+03  0.79571372795E+03  0.25500000920E-02 0. -1.
</event>
<event>
 5   0  0.7296966E-04  0.1406788E+04  0.7818609E-02  0.8948919E-01
        2   -1    0    0  501    0  0.00000000000E+00  0.00000000000E+00  0.19649813904E+04  0.19649813904E+04  0.25500000920E-02 0. -1.
       -2   -1    0    0    0  501  0.00000000000E+00  0.00000000000E+00 -0.25179034641E+03  0.25179034642E+03  0.25500000920E-02 0.  1.
    10030    2    1    2    0    0  0.00000000000E+00  0.00000000000E+00  0.17131910440E+04  0.22167717368E+04  0.14067883209E+04 0.  0.
        3    1    3    3  502    0 -0.52231734470E+03  0.42707643539E+03  0.54320527644E+03  0.86618801238E+03  0.10100000352E+00 0. -1.
       -3    1    3    3    0  502  0.52231734470E+03 -0.42707643539E+03  0.11699857675E+04  0.13505837244E+04  0.10100000352E+00 0.  1.
</event>
<event>
 5   0  0.6895048E-04  0.1389204E+04  0.7818609E-02  0.8961671E-01
        2   -1    0    0  501    0  0.00000000000E+00  0.00000000000E+00  0.17773962746E+04  0.17773962746E+04  0.25500000920E-02 0. -1.
       -2   -1    0    0    0  501  0.00000000000E+00  0.00000000000E+00 -0.27144852438E+03  0.27144852440E+03  0.25500000920E-02 0.  1.
    10030    2    1    2    0    0  0.00000000000E+00  0.00000000000E+00  0.15059477502E+04  0.20488447990E+04  0.13892035070E+04 0.  0.
        4    1    3    3  502    0  0.58160549471E+03  0.32325609867E+03  0.45907629374E+03  0.80840096065E+03  0.12699999809E+01 0. -1.
       -4    1    3    3    0  502 -0.58160549471E+03 -0.32325609867E+03  0.10468714564E+04  0.12404438383E+04  0.12699999809E+01 0.  1.
</event>
<event>
 5   0  0.6895048E-04  0.1390889E+04  0.7818609E-02  0.8960440E-01
       -2   -1    0    0    0  501  0.00000000000E+00  0.00000000000E+00  0.60307096680E+03  0.60307096680E+03  0.25500000920E-02 0.  1.
        2   -1    0    0  501    0  0.00000000000E+00  0.00000000000E+00 -0.80196658483E+03  0.80196658484E+03  0.25500000920E-02 0. -1.
    10030    2    1    2    0    0  0.00000000000E+00  0.00000000000E+00 -0.19889561804E+03  0.14050375516E+04  0.13908885846E+04 0.  0.
        4    1    3    3  502    0  0.16047152776E+03 -0.35028322679E+03 -0.68429474262E+03  0.78530908429E+03  0.12699999809E+01 0. -1.
       -4    1    3    3    0  502 -0.16047152776E+03  0.35028322679E+03  0.48539912459E+03  0.61972846735E+03  0.12699999809E+01 0.  1.
</event>
<event>
 5   0  0.3977658E-04  0.1407642E+04  0.7818609E-02  0.8948306E-01
        1   -1    0    0  501    0  0.00000000000E+00  0.00000000000E+00  0.43259683881E+03  0.43259683884E+03  0.50400001928E-02 0.  1.
       -1   -1    0    0    0  501  0.00000000000E+00  0.00000000000E+00 -0.11450933979E+04  0.11450933980E+04  0.50400001928E-02 0. -1.
    10030    2    1    2    0    0  0.00000000000E+00  0.00000000000E+00 -0.71249655913E+03  0.15776902368E+04  0.14076416932E+04 0.  0.
        5    1    3    3  502    0 -0.42370681276E+03  0.31344606834E+03 -0.87903545269E+03  0.10249396656E+04  0.46999998093E+01 0. -1.
       -5    1    3    3    0  502  0.42370681276E+03 -0.31344606834E+03  0.16653889355E+03  0.55275057124E+03  0.46999998093E+01 0.  1.
</event>
<event>
 5   0  0.3907270E-04  0.1390713E+04  0.7818609E-02  0.8960568E-01
        1   -1    0    0  501    0  0.00000000000E+00  0.00000000000E+00  0.49173845865E+03  0.49173845868E+03  0.50400001928E-02 0.  1.
       -1   -1    0    0    0  501  0.00000000000E+00  0.00000000000E+00 -0.98328884490E+03  0.98328884492E+03  0.50400001928E-02 0. -1.
    10030    2    1    2    0    0  0.00000000000E+00  0.00000000000E+00 -0.49155038625E+03  0.14750273036E+04  0.13907134011E+04 0.  0.
        3    1    3    3  502    0 -0.28679369700E+03  0.48135211529E+03 -0.68252980814E+03  0.88306139806E+03  0.10100000352E+00 0. -1.
       -3    1    3    3    0  502  0.28679369700E+03 -0.48135211529E+03  0.19097942189E+03  0.59196590554E+03  0.10100000352E+00 0.  1.
</event>
<event>
 5   0  0.6895048E-04  0.1424652E+04  0.7818609E-02  0.8936165E-01
        2   -1    0    0  501    0  0.00000000000E+00  0.00000000000E+00  0.12010171135E+04  0.12010171135E+04  0.25500000920E-02 0.  1.
       -2   -1    0    0    0  501  0.00000000000E+00  0.00000000000E+00 -0.42248235429E+03  0.42248235430E+03  0.25500000920E-02 0. -1.
    10030    2    1    2    0    0  0.00000000000E+00  0.00000000000E+00  0.77853475919E+03  0.16234994678E+04  0.14246522911E+04 0.  0.
        4    1    3    3  502    0  0.26494413611E+03  0.64207714167E+03  0.20927038243E+03  0.72543377160E+03  0.12699999809E+01 0.  1.
       -4    1    3    3    0  502 -0.26494413611E+03 -0.64207714167E+03  0.56926437676E+03  0.89806569618E+03  0.12699999809E+01 0. -1.
</event>
<event>
 5   0  0.6959748E-04  0.1316183E+04  0.7818609E-02  0.9016830E-01
        2   -1    0    0  501    0  0.00000000000E+00  0.00000000000E+00  0.18502024731E+04  0.18502024731E+04  0.25500000920E-02 0. -1.
       -2   -1    0    0    0  501  0.00000000000E+00  0.00000000000E+00 -0.23407394297E+03  0.23407394298E+03  0.25500000920E-02 0.  1.
    10030    2    1    2    0    0  0.00000000000E+00  0.00000000000E+00  0.16161285301E+04  0.20842764160E+04  0.13161826441E+04 0.  0.
        5    1    3    3  502    0  0.46444064419E+03 -0.44346014781E+03  0.10359017634E+04  0.12188012833E+04  0.46999998093E+01 0.  1.
       -5    1    3    3    0  502 -0.46444064419E+03  0.44346014781E+03  0.58022676666E+03  0.86547513276E+03  0.46999998093E+01 0. -1.
</event>
<event>
 5   0  0.3977658E-04  0.1398595E+04  0.7818609E-02  0.8954836E-01
       -1   -1    0    0    0  501  0.00000000000E+00  0.00000000000E+00  0.45929362034E+03  0.45929362037E+03  0.50400001928E-02 0. -1.
        1   -1    0    0  501    0  0.00000000000E+00  0.00000000000E+00 -0.10647157519E+04  0.10647157519E+04  0.50400001928E-02 0.  1.
    10030    2    1    2    0    0  0.00000000000E+00  0.00000000000E+00 -0.60542213157E+03  0.15240093723E+04  0.13985952272E+04 0.  0.
        5    1    3    3  502    0 -0.14153134210E+03 -0.68348073005E+03 -0.34917291621E+03  0.78046194306E+03  0.46999998093E+01 0. -1.
       -5    1    3    3    0  502  0.14153134210E+03  0.68348073005E+03 -0.25624921536E+03  0.74354742924E+03  0.46999998093E+01 0.  1.
</event>
<event>
 5   0  0.3907270E-04  0.1403970E+04  0.7818609E-02  0.8950950E-01
       -1   -1    0    0    0  501  0.00000000000E+00  0.00000000000E+00  0.75398295291E+03  0.75398295293E+03  0.50400001928E-02 0.  1.
        1   -1    0    0  501    0  0.00000000000E+00  0.00000000000E+00 -0.65357342727E+03  0.65357342729E+03  0.50400001928E-02 0. -1.
    10030    2    1    2    0    0  0.00000000000E+00  0.00000000000E+00  0.10040952565E+03  0.14075563802E+04  0.14039704023E+04 0.  0.
        3    1    3    3  502    0  0.40468065521E+03 -0.24435644898E+03 -0.47006840798E+03  0.66666395226E+03  0.10100000352E+00 0. -1.
       -3    1    3    3    0  502 -0.40468065521E+03  0.24435644898E+03  0.57047793362E+03  0.74089242796E+03  0.10100000352E+00 0.  1.
</event>
<event>
 5   0  0.6870835E-04  0.1398279E+04  0.7818609E-02  0.8955065E-01
       -2   -1    0    0    0  501  0.00000000000E+00  0.00000000000E+00  0.44597438664E+03  0.44597438665E+03  0.25500000920E-02 0. -1.
        2   -1    0    0  501    0  0.00000000000E+00  0.00000000000E+00 -0.10960188793E+04  0.10960188793E+04  0.25500000920E-02 0.  1.
    10030    2    1    2    0    0  0.00000000000E+00  0.00000000000E+00 -0.65004449267E+03  0.15419932660E+04  0.13982794391E+04 0.  0.
        2    1    3    3  502    0  0.10774459375E+03  0.66141199453E+03 -0.54480924606E+03  0.86365029878E+03  0.25500000920E-02 0.  1.
       -2    1    3    3    0  502 -0.10774459375E+03 -0.66141199453E+03 -0.10523524661E+03  0.67834296718E+03  0.25500000920E-02 0. -1.
</event>
<event>
 5   0  0.6959748E-04  0.1397489E+04  0.7818609E-02  0.8955638E-01
        2   -1    0    0  501    0  0.00000000000E+00  0.00000000000E+00  0.97820535050E+03  0.97820535051E+03  0.25500000920E-02 0. -1.
       -2   -1    0    0    0  501  0.00000000000E+00  0.00000000000E+00 -0.49912227196E+03  0.49912227196E+03  0.25500000920E-02 0.  1.
    10030    2    1    2    0    0  0.00000000000E+00  0.00000000000E+00  0.47908307855E+03  0.14773276225E+04  0.13974892872E+04 0.  0.
        5    1    3    3  502    0  0.42335861002E+03  0.32266627235E+03  0.71803259275E+03  0.89383383816E+03  0.46999998093E+01 0. -1.
       -5    1    3    3    0  502 -0.42335861002E+03 -0.32266627235E+03 -0.23894951421E+03  0.58349378431E+03  0.46999998093E+01 0.  1.
</event>
<event>
 5   0  0.7065539E-04  0.1395573E+04  0.7818609E-02  0.8957029E-01
       -2   -1    0    0    0  501  0.00000000000E+00  0.00000000000E+00  0.22495991835E+03  0.22495991836E+03  0.25500000920E-02 0.  1.
        2   -1    0    0  501    0  0.00000000000E+00  0.00000000000E+00 -0.21644135241E+04  0.21644135241E+04  0.25500000920E-02 0. -1.
    10030    2    1    2    0    0  0.00000000000E+00  0.00000000000E+00 -0.19394536057E+04  0.23893734425E+04  0.13955734157E+04 0.  0.
        1    1    3    3  502    0  0.34645767189E+03 -0.34026240767E+03 -0.11179995250E+03  0.49830779031E+03  0.50400001928E-02 0.  1.
       -1    1    3    3    0  502 -0.34645767189E+03  0.34026240767E+03 -0.18276536532E+04  0.18910656521E+04  0.50400001928E-02 0. -1.
</event>
<event>
 5   0  0.6895048E-04  0.1392882E+04  0.7818609E-02  0.8958987E-01
        2   -1    0    0  501    0  0.00000000000E+00  0.00000000000E+00  0.51773417584E+03  0.51773417584E+03  0.25500000920E-02 0.  1.
       -2   -1    0    0    0  501  0.00000000000E+00  0.00000000000E+00 -0.93683221189E+03  0.93683221189E+03  0.25500000920E-02 0. -1.
    10030    2    1    2    0    0  0.00000000000E+00  0.00000000000E+00 -0.41909803605E+03  0.14545663877E+04  0.13928819808E+04 0.  0.
        4    1    3    3  502    0  0.13161364251E+03 -0.34255310295E+03  0.40857946392E+03  0.54918445943E+03  0.12699999809E+01 0.  1.
       -4    1    3    3    0  502 -0.13161364251E+03  0.34255310295E+03 -0.82767749998E+03  0.90538192831E+03  0.12699999809E+01 0. -1.
</event>
<event>
 5   0  0.6959748E-04  0.1398527E+04  0.7818609E-02  0.8954885E-01
       -2   -1    0    0    0  501  0.00000000000E+00  0.00000000000E+00  0.63095255559E+03  0.63095255559E+03  0.25500000920E-02 0. -1.
        2   -1    0    0  501    0  0.00000000000E+00  0.00000000000E+00 -0.77497074076E+03  0.77497074077E+03  0.25500000920E-02 0.  1.
    10030    2    1    2    0    0  0.00000000000E+00  0.00000000000E+00 -0.14401818518E+03  0.14059232964E+04  0.13985274676E+04 0.  0.
        5    1    3    3  502    0  0.25156849070E+02  0.32635493281E+03 -0.69318231191E+03  0.76659260156E+03  0.46999998093E+01 0.  1.
       -5    1    3    3    0  502 -0.25156849070E+02 -0.32635493281E+03  0.54916412673E+03  0.63933069480E+03  0.46999998093E+01 0. -1.
</event>
<event>
 5   0  0.7296966E-04  0.1396228E+04  0.7818609E-02  0.8956554E-01
       -2   -1    0    0    0  501  0.00000000000E+00  0.00000000000E+00  0.55640956775E+03  0.55640956775E+03  0.25500000920E-02 0. -1.
        2   -1    0    0  501    0  0.00000000000E+00  0.00000000000E+00 -0.87590689181E+03  0.87590689182E+03  0.25500000920E-02 0.  1.
    10030    2    1    2    0    0  0.00000000000E+00  0.00000000000E+00 -0.31949732406E+03  0.14323164596E+04  0.13962277394E+04 0.  0.
        3    1    3    3  502    0 -0.57050765975E+03 -0.37870217722E+03 -0.29916065366E+03  0.74725593726E+03  0.10100000352E+00 0.  1.
       -3    1    3    3    0  502  0.57050765975E+03  0.37870217722E+03 -0.20336670402E+02  0.68506052231E+03  0.10100000352E+00 0. -1.
</event>
<event>
 5   0  0.3756664E-04  0.1402548E+04  0.7818609E-02  0.8951976E-01
        1   -1    0    0  501    0  0.00000000000E+00  0.00000000000E+00  0.11232683993E+04  0.11232683993E+04  0.50400001928E-02 0.  1.
       -1   -1    0    0    0  501  0.00000000000E+00  0.00000000000E+00 -0.43781633902E+03  0.43781633905E+03  0.50400001928E-02 0. -1.
    10030    2    1    2    0    0  0.00000000000E+00  0.00000000000E+00  0.68545206028E+03  0.15610847384E+04  0.14025480503E+04 0.  0.
        2    1    3    3  502    0  0.55064738662E+03  0.65058053071E+02  0.82060587446E+03  0.99037321039E+03  0.25500000920E-02 0.  1.
       -2    1    3    3    0  502 -0.55064738662E+03 -0.65058053071E+02 -0.13515381418E+03  0.57071152797E+03  0.25500000920E-02 0. -1.
</event>
<event>
 5   0  0.6959748E-04  0.1356291E+04  0.7818609E-02  0.8986080E-01
        2   -1    0    0  501    0  0.00000000000E+00  0.00000000000E+00  0.17526944353E+04  0.17526944353E+04  0.25500000920E-02 0.  1.
       -2   -1    0    0    0  501  0.00000000000E+00  0.00000000000E+00 -0.26238528946E+03  0.26238528947E+03  0.25500000920E-02 0. -1.
    10030    2    1    2    0    0  0.00000000000E+00  0.00000000000E+00  0.14903091459E+04  0.20150797248E+04  0.13562908785E+04 0.  0.
        5    1    3    3  502    0  0.59026886988E+02  0.55268367408E+03  0.13223284231E+04  0.14344050911E+04  0.46999998093E+01 0.  1.
       -5    1    3    3    0  502 -0.59026886988E+02 -0.55268367408E+03  0.16798072280E+03  0.58067463369E+03  0.46999998093E+01 0. -1.
</event>
<event>
 5   0  0.3977658E-04  0.1398195E+04  0.7818609E-02  0.8955126E-01
        1   -1    0    0  501    0  0.00000000000E+00  0.00000000000E+00  0.62642783691E+03  0.62642783693E+03  0.50400001928E-02 0.  1.
       -1   -1    0    0    0  501  0.00000000000E+00  0.00000000000E+00 -0.78019701944E+03  0.78019701946E+03  0.50400001928E-02 0. -1.
    10030    2    1    2    0    0  0.00000000000E+00  0.00000000000E+00 -0.15376918253E+03  0.14066248564E+04  0.13981947379E+04 0.  0.
        5    1    3    3  502    0 -0.17168871654E+03 -0.58667404101E+03 -0.41812224489E+03  0.74061578936E+03  0.46999998093E+01 0. -1.
       -5    1    3    3    0  502  0.17168871654E+03  0.58667404101E+03  0.26435306236E+03  0.66600906703E+03  0.46999998093E+01 0.  1.
</event>
<event>
 5   0  0.3977658E-04  0.1397129E+04  0.7818609E-02  0.8955899E-01
        1   -1    0    0  501    0  0.00000000000E+00  0.00000000000E+00  0.83568565555E+03  0.83568565557E+03  0.50400001928E-02 0. -1.
       -1   -1    0    0    0  501  0.00000000000E+00  0.00000000000E+00 -0.58394246225E+03  0.58394246228E+03  0.50400001928E-02 0.  1.
    10030    2    1    2    0    0  0.00000000000E+00  0.00000000000E+00  0.25174319330E+03  0.14196281178E+04  0.13971289696E+04 0.  0.
        5    1    3    3  502    0  0.41651707109E+03 -0.27726906908E+03 -0.36942628366E+03  0.62198269770E+03  0.46999998093E+01 0.  1.
       -5    1    3    3    0  502 -0.41651707109E+03  0.27726906908E+03  0.62116947695E+03  0.79764542014E+03  0.46999998093E+01 0. -1.
</event>
<event>
 5   0  0.3977658E-04  0.1402881E+04  0.7818609E-02  0.8951736E-01
        1   -1    0    0  501    0  0.00000000000E+00  0.00000000000E+00  0.84364649720E+03  0.84364649721E+03  0.50400001928E-02 0. -1.
       -1   -1    0    0    0  501  0.00000000000E+00  0.00000000000E+00 -0.58320453300E+03  0.58320453302E+03  0.50400001928E-02 0.  1.
    10030    2    1    2    0    0  0.00000000000E+00  0.00000000000E+00  0.26044196420E+03  0.14268510302E+04  0.14028805529E+04 0.  0.
        5    1    3    3  502    0  0.66493271035E+03  0.82279314023E+02 -0.80909581390E+02  0.67488802417E+03  0.46999998093E+01 0.  1.
       -5    1    3    3    0  502 -0.66493271035E+03 -0.82279314023E+02  0.34135154559E+03  0.75196300606E+03  0.46999998093E+01 0. -1.
</event>
<event>
 5   0  0.3907093E-04  0.1398376E+04  0.7818609E-02  0.8954995E-01
       -1   -1    0    0    0  501  0.00000000000E+00  0.00000000000E+00  0.26496443399E+03  0.26496443404E+03  0.50400001928E-02 0.  1.
        1   -1    0    0  501    0  0.00000000000E+00  0.00000000000E+00 -0.18450163720E+04  0.18450163720E+04  0.50400001928E-02 0. -1.
    10030    2    1    2    0    0  0.00000000000E+00  0.00000000000E+00 -0.15800519380E+04  0.21099808061E+04  0.13983757990E+04 0.  0.
        4    1    3    3  502    0  0.52505614070E+03 -0.42424424783E+03 -0.51511582434E+03  0.84912487780E+03  0.12699999809E+01 0.  1.
       -4    1    3    3    0  502 -0.52505614070E+03  0.42424424783E+03 -0.10649361137E+04  0.12608559283E+04  0.12699999809E+01 0. -1.
</event>
<event>
 5   0  0.7296966E-04  0.1399891E+04  0.7818609E-02  0.8953897E-01
        2   -1    0    0  501    0  0.00000000000E+00  0.00000000000E+00  0.20609407419E+04  0.20609407419E+04  0.25500000920E-02 0.  1.
       -2   -1    0    0    0  501  0.00000000000E+00  0.00000000000E+00 -0.23771847522E+03  0.23771847523E+03  0.25500000920E-02 0. -1.
    10030    2    1    2    0    0  0.00000000000E+00  0.00000000000E+00  0.18232222667E+04  0.22986592172E+04  0.13998909825E+04 0.  0.
        3    1    3    3  502    0  0.63785093278E+03 -0.15866760767E+03  0.51651855466E+03  0.83595493281E+03  0.10100000352E+00 0.  1.
       -3    1    3    3    0  502 -0.63785093278E+03  0.15866760767E+03  0.13067037121E+04  0.14627042844E+04  0.10100000352E+00 0. -1.
</event>
<event>
 5   0  0.2660250E-04  0.1385431E+04  0.7818609E-02  0.8964432E-01
        4   -1    0    0  501    0  0.00000000000E+00  0.00000000000E+00  0.77006940099E+03  0.77007044824E+03  0.12699999809E+01 0.  1.
       -4   -1    0    0    0  501  0.00000000000E+00  0.00000000000E+00 -0.62312987460E+03  0.62313116879E+03  0.12699999809E+01 0. -1.
    10030    2    1    2    0    0  0.00000000000E+00  0.00000000000E+00  0.14693952640E+03  0.13932016170E+04  0.13854311680E+04 0.  0.
        2    1    3    3  502    0 -0.55431021562E+03  0.10189529165E+03 -0.33154519286E+03  0.65388430208E+03  0.25500000920E-02 0. -1.
       -2    1    3    3    0  502  0.55431021562E+03 -0.10189529165E+03  0.47848471926E+03  0.73931731494E+03  0.25500000920E-02 0.  1.
</event>
<event>
 5   0  0.3907093E-04  0.1396479E+04  0.7818609E-02  0.8956371E-01
       -1   -1    0    0    0  501  0.00000000000E+00  0.00000000000E+00  0.43555125832E+03  0.43555125835E+03  0.50400001928E-02 0. -1.
        1   -1    0    0  501    0  0.00000000000E+00  0.00000000000E+00 -0.11193597485E+04  0.11193597485E+04  0.50400001928E-02 0.  1.
    10030    2    1    2    0    0  0.00000000000E+00  0.00000000000E+00 -0.68380849019E+03  0.15549110069E+04  0.13964792115E+04 0.  0.
        4    1    3    3  502    0 -0.59018195284E+03  0.12383215428E+03 -0.73381332286E+03  0.94980668854E+03  0.12699999809E+01 0.  1.
       -4    1    3    3    0  502  0.59018195284E+03 -0.12383215428E+03  0.50004832664E+02  0.60510431834E+03  0.12699999809E+01 0. -1.
</event>
<event>
 5   0  0.6870835E-04  0.1401120E+04  0.7818609E-02  0.8953008E-01
       -2   -1    0    0    0  501  0.00000000000E+00  0.00000000000E+00  0.52881290359E+03  0.52881290360E+03  0.25500000920E-02 0. -1.
        2   -1    0    0  501    0  0.00000000000E+00  0.00000000000E+00 -0.92808709976E+03  0.92808709976E+03  0.25500000920E-02 0.  1.
    10030    2    1    2    0    0  0.00000000000E+00  0.00000000000E+00 -0.39927419617E+03  0.14569000034E+04  0.14011201719E+04 0.  0.
        2    1    3    3  502    0  0.26360563727E+03 -0.43085426177E+03 -0.70441265369E+03  0.86678746736E+03  0.25500000920E-02 0.  1.
       -2    1    3    3    0  502 -0.26360563727E+03  0.43085426177E+03  0.30513845752E+03  0.59011253601E+03  0.25500000920E-02 0. -1.
</event>
<event>
 5   0  0.6870835E-04  0.1404452E+04  0.7818609E-02  0.8950602E-01
        2   -1    0    0  501    0  0.00000000000E+00  0.00000000000E+00  0.94340242135E+03  0.94340242135E+03  0.25500000920E-02 0. -1.
       -2   -1    0    0    0  501  0.00000000000E+00  0.00000000000E+00 -0.52270505706E+03  0.52270505707E+03  0.25500000920E-02 0.  1.
    10030    2    1    2    0    0  0.00000000000E+00  0.00000000000E+00  0.42069736429E+03  0.14661074784E+04  0.14044518027E+04 0.  0.
        2    1    3    3  502    0  0.42306658332E+03 -0.25046522616E+03 -0.31306400197E+03  0.58286124659E+03  0.25500000920E-02 0.  1.
       -2    1    3    3    0  502 -0.42306658332E+03  0.25046522616E+03  0.73376136625E+03  0.88324623184E+03  0.25500000920E-02 0. -1.
</event>
<event>
 5   0  0.3907093E-04  0.1399197E+04  0.7818609E-02  0.8954400E-01
       -1   -1    0    0    0  501  0.00000000000E+00  0.00000000000E+00  0.11113644272E+04  0.11113644272E+04  0.50400001928E-02 0. -1.
        1   -1    0    0  501    0  0.00000000000E+00  0.00000000000E+00 -0.44039367865E+03  0.44039367868E+03  0.50400001928E-02 0.  1.
    10030    2    1    2    0    0  0.00000000000E+00  0.00000000000E+00  0.67097074856E+03  0.15517581059E+04  0.13991967245E+04 0.  0.
        4    1    3    3  502    0 -0.14764568410E+03 -0.62104450834E+03  0.18020889557E+02  0.63860934439E+03  0.12699999809E+01 0.  1.
       -4    1    3    3    0  502  0.14764568410E+03  0.62104450834E+03  0.65294985901E+03  0.91314876151E+03  0.12699999809E+01 0. -1.
</event>
<event>
 5   0  0.6959748E-04  0.1403887E+04  0.7818609E-02  0.8951010E-01
       -2   -1    0    0    0  501  0.00000000000E+00  0.00000000000E+00  0.40730549076E+03  0.40730549077E+03  0.25500000920E-02 0.  1.
        2   -1    0    0  501    0  0.00000000000E+00  0.00000000000E+00 -0.12097177087E+04  0.12097177088E+04  0.25500000920E-02 0. -1.
    10030    2    1    2    0    0  0.00000000000E+00  0.00000000000E+00 -0.80241221799E+03  0.16170231995E+04  0.14038869827E+04 0.  0.
        5    1    3    3  502    0  0.22331145765E+03 -0.66361849180E+03 -0.34425143989E+03  0.78024909718E+03  0.46999998093E+01 0. -1.
       -5    1    3    3    0  502 -0.22331145765E+03  0.66361849180E+03 -0.45816077810E+03  0.83677410235E+03  0.46999998093E+01 0.  1.
</event>
<event>
 5   0  0.3907270E-04  0.1395058E+04  0.7818609E-02  0.8957403E-01
       -1   -1    0    0    0  501  0.00000000000E+00  0.00000000000E+00  0.70657540524E+03  0.70657540526E+03  0.50400001928E-02 0.  1.
        1   -1    0    0  501    0  0.00000000000E+00  0.00000000000E+00 -0.68859873783E+03  0.68859873785E+03  0.50400001928E-02 0. -1.
    10030    2    1    2    0    0  0.00000000000E+00  0.00000000000E+00  0.17976667405E+02  0.13951741431E+04  0.13950583246E+04 0.  0.
        3    1    3    3  502    0 -0.64282982380E+03 -0.18463905979E+03  0.20705819650E+03  0.70013918024E+03  0.10100000352E+00 0. -1.
       -3    1    3    3    0  502  0.64282982380E+03  0.18463905979E+03 -0.18908152910E+03  0.69503496287E+03  0.10100000352E+00 0.  1.
</event>
<event>
 5   0  0.6895048E-04  0.1404651E+04  0.7818609E-02  0.8950459E-01
        2   -1    0    0  501    0  0.00000000000E+00  0.00000000000E+00  0.12087644352E+04  0.12087644352E+04  0.25500000920E-02 0.  1.
       -2   -1    0    0    0  501  0.00000000000E+00  0.00000000000E+00 -0.40807025904E+03  0.40807025904E+03  0.25500000920E-02 0. -1.
    10030    2    1    2    0    0  0.00000000000E+00  0.00000000000E+00  0.80069417616E+03  0.16168346942E+04  0.14046505846E+04 0.  0.
        4    1    3    3  502    0  0.64912959388E+03 -0.20633185633E+03  0.20326003022E+03  0.71081524841E+03  0.12699999809E+01 0. -1.
       -4    1    3    3    0  502 -0.64912959388E+03  0.20633185633E+03  0.59743414594E+03  0.90601944583E+03  0.12699999809E+01 0.  1.
</event>
<event>
 5   0  0.2660250E-04  0.1345598E+04  0.7818609E-02  0.8994167E-01
        3   -1    0    0  501    0  0.00000000000E+00  0.00000000000E+00  0.12993985293E+04  0.12993985332E+04  0.10100000352E+00 0. -1.
       -3   -1    0    0    0  501  0.00000000000E+00  0.00000000000E+00 -0.34835980315E+03  0.34835981780E+03  0.10100000352E+00 0.  1.
    10030    2    1    2    0    0  0.00000000000E+00  0.00000000000E+00  0.95103872611E+03  0.16477583510E+04  0.13455976088E+04 0.  0.
        1    1    3    3  502    0  0.45680801210E+03  0.39755524370E+03  0.11654611019E+03  0.61669013900E+03  0.50400001928E-02 0.  1.
       -1    1    3    3    0  502 -0.45680801210E+03 -0.39755524370E+03  0.83449261592E+03  0.10310682120E+04  0.50400001928E-02 0. -1.
</event>
<event>
 5   0  0.2660250E-04  0.1400652E+04  0.7818609E-02  0.8953347E-01
       -4   -1    0    0    0  501  0.00000000000E+00  0.00000000000E+00  0.80974952880E+03  0.80975052472E+03  0.12699999809E+01 0. -1.
        4   -1    0    0  501    0  0.00000000000E+00  0.00000000000E+00 -0.60568712764E+03  0.60568845910E+03  0.12699999809E+01 0.  1.
    10030    2    1    2    0    0  0.00000000000E+00  0.00000000000E+00  0.20406240116E+03  0.14154389838E+04  0.14006520101E+04 0.  0.
        2    1    3    3  502    0  0.32107778216E+03 -0.52084515742E+03  0.44634198626E+03  0.75735842830E+03  0.25500000920E-02 0. -1.
       -2    1    3    3    0  502 -0.32107778216E+03  0.52084515742E+03 -0.24227958510E+03  0.65808055553E+03  0.25500000920E-02 0.  1.
</event>
<event>
 5   0  0.3784219E-04  0.1427429E+04  0.7818609E-02  0.8934200E-01
       -1   -1    0    0    0  501  0.00000000000E+00  0.00000000000E+00  0.35489674225E+03  0.35489674229E+03  0.50400001928E-02 0.  1.
        1   -1    0    0  501    0  0.00000000000E+00  0.00000000000E+00 -0.14353149396E+04  0.14353149396E+04  0.50400001928E-02 0. -1.
    10030    2    1    2    0    0  0.00000000000E+00  0.00000000000E+00 -0.10804181974E+04  0.17902116819E+04  0.14274292924E+04 0.  0.
        1    1    3    3  502    0 -0.16293867273E+03  0.63001080887E+03 -0.90783998668E+03  0.11169763076E+04  0.50400001928E-02 0. -1.
       -1    1    3    3    0  502  0.16293867273E+03 -0.63001080887E+03 -0.17257821068E+03  0.67323537429E+03  0.50400001928E-02 0.  1.
</event>
<event>
 5   0  0.3784219E-04  0.1401775E+04  0.7818609E-02  0.8952535E-01
       -1   -1    0    0    0  501  0.00000000000E+00  0.00000000000E+00  0.74449817323E+03  0.74449817325E+03  0.50400001928E-02 0.  1.
        1   -1    0    0  501    0  0.00000000000E+00  0.00000000000E+00 -0.65983168583E+03  0.65983168585E+03  0.50400001928E-02 0. -1.
    10030    2    1    2    0    0  0.00000000000E+00  0.00000000000E+00  0.84666487404E+02  0.14043298591E+04  0.14017752812E+04 0.  0.
        1    1    3    3  502    0 -0.26868002342E+03 -0.31507507259E+03 -0.52419021101E+03  0.66800945630E+03  0.50400001928E-02 0. -1.
       -1    1    3    3    0  502  0.26868002342E+03  0.31507507259E+03  0.60885669842E+03  0.73632040280E+03  0.50400001928E-02 0.  1.
</event>
<event>
 5   0  0.3907270E-04  0.1400413E+04  0.7818609E-02  0.8953520E-01
       -1   -1    0    0    0  501  0.00000000000E+00  0.00000000000E+00  0.13903137790E+04  0.13903137791E+04  0.50400001928E-02 0.  1.
        1   -1    0    0  501    0  0.00000000000E+00  0.00000000000E+00 -0.35264614450E+03  0.35264614453E+03  0.50400001928E-02 0. -1.
    10030    2    1    2    0    0  0.00000000000E+00  0.00000000000E+00  0.10376676345E+04  0.17429599236E+04  0.14004125019E+04 0.  0.
        3    1    3    3  502    0  0.67090874222E+03  0.19801969179E+03  0.55736523640E+03  0.89441956356E+03  0.10100000352E+00 0.  1.
       -3    1    3    3    0  502 -0.67090874222E+03 -0.19801969179E+03  0.48030239815E+03  0.84854036003E+03  0.10100000352E+00 0. -1.
</event>
<event>
 5   0  0.6895048E-04  0.1402617E+04  0.7818609E-02  0.8951926E-01
       -2   -1    0    0    0  501  0.00000000000E+00  0.00000000000E+00  0.44782568653E+03  0.44782568654E+03  0.25500000920E-02 0.  1.
        2   -1    0    0  501    0  0.00000000000E+00  0.00000000000E+00 -0.10982702664E+04  0.10982702664E+04  0.25500000920E-02 0. -1.
    10030    2    1    2    0    0  0.00000000000E+00  0.00000000000E+00 -0.65044457987E+03  0.15460959529E+04  0.14026170341E+04 0.  0.
        4    1    3    3  502    0  0.10445578856E+03 -0.41384174221E+03  0.28816828834E+03  0.51499376177E+03  0.12699999809E+01 0.  1.
       -4    1    3    3    0  502 -0.10445578856E+03  0.41384174221E+03 -0.93861286821E+03  0.10311021912E+04  0.12699999809E+01 0. -1.
</event>
<event>
 5   0  0.7065539E-04  0.1401273E+04  0.7818609E-02  0.8952898E-01
       -2   -1    0    0    0  501  0.00000000000E+00  0.00000000000E+00  0.66899291285E+03  0.66899291285E+03  0.25500000920E-02 0. -1.
        2   -1    0    0  501    0  0.00000000000E+00  0.00000000000E+00 -0.73377658562E+03  0.73377658563E+03  0.25500000920E-02 0.  1.
    10030    2    1    2    0    0  0.00000000000E+00  0.00000000000E+00 -0.64783672774E+02  0.14027694985E+04  0.14012727577E+04 0.  0.
        1    1    3    3  502    0 -0.54541195233E+03  0.15189555545E+03 -0.44556126045E+03  0.72046602581E+03  0.50400001928E-02 0.  1.
       -1    1    3    3    0  502  0.54541195233E+03 -0.15189555545E+03  0.38077758767E+03  0.68230347267E+03  0.50400001928E-02 0. -1.
</event>
<event>
 5   0  0.2660250E-04  0.1398762E+04  0.7818609E-02  0.8954715E-01
       -4   -1    0    0    0  501  0.00000000000E+00  0.00000000000E+00  0.91671055618E+03  0.91671143590E+03  0.12699999809E+01 0.  1.
        4   -1    0    0  501    0  0.00000000000E+00  0.00000000000E+00 -0.53357295258E+03  0.53357446399E+03  0.12699999809E+01 0. -1.
    10030    2    1    2    0    0  0.00000000000E+00  0.00000000000E+00  0.38313760360E+03  0.14502858999E+04  0.13987618697E+04 0.  0.
        2    1    3    3  502    0  0.36753653916E+03  0.93194742574E+02 -0.41775649017E+03  0.56417094284E+03  0.25500000920E-02 0. -1.
       -2    1    3    3    0  502 -0.36753653916E+03 -0.93194742574E+02  0.80089409377E+03  0.88611495705E+03  0.25500000920E-02 0.  1.
</event>
<event>
 5   0  0.3756664E-04  0.1378661E+04  0.7818609E-02  0.8969411E-01
        1   -1    0    0  501    0  0.00000000000E+00  0.00000000000E+00  0.11564796000E+04  0.11564796000E+04  0.50400001928E-02 0.  1.
       -1   -1    0    0    0  501  0.00000000000E+00  0.00000000000E+00 -0.41088210849E+03  0.41088210852E+03  0.50400001928E-02 0. -1.
    10030    2    1    2    0    0  0.00000000000E+00  0.00000000000E+00  0.74559749147E+03  0.15673617085E+04  0.13786613456E+04 0.  0.
        2    1    3    3  502    0 -0.45554614104E+03 -0.40181172874E+03  0.23077800851E+01  0.60743746824E+03  0.25500000920E-02 0. -1.
       -2    1    3    3    0  502  0.45554614104E+03  0.40181172874E+03  0.74328971138E+03  0.95992424025E+03  0.25500000920E-02 0.  1.
</event>
<event>
 5   0  0.3977658E-04  0.1398627E+04  0.7818609E-02  0.8954813E-01
        1   -1    0    0  501    0  0.00000000000E+00  0.00000000000E+00  0.52695681896E+03  0.52695681899E+03  0.50400001928E-02 0. -1.
       -1   -1    0    0    0  501  0.00000000000E+00  0.00000000000E+00 -0.92804389978E+03  0.92804389979E+03  0.50400001928E-02 0.  1.
    10030    2    1    2    0    0  0.00000000000E+00  0.00000000000E+00 -0.40108708081E+03  0.14550007188E+04  0.13986265568E+04 0.  0.
        5    1    3    3  502    0 -0.67270943325E+03  0.16885421145E+03 -0.29340072760E+03  0.75309747262E+03  0.46999998093E+01 0.  1.
       -5    1    3    3    0  502  0.67270943325E+03 -0.16885421145E+03 -0.10768635321E+03  0.70190324616E+03  0.46999998093E+01 0. -1.
</event>
<event>
 5   0  0.6895048E-04  0.1398292E+04  0.7818609E-02  0.8955056E-01
       -2   -1    0    0    0  501  0.00000000000E+00  0.00000000000E+00  0.37182781745E+03  0.37182781745E+03  0.25500000920E-02 0.  1.
        2   -1    0    0  501    0  0.00000000000E+00  0.00000000000E+00 -0.13146007691E+04  0.13146007691E+04  0.25500000920E-02 0. -1.
    10030    2    1    2    0    0  0.00000000000E+00  0.00000000000E+00 -0.94277295169E+03  0.16864285866E+04  0.13982920079E+04 0.  0.
        4    1    3    3  502    0  0.61124080452E+03 -0.51785398200E+02 -0.87592402183E+03  0.10693650235E+04  0.12699999809E+01 0. -1.
       -4    1    3    3    0  502 -0.61124080452E+03  0.51785398200E+02 -0.66848929867E+02  0.61706356309E+03  0.12699999809E+01 0.  1.
</event>
<event>
 5   0  0.3907270E-04  0.1402385E+04  0.7818609E-02  0.8952094E-01
        1   -1    0    0  501    0  0.00000000000E+00  0.00000000000E+00  0.13478847349E+04  0.13478847349E+04  0.50400001928E-02 0.  1.
       -1   -1    0    0    0  501  0.00000000000E+00  0.00000000000E+00 -0.36477244080E+03  0.36477244084E+03  0.50400001928E-02 0. -1.
    10030    2    1    2    0    0  0.00000000000E+00  0.00000000000E+00  0.98311229410E+03  0.17126571758E+04  0.14023854031E+04 0.  0.
        3    1    3    3  502    0 -0.38850951780E+03  0.25287146969E+03  0.11340609025E+04  0.12251439778E+04  0.10100000352E+00 0.  1.
       -3    1    3    3    0  502  0.38850951780E+03 -0.25287146969E+03 -0.15094860838E+03  0.48751319795E+03  0.10100000352E+00 0. -1.
</event>
<event>
 5   0  0.6895048E-04  0.1406188E+04  0.7818609E-02  0.8949351E-01
        2   -1    0    0  501    0  0.00000000000E+00  0.00000000000E+00  0.11351884674E+04  0.11351884674E+04  0.25500000920E-02 0. -1.
       -2   -1    0    0    0  501  0.00000000000E+00  0.00000000000E+00 -0.43547072886E+03  0.43547072887E+03  0.25500000920E-02 0.  1.
    10030    2    1    2    0    0  0.00000000000E+00  0.00000000000E+00  0.69971773855E+03  0.15706591963E+04  0.14061882510E+04 0.  0.
        4    1    3    3  502    0 -0.37551105070E+03  0.27862845095E+03  0.93634103585E+03  0.10466033208E+04  0.12699999809E+01 0. -1.
       -4    1    3    3    0  502  0.37551105070E+03 -0.27862845095E+03 -0.23662329729E+03  0.52405587546E+03  0.12699999809E+01 0.  1.
</event>
<event>
 5   0  0.3784219E-04  0.1404390E+04  0.7818609E-02  0.8950647E-01
       -1   -1    0    0    0  501  0.00000000000E+00  0.00000000000E+00  0.66512415365E+03  0.66512415367E+03  0.50400001928E-02 0.  1.
        1   -1    0    0  501    0  0.00000000000E+00  0.00000000000E+00 -0.74133199097E+03  0.74133199099E+03  0.50400001928E-02 0. -1.
    10030    2    1    2    0    0  0.00000000000E+00  0.00000000000E+00 -0.76207837322E+02  0.14064561447E+04  0.14043899930E+04 0.  0.
        1    1    3    3  502    0 -0.37123997454E+03 -0.52174558914E+03 -0.32669489818E+03  0.71886517165E+03  0.50400001928E-02 0. -1.
       -1    1    3    3    0  502  0.37123997454E+03  0.52174558914E+03  0.25048706086E+03  0.68759097301E+03  0.50400001928E-02 0.  1.
</event>
<event>
 5   0  0.3784219E-04  0.1391149E+04  0.7818609E-02  0.8960250E-01
        1   -1    0    0  501    0  0.00000000000E+00  0.00000000000E+00  0.76354574331E+03  0.76354574333E+03  0.50400001928E-02 0.  1.
       -1   -1    0    0    0  501  0.00000000000E+00  0.00000000000E+00 -0.63365432847E+03  0.63365432849E+03  0.50400001928E-02 0. -1.
    10030    2    1    2    0    0  0.00000000000E+00  0.00000000000E+00  0.12989141485E+03  0.13972000718E+04  0.13911492591E+04 0.  0.
        1    1    3    3  502    0  0.60377010063E+02  0.32743472548E+03 -0.54841932845E+03  0.64157824358E+03  0.50400001928E-02 0. -1.
       -1    1    3    3    0  502 -0.60377010063E+02 -0.32743472548E+03  0.67831074330E+03  0.75562182823E+03  0.50400001928E-02 0.  1.
</event>
<event>
 5   0  0.6895048E-04  0.1406489E+04  0.7818609E-02  0.8949135E-01
       -2   -1    0    0    0  501  0.00000000000E+00  0.00000000000E+00  0.16047825765E+03  0.16047825767E+03  0.25500000920E-02 0.  1.
        2   -1    0    0  501    0  0.00000000000E+00  0.00000000000E+00 -0.30817429718E+04  0.30817429718E+04  0.25500000920E-02 0. -1.
    10030    2    1    2    0    0  0.00000000000E+00  0.00000000000E+00 -0.29212647141E+04  0.32422212295E+04  0.14064888804E+04 0.  0.
        4    1    3    3  502    0  0.16370427450E+03 -0.67846037647E+03 -0.12617498315E+04  0.14419160247E+04  0.12699999809E+01 0.  1.
       -4    1    3    3    0  502 -0.16370427450E+03  0.67846037647E+03 -0.16595148826E+04  0.18003052048E+04  0.12699999809E+01 0. -1.
</event>
<event>
 5   0  0.7065539E-04  0.1392585E+04  0.7818609E-02  0.8959203E-01
        2   -1    0    0  501    0  0.00000000000E+00  0.00000000000E+00  0.94599086189E+03  0.94599086190E+03  0.25500000920E-02 0. -1.
       -2   -1    0    0    0  501  0.00000000000E+00  0.00000000000E+00 -0.51250309260E+03  0.51250309261E+03  0.25500000920E-02 0.  1.
    10030    2    1    2    0    0  0.00000000000E+00  0.00000000000E+00  0.43348776929E+03  0.14584939545E+04  0.13925849953E+04 0.  0.
        1    1    3    3  502    0 -0.60788219070E+03 -0.33521965362E+02 -0.13715206110E+03  0.62406343253E+03  0.50400001928E-02 0.  1.
       -1    1    3    3    0  502  0.60788219070E+03  0.33521965362E+02  0.57063983039E+03  0.83443052197E+03  0.50400001928E-02 0. -1.
</event>
<event>
 5   0  0.6870835E-04  0.1397808E+04  0.7818609E-02  0.8955407E-01
        2   -1    0    0  501    0  0.00000000000E+00  0.00000000000E+00  0.76552567973E+03  0.76552567974E+03  0.25500000920E-02 0. -1.
       -2   -1    0    0    0  501  0.00000000000E+00  0.00000000000E+00 -0.63808023872E+03  0.63808023872E+03  0.25500000920E-02 0.  1.
    10030    2    1    2    0    0  0.00000000000E+00  0.00000000000E+00  0.12744544101E+03  0.14036059185E+04  0.13978080104E+04 0.  0.
        2    1    3    3  502    0  0.44715657990E+02  0.63452507996E+03 -0.22703876252E+03  0.67540222598E+03  0.25500000920E-02 0. -1.
       -2    1    3    3    0  502 -0.44715657990E+02 -0.63452507996E+03  0.35448420354E+03  0.72820369247E+03  0.25500000920E-02 0.  1.
</event>
<event>
 5   0  0.6895048E-04  0.1387772E+04  0.7818609E-02  0.8962718E-01
        2   -1    0    0  501    0  0.00000000000E+00  0.00000000000E+00  0.17369228876E+04  0.17369228876E+04  0.25500000920E-02 0.  1.
       -2   -1    0    0    0  501  0.00000000000E+00  0.00000000000E+00 -0.27720141785E+03  0.27720141786E+03  0.25500000920E-02 0. -1.
    10030    2    1    2    0    0  0.00000000000E+00  0.00000000000E+00  0.14597214698E+04  0.20141243055E+04  0.13877715765E+04 0.  0.
        4    1    3    3  502    0  0.23498182028E+03 -0.52647210417E+03  0.12902470263E+04  0.14131979105E+04  0.12699999809E+01 0.  1.
       -4    1    3    3    0  502 -0.23498182028E+03  0.52647210417E+03  0.16947444345E+03  0.60092639500E+03  0.12699999809E+01 0. -1.
</event>
<event>
 5   0  0.3784219E-04  0.1403535E+04  0.7818609E-02  0.8951264E-01
       -1   -1    0    0    0  501  0.00000000000E+00  0.00000000000E+00  0.33235773378E+03  0.33235773382E+03  0.50400001928E-02 0.  1.
        1   -1    0    0  501    0  0.00000000000E+00  0.00000000000E+00 -0.14817691167E+04  0.14817691167E+04  0.50400001928E-02 0. -1.
    10030    2    1    2    0    0  0.00000000000E+00  0.00000000000E+00 -0.11494113829E+04  0.18141268505E+04  0.14035347173E+04 0.  0.
        1    1    3    3  502    0  0.53355439052E+03  0.17619774218E+03 -0.11181137041E+04  0.12513609341E+04  0.50400001928E-02 0. -1.
       -1    1    3    3    0  502 -0.53355439052E+03 -0.17619774218E+03 -0.31297678804E+02  0.56276591645E+03  0.50400001928E-02 0.  1.
</event>
<event>
 5   0  0.3907270E-04  0.1395841E+04  0.7818609E-02  0.8956834E-01
        1   -1    0    0  501    0  0.00000000000E+00  0.00000000000E+00  0.18839418529E+04  0.18839418529E+04  0.50400001928E-02 0. -1.
       -1   -1    0    0    0  501  0.00000000000E+00  0.00000000000E+00 -0.25855003225E+03  0.25855003230E+03  0.50400001928E-02 0.  1.
    10030    2    1    2    0    0  0.00000000000E+00  0.00000000000E+00  0.16253918207E+04  0.21424918852E+04  0.13958412903E+04 0.  0.
        3    1    3    3  502    0  0.29776457037E+03 -0.26173064088E+03 -0.68945086319E+02  0.40239297071E+03  0.10100000352E+00 0.  1.
       -3    1    3    3    0  502 -0.29776457037E+03  0.26173064088E+03  0.16943369070E+04  0.17400989145E+04  0.10100000352E+00 0. -1.
</event>
<event>
 5   0  0.6870835E-04  0.1384584E+04  0.7818609E-02  0.8965053E-01
       -2   -1    0    0    0  501  0.00000000000E+00  0.00000000000E+00  0.77340854391E+03  0.77340854392E+03  0.25500000920E-02 0.  1.
        2   -1    0    0  501    0  0.00000000000E+00  0.00000000000E+00 -0.61968332097E+03  0.61968332097E+03  0.25500000920E-02 0. -1.
    10030    2    1    2    0    0  0.00000000000E+00  0.00000000000E+00  0.15372522295E+03  0.13930918649E+04  0.13845842336E+04 0.  0.
        2    1    3    3  502    0 -0.11782615533E+03 -0.52947629599E+03  0.50966878510E+03  0.74430532808E+03  0.25500000920E-02 0.  1.
       -2    1    3    3    0  502  0.11782615533E+03  0.52947629599E+03 -0.35594356216E+03  0.64878653681E+03  0.25500000920E-02 0. -1.
</event>
<event>
 5   0  0.3756664E-04  0.1394991E+04  0.7818609E-02  0.8957452E-01
       -1   -1    0    0    0  501  0.00000000000E+00  0.00000000000E+00  0.51084449897E+03  0.51084449900E+03  0.50400001928E-02 0.  1.
        1   -1    0    0  501    0  0.00000000000E+00  0.00000000000E+00 -0.95234459775E+03  0.95234459776E+03  0.50400001928E-02 0. -1.
    10030    2    1    2    0    0  0.00000000000E+00  0.00000000000E+00 -0.44150009878E+03  0.14631890968E+04  0.13949910378E+04 0.  0.
        2    1    3    3  502    0 -0.51242847219E+03  0.46890496762E+03 -0.28746122011E+03  0.75172385944E+03  0.25500000920E-02 0.  1.
       -2    1    3    3    0  502  0.51242847219E+03 -0.46890496762E+03 -0.15403887867E+03  0.71146523733E+03  0.25500000920E-02 0. -1.
</event>
<event>
 5   0  0.3756664E-04  0.1418650E+04  0.7818609E-02  0.8940428E-01
        1   -1    0    0  501    0  0.00000000000E+00  0.00000000000E+00  0.16859895171E+04  0.16859895171E+04  0.50400001928E-02 0. -1.
       -1   -1    0    0    0  501  0.00000000000E+00  0.00000000000E+00 -0.29842522139E+03  0.29842522143E+03  0.50400001928E-02 0.  1.
    10030    2    1    2    0    0  0.00000000000E+00  0.00000000000E+00  0.13875642957E+04  0.19844147386E+04  0.14186497735E+04 0.  0.
        2    1    3    3  502    0  0.69297205547E+03  0.12633173163E+02  0.90486704152E+03  0.11398044699E+04  0.25500000920E-02 0. -1.
       -2    1    3    3    0  502 -0.69297205547E+03 -0.12633173163E+02  0.48269725422E+03  0.84461026868E+03  0.25500000920E-02 0.  1.
</event>
<event>
 5   0  0.3907093E-04  0.1397449E+04  0.7818609E-02  0.8955667E-01
       -1   -1    0    0    0  501  0.00000000000E+00  0.00000000000E+00  0.21287270652E+03  0.21287270658E+03  0.50400001928E-02 0.  1.
        1   -1    0    0  501    0  0.00000000000E+00  0.00000000000E+00 -0.22934634952E+04  0.22934634953E+04  0.50400001928E-02 0. -1.
    10030    2    1    2    0    0  0.00000000000E+00  0.00000000000E+00 -0.20805907887E+04  0.25063362018E+04  0.13974487921E+04 0.  0.
        4    1    3    3  502    0 -0.65768020153E+02  0.10952411427E+03 -0.22723367509E+04  0.22759255011E+04  0.12699999809E+01 0. -1.
       -4    1    3    3    0  502  0.65768020153E+02 -0.10952411427E+03  0.19174596221E+03  0.23041070072E+03  0.12699999809E+01 0.  1.
</event>
<event>
 5   0  0.6870835E-04  0.1399311E+04  0.7818609E-02  0.8954317E-01
       -2   -1    0    0    0  501  0.00000000000E+00  0.00000000000E+00  0.47216047621E+03  0.47216047622E+03  0.25500000920E-02 0. -1.
        2   -1    0    0  501    0  0.00000000000E+00  0.00000000000E+00 -0.10367621721E+04  0.10367621722E+04  0.25500000920E-02 0.  1.
    10030    2    1    2    0    0  0.00000000000E+00  0.00000000000E+00 -0.56460169594E+03  0.15089226484E+04  0.13993114320E+04 0.  0.
        2    1    3    3  502    0  0.43568710905E+03 -0.52022900607E+03 -0.46611346991E+03  0.82323948070E+03  0.25500000920E-02 0.  1.
       -2    1    3    3    0  502 -0.43568710905E+03  0.52022900607E+03 -0.98488226031E+02  0.68568316767E+03  0.25500000920E-02 0. -1.
</event>
<event>
 5   0  0.3784219E-04  0.1403536E+04  0.7818609E-02  0.8951263E-01
       -1   -1    0    0    0  501  0.00000000000E+00  0.00000000000E+00  0.54433644285E+03  0.54433644287E+03  0.50400001928E-02 0.  1.
        1   -1    0    0  501    0  0.00000000000E+00  0.00000000000E+00 -0.90473165616E+03  0.90473165617E+03  0.50400001928E-02 0. -1.
    10030    2    1    2    0    0  0.00000000000E+00  0.00000000000E+00 -0.36039521331E+03  0.14490680990E+04  0.14035361220E+04 0.  0.
        1    1    3    3  502    0  0.38165251524E+03  0.47173028831E+03 -0.54418289176E+03  0.81506019840E+03  0.50400001928E-02 0. -1.
       -1    1    3    3    0  502 -0.38165251524E+03 -0.47173028831E+03  0.18378767846E+03  0.63400790064E+03  0.50400001928E-02 0.  1.
</event>
<event>
 5   0  0.6870835E-04  0.1395590E+04  0.7818609E-02  0.8957017E-01
        2   -1    0    0  501    0  0.00000000000E+00  0.00000000000E+00  0.59017905304E+03  0.59017905304E+03  0.25500000920E-02 0. -1.
       -2   -1    0    0    0  501  0.00000000000E+00  0.00000000000E+00 -0.82503392460E+03  0.82503392461E+03  0.25500000920E-02 0.  1.
    10030    2    1    2    0    0  0.00000000000E+00  0.00000000000E+00 -0.23485487157E+03  0.14152129776E+04  0.13955898256E+04 0.  0.
        2    1    3    3  502    0  0.34676176275E+02  0.45512352142E+03  0.41779871547E+03  0.61878560391E+03  0.25500000920E-02 0. -1.
       -2    1    3    3    0  502 -0.34676176275E+02 -0.45512352142E+03 -0.65265358704E+03  0.79642737374E+03  0.25500000920E-02 0.  1.
</event>
<event>
 5   0  0.6870835E-04  0.1407534E+04  0.7818609E-02  0.8948383E-01
        2   -1    0    0  501    0  0.00000000000E+00  0.00000000000E+00  0.11660397177E+04  0.11660397177E+04  0.25500000920E-02 0. -1.
       -2   -1    0    0    0  501  0.00000000000E+00  0.00000000000E+00 -0.42476080536E+03  0.42476080537E+03  0.25500000920E-02 0.  1.
    10030    2    1    2    0    0  0.00000000000E+00  0.00000000000E+00  0.74127891233E+03  0.15908005231E+04  0.14075339706E+04 0.  0.
        2    1    3    3  502    0 -0.15619429078E+03  0.59890333305E+03 -0.79470186244E+01  0.61898708704E+03  0.25500000920E-02 0.  1.
       -2    1    3    3    0  502  0.15619429078E+03 -0.59890333305E+03  0.74922593096E+03  0.97181343602E+03  0.25500000920E-02 0. -1.
</event>
<event>
 5   0  0.6870835E-04  0.1406318E+04  0.7818609E-02  0.8949258E-01
       -2   -1    0    0    0  501  0.00000000000E+00  0.00000000000E+00  0.52721821421E+03  0.52721821421E+03  0.25500000920E-02 0. -1.
        2   -1    0    0  501    0  0.00000000000E+00  0.00000000000E+00 -0.93781345274E+03  0.93781345274E+03  0.25500000920E-02 0.  1.
    10030    2    1    2    0    0  0.00000000000E+00  0.00000000000E+00 -0.41059523853E+03  0.14650316670E+04  0.14063176509E+04 0.  0.
        2    1    3    3  502    0  0.64814458555E+02  0.24933572350E+03 -0.88687864081E+03  0.92353827240E+03  0.25500000920E-02 0.  1.
       -2    1    3    3    0  502 -0.64814458555E+02 -0.24933572350E+03  0.47628340228E+03  0.54149339455E+03  0.25500000920E-02 0. -1.
</event>
<event>
 5   0  0.7065539E-04  0.1398043E+04  0.7818609E-02  0.8955236E-01
        2   -1    0    0  501    0  0.00000000000E+00  0.00000000000E+00  0.17715891423E+04  0.17715891424E+04  0.25500000920E-02 0.  1.
       -2   -1    0    0    0  501  0.00000000000E+00  0.00000000000E+00 -0.27581506341E+03  0.27581506342E+03  0.25500000920E-02 0. -1.
    10030    2    1    2    0    0  0.00000000000E+00  0.00000000000E+00  0.14957740789E+04  0.20474042058E+04  0.13980428772E+04 0.  0.
        1    1    3    3  502    0  0.49798966297E+03 -0.35923294568E+03  0.12370952202E+04  0.13811033986E+04  0.50400001928E-02 0.  1.
       -1    1    3    3    0  502 -0.49798966297E+03  0.35923294568E+03  0.25867885873E+03  0.66630080719E+03  0.50400001928E-02 0. -1.
</event>
<event>
 5   0  0.3756664E-04  0.1384265E+04  0.7818609E-02  0.8965288E-01
       -1   -1    0    0    0  501  0.00000000000E+00  0.00000000000E+00  0.44831115697E+03  0.44831115700E+03  0.50400001928E-02 0.  1.
        1   -1    0    0  501    0  0.00000000000E+00  0.00000000000E+00 -0.10685599735E+04  0.10685599735E+04  0.50400001928E-02 0. -1.
    10030    2    1    2    0    0  0.00000000000E+00  0.00000000000E+00 -0.62024881650E+03  0.15168711305E+04  0.13842649429E+04 0.  0.
        2    1    3    3  502    0 -0.12582837852E+03  0.34962204762E+03 -0.94999666767E+03  0.10200794212E+04  0.25500000920E-02 0. -1.
       -2    1    3    3    0  502  0.12582837852E+03 -0.34962204762E+03  0.32974785117E+03  0.49679170925E+03  0.25500000920E-02 0.  1.
</event>
<event>
 5   0  0.6895048E-04  0.1399269E+04  0.7818609E-02  0.8954348E-01
        2   -1    0    0  501    0  0.00000000000E+00  0.00000000000E+00  0.10332462788E+04  0.10332462788E+04  0.25500000920E-02 0.  1.
       -2   -1    0    0    0  501  0.00000000000E+00  0.00000000000E+00 -0.47373840915E+03  0.47373840916E+03  0.25500000920E-02 0. -1.
    10030    2    1    2    0    0  0.00000000000E+00  0.00000000000E+00  0.55950786968E+03  0.15069846880E+04  0.13992690212E+04 0.  0.
        4    1    3    3  502    0  0.58541415217E+03  0.34121171867E+03  0.46738247905E+03  0.82315439690E+03  0.12699999809E+01 0.  1.
       -4    1    3    3    0  502 -0.58541415217E+03 -0.34121171867E+03  0.92125390629E+02  0.68383029109E+03  0.12699999809E+01 0. -1.
</event>
<event>
 5   0  0.6959748E-04  0.1399812E+04  0.7818609E-02  0.8953955E-01
        2   -1    0    0  501    0  0.00000000000E+00  0.00000000000E+00  0.40077541907E+03  0.40077541908E+03  0.25500000920E-02 0. -1.
       -2   -1    0    0    0  501  0.00000000000E+00  0.00000000000E+00 -0.12223015301E+04  0.12223015301E+04  0.25500000920E-02 0.  1.
    10030    2    1    2    0    0  0.00000000000E+00  0.00000000000E+00 -0.82152611103E+03  0.16230769492E+04  0.13998119988E+04 0.  0.
        5    1    3    3  502    0  0.23844045398E+02  0.32331788983E+03  0.30844566255E+03  0.44750845035E+03  0.46999998093E+01 0. -1.
       -5    1    3    3    0  502 -0.23844045398E+02 -0.32331788983E+03 -0.11299717736E+04  0.11755684988E+04  0.46999998093E+01 0.  1.
</event>
<event>
 5   0  0.3907270E-04  0.1420936E+04  0.7818609E-02  0.8938802E-01
       -1   -1    0    0    0  501  0.00000000000E+00  0.00000000000E+00  0.55412068103E+03  0.55412068106E+03  0.50400001928E-02 0. -1.
        1   -1    0    0  501    0  0.00000000000E+00  0.00000000000E+00 -0.91092968734E+03  0.91092968735E+03  0.50400001928E-02 0.  1.
    10030    2    1    2    0    0  0.00000000000E+00  0.00000000000E+00 -0.35680900631E+03  0.14650503684E+04  0.14209362811E+04 0.  0.
        3    1    3    3  502    0  0.23917466923E+03 -0.36240229000E+03  0.40139264032E+03  0.59131717724E+03  0.10100000352E+00 0. -1.
       -3    1    3    3    0  502 -0.23917466923E+03  0.36240229000E+03 -0.75820164663E+03  0.87373319117E+03  0.10100000352E+00 0.  1.
</event>
<event>
 5   0  0.6959748E-04  0.1397492E+04  0.7818609E-02  0.8955636E-01
       -2   -1    0    0    0  501  0.00000000000E+00  0.00000000000E+00  0.76945663109E+03  0.76945663109E+03  0.25500000920E-02 0.  1.
        2   -1    0    0  501    0  0.00000000000E+00  0.00000000000E+00 -0.63453351662E+03  0.63453351663E+03  0.25500000920E-02 0. -1.
    10030    2    1    2    0    0  0.00000000000E+00  0.00000000000E+00  0.13492311446E+03  0.14039901477E+04  0.13974920708E+04 0.  0.
        5    1    3    3  502    0  0.14134603988E+03 -0.57028984217E+03 -0.31246975302E+03  0.66548376661E+03  0.46999998093E+01 0. -1.
       -5    1    3    3    0  502 -0.14134603988E+03  0.57028984217E+03  0.44739286748E+03  0.73850638111E+03  0.46999998093E+01 0.  1.
</event>
<event>
 5   0  0.3977658E-04  0.1380827E+04  0.7818609E-02  0.8967815E-01
        1   -1    0    0  501    0  0.00000000000E+00  0.00000000000E+00  0.93100856020E+03  0.93100856021E+03  0.50400001928E-02 0. -1.
       -1   -1    0    0    0  501  0.00000000000E+00  0.00000000000E+00 -0.51199412705E+03  0.51199412708E+03  0.50400001928E-02 0.  1.
    10030    2    1    2    0    0  0.00000000000E+00  0.00000000000E+00  0.41901443314E+03  0.14430026873E+04  0.13808271653E+04 0.  0.
        5    1    3    3  502    0 -0.15705024782E+03  0.34994971121E+03 -0.39037806848E+03  0.54730860313E+03  0.46999998093E+01 0.  1.
       -5    1    3    3    0  502  0.15705024782E+03 -0.34994971121E+03  0.80939250162E+03  0.89569408416E+03  0.46999998093E+01 0. -1.
</event>
<event>
 5   0  0.6959748E-04  0.1392100E+04  0.7818609E-02  0.8959557E-01
        2   -1    0    0  501    0  0.00000000000E+00  0.00000000000E+00  0.14487191547E+04  0.14487191547E+04  0.25500000920E-02 0. -1.
       -2   -1    0    0    0  501  0.00000000000E+00  0.00000000000E+00 -0.33442335179E+03  0.33442335180E+03  0.25500000920E-02 0.  1.
    10030    2    1    2    0    0  0.00000000000E+00  0.00000000000E+00  0.11142958029E+04  0.17831425065E+04  0.13920998750E+04 0.  0.
        5    1    3    3  502    0 -0.17196635432E+03 -0.13527465190E+03  0.14035045873E+04  0.14204643167E+04  0.46999998093E+01 0. -1.
       -5    1    3    3    0  502  0.17196635432E+03  0.13527465190E+03 -0.28920878433E+03  0.36267818985E+03  0.46999998093E+01 0.  1.
</event>
<event>
 5   0  0.6870835E-04  0.1233907E+04  0.7818609E-02  0.9083685E-01
        2   -1    0    0  501    0  0.00000000000E+00  0.00000000000E+00  0.11647260314E+04  0.11647260314E+04  0.25500000920E-02 0. -1.
       -2   -1    0    0    0  501  0.00000000000E+00  0.00000000000E+00 -0.32679907017E+03  0.32679907018E+03  0.25500000920E-02 0.  1.
    10030    2    1    2    0    0  0.00000000000E+00  0.00000000000E+00  0.83792696119E+03  0.14915251015E+04  0.12339066157E+04 0.  0.
        2    1    3    3  502    0  0.50707188918E+02  0.60219726231E+03  0.26886680997E+03  0.66143943279E+03  0.25500000920E-02 0.  1.
       -2    1    3    3    0  502 -0.50707188918E+02 -0.60219726231E+03  0.56906015123E+03  0.83008566875E+03  0.25500000920E-02 0. -1.
</event>
<event>
 5   0  0.3784219E-04  0.1400065E+04  0.7818609E-02  0.8953771E-01
        1   -1    0    0  501    0  0.00000000000E+00  0.00000000000E+00  0.16322483263E+04  0.16322483263E+04  0.50400001928E-02 0.  1.
       -1   -1    0    0    0  501  0.00000000000E+00  0.00000000000E+00 -0.30022731424E+03  0.30022731428E+03  0.50400001928E-02 0. -1.
    10030    2    1    2    0    0  0.00000000000E+00  0.00000000000E+00  0.13320210121E+04  0.19324756406E+04  0.14000650431E+04 0.  0.
        1    1    3    3  502    0 -0.23147562389E+03 -0.66017465681E+03  0.70076466348E+03  0.99019324152E+03  0.50400001928E-02 0. -1.
       -1    1    3    3    0  502  0.23147562389E+03  0.66017465681E+03  0.63125634861E+03  0.94228239909E+03  0.50400001928E-02 0.  1.
</event>
<event>
 5   0  0.3784219E-04  0.1406806E+04  0.7818609E-02  0.8948907E-01
       -1   -1    0    0    0  501  0.00000000000E+00  0.00000000000E+00  0.11595995697E+04  0.11595995697E+04  0.50400001928E-02 0.  1.
        1   -1    0    0  501    0  0.00000000000E+00  0.00000000000E+00 -0.42667810568E+03  0.42667810571E+03  0.50400001928E-02 0. -1.
    10030    2    1    2    0    0  0.00000000000E+00  0.00000000000E+00  0.73292146399E+03  0.15862776754E+04  0.14068059536E+04 0.  0.
        1    1    3    3  502    0  0.15375954499E+03 -0.38075603874E+03  0.10104215219E+04  0.10906735583E+04  0.50400001928E-02 0.  1.
       -1    1    3    3    0  502 -0.15375954499E+03  0.38075603874E+03 -0.27750005795E+03  0.49560411711E+03  0.50400001928E-02 0. -1.
</event>
<event>
 5   0  0.6895048E-04  0.1382699E+04  0.7818609E-02  0.8966438E-01
       -2   -1    0    0    0  501  0.00000000000E+00  0.00000000000E+00  0.21243513315E+03  0.21243513317E+03  0.25500000920E-02 0. -1.
        2   -1    0    0  501    0  0.00000000000E+00  0.00000000000E+00 -0.22499310413E+04  0.22499310413E+04  0.25500000920E-02 0.  1.
    10030    2    1    2    0    0  0.00000000000E+00  0.00000000000E+00 -0.20374959081E+04  0.24623661744E+04  0.13826993894E+04 0.  0.
        4    1    3    3  502    0 -0.64409768386E+02  0.44720397534E+03 -0.19506272184E+04  0.20022707539E+04  0.12699999809E+01 0.  1.
       -4    1    3    3    0  502  0.64409768386E+02 -0.44720397534E+03 -0.86868689665E+02  0.46009542050E+03  0.12699999809E+01 0. -1.
</event>
<event>
 5   0  0.6895048E-04  0.1409168E+04  0.7818609E-02  0.8947209E-01
       -2   -1    0    0    0  501  0.00000000000E+00  0.00000000000E+00  0.30769382477E+03  0.30769382478E+03  0.25500000920E-02 0. -1.
        2   -1    0    0  501    0  0.00000000000E+00  0.00000000000E+00 -0.16134176508E+04  0.16134176508E+04  0.25500000920E-02 0.  1.
    10030    2    1    2    0    0  0.00000000000E+00  0.00000000000E+00 -0.13057238260E+04  0.19211114756E+04  0.14091680495E+04 0.  0.
        4    1    3    3  502    0 -0.50313427443E+03 -0.37812951774E+03 -0.10846434508E+04  0.12540251427E+04  0.12699999809E+01 0.  1.
       -4    1    3    3    0  502  0.50313427443E+03  0.37812951774E+03 -0.22108037524E+03  0.66708633287E+03  0.12699999809E+01 0. -1.
</event>
<event>
 5   0  0.7065539E-04  0.1382059E+04  0.7818609E-02  0.8966909E-01
       -2   -1    0    0    0  501  0.00000000000E+00  0.00000000000E+00  0.11315411442E+04  0.11315411442E+04  0.25500000920E-02 0. -1.
        2   -1    0    0  501    0  0.00000000000E+00  0.00000000000E+00 -0.42201001965E+03  0.42201001965E+03  0.25500000920E-02 0.  1.
    10030    2    1    2    0    0  0.00000000000E+00  0.00000000000E+00  0.70953112456E+03  0.15535511639E+04  0.13820588996E+04 0.  0.
        1    1    3    3  502    0 -0.25234814295E+03 -0.57150816117E+03  0.22788263592E+02  0.62515635526E+03  0.50400001928E-02 0.  1.
       -1    1    3    3    0  502  0.25234814295E+03  0.57150816117E+03  0.68674286097E+03  0.92839480861E+03  0.50400001928E-02 0. -1.
</event>
<event>
 5   0  0.6959748E-04  0.1403636E+04  0.7818609E-02  0.8951191E-01
        2   -1    0    0  501    0  0.00000000000E+00  0.00000000000E+00  0.18710536808E+04  0.18710536808E+04  0.25500000920E-02 0.  1.
       -2   -1    0    0    0  501  0.00000000000E+00  0.00000000000E+00 -0.26324655218E+03  0.26324655219E+03  0.25500000920E-02 0. -1.
    10030    2    1    2    0    0  0.00000000000E+00  0.00000000000E+00  0.16078071286E+04  0.21343002330E+04  0.14036358936E+04 0.  0.
        5    1    3    3  502    0  0.57094358593E+03  0.26303273017E+03  0.12783631610E+04  0.14245691478E+04  0.46999998093E+01 0.  1.
       -5    1    3    3    0  502 -0.57094358593E+03 -0.26303273017E+03  0.32944396755E+03  0.70973108513E+03  0.46999998093E+01 0. -1.
</event>
<event>
 5   0  0.3907270E-04  0.1398607E+04  0.7818609E-02  0.8954828E-01
       -1   -1    0    0    0  501  0.00000000000E+00  0.00000000000E+00  0.80128781443E+03  0.80128781444E+03  0.50400001928E-02 0.  1.
        1   -1    0    0  501    0  0.00000000000E+00  0.00000000000E+00 -0.61029916624E+03  0.61029916626E+03  0.50400001928E-02 0. -1.
    10030    2    1    2    0    0  0.00000000000E+00  0.00000000000E+00  0.19098864819E+03  0.14115869807E+04  0.13986068570E+04 0.  0.
        3    1    3    3  502    0  0.11470743351E+03  0.55246444398E+03 -0.32143822033E+03  0.64938224249E+03  0.10100000352E+00 0. -1.
       -3    1    3    3    0  502 -0.11470743351E+03 -0.55246444398E+03  0.51242686852E+03  0.76220473821E+03  0.10100000352E+00 0.  1.
</event>
<event>
 5   0  0.3784219E-04  0.1398306E+04  0.7818609E-02  0.8955046E-01
       -1   -1    0    0    0  501  0.00000000000E+00  0.00000000000E+00  0.38620363564E+03  0.38620363567E+03  0.50400001928E-02 0.  1.
        1   -1    0    0  501    0  0.00000000000E+00  0.00000000000E+00 -0.12656915042E+04  0.12656915042E+04  0.50400001928E-02 0. -1.
    10030    2    1    2    0    0  0.00000000000E+00  0.00000000000E+00 -0.87948786858E+03  0.16518951399E+04  0.13983056326E+04 0.  0.
        1    1    3    3  502    0 -0.50335658971E+03  0.36138603686E+03 -0.82226754021E+03  0.10296075134E+04  0.50400001928E-02 0. -1.
       -1    1    3    3    0  502  0.50335658971E+03 -0.36138603686E+03 -0.57220328366E+02  0.62228762646E+03  0.50400001928E-02 0.  1.
</event>
<event>
 5   0  0.6870835E-04  0.1371010E+04  0.7818609E-02  0.8975074E-01
        2   -1    0    0  501    0  0.00000000000E+00  0.00000000000E+00  0.93660231923E+03  0.93660231923E+03  0.25500000920E-02 0.  1.
       -2   -1    0    0    0  501  0.00000000000E+00  0.00000000000E+00 -0.50172555605E+03  0.50172555606E+03  0.25500000920E-02 0. -1.
    10030    2    1    2    0    0  0.00000000000E+00  0.00000000000E+00  0.43487676317E+03  0.14383278753E+04  0.13710103128E+04 0.  0.
        2    1    3    3  502    0 -0.37916182663E+03 -0.54690221143E+03  0.38998786064E+03  0.77133407230E+03  0.25500000920E-02 0.  1.
       -2    1    3    3    0  502  0.37916182663E+03  0.54690221143E+03  0.44888902533E+02  0.66699380298E+03  0.25500000920E-02 0. -1.
</event>
<event>
 5   0  0.3977658E-04  0.1425589E+04  0.7818609E-02  0.8935502E-01
        1   -1    0    0  501    0  0.00000000000E+00  0.00000000000E+00  0.41307099594E+03  0.41307099597E+03  0.50400001928E-02 0.  1.
       -1   -1    0    0    0  501  0.00000000000E+00  0.00000000000E+00 -0.12299964200E+04  0.12299964200E+04  0.50400001928E-02 0. -1.
    10030    2    1    2    0    0  0.00000000000E+00  0.00000000000E+00 -0.81692542409E+03  0.16430674160E+04  0.14255887854E+04 0.  0.
        5    1    3    3  502    0  0.45756175541E+03 -0.51567299410E+03 -0.61711106814E+03  0.92527269347E+03  0.46999998093E+01 0. -1.
       -5    1    3    3    0  502 -0.45756175541E+03  0.51567299410E+03 -0.19981435595E+03  0.71779472254E+03  0.46999998093E+01 0.  1.
</event>
<event>
 5   0  0.3784219E-04  0.1391655E+04  0.7818609E-02  0.8959881E-01
        1   -1    0    0  501    0  0.00000000000E+00  0.00000000000E+00  0.45972231749E+03  0.45972231751E+03  0.50400001928E-02 0. -1.
       -1   -1    0    0    0  501  0.00000000000E+00  0.00000000000E+00 -0.10531918845E+04  0.10531918846E+04  0.50400001928E-02 0.  1.
    10030    2    1    2    0    0  0.00000000000E+00  0.00000000000E+00 -0.59346956706E+03  0.15129142021E+04  0.13916548623E+04 0.  0.
        1    1    3    3  502    0  0.17021429458E+03  0.65925372195E+03 -0.14074939826E+03  0.69526884665E+03  0.50400001928E-02 0.  1.
       -1    1    3    3    0  502 -0.17021429458E+03 -0.65925372195E+03 -0.45272016880E+03  0.81764535542E+03  0.50400001928E-02 0. -1.
</event>
<event>
 5   0  0.3756664E-04  0.1398297E+04  0.7818609E-02  0.8955052E-01
       -1   -1    0    0    0  501  0.00000000000E+00  0.00000000000E+00  0.36100248239E+03  0.36100248243E+03  0.50400001928E-02 0.  1.
        1   -1    0    0  501    0  0.00000000000E+00  0.00000000000E+00 -0.13540310907E+04  0.13540310907E+04  0.50400001928E-02 0. -1.
    10030    2    1    2    0    0  0.00000000000E+00  0.00000000000E+00 -0.99302860834E+03  0.17150335732E+04  0.13982969428E+04 0.  0.
        2    1    3    3  502    0  0.11452923431E+03 -0.68411529813E+03 -0.38904253508E+03  0.79528911771E+03  0.25500000920E-02 0.  1.
       -2    1    3    3    0  502 -0.11452923431E+03  0.68411529813E+03 -0.60398607326E+03  0.91974445546E+03  0.25500000920E-02 0. -1.
</event>
<event>
 5   0  0.6870835E-04  0.1378637E+04  0.7818609E-02  0.8969429E-01
       -2   -1    0    0    0  501  0.00000000000E+00  0.00000000000E+00  0.44535262036E+03  0.44535262037E+03  0.25500000920E-02 0. -1.
        2   -1    0    0  501    0  0.00000000000E+00  0.00000000000E+00 -0.10669303819E+04  0.10669303819E+04  0.25500000920E-02 0.  1.
    10030    2    1    2    0    0  0.00000000000E+00  0.00000000000E+00 -0.62157776150E+03  0.15122830022E+04  0.13786373581E+04 0.  0.
        2    1    3    3  502    0  0.60019931383E+03  0.19620593810E+03 -0.61403736200E+03  0.88078253184E+03  0.25500000920E-02 0.  1.
       -2    1    3    3    0  502 -0.60019931383E+03 -0.19620593810E+03 -0.75403995045E+01  0.63150047038E+03  0.25500000920E-02 0. -1.
</event>
<event>
 5   0  0.7296966E-04  0.1409391E+04  0.7818609E-02  0.8947048E-01
       -2   -1    0    0    0  501  0.00000000000E+00  0.00000000000E+00  0.48372315579E+03  0.48372315580E+03  0.25500000920E-02 0.  1.
        2   -1    0    0  501    0  0.00000000000E+00  0.00000000000E+00 -0.10266120820E+04  0.10266120820E+04  0.25500000920E-02 0. -1.
    10030    2    1    2    0    0  0.00000000000E+00  0.00000000000E+00 -0.54288892620E+03  0.15103352378E+04  0.14093914092E+04 0.  0.
        3    1    3    3  502    0 -0.15310210255E+02 -0.70416518703E+03 -0.29571647638E+03  0.76389217679E+03  0.10100000352E+00 0.  1.
       -3    1    3    3    0  502  0.15310210255E+02  0.70416518703E+03 -0.24717244983E+03  0.74644306100E+03  0.10100000352E+00 0. -1.
</event>
<event>
 5   0  0.3977658E-04  0.1399098E+04  0.7818609E-02  0.8954472E-01
       -1   -1    0    0    0  501  0.00000000000E+00  0.00000000000E+00  0.88501146417E+03  0.88501146419E+03  0.50400001928E-02 0.  1.
        1   -1    0    0  501    0  0.00000000000E+00  0.00000000000E+00 -0.55295176228E+03  0.55295176230E+03  0.50400001928E-02 0. -1.
    10030    2    1    2    0    0  0.00000000000E+00  0.00000000000E+00  0.33205970190E+03  0.14379632265E+04  0.13990977790E+04 0.  0.
        5    1    3    3  502    0 -0.30380189006E+03 -0.62737336398E+03  0.10562973437E+03  0.70503379849E+03  0.46999998093E+01 0.  1.
       -5    1    3    3    0  502  0.30380189006E+03  0.62737336398E+03  0.22642996752E+03  0.73292942800E+03  0.46999998093E+01 0. -1.
</event>
<event>
 5   0  0.3784219E-04  0.1406473E+04  0.7818609E-02  0.8949146E-01
        1   -1    0    0  501    0  0.00000000000E+00  0.00000000000E+00  0.13383137997E+04  0.13383137997E+04  0.50400001928E-02 0.  1.
       -1   -1    0    0    0  501  0.00000000000E+00  0.00000000000E+00 -0.36952611340E+03  0.36952611343E+03  0.50400001928E-02 0. -1.
    10030    2    1    2    0    0  0.00000000000E+00  0.00000000000E+00  0.96878768631E+03  0.17078399131E+04  0.14064734579E+04 0.  0.
        1    1    3    3  502    0 -0.69458546915E+03  0.88227188440E+02  0.40468653737E+03  0.80870526417E+03  0.50400001928E-02 0. -1.
       -1    1    3    3    0  502  0.69458546915E+03 -0.88227188440E+02  0.56410114894E+03  0.89913464898E+03  0.50400001928E-02 0.  1.
</event>
<event>
 5   0  0.3907270E-04  0.1312374E+04  0.7818609E-02  0.9019810E-01
       -1   -1    0    0    0  501  0.00000000000E+00  0.00000000000E+00  0.49511278720E+03  0.49511278723E+03  0.50400001928E-02 0.  1.
        1   -1    0    0  501    0  0.00000000000E+00  0.00000000000E+00 -0.86966280415E+03  0.86966280417E+03  0.50400001928E-02 0. -1.
    10030    2    1    2    0    0  0.00000000000E+00  0.00000000000E+00 -0.37455001695E+03  0.13647755914E+04  0.13123736890E+04 0.  0.
        3    1    3    3  502    0  0.13707420487E+03 -0.24225719846E+03 -0.80522681434E+03  0.85197894374E+03  0.10100000352E+00 0. -1.
       -3    1    3    3    0  502 -0.13707420487E+03  0.24225719846E+03  0.43067679738E+03  0.51279664766E+03  0.10100000352E+00 0.  1.
</event>
<event>
 5   0  0.6959748E-04  0.1432147E+04  0.7818609E-02  0.8930872E-01
        2   -1    0    0  501    0  0.00000000000E+00  0.00000000000E+00  0.19078235024E+04  0.19078235024E+04  0.25500000920E-02 0.  1.
       -2   -1    0    0    0  501  0.00000000000E+00  0.00000000000E+00 -0.26876774442E+03  0.26876774443E+03  0.25500000920E-02 0. -1.
    10030    2    1    2    0    0  0.00000000000E+00  0.00000000000E+00  0.16390557580E+04  0.21765912469E+04  0.14321472264E+04 0.  0.
        5    1    3    3  502    0  0.18138021226E+03  0.73626044784E+02  0.18663444622E+04  0.18765882120E+04  0.46999998093E+01 0.  1.
       -5    1    3    3    0  502 -0.18138021226E+03 -0.73626044784E+02 -0.22728870419E+03  0.30000303485E+03  0.46999998093E+01 0. -1.
</event>
<event>
 5   0  0.2660250E-04  0.1402559E+04  0.7818609E-02  0.8951968E-01
        3   -1    0    0  501    0  0.00000000000E+00  0.00000000000E+00  0.11017674490E+04  0.11017674536E+04  0.10100000352E+00 0.  1.
       -3   -1    0    0    0  501  0.00000000000E+00  0.00000000000E+00 -0.44636738775E+03  0.44636739918E+03  0.10100000352E+00 0. -1.
    10030    2    1    2    0    0  0.00000000000E+00  0.00000000000E+00  0.65540006124E+03  0.15481348528E+04  0.14025591903E+04 0.  0.
        2    1    3    3  502    0 -0.69221109695E+03 -0.26483973990E+02  0.44828892030E+03  0.82511851251E+03  0.25500000920E-02 0.  1.
       -2    1    3    3    0  502  0.69221109695E+03  0.26483973990E+02  0.20711114094E+03  0.72301634029E+03  0.25500000920E-02 0. -1.
</event>
<event>
 5   0  0.6870835E-04  0.1396098E+04  0.7818609E-02  0.8956648E-01
       -2   -1    0    0    0  501  0.00000000000E+00  0.00000000000E+00  0.31953101886E+03  0.31953101887E+03  0.25500000920E-02 0. -1.
        2   -1    0    0  501    0  0.00000000000E+00  0.00000000000E+00 -0.15249615480E+04  0.15249615480E+04  0.25500000920E-02 0.  1.
    10030    2    1    2    0    0  0.00000000000E+00  0.00000000000E+00 -0.12054305291E+04  0.18444925668E+04  0.13960981587E+04 0.  0.
        2    1    3    3  502    0 -0.25225255673E+02 -0.68159330970E+03 -0.79897457935E+03  0.10505075591E+04  0.25500000920E-02 0. -1.
       -2    1    3    3    0  502  0.25225255673E+02  0.68159330970E+03 -0.40645594974E+03  0.79398500769E+03  0.25500000920E-02 0.  1.
</event>
<event>
 5   0  0.6870835E-04  0.1343650E+04  0.7818609E-02  0.8995649E-01
       -2   -1    0    0    0  501  0.00000000000E+00  0.00000000000E+00  0.12877591707E+04  0.12877591707E+04  0.25500000920E-02 0.  1.
        2   -1    0    0  501    0  0.00000000000E+00  0.00000000000E+00 -0.35049169279E+03  0.35049169280E+03  0.25500000920E-02 0. -1.
    10030    2    1    2    0    0  0.00000000000E+00  0.00000000000E+00  0.93726747790E+03  0.16382508635E+04  0.13436500908E+04 0.  0.
        2    1    3    3  502    0  0.18308626428E+02  0.42703534409E+03  0.11005961976E+04  0.11806804737E+04  0.25500000920E-02 0.  1.
       -2    1    3    3    0  502 -0.18308626428E+02 -0.42703534409E+03 -0.16332871969E+03  0.45757038976E+03  0.25500000920E-02 0. -1.
</event>
<event>
 5   0  0.6959748E-04  0.1405055E+04  0.7818609E-02  0.8950167E-01
        2   -1    0    0  501    0  0.00000000000E+00  0.00000000000E+00  0.13557465293E+04  0.13557465293E+04  0.25500000920E-02 0.  1.
       -2   -1    0    0    0  501  0.00000000000E+00  0.00000000000E+00 -0.36403929980E+03  0.36403929981E+03  0.25500000920E-02 0. -1.
    10030    2    1    2    0    0  0.00000000000E+00  0.00000000000E+00  0.99170722947E+03  0.17197858291E+04  0.14050551836E+04 0.  0.
        5    1    3    3  502    0  0.48900268858E+03  0.42939688674E+02  0.11109729571E+04  0.12145988834E+04  0.46999998093E+01 0.  1.
       -5    1    3    3    0  502 -0.48900268858E+03 -0.42939688674E+02 -0.11926572759E+03  0.50518694567E+03  0.46999998093E+01 0. -1.
</event>
<event>
 5   0  0.7065539E-04  0.1388405E+04  0.7818609E-02  0.8962254E-01
       -2   -1    0    0    0  501  0.00000000000E+00  0.00000000000E+00  0.35967772293E+03  0.35967772294E+03  0.25500000920E-02 0. -1.
        2   -1    0    0  501    0  0.00000000000E+00  0.00000000000E+00 -0.13398589422E+04  0.13398589422E+04  0.25500000920E-02 0.  1.
    10030    2    1    2    0    0  0.00000000000E+00  0.00000000000E+00 -0.98018121923E+03  0.16995366651E+04  0.13884054356E+04 0.  0.
        1    1    3    3  502    0 -0.29755819118E+03  0.29272034412E+03 -0.11690938816E+04  0.12413728614E+04  0.50400001928E-02 0.  1.
       -1    1    3    3    0  502  0.29755819118E+03 -0.29272034412E+03  0.18891266237E+03  0.45816380371E+03  0.50400001928E-02 0. -1.
</event>
<event>
 5   0  0.6870835E-04  0.1414504E+04  0.7818609E-02  0.8943386E-01
       -2   -1    0    0    0  501  0.00000000000E+00  0.00000000000E+00  0.31221274377E+03  0.31221274378E+03  0.25500000920E-02 0. -1.
        2   -1    0    0  501    0  0.00000000000E+00  0.00000000000E+00 -0.16021291322E+04  0.16021291322E+04  0.25500000920E-02 0.  1.
    10030    2    1    2    0    0  0.00000000000E+00  0.00000000000E+00 -0.12899163884E+04  0.19143418759E+04  0.14145036334E+04 0.  0.
        2    1    3    3  502    0 -0.63244070685E+03 -0.18425447630E+03 -0.29655061889E+03  0.72240793828E+03  0.25500000920E-02 0. -1.
       -2    1    3    3    0  502  0.63244070685E+03  0.18425447630E+03 -0.99336576950E+03  0.11919339377E+04  0.25500000920E-02 0.  1.
</event>
<event>
 5   0  0.7065539E-04  0.1373625E+04  0.7818609E-02  0.8973135E-01
       -2   -1    0    0    0  501  0.00000000000E+00  0.00000000000E+00  0.19118135334E+03  0.19118135336E+03  0.25500000920E-02 0. -1.
        2   -1    0    0  501    0  0.00000000000E+00  0.00000000000E+00 -0.24673499499E+04  0.24673499499E+04  0.25500000920E-02 0.  1.
    10030    2    1    2    0    0  0.00000000000E+00  0.00000000000E+00 -0.22761685965E+04  0.26585313032E+04  0.13736248434E+04 0.  0.
        1    1    3    3  502    0  0.48450582303E+02  0.40010800810E+03 -0.61748580920E+02  0.40773369292E+03  0.50400001928E-02 0. -1.
       -1    1    3    3    0  502 -0.48450582303E+02 -0.40010800810E+03 -0.22144200156E+04  0.22507976103E+04  0.50400001928E-02 0.  1.
</event>
<event>
 5   0  0.3907093E-04  0.1400416E+04  0.7818609E-02  0.8953517E-01
       -1   -1    0    0    0  501  0.00000000000E+00  0.00000000000E+00  0.29247694005E+03  0.29247694009E+03  0.50400001928E-02 0.  1.
        1   -1    0    0  501    0  0.00000000000E+00  0.00000000000E+00 -0.16763416296E+04  0.16763416296E+04  0.50400001928E-02 0. -1.
    10030    2    1    2    0    0  0.00000000000E+00  0.00000000000E+00 -0.13838646896E+04  0.19688185697E+04  0.14004160387E+04 0.  0.
        4    1    3    3  502    0 -0.19546205979E+03 -0.34597735615E+03 -0.15024614545E+04  0.15541228339E+04  0.12699999809E+01 0. -1.
       -4    1    3    3    0  502  0.19546205979E+03  0.34597735615E+03  0.11859676488E+03  0.41469573584E+03  0.12699999809E+01 0.  1.
</event>
<event>
 5   0  0.3907093E-04  0.1360918E+04  0.7818609E-02  0.8982604E-01
       -1   -1    0    0    0  501  0.00000000000E+00  0.00000000000E+00  0.43631534965E+03  0.43631534967E+03  0.50400001928E-02 0. -1.
        1   -1    0    0  501    0  0.00000000000E+00  0.00000000000E+00 -0.10612145954E+04  0.10612145954E+04  0.50400001928E-02 0.  1.
    10030    2    1    2    0    0  0.00000000000E+00  0.00000000000E+00 -0.62489924572E+03  0.14975299451E+04  0.13609176570E+04 0.  0.
        4    1    3    3  502    0  0.46359060999E+03  0.23222508311E+03 -0.79733995321E+03  0.95110323140E+03  0.12699999809E+01 0.  1.
       -4    1    3    3    0  502 -0.46359060999E+03 -0.23222508311E+03  0.17244070749E+03  0.54642671365E+03  0.12699999809E+01 0. -1.
</event>
<event>
 5   0  0.3907093E-04  0.1411547E+04  0.7818609E-02  0.8945503E-01
       -1   -1    0    0    0  501  0.00000000000E+00  0.00000000000E+00  0.47929442540E+03  0.47929442542E+03  0.50400001928E-02 0. -1.
        1   -1    0    0  501    0  0.00000000000E+00  0.00000000000E+00 -0.10392693607E+04  0.10392693607E+04  0.50400001928E-02 0.  1.
    10030    2    1    2    0    0  0.00000000000E+00  0.00000000000E+00 -0.55997493529E+03  0.15185637861E+04  0.14115466852E+04 0.  0.
        4    1    3    3  502    0 -0.54997336660E+02 -0.21646194020E+03 -0.10002488853E+04  0.10248804438E+04  0.12699999809E+01 0.  1.
       -4    1    3    3    0  502  0.54997336660E+02  0.21646194020E+03  0.44027394998E+03  0.49368334237E+03  0.12699999809E+01 0. -1.
</event>
<event>
 5   0  0.6895048E-04  0.1399968E+04  0.7818609E-02  0.8953842E-01
        2   -1    0    0  501    0  0.00000000000E+00  0.00000000000E+00  0.11335094060E+04  0.11335094060E+04  0.25500000920E-02 0. -1.
       -2   -1    0    0    0  501  0.00000000000E+00  0.00000000000E+00 -0.43226590790E+03  0.43226590791E+03  0.25500000920E-02 0.  1.
    10030    2    1    2    0    0  0.00000000000E+00  0.00000000000E+00  0.70124349810E+03  0.15657753139E+04  0.13999678175E+04 0.  0.
        4    1    3    3  502    0 -0.37724680209E+03 -0.58787709551E+03  0.29984385678E+03  0.76014642040E+03  0.12699999809E+01 0.  1.
       -4    1    3    3    0  502  0.37724680209E+03  0.58787709551E+03  0.40139964132E+03  0.80562889351E+03  0.12699999809E+01 0. -1.
</event>
<event>
 5   0  0.3977658E-04  0.1420740E+04  0.7818609E-02  0.8938941E-01
        1   -1    0    0  501    0  0.00000000000E+00  0.00000000000E+00  0.67619429740E+03  0.67619429742E+03  0.50400001928E-02 0.  1.
       -1   -1    0    0    0  501  0.00000000000E+00  0.00000000000E+00 -0.74627288404E+03  0.74627288405E+03  0.50400001928E-02 0. -1.
    10030    2    1    2    0    0  0.00000000000E+00  0.00000000000E+00 -0.70078586632E+02  0.14224671815E+04  0.14207399037E+04 0.  0.
        5    1    3    3  502    0 -0.14507641681E+03 -0.57244675097E+03 -0.43031152637E+03  0.73070688319E+03  0.46999998093E+01 0. -1.
       -5    1    3    3    0  502  0.14507641681E+03  0.57244675097E+03  0.36023293974E+03  0.69176029829E+03  0.46999998093E+01 0.  1.
</event>
<event>
 5   0  0.3756664E-04  0.1398015E+04  0.7818609E-02  0.8955257E-01
       -1   -1    0    0    0  501  0.00000000000E+00  0.00000000000E+00  0.14945166582E+04  0.14945166582E+04  0.50400001928E-02 0.  1.
        1   -1    0    0  501    0  0.00000000000E+00  0.00000000000E+00 -0.32693611362E+03  0.32693611366E+03  0.50400001928E-02 0. -1.
    10030    2    1    2    0    0  0.00000000000E+00  0.00000000000E+00  0.11675805446E+04  0.18214527719E+04  0.13980149756E+04 0.  0.
        2    1    3    3  502    0 -0.42554031211E+02 -0.13733573459E+03 -0.30746262209E+03  0.33941893517E+03  0.25500000920E-02 0. -1.
       -2    1    3    3    0  502  0.42554031211E+02  0.13733573459E+03  0.14750431667E+04  0.14820338367E+04  0.25500000920E-02 0.  1.
</event>
<event>
 5   0  0.3907093E-04  0.1401999E+04  0.7818609E-02  0.8952373E-01
       -1   -1    0    0    0  501  0.00000000000E+00  0.00000000000E+00  0.12770997708E+04  0.12770997708E+04  0.50400001928E-02 0.  1.
        1   -1    0    0  501    0  0.00000000000E+00  0.00000000000E+00 -0.38477825168E+03  0.38477825171E+03  0.50400001928E-02 0. -1.
    10030    2    1    2    0    0  0.00000000000E+00  0.00000000000E+00  0.89232151914E+03  0.16618780225E+04  0.14019988831E+04 0.  0.
        4    1    3    3  502    0 -0.55001921818E+03  0.32295868870E+03  0.10143569374E+03  0.64584384168E+03  0.12699999809E+01 0. -1.
       -4    1    3    3    0  502  0.55001921818E+03 -0.32295868870E+03  0.79088582541E+03  0.10160341809E+04  0.12699999809E+01 0.  1.
</event>
<event>
 5   0  0.3907093E-04  0.1400754E+04  0.7818609E-02  0.8953273E-01
       -1   -1    0    0    0  501  0.00000000000E+00  0.00000000000E+00  0.13126209821E+04  0.13126209821E+04  0.50400001928E-02 0. -1.
        1   -1    0    0  501    0  0.00000000000E+00  0.00000000000E+00 -0.37370094451E+03  0.37370094454E+03  0.50400001928E-02 0.  1.
    10030    2    1    2    0    0  0.00000000000E+00  0.00000000000E+00  0.93892003758E+03  0.16863219266E+04  0.14007536555E+04 0.  0.
        4    1    3    3  502    0  0.22319843384E+03  0.34917872597E+03 -0.21025386162E+03  0.46470595301E+03  0.12699999809E+01 0.  1.
       -4    1    3    3    0  502 -0.22319843384E+03 -0.34917872597E+03  0.11491738992E+04  0.12216159736E+04  0.12699999809E+01 0. -1.
</event>
<event>
 5   0  0.7296966E-04  0.1398564E+04  0.7818609E-02  0.8954859E-01
       -2   -1    0    0    0  501  0.00000000000E+00  0.00000000000E+00  0.31968265921E+03  0.31968265922E+03  0.25500000920E-02 0.  1.
        2   -1    0    0  501    0  0.00000000000E+00  0.00000000000E+00 -0.15296273025E+04  0.15296273025E+04  0.25500000920E-02 0. -1.
    10030    2    1    2    0    0  0.00000000000E+00  0.00000000000E+00 -0.12099446433E+04  0.18493099617E+04  0.13985640116E+04 0.  0.
        3    1    3    3  502    0  0.34632661799E+03  0.65946069605E+02  0.19356975381E+03  0.40219431897E+03  0.10100000352E+00 0.  1.
       -3    1    3    3    0  502 -0.34632661799E+03 -0.65946069605E+02 -0.14035143971E+04  0.14471156427E+04  0.10100000352E+00 0. -1.
</event>
<event>
 5   0  0.3756664E-04  0.1403867E+04  0.7818609E-02  0.8951024E-01
       -1   -1    0    0    0  501  0.00000000000E+00  0.00000000000E+00  0.30294067729E+03  0.30294067734E+03  0.50400001928E-02 0. -1.
        1   -1    0    0  501    0  0.00000000000E+00  0.00000000000E+00 -0.16264256995E+04  0.16264256995E+04  0.50400001928E-02 0.  1.
    10030    2    1    2    0    0  0.00000000000E+00  0.00000000000E+00 -0.13234850222E+04  0.19293663769E+04  0.14038668071E+04 0.  0.
        2    1    3    3  502    0 -0.35415061993E+03 -0.46016320977E+03 -0.11973340504E+03  0.59288188496E+03  0.25500000920E-02 0. -1.
       -2    1    3    3    0  502  0.35415061993E+03  0.46016320977E+03 -0.12037516172E+04  0.13364844919E+04  0.25500000920E-02 0.  1.
</event>
<event>
 5   0  0.7296966E-04  0.1433813E+04  0.7818609E-02  0.8929700E-01
        2   -1    0    0  501    0  0.00000000000E+00  0.00000000000E+00  0.96065845595E+03  0.96065845595E+03  0.25500000920E-02 0.  1.
       -2   -1    0    0    0  501  0.00000000000E+00  0.00000000000E+00 -0.53500308296E+03  0.53500308296E+03  0.25500000920E-02 0. -1.
    10030    2    1    2    0    0  0.00000000000E+00  0.00000000000E+00  0.42565537299E+03  0.14956615389E+04  0.14338134266E+04 0.  0.
        3    1    3    3  502    0 -0.17519861441E+03 -0.31313846243E+03  0.86024845399E+03  0.93208243409E+03  0.10100000352E+00 0.  1.
       -3    1    3    3    0  502  0.17519861441E+03  0.31313846243E+03 -0.43459308100E+03  0.56357910483E+03  0.10100000352E+00 0. -1.
</event>
<event>
 5   0  0.3977658E-04  0.1396816E+04  0.7818609E-02  0.8956127E-01
       -1   -1    0    0    0  501  0.00000000000E+00  0.00000000000E+00  0.71557902650E+03  0.71557902652E+03  0.50400001928E-02 0. -1.
        1   -1    0    0  501    0  0.00000000000E+00  0.00000000000E+00 -0.68164868975E+03  0.68164868977E+03  0.50400001928E-02 0.  1.
    10030    2    1    2    0    0  0.00000000000E+00  0.00000000000E+00  0.33930336752E+02  0.13972277163E+04  0.13968156727E+04 0.  0.
        5    1    3    3  502    0  0.26658525105E+03 -0.11689341242E+03 -0.61806038761E+03  0.68319287077E+03  0.46999998093E+01 0.  1.
       -5    1    3    3    0  502 -0.26658525105E+03  0.11689341242E+03  0.65199072437E+03  0.71403484551E+03  0.46999998093E+01 0. -1.
</event>
<event>
 5   0  0.7296966E-04  0.1400951E+04  0.7818609E-02  0.8953130E-01
        2   -1    0    0  501    0  0.00000000000E+00  0.00000000000E+00  0.79927770151E+03  0.79927770152E+03  0.25500000920E-02 0.  1.
       -2   -1    0    0    0  501  0.00000000000E+00  0.00000000000E+00 -0.61388683015E+03  0.61388683016E+03  0.25500000920E-02 0. -1.
    10030    2    1    2    0    0  0.00000000000E+00  0.00000000000E+00  0.18539087136E+03  0.14131645317E+04  0.14009511834E+04 0.  0.
        3    1    3    3  502    0 -0.22646600698E+03 -0.29690581217E+03 -0.50511450995E+03  0.62815650277E+03  0.10100000352E+00 0. -1.
       -3    1    3    3    0  502  0.22646600698E+03  0.29690581217E+03  0.69050538131E+03  0.78500802890E+03  0.10100000352E+00 0.  1.
</event>
<event>
 5   0  0.3784219E-04  0.1391620E+04  0.7818609E-02  0.8959907E-01
        1   -1    0    0  501    0  0.00000000000E+00  0.00000000000E+00  0.15960303850E+04  0.15960303850E+04  0.50400001928E-02 0. -1.
       -1   -1    0    0    0  501  0.00000000000E+00  0.00000000000E+00 -0.30334725555E+03  0.30334725559E+03  0.50400001928E-02 0.  1.
    10030    2    1    2    0    0  0.00000000000E+00  0.00000000000E+00  0.12926831294E+04  0.18993776406E+04  0.13916198290E+04 0.  0.
        1    1    3    3  502    0 -0.35876635563E+03 -0.11768029522E+03 -0.15136462344E+03  0.40678397101E+03  0.50400001928E-02 0.  1.
       -1    1    3    3    0  502  0.35876635563E+03  0.11768029522E+03  0.14440477529E+04  0.14925936696E+04  0.50400001928E-02 0. -1.
</event>
<event>
 5   0  0.3977658E-04  0.1403955E+04  0.7818609E-02  0.8950960E-01
        1   -1    0    0  501    0  0.00000000000E+00  0.00000000000E+00  0.97916079953E+03  0.97916079955E+03  0.50400001928E-02 0.  1.
       -1   -1    0    0    0  501  0.00000000000E+00  0.00000000000E+00 -0.50326021729E+03  0.50326021731E+03  0.50400001928E-02 0. -1.
    10030    2    1    2    0    0  0.00000000000E+00  0.00000000000E+00  0.47590058225E+03  0.14824210169E+04  0.14039553793E+04 0.  0.
        5    1    3    3  502    0 -0.22124813955E+03  0.11203842724E+03  0.93134643443E+03  0.96381098736E+03  0.46999998093E+01 0.  1.
       -5    1    3    3    0  502  0.22124813955E+03 -0.11203842724E+03 -0.45544585218E+03  0.51861002950E+03  0.46999998093E+01 0. -1.
</event>
<event>
 5   0  0.6959748E-04  0.1395826E+04  0.7818609E-02  0.8956845E-01
       -2   -1    0    0    0  501  0.00000000000E+00  0.00000000000E+00  0.44714689403E+03  0.44714689403E+03  0.25500000920E-02 0.  1.
        2   -1    0    0  501    0  0.00000000000E+00  0.00000000000E+00 -0.10893126014E+04  0.10893126014E+04  0.25500000920E-02 0. -1.
    10030    2    1    2    0    0  0.00000000000E+00  0.00000000000E+00 -0.64216570740E+03  0.15364594955E+04  0.13958262734E+04 0.  0.
        5    1    3    3  502    0 -0.64461371392E+03  0.25749205261E+03 -0.40070052347E+03  0.80150608035E+03  0.46999998093E+01 0. -1.
       -5    1    3    3    0  502  0.64461371392E+03 -0.25749205261E+03 -0.24146518393E+03  0.73495341511E+03  0.46999998093E+01 0.  1.
</event>
<event>
 5   0  0.3784219E-04  0.1412794E+04  0.7818609E-02  0.8944609E-01
       -1   -1    0    0    0  501  0.00000000000E+00  0.00000000000E+00  0.46288476110E+03  0.46288476113E+03  0.50400001928E-02 0. -1.
        1   -1    0    0  501    0  0.00000000000E+00  0.00000000000E+00 -0.10780150805E+04  0.10780150805E+04  0.50400001928E-02 0.  1.
    10030    2    1    2    0    0  0.00000000000E+00  0.00000000000E+00 -0.61513031939E+03  0.15408998416E+04  0.14127940445E+04 0.  0.
        1    1    3    3  502    0  0.12933720544E+03  0.11975741140E+03 -0.10536436445E+04  0.10682859542E+04  0.50400001928E-02 0.  1.
       -1    1    3    3    0  502 -0.12933720544E+03 -0.11975741140E+03  0.43851332510E+03  0.47261388746E+03  0.50400001928E-02 0. -1.
</event>
<event>
 5   0  0.3756664E-04  0.1393133E+04  0.7818609E-02  0.8958805E-01
        1   -1    0    0  501    0  0.00000000000E+00  0.00000000000E+00  0.70472198387E+03  0.70472198389E+03  0.50400001928E-02 0. -1.
       -1   -1    0    0    0  501  0.00000000000E+00  0.00000000000E+00 -0.68850508194E+03  0.68850508196E+03  0.50400001928E-02 0.  1.
    10030    2    1    2    0    0  0.00000000000E+00  0.00000000000E+00  0.16216901936E+02  0.13932270658E+04  0.13931326818E+04 0.  0.
        2    1    3    3  502    0 -0.18212744331E+03 -0.57699079008E+03 -0.33704663078E+03  0.69259599246E+03  0.25500000920E-02 0.  1.
       -2    1    3    3    0  502  0.18212744331E+03  0.57699079008E+03  0.35326353271E+03  0.70063107339E+03  0.25500000920E-02 0. -1.
</event>
<event>
 5   0  0.6870835E-04  0.1388614E+04  0.7818609E-02  0.8962101E-01
        2   -1    0    0  501    0  0.00000000000E+00  0.00000000000E+00  0.11775076610E+04  0.11775076610E+04  0.25500000920E-02 0.  1.
       -2   -1    0    0    0  501  0.00000000000E+00  0.00000000000E+00 -0.40939224884E+03  0.40939224884E+03  0.25500000920E-02 0. -1.
    10030    2    1    2    0    0  0.00000000000E+00  0.00000000000E+00  0.76811541212E+03  0.15868999098E+04  0.13886144308E+04 0.  0.
        2    1    3    3  502    0 -0.15085879723E+03  0.27131057091E+03 -0.32566663549E+03  0.44991839268E+03  0.25500000920E-02 0. -1.
       -2    1    3    3    0  502  0.15085879723E+03 -0.27131057091E+03  0.10937820476E+04  0.11369815171E+04  0.25500000920E-02 0.  1.
</event>
<event>
 5   0  0.6870835E-04  0.1395234E+04  0.7818609E-02  0.8957276E-01
        2   -1    0    0  501    0  0.00000000000E+00  0.00000000000E+00  0.10143381360E+04  0.10143381360E+04  0.25500000920E-02 0. -1.
       -2   -1    0    0    0  501  0.00000000000E+00  0.00000000000E+00 -0.47979015475E+03  0.47979015475E+03  0.25500000920E-02 0.  1.
    10030    2    1    2    0    0  0.00000000000E+00  0.00000000000E+00  0.53454798123E+03  0.14941282907E+04  0.13952339606E+04 0.  0.
        2    1    3    3  502    0  0.59757892080E+03 -0.35808467752E+03  0.30653673110E+03  0.76111101055E+03  0.25500000920E-02 0. -1.
       -2    1    3    3    0  502 -0.59757892080E+03  0.35808467752E+03  0.22801125013E+03  0.73301728019E+03  0.25500000920E-02 0.  1.
</event>
<event>
 5   0  0.6895048E-04  0.1399525E+04  0.7818609E-02  0.8954162E-01
        2   -1    0    0  501    0  0.00000000000E+00  0.00000000000E+00  0.11157924533E+04  0.11157924533E+04  0.25500000920E-02 0. -1.
       -2   -1    0    0    0  501  0.00000000000E+00  0.00000000000E+00 -0.43885187746E+03  0.43885187747E+03  0.25500000920E-02 0.  1.
    10030    2    1    2    0    0  0.00000000000E+00  0.00000000000E+00  0.67694057582E+03  0.15546443308E+04  0.13995250809E+04 0.  0.
        4    1    3    3  502    0 -0.46031513124E+02 -0.16769149849E+03 -0.41446639917E+03  0.44947007443E+03  0.12699999809E+01 0.  1.
       -4    1    3    3    0  502  0.46031513124E+02  0.16769149849E+03  0.10914069750E+04  0.11051742563E+04  0.12699999809E+01 0. -1.
</event>
<event>
 5   0  0.7065539E-04  0.1393904E+04  0.7818609E-02  0.8958243E-01
       -2   -1    0    0    0  501  0.00000000000E+00  0.00000000000E+00  0.65138401191E+03  0.65138401191E+03  0.25500000920E-02 0.  1.
        2   -1    0    0  501    0  0.00000000000E+00  0.00000000000E+00 -0.74570720321E+03  0.74570720322E+03  0.25500000920E-02 0. -1.
    10030    2    1    2    0    0  0.00000000000E+00  0.00000000000E+00 -0.94323191308E+02  0.13970912151E+04  0.13939035114E+04 0.  0.
        1    1    3    3  502    0 -0.62201712352E+03 -0.50755109367E+02  0.26380647952E+03  0.67755091450E+03  0.50400001928E-02 0.  1.
       -1    1    3    3    0  502  0.62201712352E+03  0.50755109367E+02 -0.35812967083E+03  0.71954030063E+03  0.50400001928E-02 0. -1.
</event>
<event>
 5   0  0.2660250E-04  0.1385127E+04  0.7818609E-02  0.8964656E-01
       -4   -1    0    0    0  501  0.00000000000E+00  0.00000000000E+00  0.95187747157E+03  0.95187831879E+03  0.12699999809E+01 0.  1.
        4   -1    0    0  501    0  0.00000000000E+00  0.00000000000E+00 -0.50389067571E+03  0.50389227616E+03  0.12699999809E+01 0. -1.
    10030    2    1    2    0    0  0.00000000000E+00  0.00000000000E+00  0.44798679586E+03  0.14557705949E+04  0.13851266570E+04 0.  0.
        2    1    3    3  502    0  0.43141043994E+03 -0.22978698893E+03  0.73965619438E+03  0.88657109916E+03  0.25500000920E-02 0.  1.
       -2    1    3    3    0  502 -0.43141043994E+03  0.22978698893E+03 -0.29166939852E+03  0.56919949579E+03  0.25500000920E-02 0. -1.
</event>
<event>
 5   0  0.6870835E-04  0.1403602E+04  0.7818609E-02  0.8951216E-01
       -2   -1    0    0    0  501  0.00000000000E+00  0.00000000000E+00  0.32685401796E+03  0.32685401797E+03  0.25500000920E-02 0.  1.
        2   -1    0    0  501    0  0.00000000000E+00  0.00000000000E+00 -0.15068637583E+04  0.15068637583E+04  0.25500000920E-02 0. -1.
    10030    2    1    2    0    0  0.00000000000E+00  0.00000000000E+00 -0.11800097403E+04  0.18337177763E+04  0.14036017582E+04 0.  0.
        2    1    3    3  502    0  0.89453507009E+02  0.52070883874E+03  0.13485551770E+02  0.52850873671E+03  0.25500000920E-02 0.  1.
       -2    1    3    3    0  502 -0.89453507009E+02 -0.52070883874E+03 -0.11934952921E+04  0.13052090396E+04  0.25500000920E-02 0. -1.
</event>
<event>
 5   0  0.7065539E-04  0.1405287E+04  0.7818609E-02  0.8950000E-01
       -2   -1    0    0    0  501  0.00000000000E+00  0.00000000000E+00  0.96275820501E+03  0.96275820501E+03  0.25500000920E-02 0. -1.
        2   -1    0    0  501    0  0.00000000000E+00  0.00000000000E+00 -0.51280566050E+03  0.51280566051E+03  0.25500000920E-02 0.  1.
    10030    2    1    2    0    0  0.00000000000E+00  0.00000000000E+00  0.44995254451E+03  0.14755638655E+04  0.14052869561E+04 0.  0.
        1    1    3    3  502    0  0.35382346801E+03 -0.68628912227E+02 -0.40835138218E+03  0.54465753044E+03  0.50400001928E-02 0.  1.
       -1    1    3    3    0  502 -0.35382346801E+03  0.68628912227E+02  0.85830392669E+03  0.93090633509E+03  0.50400001928E-02 0. -1.
</event>
<event>
 5   0  0.2660250E-04  0.1401449E+04  0.7818609E-02  0.8952771E-01
       -3   -1    0    0    0  501  0.00000000000E+00  0.00000000000E+00  0.99957917742E+03  0.99957918252E+03  0.10100000352E+00 0.  1.
        3   -1    0    0  501    0  0.00000000000E+00  0.00000000000E+00 -0.49122130807E+03  0.49122131845E+03  0.10100000352E+00 0. -1.
    10030    2    1    2    0    0  0.00000000000E+00  0.00000000000E+00  0.50835786935E+03  0.14908005010E+04  0.14014486827E+04 0.  0.
        4    1    3    3  502    0 -0.10168437930E+03  0.49123644991E+03 -0.26625803912E+03  0.56793302335E+03  0.12699999809E+01 0. -1.
       -4    1    3    3    0  502  0.10168437930E+03 -0.49123644991E+03  0.77461590847E+03  0.92286747763E+03  0.12699999809E+01 0.  1.
</event>
<event>
 5   0  0.2660250E-04  0.1396309E+04  0.7818609E-02  0.8956495E-01
       -3   -1    0    0    0  501  0.00000000000E+00  0.00000000000E+00  0.80084858199E+03  0.80084858835E+03  0.10100000352E+00 0.  1.
        3   -1    0    0  501    0  0.00000000000E+00  0.00000000000E+00 -0.60862863096E+03  0.60862863934E+03  0.10100000352E+00 0. -1.
    10030    2    1    2    0    0  0.00000000000E+00  0.00000000000E+00  0.19221995102E+03  0.14094772277E+04  0.13963085425E+04 0.  0.
        4    1    3    3  502    0  0.57604478370E+03  0.65732913332E+02  0.48871166143E+03  0.75828036348E+03  0.12699999809E+01 0.  1.
       -4    1    3    3    0  502 -0.57604478370E+03 -0.65732913332E+02 -0.29649171041E+03  0.65119686422E+03  0.12699999809E+01 0. -1.
</event>
<event>
 5   0  0.3907270E-04  0.1405851E+04  0.7818609E-02  0.8949594E-01
        1   -1    0    0  501    0  0.00000000000E+00  0.00000000000E+00  0.38875680574E+03  0.38875680577E+03  0.50400001928E-02 0. -1.
       -1   -1    0    0    0  501  0.00000000000E+00  0.00000000000E+00 -0.12709857680E+04  0.12709857680E+04  0.50400001928E-02 0.  1.
    10030    2    1    2    0    0  0.00000000000E+00  0.00000000000E+00 -0.88222896229E+03  0.16597425738E+04  0.14058511548E+04 0.  0.
        3    1    3    3  502    0  0.57590232996E+03  0.18268876480E+03 -0.86525208348E+03  0.10553197888E+04  0.10100000352E+00 0.  1.
       -3    1    3    3    0  502 -0.57590232996E+03 -0.18268876480E+03 -0.16976878813E+02  0.60442278502E+03  0.10100000352E+00 0. -1.
</event>
<event>
 5   0  0.6959748E-04  0.1328273E+04  0.7818609E-02  0.9007440E-01
        2   -1    0    0  501    0  0.00000000000E+00  0.00000000000E+00  0.96699079284E+03  0.96699079284E+03  0.25500000920E-02 0.  1.
       -2   -1    0    0    0  501  0.00000000000E+00  0.00000000000E+00 -0.45613389903E+03  0.45613389904E+03  0.25500000920E-02 0. -1.
    10030    2    1    2    0    0  0.00000000000E+00  0.00000000000E+00  0.51085689381E+03  0.14231246919E+04  0.13282729850E+04 0.  0.
        5    1    3    3  502    0 -0.45359303506E+03 -0.46385656875E+03  0.40749933122E+03  0.76615099867E+03  0.46999998093E+01 0.  1.
       -5    1    3    3    0  502  0.45359303506E+03  0.46385656875E+03  0.10335756259E+03  0.65697369321E+03  0.46999998093E+01 0. -1.
</event>
<event>
 5   0  0.3907093E-04  0.1398851E+04  0.7818609E-02  0.8954651E-01
        1   -1    0    0  501    0  0.00000000000E+00  0.00000000000E+00  0.12092746242E+04  0.12092746242E+04  0.50400001928E-02 0.  1.
       -1   -1    0    0    0  501  0.00000000000E+00  0.00000000000E+00 -0.40453679771E+03  0.40453679774E+03  0.50400001928E-02 0. -1.
    10030    2    1    2    0    0  0.00000000000E+00  0.00000000000E+00  0.80473782650E+03  0.16138114220E+04  0.13988510772E+04 0.  0.
        4    1    3    3  502    0  0.12504169962E+03  0.16049691495E+03 -0.36964165148E+03  0.42193749509E+03  0.12699999809E+01 0. -1.
       -4    1    3    3    0  502 -0.12504169962E+03 -0.16049691495E+03  0.11743794780E+04  0.11918739269E+04  0.12699999809E+01 0.  1.
</event>
<event>
 5   0  0.7065539E-04  0.1404726E+04  0.7818609E-02  0.8950405E-01
        2   -1    0    0  501    0  0.00000000000E+00  0.00000000000E+00  0.72300424513E+03  0.72300424513E+03  0.25500000920E-02 0. -1.
       -2   -1    0    0    0  501  0.00000000000E+00  0.00000000000E+00 -0.68231073237E+03  0.68231073238E+03  0.25500000920E-02 0.  1.
    10030    2    1    2    0    0  0.00000000000E+00  0.00000000000E+00  0.40693512755E+02  0.14053149775E+04  0.14047256757E+04 0.  0.
        1    1    3    3  502    0  0.33220809457E+03 -0.40351422645E+03 -0.44902765581E+03  0.68906587838E+03  0.50400001928E-02 0.  1.
       -1    1    3    3    0  502 -0.33220809457E+03  0.40351422645E+03  0.48972116856E+03  0.71624909913E+03  0.50400001928E-02 0. -1.
</event>
<event>
 5   0  0.2660250E-04  0.1400409E+04  0.7818609E-02  0.8953522E-01
       -3   -1    0    0    0  501  0.00000000000E+00  0.00000000000E+00  0.26402387409E+03  0.26402389341E+03  0.10100000352E+00 0. -1.
        3   -1    0    0  501    0  0.00000000000E+00  0.00000000000E+00 -0.18569783952E+04  0.18569783979E+04  0.10100000352E+00 0.  1.
    10030    2    1    2    0    0  0.00000000000E+00  0.00000000000E+00 -0.15929545211E+04  0.21210022914E+04  0.14004094450E+04 0.  0.
        3    1    3    3  502    0 -0.47965995362E+03  0.44559526163E+03 -0.11725572637E+04  0.13429517322E+04  0.10100000352E+00 0.  1.
       -3    1    3    3    0  502  0.47965995362E+03 -0.44559526163E+03 -0.42039725743E+03  0.77805055912E+03  0.10100000352E+00 0. -1.
</event>
<event>
 5   0  0.6870835E-04  0.1376800E+04  0.7818609E-02  0.8970785E-01
        2   -1    0    0  501    0  0.00000000000E+00  0.00000000000E+00  0.10963960489E+04  0.10963960489E+04  0.25500000920E-02 0.  1.
       -2   -1    0    0    0  501  0.00000000000E+00  0.00000000000E+00 -0.43222935511E+03  0.43222935512E+03  0.25500000920E-02 0. -1.
    10030    2    1    2    0    0  0.00000000000E+00  0.00000000000E+00  0.66416669379E+03  0.15286254040E+04  0.13767999959E+04 0.  0.
        2    1    3    3  502    0  0.41011957467E+03 -0.31865315376E+03  0.83374625568E+03  0.98227832959E+03  0.25500000920E-02 0.  1.
       -2    1    3    3    0  502 -0.41011957467E+03  0.31865315376E+03 -0.16957956189E+03  0.54634707443E+03  0.25500000920E-02 0. -1.
</event>
<event>
 5   0  0.3977658E-04  0.1388321E+04  0.7818609E-02  0.8962316E-01
        1   -1    0    0  501    0  0.00000000000E+00  0.00000000000E+00  0.21582736226E+03  0.21582736231E+03  0.50400001928E-02 0.  1.
       -1   -1    0    0    0  501  0.00000000000E+00  0.00000000000E+00 -0.22326110267E+04  0.22326110267E+04  0.50400001928E-02 0. -1.
    10030    2    1    2    0    0  0.00000000000E+00  0.00000000000E+00 -0.20167836645E+04  0.24484383890E+04  0.13883206386E+04 0.  0.
        5    1    3    3  502    0 -0.57693548041E+02  0.35195697170E+03  0.41850961258E+02  0.35913207650E+03  0.46999998093E+01 0.  1.
       -5    1    3    3    0  502  0.57693548041E+02 -0.35195697170E+03 -0.20586346257E+04  0.20893063125E+04  0.46999998093E+01 0. -1.
</event>
<event>
 5   0  0.6895048E-04  0.1402323E+04  0.7818609E-02  0.8952138E-01
        2   -1    0    0  501    0  0.00000000000E+00  0.00000000000E+00  0.13947581662E+04  0.13947581662E+04  0.25500000920E-02 0.  1.
       -2   -1    0    0    0  501  0.00000000000E+00  0.00000000000E+00 -0.35248243537E+03  0.35248243537E+03  0.25500000920E-02 0. -1.
    10030    2    1    2    0    0  0.00000000000E+00  0.00000000000E+00  0.10422757308E+04  0.17472406015E+04  0.14023234365E+04 0.  0.
        4    1    3    3  502    0  0.36424617697E+03 -0.38525555170E+03  0.10928277528E+04  0.12146486026E+04  0.12699999809E+01 0.  1.
       -4    1    3    3    0  502 -0.36424617697E+03  0.38525555170E+03 -0.50552021984E+02  0.53259199898E+03  0.12699999809E+01 0. -1.
</event>
<event>
 5   0  0.6959748E-04  0.1393221E+04  0.7818609E-02  0.8958740E-01
       -2   -1    0    0    0  501  0.00000000000E+00  0.00000000000E+00  0.40350127446E+03  0.40350127447E+03  0.25500000920E-02 0. -1.
        2   -1    0    0  501    0  0.00000000000E+00  0.00000000000E+00 -0.12026382728E+04  0.12026382728E+04  0.25500000920E-02 0.  1.
    10030    2    1    2    0    0  0.00000000000E+00  0.00000000000E+00 -0.79913699836E+03  0.16061395473E+04  0.13932208379E+04 0.  0.
        5    1    3    3  502    0 -0.36653261987E+03 -0.58421110754E+03 -0.28664340262E+03  0.74688373249E+03  0.46999998093E+01 0. -1.
       -5    1    3    3    0  502  0.36653261987E+03  0.58421110754E+03 -0.51249359574E+03  0.85925581480E+03  0.46999998093E+01 0.  1.
</event>
<event>
 5   0  0.3907093E-04  0.1284119E+04  0.7818609E-02  0.9042254E-01
        1   -1    0    0  501    0  0.00000000000E+00  0.00000000000E+00  0.90120072664E+03  0.90120072666E+03  0.50400001928E-02 0.  1.
       -1   -1    0    0    0  501  0.00000000000E+00  0.00000000000E+00 -0.45743483670E+03  0.45743483673E+03  0.50400001928E-02 0. -1.
    10030    2    1    2    0    0  0.00000000000E+00  0.00000000000E+00  0.44376588994E+03  0.13586355634E+04  0.12841193204E+04 0.  0.
        4    1    3    3  502    0 -0.20303908159E+03 -0.16338015751E+03 -0.39895661876E+03  0.47653535134E+03  0.12699999809E+01 0. -1.
       -4    1    3    3    0  502  0.20303908159E+03  0.16338015751E+03  0.84272250870E+03  0.88210021205E+03  0.12699999809E+01 0.  1.
</event>
<event>
 5   0  0.7065539E-04  0.1395281E+04  0.7818609E-02  0.8957242E-01
        2   -1    0    0  501    0  0.00000000000E+00  0.00000000000E+00  0.44946693854E+03  0.44946693855E+03  0.25500000920E-02 0. -1.
       -2   -1    0    0    0  501  0.00000000000E+00  0.00000000000E+00 -0.10828428898E+04  0.10828428898E+04  0.25500000920E-02 0.  1.
    10030    2    1    2    0    0  0.00000000000E+00  0.00000000000E+00 -0.63337595129E+03  0.15323098284E+04  0.13952807296E+04 0.  0.
        1    1    3    3  502    0  0.29484372839E+02  0.25351352697E+03 -0.10297323617E+04  0.10608898026E+04  0.50400001928E-02 0.  1.
       -1    1    3    3    0  502 -0.29484372839E+02 -0.25351352697E+03  0.39635641040E+03  0.47142002576E+03  0.50400001928E-02 0. -1.
</event>
<event>
 5   0  0.3977658E-04  0.1401426E+04  0.7818609E-02  0.8952787E-01
       -1   -1    0    0    0  501  0.00000000000E+00  0.00000000000E+00  0.56146470676E+03  0.56146470678E+03  0.50400001928E-02 0. -1.
        1   -1    0    0  501    0  0.00000000000E+00  0.00000000000E+00 -0.87449560946E+03  0.87449560947E+03  0.50400001928E-02 0.  1.
    10030    2    1    2    0    0  0.00000000000E+00  0.00000000000E+00 -0.31303090270E+03  0.14359603163E+04  0.14014255898E+04 0.  0.
        5    1    3    3  502    0  0.30387138809E+03 -0.60411735537E+03 -0.34456104079E+03  0.75897299055E+03  0.46999998093E+01 0. -1.
       -5    1    3    3    0  502 -0.30387138809E+03  0.60411735537E+03  0.31530138091E+02  0.67698732570E+03  0.46999998093E+01 0.  1.
</event>
<event>
 5   0  0.3907270E-04  0.1415518E+04  0.7818609E-02  0.8942662E-01
        1   -1    0    0  501    0  0.00000000000E+00  0.00000000000E+00  0.72798864743E+03  0.72798864745E+03  0.50400001928E-02 0. -1.
       -1   -1    0    0    0  501  0.00000000000E+00  0.00000000000E+00 -0.68809128581E+03  0.68809128583E+03  0.50400001928E-02 0.  1.
    10030    2    1    2    0    0  0.00000000000E+00  0.00000000000E+00  0.39897361617E+02  0.14160799333E+04  0.14155177773E+04 0.  0.
        3    1    3    3  502    0 -0.94657162676E+00 -0.47487882234E+03  0.54495405112E+03  0.72283173695E+03  0.10100000352E+00 0. -1.
       -3    1    3    3    0  502  0.94657162676E+00  0.47487882234E+03 -0.50505668950E+03  0.69324819633E+03  0.10100000352E+00 0.  1.
</event>
<event>
 5   0  0.3907270E-04  0.1394562E+04  0.7818609E-02  0.8957764E-01
       -1   -1    0    0    0  501  0.00000000000E+00  0.00000000000E+00  0.55955271324E+03  0.55955271326E+03  0.50400001928E-02 0. -1.
        1   -1    0    0  501    0  0.00000000000E+00  0.00000000000E+00 -0.86890969014E+03  0.86890969015E+03  0.50400001928E-02 0.  1.
    10030    2    1    2    0    0  0.00000000000E+00  0.00000000000E+00 -0.30935697690E+03  0.14284624034E+04  0.13945619738E+04 0.  0.
        3    1    3    3  502    0  0.13173326189E+03 -0.45635142633E+03  0.36821143779E+03  0.60099080668E+03  0.10100000352E+00 0. -1.
       -3    1    3    3    0  502 -0.13173326189E+03  0.45635142633E+03 -0.67756841469E+03  0.82747159673E+03  0.10100000352E+00 0.  1.
</event>
<event>
 5   0  0.3907093E-04  0.1385343E+04  0.7818609E-02  0.8964497E-01
       -1   -1    0    0    0  501  0.00000000000E+00  0.00000000000E+00  0.47941721412E+03  0.47941721415E+03  0.50400001928E-02 0. -1.
        1   -1    0    0  501    0  0.00000000000E+00  0.00000000000E+00 -0.10007858281E+04  0.10007858281E+04  0.50400001928E-02 0.  1.
    10030    2    1    2    0    0  0.00000000000E+00  0.00000000000E+00 -0.52136861394E+03  0.14802030422E+04  0.13853432118E+04 0.  0.
        4    1    3    3  502    0 -0.90496912039E+02 -0.15109089146E+03  0.45509287307E+03  0.48798492251E+03  0.12699999809E+01 0. -1.
       -4    1    3    3    0  502  0.90496912039E+02  0.15109089146E+03 -0.97646148702E+03  0.99221811972E+03  0.12699999809E+01 0.  1.
</event>
<event>
 5   0  0.7296966E-04  0.1402590E+04  0.7818609E-02  0.8951946E-01
       -2   -1    0    0    0  501  0.00000000000E+00  0.00000000000E+00  0.23062938513E+03  0.23062938515E+03  0.25500000920E-02 0. -1.
        2   -1    0    0  501    0  0.00000000000E+00  0.00000000000E+00 -0.21324897674E+04  0.21324897674E+04  0.25500000920E-02 0.  1.
    10030    2    1    2    0    0  0.00000000000E+00  0.00000000000E+00 -0.19018603823E+04  0.23631191526E+04  0.14025901809E+04 0.  0.
        3    1    3    3  502    0 -0.48155693360E+03  0.43144720211E+03 -0.49331784262E+03  0.81326888085E+03  0.10100000352E+00 0. -1.
       -3    1    3    3    0  502  0.48155693360E+03 -0.43144720211E+03 -0.14085425396E+04  0.15498502717E+04  0.10100000352E+00 0.  1.
</event>
<event>
 5   0  0.3977658E-04  0.1400462E+04  0.7818609E-02  0.8953484E-01
       -1   -1    0    0    0  501  0.00000000000E+00  0.00000000000E+00  0.30035564927E+03  0.30035564931E+03  0.50400001928E-02 0. -1.
        1   -1    0    0  501    0  0.00000000000E+00  0.00000000000E+00 -0.16324760793E+04  0.16324760793E+04  0.50400001928E-02 0.  1.
    10030    2    1    2    0    0  0.00000000000E+00  0.00000000000E+00 -0.13321204300E+04  0.19328317286E+04  0.14004619420E+04 0.  0.
        5    1    3    3  502    0 -0.37751781012E+03 -0.40006730722E+02 -0.14780945706E+04  0.15260753209E+04  0.46999998093E+01 0.  1.
       -5    1    3    3    0  502  0.37751781012E+03  0.40006730722E+02  0.14597414060E+03  0.40675640768E+03  0.46999998093E+01 0. -1.
</event>
<event>
 5   0  0.7296966E-04  0.1406551E+04  0.7818609E-02  0.8949090E-01
       -2   -1    0    0    0  501  0.00000000000E+00  0.00000000000E+00  0.90569084401E+03  0.90569084402E+03  0.25500000920E-02 0. -1.
        2   -1    0    0  501    0  0.00000000000E+00  0.00000000000E+00 -0.54609824961E+03  0.54609824962E+03  0.25500000920E-02 0.  1.
    10030    2    1    2    0    0  0.00000000000E+00  0.00000000000E+00  0.35959259440E+03  0.14517890936E+04  0.14065506526E+04 0.  0.
        3    1    3    3  502    0  0.41634702669E+03 -0.16533251959E+03 -0.37978105128E+03  0.58729323662E+03  0.10100000352E+00 0.  1.
       -3    1    3    3    0  502 -0.41634702669E+03  0.16533251959E+03  0.73937364568E+03  0.86449585702E+03  0.10100000352E+00 0. -1.
</event>
<event>
 5   0  0.6959748E-04  0.1397186E+04  0.7818609E-02  0.8955858E-01
       -2   -1    0    0    0  501  0.00000000000E+00  0.00000000000E+00  0.77523085079E+03  0.77523085079E+03  0.25500000920E-02 0.  1.
        2   -1    0    0  501    0  0.00000000000E+00  0.00000000000E+00 -0.62953099672E+03  0.62953099672E+03  0.25500000920E-02 0. -1.
    10030    2    1    2    0    0  0.00000000000E+00  0.00000000000E+00  0.14569985407E+03  0.14047618475E+04  0.13971855284E+04 0.  0.
        5    1    3    3  502    0 -0.93432363135E+02 -0.53651035465E+03 -0.36705753619E+03  0.65675436199E+03  0.46999998093E+01 0.  1.
       -5    1    3    3    0  502  0.93432363135E+02  0.53651035465E+03  0.51275739026E+03  0.74800748552E+03  0.46999998093E+01 0. -1.
</event>
<event>
 5   0  0.3756664E-04  0.1416828E+04  0.7818609E-02  0.8941727E-01
        1   -1    0    0  501    0  0.00000000000E+00  0.00000000000E+00  0.26812975021E+03  0.26812975026E+03  0.50400001928E-02 0.  1.
       -1   -1    0    0    0  501  0.00000000000E+00  0.00000000000E+00 -0.18716699605E+04  0.18716699605E+04  0.50400001928E-02 0. -1.
    10030    2    1    2    0    0  0.00000000000E+00  0.00000000000E+00 -0.16035402103E+04  0.21397997107E+04  0.14168280051E+04 0.  0.
        2    1    3    3  502    0  0.11232974919E+03 -0.43042928084E+03 -0.16344276015E+04  0.16938833853E+04  0.25500000920E-02 0. -1.
       -2    1    3    3    0  502 -0.11232974919E+03  0.43042928084E+03  0.30887391245E+02  0.44591632545E+03  0.25500000920E-02 0.  1.
</event>
<event>
 5   0  0.3907093E-04  0.1431657E+04  0.7818609E-02  0.8931217E-01
       -1   -1    0    0    0  501  0.00000000000E+00  0.00000000000E+00  0.74549209514E+03  0.74549209516E+03  0.50400001928E-02 0. -1.
        1   -1    0    0  501    0  0.00000000000E+00  0.00000000000E+00 -0.68734559536E+03  0.68734559538E+03  0.50400001928E-02 0.  1.
    10030    2    1    2    0    0  0.00000000000E+00  0.00000000000E+00  0.58146499779E+02  0.14328376905E+04  0.14316573724E+04 0.  0.
        4    1    3    3  502    0  0.43743501174E+03  0.29193196789E+03  0.51510252594E+03  0.73614257349E+03  0.12699999809E+01 0. -1.
       -4    1    3    3    0  502 -0.43743501174E+03 -0.29193196789E+03 -0.45695602616E+03  0.69669511705E+03  0.12699999809E+01 0.  1.
</event>
<event>
 5   0  0.6870835E-04  0.1396798E+04  0.7818609E-02  0.8956140E-01
       -2   -1    0    0    0  501  0.00000000000E+00  0.00000000000E+00  0.94114083742E+03  0.94114083742E+03  0.25500000920E-02 0. -1.
        2   -1    0    0  501    0  0.00000000000E+00  0.00000000000E+00 -0.51826566881E+03  0.51826566881E+03  0.25500000920E-02 0.  1.
    10030    2    1    2    0    0  0.00000000000E+00  0.00000000000E+00  0.42287516861E+03  0.14594065062E+04  0.13967977456E+04 0.  0.
        2    1    3    3  502    0  0.98577531757E+02  0.10673873861E+03 -0.50229993345E+03  0.52289187337E+03  0.25500000920E-02 0.  1.
       -2    1    3    3    0  502 -0.98577531757E+02 -0.10673873861E+03  0.92517510206E+03  0.93651463286E+03  0.25500000920E-02 0. -1.
</event>
<event>
 5   0  0.7296966E-04  0.1393943E+04  0.7818609E-02  0.8958214E-01
        2   -1    0    0  501    0  0.00000000000E+00  0.00000000000E+00  0.21161235661E+04  0.21161235661E+04  0.25500000920E-02 0. -1.
       -2   -1    0    0    0  501  0.00000000000E+00  0.00000000000E+00 -0.22955631726E+03  0.22955631727E+03  0.25500000920E-02 0.  1.
    10030    2    1    2    0    0  0.00000000000E+00  0.00000000000E+00  0.18865672488E+04  0.23456798833E+04  0.13939433743E+04 0.  0.
        3    1    3    3  502    0 -0.40650576850E+03 -0.52141042683E+03  0.13144612324E+04  0.14713681099E+04  0.10100000352E+00 0.  1.
       -3    1    3    3    0  502  0.40650576850E+03  0.52141042683E+03  0.57210601642E+03  0.87431177349E+03  0.10100000352E+00 0. -1.
</event>
<event>
 5   0  0.3784219E-04  0.1405860E+04  0.7818609E-02  0.8949587E-01
        1   -1    0    0  501    0  0.00000000000E+00  0.00000000000E+00  0.15564280290E+04  0.15564280290E+04  0.50400001928E-02 0.  1.
       -1   -1    0    0    0  501  0.00000000000E+00  0.00000000000E+00 -0.31746460558E+03  0.31746460562E+03  0.50400001928E-02 0. -1.
    10030    2    1    2    0    0  0.00000000000E+00  0.00000000000E+00  0.12389634235E+04  0.18738926347E+04  0.14058603208E+04 0.  0.
        1    1    3    3  502    0  0.82949195006E+02 -0.26776371874E+02  0.15491967906E+04  0.15516469440E+04  0.50400001928E-02 0.  1.
       -1    1    3    3    0  502 -0.82949195006E+02  0.26776371874E+02 -0.31023336710E+03  0.32224569063E+03  0.50400001928E-02 0. -1.
</event>
<event>
 5   0  0.6959748E-04  0.1479255E+04  0.7818609E-02  0.8898366E-01
       -2   -1    0    0    0  501  0.00000000000E+00  0.00000000000E+00  0.11435979349E+04  0.11435979350E+04  0.25500000920E-02 0. -1.
        2   -1    0    0  501    0  0.00000000000E+00  0.00000000000E+00 -0.47835795250E+03  0.47835795251E+03  0.25500000920E-02 0.  1.
    10030    2    1    2    0    0  0.00000000000E+00  0.00000000000E+00  0.66523998245E+03  0.16219558875E+04  0.14792554433E+04 0.  0.
        5    1    3    3  502    0  0.22829878249E+03 -0.64659790858E+03  0.28722551344E+02  0.68633538770E+03  0.46999998093E+01 0.  1.
       -5    1    3    3    0  502 -0.22829878249E+03  0.64659790858E+03  0.63651743111E+03  0.93562049975E+03  0.46999998093E+01 0. -1.
</event>
<event>
 5   0  0.3907093E-04  0.1382345E+04  0.7818609E-02  0.8966698E-01
       -1   -1    0    0    0  501  0.00000000000E+00  0.00000000000E+00  0.35751671924E+03  0.35751671927E+03  0.50400001928E-02 0.  1.
        1   -1    0    0  501    0  0.00000000000E+00  0.00000000000E+00 -0.13362153961E+04  0.13362153961E+04  0.50400001928E-02 0. -1.
    10030    2    1    2    0    0  0.00000000000E+00  0.00000000000E+00 -0.97869867686E+03  0.16937321154E+04  0.13823448841E+04 0.  0.
        4    1    3    3  502    0 -0.23628983684E+03  0.37314363844E+02 -0.12838740897E+04  0.13059707271E+04  0.12699999809E+01 0. -1.
       -4    1    3    3    0  502  0.23628983684E+03 -0.37314363844E+02  0.30517541288E+03  0.38776138832E+03  0.12699999809E+01 0.  1.
</event>
<event>
 5   0  0.3977658E-04  0.1402063E+04  0.7818609E-02  0.8952327E-01
        1   -1    0    0  501    0  0.00000000000E+00  0.00000000000E+00  0.22981878257E+04  0.22981878257E+04  0.50400001928E-02 0. -1.
       -1   -1    0    0    0  501  0.00000000000E+00  0.00000000000E+00 -0.21384024584E+03  0.21384024590E+03  0.50400001928E-02 0.  1.
    10030    2    1    2    0    0  0.00000000000E+00  0.00000000000E+00  0.20843475798E+04  0.25120280716E+04  0.14020628370E+04 0.  0.
        5    1    3    3  502    0  0.14777713213E+03 -0.16696409513E+03 -0.14858714603E+03  0.26798380512E+03  0.46999998093E+01 0.  1.
       -5    1    3    3    0  502 -0.14777713213E+03  0.16696409513E+03  0.22329347258E+04  0.22440442664E+04  0.46999998093E+01 0. -1.
</event>
<event>
 5   0  0.6870835E-04  0.1406866E+04  0.7818609E-02  0.8948863E-01
       -2   -1    0    0    0  501  0.00000000000E+00  0.00000000000E+00  0.38441424310E+03  0.38441424311E+03  0.25500000920E-02 0. -1.
        2   -1    0    0  501    0  0.00000000000E+00  0.00000000000E+00 -0.12872005860E+04  0.12872005860E+04  0.25500000920E-02 0.  1.
    10030    2    1    2    0    0  0.00000000000E+00  0.00000000000E+00 -0.90278634285E+03  0.16716148291E+04  0.14068663604E+04 0.  0.
        2    1    3    3  502    0  0.46497335005E+03 -0.25811235411E+03 -0.99846863793E+03  0.11312655853E+04  0.25500000920E-02 0. -1.
       -2    1    3    3    0  502 -0.46497335005E+03  0.25811235411E+03  0.95682295080E+02  0.54034924373E+03  0.25500000920E-02 0.  1.
</event>
<event>
 5   0  0.3784219E-04  0.1404529E+04  0.7818609E-02  0.8950547E-01
        1   -1    0    0  501    0  0.00000000000E+00  0.00000000000E+00  0.39078050934E+03  0.39078050937E+03  0.50400001928E-02 0.  1.
       -1   -1    0    0    0  501  0.00000000000E+00  0.00000000000E+00 -0.12620265658E+04  0.12620265658E+04  0.50400001928E-02 0. -1.
    10030    2    1    2    0    0  0.00000000000E+00  0.00000000000E+00 -0.87124605642E+03  0.16528070751E+04  0.14045289377E+04 0.  0.
        1    1    3    3  502    0  0.33345696763E+03 -0.17844654973E+03  0.26070120058E+03  0.45934936201E+03  0.50400001928E-02 0.  1.
       -1    1    3    3    0  502 -0.33345696763E+03  0.17844654973E+03 -0.11319472570E+04  0.11934577131E+04  0.50400001928E-02 0. -1.
</event>
<event>
 5   0  0.3756664E-04  0.1400448E+04  0.7818609E-02  0.8953495E-01
       -1   -1    0    0    0  501  0.00000000000E+00  0.00000000000E+00  0.36140936600E+03  0.36140936603E+03  0.50400001928E-02 0. -1.
        1   -1    0    0  501    0  0.00000000000E+00  0.00000000000E+00 -0.13566701666E+04  0.13566701666E+04  0.50400001928E-02 0.  1.
    10030    2    1    2    0    0  0.00000000000E+00  0.00000000000E+00 -0.99526080059E+03  0.17180795326E+04  0.14004475068E+04 0.  0.
        2    1    3    3  502    0  0.44485294808E+03  0.21235444138E+03 -0.11077433167E+04  0.12124701274E+04  0.25500000920E-02 0.  1.
       -2    1    3    3    0  502 -0.44485294808E+03 -0.21235444138E+03  0.11248251612E+03  0.50560940520E+03  0.25500000920E-02 0. -1.
</event>
<event>
 5   0  0.6959748E-04  0.1392503E+04  0.7818609E-02  0.8959264E-01
       -2   -1    0    0    0  501  0.00000000000E+00  0.00000000000E+00  0.72370511185E+03  0.72370511186E+03  0.25500000920E-02 0. -1.
        2   -1    0    0  501    0  0.00000000000E+00  0.00000000000E+00 -0.66983887566E+03  0.66983887566E+03  0.25500000920E-02 0.  1.
    10030    2    1    2    0    0  0.00000000000E+00  0.00000000000E+00  0.53866236195E+02  0.13935439875E+04  0.13925025220E+04 0.  0.
        5    1    3    3  502    0 -0.13103353163E+03  0.64906612244E+03 -0.18837218545E+03  0.68844955368E+03  0.46999998093E+01 0. -1.
       -5    1    3    3    0  502  0.13103353163E+03 -0.64906612244E+03  0.24223842165E+03  0.70509443384E+03  0.46999998093E+01 0.  1.
</event>
<event>
 5   0  0.6895048E-04  0.1400359E+04  0.7818609E-02  0.8953559E-01
       -2   -1    0    0    0  501  0.00000000000E+00  0.00000000000E+00  0.47485411141E+03  0.47485411142E+03  0.25500000920E-02 0.  1.
        2   -1    0    0  501    0  0.00000000000E+00  0.00000000000E+00 -0.10324252247E+04  0.10324252247E+04  0.25500000920E-02 0. -1.
    10030    2    1    2    0    0  0.00000000000E+00  0.00000000000E+00 -0.55757111333E+03  0.15072793362E+04  0.14003590435E+04 0.  0.
        4    1    3    3  502    0  0.48548928790E+03  0.48925914440E+03 -0.41137968302E+03  0.80268874139E+03  0.12699999809E+01 0.  1.
       -4    1    3    3    0  502 -0.48548928790E+03 -0.48925914440E+03 -0.14619143031E+03  0.70459059478E+03  0.12699999809E+01 0. -1.
</event>
<event>
 5   0  0.3756664E-04  0.1410736E+04  0.7818609E-02  0.8946084E-01
        1   -1    0    0  501    0  0.00000000000E+00  0.00000000000E+00  0.10825256647E+04  0.10825256647E+04  0.50400001928E-02 0. -1.
       -1   -1    0    0    0  501  0.00000000000E+00  0.00000000000E+00 -0.45961380814E+03  0.45961380817E+03  0.50400001928E-02 0.  1.
    10030    2    1    2    0    0  0.00000000000E+00  0.00000000000E+00  0.62291185659E+03  0.15421394729E+04  0.14107356141E+04 0.  0.
        2    1    3    3  502    0  0.45697975354E+03  0.53522098161E+03  0.36332852661E+03  0.79202248236E+03  0.25500000920E-02 0. -1.
       -2    1    3    3    0  502 -0.45697975354E+03 -0.53522098161E+03  0.25958332998E+03  0.75011699055E+03  0.25500000920E-02 0.  1.
</event>
<event>
 5   0  0.3907270E-04  0.1391773E+04  0.7818609E-02  0.8959796E-01
       -1   -1    0    0    0  501  0.00000000000E+00  0.00000000000E+00  0.71172934659E+03  0.71172934661E+03  0.50400001928E-02 0. -1.
        1   -1    0    0  501    0  0.00000000000E+00  0.00000000000E+00 -0.68039600380E+03  0.68039600381E+03  0.50400001928E-02 0.  1.
    10030    2    1    2    0    0  0.00000000000E+00  0.00000000000E+00  0.31333342798E+02  0.13921253504E+04  0.13917726872E+04 0.  0.
        3    1    3    3  502    0  0.38231072210E+03  0.40865422985E+03  0.42941145473E+03  0.70537506014E+03  0.10100000352E+00 0. -1.
       -3    1    3    3    0  502 -0.38231072210E+03 -0.40865422985E+03 -0.39807811194E+03  0.68675029029E+03  0.10100000352E+00 0.  1.
</event>
<event>
 5   0  0.3756664E-04  0.1244429E+04  0.7818609E-02  0.9074833E-01
       -1   -1    0    0    0  501  0.00000000000E+00  0.00000000000E+00  0.47539217424E+03  0.47539217427E+03  0.50400001928E-02 0. -1.
        1   -1    0    0  501    0  0.00000000000E+00  0.00000000000E+00 -0.81438234431E+03  0.81438234432E+03  0.50400001928E-02 0.  1.
    10030    2    1    2    0    0  0.00000000000E+00  0.00000000000E+00 -0.33899017007E+03  0.12897745186E+04  0.12444291757E+04 0.  0.
        2    1    3    3  502    0  0.16760191453E+03  0.43766036215E+03  0.25470344689E+03  0.53339557574E+03  0.25500000920E-02 0. -1.
       -2    1    3    3    0  502 -0.16760191453E+03 -0.43766036215E+03 -0.59369361696E+03  0.75637894285E+03  0.25500000920E-02 0.  1.
</event>
<event>
 5   0  0.7296966E-04  0.1404747E+04  0.7818609E-02  0.8950390E-01
       -2   -1    0    0    0  501  0.00000000000E+00  0.00000000000E+00  0.43168448009E+03  0.43168448010E+03  0.25500000920E-02 0.  1.
        2   -1    0    0  501    0  0.00000000000E+00  0.00000000000E+00 -0.11427989481E+04  0.11427989481E+04  0.25500000920E-02 0. -1.
    10030    2    1    2    0    0  0.00000000000E+00  0.00000000000E+00 -0.71111446801E+03  0.15744834282E+04  0.14047470516E+04 0.  0.
        3    1    3    3  502    0 -0.34558698622E+03 -0.40631388946E+03  0.15661109332E+03  0.55592120536E+03  0.10100000352E+00 0.  1.
       -3    1    3    3    0  502  0.34558698622E+03  0.40631388946E+03 -0.86772556133E+03  0.10185622228E+04  0.10100000352E+00 0. -1.
</event>
<event>
 5   0  0.3977658E-04  0.1409448E+04  0.7818609E-02  0.8947008E-01
        1   -1    0    0  501    0  0.00000000000E+00  0.00000000000E+00  0.81935860352E+03  0.81935860353E+03  0.50400001928E-02 0. -1.
       -1   -1    0    0    0  501  0.00000000000E+00  0.00000000000E+00 -0.60612784069E+03  0.60612784071E+03  0.50400001928E-02 0.  1.
    10030    2    1    2    0    0  0.00000000000E+00  0.00000000000E+00  0.21323076282E+03  0.14254864442E+04  0.14094482057E+04 0.  0.
        5    1    3    3  502    0  0.52938788811E+03  0.41079609376E+02  0.57521788658E+03  0.78283892176E+03  0.46999998093E+01 0. -1.
       -5    1    3    3    0  502 -0.52938788811E+03 -0.41079609376E+02 -0.36198712376E+03  0.64264752248E+03  0.46999998093E+01 0.  1.
</event>
<event>
 5   0  0.3907093E-04  0.1401816E+04  0.7818609E-02  0.8952505E-01
        1   -1    0    0  501    0  0.00000000000E+00  0.00000000000E+00  0.24079648069E+04  0.24079648069E+04  0.50400001928E-02 0.  1.
       -1   -1    0    0    0  501  0.00000000000E+00  0.00000000000E+00 -0.20401964238E+03  0.20401964245E+03  0.50400001928E-02 0. -1.
    10030    2    1    2    0    0  0.00000000000E+00  0.00000000000E+00  0.22039451645E+04  0.26119844493E+04  0.14018161347E+04 0.  0.
        4    1    3    3  502    0 -0.61503098882E+03 -0.13686623309E+03  0.16740803655E+04  0.17887264089E+04  0.12699999809E+01 0. -1.
       -4    1    3    3    0  502  0.61503098882E+03  0.13686623309E+03  0.52986479902E+03  0.82325804042E+03  0.12699999809E+01 0.  1.
</event>
<event>
 5   0  0.3784219E-04  0.1401506E+04  0.7818609E-02  0.8952729E-01
       -1   -1    0    0    0  501  0.00000000000E+00  0.00000000000E+00  0.39672260966E+03  0.39672260969E+03  0.50400001928E-02 0.  1.
        1   -1    0    0  501    0  0.00000000000E+00  0.00000000000E+00 -0.12377789015E+04  0.12377789015E+04  0.50400001928E-02 0. -1.
    10030    2    1    2    0    0  0.00000000000E+00  0.00000000000E+00 -0.84105629186E+03  0.16345015112E+04  0.14015061556E+04 0.  0.
        1    1    3    3  502    0 -0.65247059372E+03  0.49649652707E+02 -0.71295594254E+03  0.96772368975E+03  0.50400001928E-02 0. -1.
       -1    1    3    3    0  502  0.65247059372E+03 -0.49649652707E+02 -0.12810034932E+03  0.66677782147E+03  0.50400001928E-02 0.  1.
</event>
<event>
 5   0  0.7065539E-04  0.1401456E+04  0.7818609E-02  0.8952765E-01
       -2   -1    0    0    0  501  0.00000000000E+00  0.00000000000E+00  0.15577563354E+04  0.15577563354E+04  0.25500000920E-02 0. -1.
        2   -1    0    0  501    0  0.00000000000E+00  0.00000000000E+00 -0.31520975352E+03  0.31520975353E+03  0.25500000920E-02 0.  1.
    10030    2    1    2    0    0  0.00000000000E+00  0.00000000000E+00  0.12425465819E+04  0.18729660889E+04  0.14014563718E+04 0.  0.
        1    1    3    3  502    0 -0.15534187398E+03 -0.83073149786E+02 -0.28513415036E+03  0.33516224393E+03  0.50400001928E-02 0.  1.
       -1    1    3    3    0  502  0.15534187398E+03  0.83073149786E+02  0.15276807323E+04  0.15378038450E+04  0.50400001928E-02 0. -1.
</event>
<event>
 5   0  0.3784219E-04  0.1407862E+04  0.7818609E-02  0.8948147E-01
        1   -1    0    0  501    0  0.00000000000E+00  0.00000000000E+00  0.81847696052E+03  0.81847696054E+03  0.50400001928E-02 0.  1.
       -1   -1    0    0    0  501  0.00000000000E+00  0.00000000000E+00 -0.60541580000E+03  0.60541580003E+03  0.50400001928E-02 0. -1.
    10030    2    1    2    0    0  0.00000000000E+00  0.00000000000E+00  0.21306116052E+03  0.14238927606E+04  0.14078620442E+04 0.  0.
        1    1    3    3  502    0 -0.44872103535E+03 -0.50019122836E+02 -0.43968034766E+03  0.63021527144E+03  0.50400001928E-02 0. -1.
       -1    1    3    3    0  502  0.44872103535E+03  0.50019122836E+02  0.65274150818E+03  0.79367748912E+03  0.50400001928E-02 0.  1.
</event>
<event>
 5   0  0.7296966E-04  0.1403970E+04  0.7818609E-02  0.8950950E-01
       -2   -1    0    0    0  501  0.00000000000E+00  0.00000000000E+00  0.66428199040E+03  0.66428199040E+03  0.25500000920E-02 0.  1.
        2   -1    0    0  501    0  0.00000000000E+00  0.00000000000E+00 -0.74182756296E+03  0.74182756296E+03  0.25500000920E-02 0. -1.
    10030    2    1    2    0    0  0.00000000000E+00  0.00000000000E+00 -0.77545572561E+02  0.14061095534E+04  0.14039696436E+04 0.  0.
        3    1    3    3  502    0  0.34004849156E+03 -0.36313546621E+03 -0.53478752161E+03  0.73040950630E+03  0.10100000352E+00 0. -1.
       -3    1    3    3    0  502 -0.34004849156E+03  0.36313546621E+03  0.45724194905E+03  0.67570004706E+03  0.10100000352E+00 0.  1.
</event>
<event>
 5   0  0.7296966E-04  0.1400144E+04  0.7818609E-02  0.8953715E-01
        2   -1    0    0  501    0  0.00000000000E+00  0.00000000000E+00  0.11963091322E+04  0.11963091322E+04  0.25500000920E-02 0.  1.
       -2   -1    0    0    0  501  0.00000000000E+00  0.00000000000E+00 -0.40967721647E+03  0.40967721648E+03  0.25500000920E-02 0. -1.
    10030    2    1    2    0    0  0.00000000000E+00  0.00000000000E+00  0.78663191574E+03  0.16059863487E+04  0.14001437002E+04 0.  0.
        3    1    3    3  502    0 -0.21094785796E+03  0.65151863263E+02 -0.36870016462E+03  0.42974828174E+03  0.10100000352E+00 0. -1.
       -3    1    3    3    0  502  0.21094785796E+03 -0.65151863263E+02  0.11553320804E+04  0.11762380670E+04  0.10100000352E+00 0.  1.
</event>
<event>
 5   0  0.6895048E-04  0.1421143E+04  0.7818609E-02  0.8938655E-01
       -2   -1    0    0    0  501  0.00000000000E+00  0.00000000000E+00  0.35515966592E+03  0.35515966593E+03  0.25500000920E-02 0. -1.
        2   -1    0    0  501    0  0.00000000000E+00  0.00000000000E+00 -0.14216470576E+04  0.14216470576E+04  0.25500000920E-02 0.  1.
    10030    2    1    2    0    0  0.00000000000E+00  0.00000000000E+00 -0.10664873917E+04  0.17768067236E+04  0.14211427712E+04 0.  0.
        4    1    3    3  502    0 -0.29391569798E+02 -0.36728661734E+03 -0.12928735204E+04  0.13443537021E+04  0.12699999809E+01 0.  1.
       -4    1    3    3    0  502  0.29391569798E+02  0.36728661734E+03  0.22638612867E+03  0.43245302150E+03  0.12699999809E+01 0. -1.
</event>
<event>
 5   0  0.3907270E-04  0.1371498E+04  0.7818609E-02  0.8974712E-01
       -1   -1    0    0    0  501  0.00000000000E+00  0.00000000000E+00  0.41947047432E+03  0.41947047435E+03  0.50400001928E-02 0.  1.
        1   -1    0    0  501    0  0.00000000000E+00  0.00000000000E+00 -0.11210599627E+04  0.11210599628E+04  0.50400001928E-02 0. -1.
    10030    2    1    2    0    0  0.00000000000E+00  0.00000000000E+00 -0.70158948842E+03  0.15405304371E+04  0.13714978007E+04 0.  0.
        3    1    3    3  502    0 -0.64934161871E+03  0.21307438446E+03 -0.41439782155E+03  0.79923137814E+03  0.10100000352E+00 0.  1.
       -3    1    3    3    0  502  0.64934161871E+03 -0.21307438446E+03 -0.28719166687E+03  0.74129905896E+03  0.10100000352E+00 0. -1.
</event>
<event>
 5   0  0.6895048E-04  0.1407099E+04  0.7818609E-02  0.8948696E-01
        2   -1    0    0  501    0  0.00000000000E+00  0.00000000000E+00  0.10073873745E+04  0.10073873745E+04  0.25500000920E-02 0. -1.
       -2   -1    0    0    0  501  0.00000000000E+00  0.00000000000E+00 -0.49135209452E+03  0.49135209452E+03  0.25500000920E-02 0.  1.
    10030    2    1    2    0    0  0.00000000000E+00  0.00000000000E+00  0.51603528003E+03  0.14987394691E+04  0.14070989965E+04 0.  0.
        4    1    3    3  502    0 -0.21156854076E+03 -0.39198117405E+03  0.83806699735E+03  0.94908819043E+03  0.12699999809E+01 0. -1.
       -4    1    3    3    0  502  0.21156854076E+03  0.39198117405E+03 -0.32203171732E+03  0.54965127864E+03  0.12699999809E+01 0.  1.
</event>
<event>
 5   0  0.3977658E-04  0.1396202E+04  0.7818609E-02  0.8956572E-01
       -1   -1    0    0    0  501  0.00000000000E+00  0.00000000000E+00  0.42606336574E+03  0.42606336577E+03  0.50400001928E-02 0. -1.
        1   -1    0    0  501    0  0.00000000000E+00  0.00000000000E+00 -0.11438328775E+04  0.11438328775E+04  0.50400001928E-02 0.  1.
    10030    2    1    2    0    0  0.00000000000E+00  0.00000000000E+00 -0.71776951179E+03  0.15698962433E+04  0.13962024003E+04 0.  0.
        5    1    3    3  502    0 -0.34149512505E+03 -0.14579511338E+03 -0.10235667083E+04  0.10888461930E+04  0.46999998093E+01 0.  1.
       -5    1    3    3    0  502  0.34149512505E+03  0.14579511338E+03  0.30579719655E+03  0.48105005034E+03  0.46999998093E+01 0. -1.
</event>
<event>
 5   0  0.7065539E-04  0.1393195E+04  0.7818609E-02  0.8958759E-01
       -2   -1    0    0    0  501  0.00000000000E+00  0.00000000000E+00  0.12524974423E+04  0.12524974423E+04  0.25500000920E-02 0.  1.
        2   -1    0    0  501    0  0.00000000000E+00  0.00000000000E+00 -0.38742437387E+03  0.38742437388E+03  0.25500000920E-02 0. -1.
    10030    2    1    2    0    0  0.00000000000E+00  0.00000000000E+00  0.86507306844E+03  0.16399218162E+04  0.13931949431E+04 0.  0.
        1    1    3    3  502    0  0.52459621020E+03  0.14367361086E+03  0.94481568846E+03  0.10901926322E+04  0.50400001928E-02 0.  1.
       -1    1    3    3    0  502 -0.52459621020E+03 -0.14367361086E+03 -0.79742620018E+02  0.54972918395E+03  0.50400001928E-02 0. -1.
</event>
<event>
 5   0  0.3756664E-04  0.1410421E+04  0.7818609E-02  0.8946309E-01
        1   -1    0    0  501    0  0.00000000000E+00  0.00000000000E+00  0.96065754747E+03  0.96065754748E+03  0.50400001928E-02 0.  1.
       -1   -1    0    0    0  501  0.00000000000E+00  0.00000000000E+00 -0.51768919520E+03  0.51768919522E+03  0.50400001928E-02 0. -1.
    10030    2    1    2    0    0  0.00000000000E+00  0.00000000000E+00  0.44296835227E+03  0.14783467427E+04  0.14104212600E+04 0.  0.
        2    1    3    3  502    0 -0.21184313378E+03  0.84426897502E+02 -0.47797426277E+03  0.52958928447E+03  0.25500000920E-02 0. -1.
       -2    1    3    3    0  502  0.21184313378E+03 -0.84426897502E+02  0.92094261504E+03  0.94875745823E+03  0.25500000920E-02 0.  1.
</event>
<event>
 5   0  0.6959748E-04  0.1384120E+04  0.7818609E-02  0.8965394E-01
        2   -1    0    0  501    0  0.00000000000E+00  0.00000000000E+00  0.27913417347E+04  0.27913417347E+04  0.25500000920E-02 0.  1.
       -2   -1    0    0    0  501  0.00000000000E+00  0.00000000000E+00 -0.17158312494E+03  0.17158312496E+03  0.25500000920E-02 0. -1.
    10030    2    1    2    0    0  0.00000000000E+00  0.00000000000E+00  0.26197586098E+04  0.29629248596E+04  0.13841201359E+04 0.  0.
        5    1    3    3  502    0 -0.34139997147E+03 -0.35917200812E+03  0.27577063809E+03  0.56712433096E+03  0.46999998093E+01 0. -1.
       -5    1    3    3    0  502  0.34139997147E+03  0.35917200812E+03  0.23439879717E+04  0.23958005287E+04  0.46999998093E+01 0.  1.
</event>
<event>
 5   0  0.3907270E-04  0.1382300E+04  0.7818609E-02  0.8966731E-01
       -1   -1    0    0    0  501  0.00000000000E+00  0.00000000000E+00  0.44638946890E+03  0.44638946893E+03  0.50400001928E-02 0.  1.
        1   -1    0    0  501    0  0.00000000000E+00  0.00000000000E+00 -0.10701156208E+04  0.10701156208E+04  0.50400001928E-02 0. -1.
    10030    2    1    2    0    0  0.00000000000E+00  0.00000000000E+00 -0.62372615186E+03  0.15165050897E+04  0.13823000306E+04 0.  0.
        3    1    3    3  502    0  0.38758942242E+03 -0.37237613760E+03 -0.78855868589E+03  0.95431355409E+03  0.10100000352E+00 0. -1.
       -3    1    3    3    0  502 -0.38758942242E+03  0.37237613760E+03  0.16483253404E+03  0.56219153560E+03  0.10100000352E+00 0.  1.
</event>
<event>
 5   0  0.3907270E-04  0.1389024E+04  0.7818609E-02  0.8961802E-01
       -1   -1    0    0    0  501  0.00000000000E+00  0.00000000000E+00  0.55190416763E+03  0.55190416765E+03  0.50400001928E-02 0. -1.
        1   -1    0    0  501    0  0.00000000000E+00  0.00000000000E+00 -0.87396877253E+03  0.87396877255E+03  0.50400001928E-02 0.  1.
    10030    2    1    2    0    0  0.00000000000E+00  0.00000000000E+00 -0.32206460491E+03  0.14258729402E+04  0.13890241293E+04 0.  0.
        3    1    3    3  502    0 -0.44595455523E+02 -0.11523796358E+03  0.54052953114E+03  0.55447337820E+03  0.10100000352E+00 0. -1.
       -3    1    3    3    0  502  0.44595455523E+02  0.11523796358E+03 -0.86259413604E+03  0.87139956199E+03  0.10100000352E+00 0.  1.
</event>
<event>
 5   0  0.2660250E-04  0.1407424E+04  0.7818609E-02  0.8948462E-01
        3   -1    0    0  501    0  0.00000000000E+00  0.00000000000E+00  0.42995181643E+03  0.42995182829E+03  0.10100000352E+00 0.  1.
       -3   -1    0    0    0  501  0.00000000000E+00  0.00000000000E+00 -0.11517817904E+04  0.11517817948E+04  0.10100000352E+00 0. -1.
    10030    2    1    2    0    0  0.00000000000E+00  0.00000000000E+00 -0.72182997397E+03  0.15817336231E+04  0.14074241518E+04 0.  0.
        2    1    3    3  502    0 -0.66350681662E+03  0.17890648837E+03 -0.19061607814E+03  0.71315027627E+03  0.25500000920E-02 0.  1.
       -2    1    3    3    0  502  0.66350681662E+03 -0.17890648837E+03 -0.53121389583E+03  0.86858334684E+03  0.25500000920E-02 0. -1.
</event>
<event>
 5   0  0.3784219E-04  0.1391180E+04  0.7818609E-02  0.8960228E-01
       -1   -1    0    0    0  501  0.00000000000E+00  0.00000000000E+00  0.83159097895E+03  0.83159097896E+03  0.50400001928E-02 0. -1.
        1   -1    0    0  501    0  0.00000000000E+00  0.00000000000E+00 -0.58183099638E+03  0.58183099640E+03  0.50400001928E-02 0.  1.
    10030    2    1    2    0    0  0.00000000000E+00  0.00000000000E+00  0.24975998257E+03  0.14134219754E+04  0.13911799422E+04 0.  0.
        1    1    3    3  502    0 -0.58522662172E+03  0.11217819774E+03 -0.23970434513E+03  0.64228678946E+03  0.50400001928E-02 0.  1.
       -1    1    3    3    0  502  0.58522662172E+03 -0.11217819774E+03  0.48946432770E+03  0.77113518590E+03  0.50400001928E-02 0. -1.
</event>
<event>
 5   0  0.3756664E-04  0.1397540E+04  0.7818609E-02  0.8955601E-01
        1   -1    0    0  501    0  0.00000000000E+00  0.00000000000E+00  0.43318953941E+03  0.43318953944E+03  0.50400001928E-02 0. -1.
       -1   -1    0    0    0  501  0.00000000000E+00  0.00000000000E+00 -0.11271723208E+04  0.11271723208E+04  0.50400001928E-02 0.  1.
    10030    2    1    2    0    0  0.00000000000E+00  0.00000000000E+00 -0.69398278138E+03  0.15603618603E+04  0.13975396360E+04 0.  0.
        2    1    3    3  502    0  0.35822308166E+03  0.50771735144E+03 -0.70388692166E+03  0.93891292656E+03  0.25500000920E-02 0.  1.
       -2    1    3    3    0  502 -0.35822308166E+03 -0.50771735144E+03  0.99041402735E+01  0.62144893369E+03  0.25500000920E-02 0. -1.
</event>
<event>
 5   0  0.3977658E-04  0.1400198E+04  0.7818609E-02  0.8953675E-01
        1   -1    0    0  501    0  0.00000000000E+00  0.00000000000E+00  0.11517733917E+04  0.11517733917E+04  0.50400001928E-02 0. -1.
       -1   -1    0    0    0  501  0.00000000000E+00  0.00000000000E+00 -0.42555145966E+03  0.42555145969E+03  0.50400001928E-02 0.  1.
    10030    2    1    2    0    0  0.00000000000E+00  0.00000000000E+00  0.72622193206E+03  0.15773248514E+04  0.14001983404E+04 0.  0.
        5    1    3    3  502    0 -0.56705477429E+03 -0.13733591381E+03  0.79897295586E+03  0.98933924639E+03  0.46999998093E+01 0. -1.
       -5    1    3    3    0  502  0.56705477429E+03  0.13733591381E+03 -0.72751023801E+02  0.58798560503E+03  0.46999998093E+01 0.  1.
</event>
<event>
 5   0  0.6959748E-04  0.1402227E+04  0.7818609E-02  0.8952208E-01
       -2   -1    0    0    0  501  0.00000000000E+00  0.00000000000E+00  0.64627704579E+03  0.64627704579E+03  0.25500000920E-02 0. -1.
        2   -1    0    0  501    0  0.00000000000E+00  0.00000000000E+00 -0.76060273775E+03  0.76060273775E+03  0.25500000920E-02 0.  1.
    10030    2    1    2    0    0  0.00000000000E+00  0.00000000000E+00 -0.11432569196E+03  0.14068797835E+04  0.14022269294E+04 0.  0.
        5    1    3    3  502    0 -0.38741593400E+03 -0.17957796842E+03  0.50073858913E+03  0.65810377396E+03  0.46999998093E+01 0. -1.
       -5    1    3    3    0  502  0.38741593400E+03  0.17957796842E+03 -0.61506428109E+03  0.74877600958E+03  0.46999998093E+01 0.  1.
</event>
<event>
 5   0  0.3977658E-04  0.1439559E+04  0.7818609E-02  0.8925671E-01
        1   -1    0    0  501    0  0.00000000000E+00  0.00000000000E+00  0.12640336289E+04  0.12640336289E+04  0.50400001928E-02 0. -1.
       -1   -1    0    0    0  501  0.00000000000E+00  0.00000000000E+00 -0.40986459976E+03  0.40986459979E+03  0.50400001928E-02 0.  1.
    10030    2    1    2    0    0  0.00000000000E+00  0.00000000000E+00  0.85416902912E+03  0.16738982287E+04  0.14395591512E+04 0.  0.
        5    1    3    3  502    0 -0.24022508462E+03 -0.62655574445E+03  0.72981172254E+03  0.99142696783E+03  0.46999998093E+01 0. -1.
       -5    1    3    3    0  502  0.24022508462E+03  0.62655574445E+03  0.12435730658E+03  0.68247126085E+03  0.46999998093E+01 0.  1.
</event>
<event>
 5   0  0.7065539E-04  0.1430344E+04  0.7818609E-02  0.8932142E-01
        2   -1    0    0  501    0  0.00000000000E+00  0.00000000000E+00  0.53916091191E+03  0.53916091191E+03  0.25500000920E-02 0.  1.
       -2   -1    0    0    0  501  0.00000000000E+00  0.00000000000E+00 -0.94864242626E+03  0.94864242626E+03  0.25500000920E-02 0. -1.
    10030    2    1    2    0    0  0.00000000000E+00  0.00000000000E+00 -0.40948151435E+03  0.14878033382E+04  0.14303438966E+04 0.  0.
        1    1    3    3  502    0 -0.19194073967E+03 -0.60498219274E+03  0.13808416355E+03  0.64954748658E+03  0.50400001928E-02 0.  1.
       -1    1    3    3    0  502  0.19194073967E+03  0.60498219274E+03 -0.54756567790E+03  0.83825585159E+03  0.50400001928E-02 0. -1.
</event>
<event>
 5   0  0.3784219E-04  0.1398042E+04  0.7818609E-02  0.8955237E-01
        1   -1    0    0  501    0  0.00000000000E+00  0.00000000000E+00  0.63792957269E+03  0.63792957271E+03  0.50400001928E-02 0. -1.
       -1   -1    0    0    0  501  0.00000000000E+00  0.00000000000E+00 -0.76596271861E+03  0.76596271862E+03  0.50400001928E-02 0.  1.
    10030    2    1    2    0    0  0.00000000000E+00  0.00000000000E+00 -0.12803314591E+03  0.14038922913E+04  0.13980418732E+04 0.  0.
        1    1    3    3  502    0  0.61754685030E+03 -0.15511700054E+03  0.22564307111E+03  0.67552956392E+03  0.50400001928E-02 0. -1.
       -1    1    3    3    0  502 -0.61754685030E+03  0.15511700054E+03 -0.35367621703E+03  0.72836272741E+03  0.50400001928E-02 0.  1.
</event>
<event>
 5   0  0.6895048E-04  0.1393950E+04  0.7818609E-02  0.8958209E-01
        2   -1    0    0  501    0  0.00000000000E+00  0.00000000000E+00  0.73556049842E+03  0.73556049843E+03  0.25500000920E-02 0. -1.
       -2   -1    0    0    0  501  0.00000000000E+00  0.00000000000E+00 -0.66041377447E+03  0.66041377448E+03  0.25500000920E-02 0.  1.
    10030    2    1    2    0    0  0.00000000000E+00  0.00000000000E+00  0.75146723950E+02  0.13959742729E+04  0.13939501930E+04 0.  0.
        4    1    3    3  502    0 -0.27648997075E+03  0.15116066760E+03  0.66014833648E+03  0.73150098456E+03  0.12699999809E+01 0. -1.
       -4    1    3    3    0  502  0.27648997075E+03 -0.15116066760E+03 -0.58500161253E+03  0.66447328834E+03  0.12699999809E+01 0.  1.
</event>
<event>
 5   0  0.7296966E-04  0.1411144E+04  0.7818609E-02  0.8945791E-01
       -2   -1    0    0    0  501  0.00000000000E+00  0.00000000000E+00  0.48473537019E+03  0.48473537020E+03  0.25500000920E-02 0.  1.
        2   -1    0    0  501    0  0.00000000000E+00  0.00000000000E+00 -0.10270182700E+04  0.10270182700E+04  0.25500000920E-02 0. -1.
    10030    2    1    2    0    0  0.00000000000E+00  0.00000000000E+00 -0.54228289980E+03  0.15117536402E+04  0.14111443318E+04 0.  0.
        3    1    3    3  502    0  0.44826984221E+03 -0.50616566365E+03 -0.55061922825E+02  0.67836668259E+03  0.10100000352E+00 0.  1.
       -3    1    3    3    0  502 -0.44826984221E+03  0.50616566365E+03 -0.48722097697E+03  0.83338695760E+03  0.10100000352E+00 0. -1.
</event>
<event>
 5   0  0.3907270E-04  0.1414519E+04  0.7818609E-02  0.8943376E-01
        1   -1    0    0  501    0  0.00000000000E+00  0.00000000000E+00  0.99857819468E+03  0.99857819469E+03  0.50400001928E-02 0. -1.
       -1   -1    0    0    0  501  0.00000000000E+00  0.00000000000E+00 -0.50092790246E+03  0.50092790248E+03  0.50400001928E-02 0.  1.
    10030    2    1    2    0    0  0.00000000000E+00  0.00000000000E+00  0.49765029222E+03  0.14995060972E+04  0.14145185478E+04 0.  0.
        3    1    3    3  502    0  0.42669668073E+03  0.54092068937E+03  0.79376299153E+02  0.69351701969E+03  0.10100000352E+00 0.  1.
       -3    1    3    3    0  502 -0.42669668073E+03 -0.54092068937E+03  0.41827399307E+03  0.80598907748E+03  0.10100000352E+00 0. -1.
</event>
<event>
 5   0  0.3977658E-04  0.1397153E+04  0.7818609E-02  0.8955882E-01
       -1   -1    0    0    0  501  0.00000000000E+00  0.00000000000E+00  0.26532024170E+03  0.26532024175E+03  0.50400001928E-02 0.  1.
        1   -1    0    0  501    0  0.00000000000E+00  0.00000000000E+00 -0.18393203942E+04  0.18393203942E+04  0.50400001928E-02 0. -1.
    10030    2    1    2    0    0  0.00000000000E+00  0.00000000000E+00 -0.15740001525E+04  0.21046406359E+04  0.13971527212E+04 0.  0.
        5    1    3    3  502    0 -0.55491688857E+02  0.49659251552E+03 -0.15223586807E+04  0.16022738520E+04  0.46999998093E+01 0. -1.
       -5    1    3    3    0  502  0.55491688857E+02 -0.49659251552E+03 -0.51641471756E+02  0.50236678394E+03  0.46999998093E+01 0.  1.
</event>
<event>
 5   0  0.2660250E-04  0.1316876E+04  0.7818609E-02  0.9016288E-01
       -3   -1    0    0    0  501  0.00000000000E+00  0.00000000000E+00  0.62232079922E+03  0.62232080742E+03  0.10100000352E+00 0. -1.
        3   -1    0    0  501    0  0.00000000000E+00  0.00000000000E+00 -0.69665164766E+03  0.69665165498E+03  0.10100000352E+00 0.  1.
    10030    2    1    2    0    0  0.00000000000E+00  0.00000000000E+00 -0.74330848435E+02  0.13189724624E+04  0.13168763349E+04 0.  0.
        4    1    3    3  502    0 -0.17711047478E+02  0.30770905170E+02 -0.69569099336E+03  0.69659751719E+03  0.12699999809E+01 0.  1.
       -4    1    3    3    0  502  0.17711047478E+02 -0.30770905170E+02  0.62136014493E+03  0.62237494520E+03  0.12699999809E+01 0. -1.
</event>
<event>
 5   0  0.3756664E-04  0.1421592E+04  0.7818609E-02  0.8938336E-01
       -1   -1    0    0    0  501  0.00000000000E+00  0.00000000000E+00  0.66008257709E+03  0.66008257711E+03  0.50400001928E-02 0.  1.
        1   -1    0    0  501    0  0.00000000000E+00  0.00000000000E+00 -0.76540585972E+03  0.76540585973E+03  0.50400001928E-02 0. -1.
    10030    2    1    2    0    0  0.00000000000E+00  0.00000000000E+00 -0.10532328263E+03  0.14254884368E+04  0.14215921672E+04 0.  0.
        2    1    3    3  502    0  0.28360310811E+02 -0.12808207062E+03 -0.75316184379E+03  0.76450120143E+03  0.25500000920E-02 0. -1.
       -2    1    3    3    0  502 -0.28360310811E+02  0.12808207062E+03  0.64783856116E+03  0.66098723541E+03  0.25500000920E-02 0.  1.
</event>
<event>
 5   0  0.7296966E-04  0.1412853E+04  0.7818609E-02  0.8944567E-01
       -2   -1    0    0    0  501  0.00000000000E+00  0.00000000000E+00  0.63348188803E+03  0.63348188804E+03  0.25500000920E-02 0.  1.
        2   -1    0    0  501    0  0.00000000000E+00  0.00000000000E+00 -0.78777032178E+03  0.78777032178E+03  0.25500000920E-02 0. -1.
    10030    2    1    2    0    0  0.00000000000E+00  0.00000000000E+00 -0.15428843375E+03  0.14212522098E+04  0.14128527606E+04 0.  0.
        3    1    3    3  502    0 -0.54893646462E+03 -0.26956880190E+03  0.27856744596E+03  0.67201072409E+03  0.10100000352E+00 0.  1.
       -3    1    3    3    0  502  0.54893646462E+03  0.26956880190E+03 -0.43285587971E+03  0.74924148573E+03  0.10100000352E+00 0. -1.
</event>
<event>
 5   0  0.6870835E-04  0.1387287E+04  0.7818609E-02  0.8963073E-01
       -2   -1    0    0    0  501  0.00000000000E+00  0.00000000000E+00  0.69408693998E+03  0.69408693998E+03  0.25500000920E-02 0. -1.
        2   -1    0    0  501    0  0.00000000000E+00  0.00000000000E+00 -0.69320028844E+03  0.69320028844E+03  0.25500000920E-02 0.  1.
    10030    2    1    2    0    0  0.00000000000E+00  0.00000000000E+00  0.88665153990E+00  0.13872872284E+04  0.13872869451E+04 0.  0.
        2    1    3    3  502    0 -0.22916234015E+03  0.28645989573E+03 -0.58825588312E+03  0.69326736115E+03  0.25500000920E-02 0.  1.
       -2    1    3    3    0  502  0.22916234015E+03 -0.28645989573E+03  0.58914253466E+03  0.69401986727E+03  0.25500000920E-02 0. -1.
</event>
<event>
 5   0  0.7296966E-04  0.1554545E+04  0.7818609E-02  0.8848970E-01
        2   -1    0    0  501    0  0.00000000000E+00  0.00000000000E+00  0.69305453987E+03  0.69305453987E+03  0.25500000920E-02 0. -1.
       -2   -1    0    0    0  501  0.00000000000E+00  0.00000000000E+00 -0.87172462890E+03  0.87172462891E+03  0.25500000920E-02 0.  1.
    10030    2    1    2    0    0  0.00000000000E+00  0.00000000000E+00 -0.17867008904E+03  0.15647791688E+04  0.15545452217E+04 0.  0.
        3    1    3    3  502    0  0.68642772350E+03 -0.15457429576E+03 -0.42177654268E+03  0.82034852023E+03  0.10100000352E+00 0.  1.
       -3    1    3    3    0  502 -0.68642772350E+03  0.15457429576E+03  0.24310645364E+03  0.74443064855E+03  0.10100000352E+00 0. -1.
</event>
<event>
 5   0  0.6870835E-04  0.1395809E+04  0.7818609E-02  0.8956858E-01
        2   -1    0    0  501    0  0.00000000000E+00  0.00000000000E+00  0.58021909053E+03  0.58021909054E+03  0.25500000920E-02 0. -1.
       -2   -1    0    0    0  501  0.00000000000E+00  0.00000000000E+00 -0.83945965055E+03  0.83945965055E+03  0.25500000920E-02 0.  1.
    10030    2    1    2    0    0  0.00000000000E+00  0.00000000000E+00 -0.25924056001E+03  0.14196787411E+04  0.13958087476E+04 0.  0.
        2    1    3    3  502    0 -0.29855659150E+03 -0.25026571243E+03  0.45933449027E+03  0.60229323349E+03  0.25500000920E-02 0. -1.
       -2    1    3    3    0  502  0.29855659150E+03  0.25026571243E+03 -0.71857505028E+03  0.81738550760E+03  0.25500000920E-02 0.  1.
</event>
<event>
 5   0  0.7296966E-04  0.1416115E+04  0.7818609E-02  0.8942235E-01
        2   -1    0    0  501    0  0.00000000000E+00  0.00000000000E+00  0.12716862631E+04  0.12716862631E+04  0.25500000920E-02 0. -1.
       -2   -1    0    0    0  501  0.00000000000E+00  0.00000000000E+00 -0.39423691293E+03  0.39423691294E+03  0.25500000920E-02 0.  1.
    10030    2    1    2    0    0  0.00000000000E+00  0.00000000000E+00  0.87744935018E+03  0.16659231760E+04  0.14161153436E+04 0.  0.
        3    1    3    3  502    0 -0.32306664187E+03 -0.49778738496E+03  0.89309877246E+03  0.10722825016E+04  0.10100000352E+00 0. -1.
       -3    1    3    3    0  502  0.32306664187E+03  0.49778738496E+03 -0.15649422282E+02  0.59364067442E+03  0.10100000352E+00 0.  1.
</event>
<event>
 5   0  0.6959748E-04  0.1434502E+04  0.7818609E-02  0.8929216E-01
        2   -1    0    0  501    0  0.00000000000E+00  0.00000000000E+00  0.12613923646E+04  0.12613923646E+04  0.25500000920E-02 0. -1.
       -2   -1    0    0    0  501  0.00000000000E+00  0.00000000000E+00 -0.40784238500E+03  0.40784238501E+03  0.25500000920E-02 0.  1.
    10030    2    1    2    0    0  0.00000000000E+00  0.00000000000E+00  0.85354997961E+03  0.16692347496E+04  0.14345023812E+04 0.  0.
        5    1    3    3  502    0  0.54684671099E+03 -0.18500851192E+03 -0.68497892265E+02  0.58136350594E+03  0.46999998093E+01 0.  1.
       -5    1    3    3    0  502 -0.54684671099E+03  0.18500851192E+03  0.92204787188E+03  0.10878712437E+04  0.46999998093E+01 0. -1.
</event>
<event>
 5   0  0.6895048E-04  0.1406660E+04  0.7818609E-02  0.8949012E-01
       -2   -1    0    0    0  501  0.00000000000E+00  0.00000000000E+00  0.22356971324E+03  0.22356971325E+03  0.25500000920E-02 0. -1.
        2   -1    0    0  501    0  0.00000000000E+00  0.00000000000E+00 -0.22126112614E+04  0.22126112614E+04  0.25500000920E-02 0.  1.
    10030    2    1    2    0    0  0.00000000000E+00  0.00000000000E+00 -0.19890415482E+04  0.24361809747E+04  0.14066596820E+04 0.  0.
        4    1    3    3  502    0  0.24342138608E+03  0.60070123613E+03 -0.52156772505E+03  0.83194377875E+03  0.12699999809E+01 0. -1.
       -4    1    3    3    0  502 -0.24342138608E+03 -0.60070123613E+03 -0.14674738231E+04  0.16042371959E+04  0.12699999809E+01 0.  1.
</event>
<event>
 5   0  0.6895048E-04  0.1399879E+04  0.7818609E-02  0.8953906E-01
       -2   -1    0    0    0  501  0.00000000000E+00  0.00000000000E+00  0.89694707601E+03  0.89694707601E+03  0.25500000920E-02 0. -1.
        2   -1    0    0  501    0  0.00000000000E+00  0.00000000000E+00 -0.54620306689E+03  0.54620306690E+03  0.25500000920E-02 0.  1.
    10030    2    1    2    0    0  0.00000000000E+00  0.00000000000E+00  0.35074400912E+03  0.14431501429E+04  0.13998789144E+04 0.  0.
        4    1    3    3  502    0  0.26049301342E+03  0.48905146177E+03  0.61624236824E+03  0.82872444854E+03  0.12699999809E+01 0. -1.
       -4    1    3    3    0  502 -0.26049301342E+03 -0.48905146177E+03 -0.26549835912E+03  0.61442569437E+03  0.12699999809E+01 0.  1.
</event>
<event>
 5   0  0.3784219E-04  0.1231108E+04  0.7818609E-02  0.9086055E-01
        1   -1    0    0  501    0  0.00000000000E+00  0.00000000000E+00  0.88846075110E+03  0.88846075112E+03  0.50400001928E-02 0.  1.
       -1   -1    0    0    0  501  0.00000000000E+00  0.00000000000E+00 -0.42647530601E+03  0.42647530604E+03  0.50400001928E-02 0. -1.
    10030    2    1    2    0    0  0.00000000000E+00  0.00000000000E+00  0.46198544510E+03  0.13149360572E+04  0.12311077463E+04 0.  0.
        1    1    3    3  502    0  0.34060267959E+03  0.50994441156E+03  0.28804404744E+03  0.67751225931E+03  0.50400001928E-02 0. -1.
       -1    1    3    3    0  502 -0.34060267959E+03 -0.50994441156E+03  0.17394139766E+03  0.63742379785E+03  0.50400001928E-02 0.  1.
</event>
<event>
 5   0  0.6870835E-04  0.1378927E+04  0.7818609E-02  0.8969215E-01
       -2   -1    0    0    0  501  0.00000000000E+00  0.00000000000E+00  0.51090987024E+03  0.51090987025E+03  0.25500000920E-02 0. -1.
        2   -1    0    0  501    0  0.00000000000E+00  0.00000000000E+00 -0.93041897712E+03  0.93041897712E+03  0.25500000920E-02 0.  1.
    10030    2    1    2    0    0  0.00000000000E+00  0.00000000000E+00 -0.41950910688E+03  0.14413288474E+04  0.13789274656E+04 0.  0.
        2    1    3    3  502    0  0.51425961948E+03 -0.11494878856E+03 -0.67449180082E+03  0.85592953542E+03  0.25500000920E-02 0.  1.
       -2    1    3    3    0  502 -0.51425961948E+03  0.11494878856E+03  0.25498269394E+03  0.58539931195E+03  0.25500000920E-02 0. -1.
</event>
<event>
 5   0  0.3977658E-04  0.1397328E+04  0.7818609E-02  0.8955755E-01
       -1   -1    0    0    0  501  0.00000000000E+00  0.00000000000E+00  0.52267636287E+03  0.52267636290E+03  0.50400001928E-02 0. -1.
        1   -1    0    0  501    0  0.00000000000E+00  0.00000000000E+00 -0.93390789182E+03  0.93390789184E+03  0.50400001928E-02 0.  1.
    10030    2    1    2    0    0  0.00000000000E+00  0.00000000000E+00 -0.41123152895E+03  0.14565842547E+04  0.13973282795E+04 0.  0.
        5    1    3    3  502    0 -0.75152432351E+02 -0.68845256745E+03 -0.10954079013E+03  0.70116766926E+03  0.46999998093E+01 0. -1.
       -5    1    3    3    0  502  0.75152432351E+02  0.68845256745E+03 -0.30169073882E+03  0.75541658547E+03  0.46999998093E+01 0.  1.
</event>
<event>
 5   0  0.3907093E-04  0.1396423E+04  0.7818609E-02  0.8956412E-01
       -1   -1    0    0    0  501  0.00000000000E+00  0.00000000000E+00  0.10833470619E+04  0.10833470619E+04  0.50400001928E-02 0. -1.
        1   -1    0    0  501    0  0.00000000000E+00  0.00000000000E+00 -0.44999389819E+03  0.44999389821E+03  0.50400001928E-02 0.  1.
    10030    2    1    2    0    0  0.00000000000E+00  0.00000000000E+00  0.63335316374E+03  0.15333409602E+04  0.13964233850E+04 0.  0.
        4    1    3    3  502    0 -0.61155977819E+03 -0.33686252599E+03  0.31225280864E+03  0.76484322127E+03  0.12699999809E+01 0.  1.
       -4    1    3    3    0  502  0.61155977819E+03  0.33686252599E+03  0.32110035510E+03  0.76849773888E+03  0.12699999809E+01 0. -1.
</event>
<event>
 5   0  0.3977658E-04  0.1386241E+04  0.7818609E-02  0.8963838E-01
        1   -1    0    0  501    0  0.00000000000E+00  0.00000000000E+00  0.73782681841E+03  0.73782681843E+03  0.50400001928E-02 0.  1.
       -1   -1    0    0    0  501  0.00000000000E+00  0.00000000000E+00 -0.65112327724E+03  0.65112327726E+03  0.50400001928E-02 0. -1.
    10030    2    1    2    0    0  0.00000000000E+00  0.00000000000E+00  0.86703541174E+02  0.13889500957E+04  0.13862412720E+04 0.  0.
        5    1    3    3  502    0  0.21732481092E+03  0.63716721183E+03 -0.12184003331E+03  0.68416314793E+03  0.46999998093E+01 0. -1.
       -5    1    3    3    0  502 -0.21732481092E+03 -0.63716721183E+03  0.20854357448E+03  0.70478694776E+03  0.46999998093E+01 0.  1.
</event>
<event>
 5   0  0.7065539E-04  0.1399789E+04  0.7818609E-02  0.8953971E-01
        2   -1    0    0  501    0  0.00000000000E+00  0.00000000000E+00  0.17368586860E+04  0.17368586860E+04  0.25500000920E-02 0. -1.
       -2   -1    0    0    0  501  0.00000000000E+00  0.00000000000E+00 -0.28203360036E+03  0.28203360037E+03  0.25500000920E-02 0.  1.
    10030    2    1    2    0    0  0.00000000000E+00  0.00000000000E+00  0.14548250856E+04  0.20188922864E+04  0.13997892820E+04 0.  0.
        1    1    3    3  502    0  0.22498453851E+03 -0.64281503225E+03  0.49474721376E+03  0.84178620433E+03  0.50400001928E-02 0. -1.
       -1    1    3    3    0  502 -0.22498453851E+03  0.64281503225E+03  0.96007787189E+03  0.11771060820E+04  0.50400001928E-02 0.  1.
</event>
<event>
 5   0  0.7296966E-04  0.1410911E+04  0.7818609E-02  0.8945958E-01
        2   -1    0    0  501    0  0.00000000000E+00  0.00000000000E+00  0.12532037991E+04  0.12532037991E+04  0.25500000920E-02 0. -1.
       -2   -1    0    0    0  501  0.00000000000E+00  0.00000000000E+00 -0.39711636321E+03  0.39711636322E+03  0.25500000920E-02 0.  1.
    10030    2    1    2    0    0  0.00000000000E+00  0.00000000000E+00  0.85608743585E+03  0.16503201623E+04  0.14109113864E+04 0.  0.
        3    1    3    3  502    0  0.69211841160E+03 -0.44166868878E+02  0.27693652241E+03  0.74677470205E+03  0.10100000352E+00 0.  1.
       -3    1    3    3    0  502 -0.69211841160E+03  0.44166868878E+02  0.57915091344E+03  0.90354546024E+03  0.10100000352E+00 0. -1.
</event>
<event>
 5   0  0.6959748E-04  0.1376774E+04  0.7818609E-02  0.8970804E-01
       -2   -1    0    0    0  501  0.00000000000E+00  0.00000000000E+00  0.41023693824E+03  0.41023693825E+03  0.25500000920E-02 0. -1.
        2   -1    0    0  501    0  0.00000000000E+00  0.00000000000E+00 -0.11551290294E+04  0.11551290294E+04  0.25500000920E-02 0.  1.
    10030    2    1    2    0    0  0.00000000000E+00  0.00000000000E+00 -0.74489209115E+03  0.15653659676E+04  0.13767739049E+04 0.  0.
        5    1    3    3  502    0 -0.24420756440E+03 -0.13503182471E+03  0.34302464849E+03  0.44222045143E+03  0.46999998093E+01 0. -1.
       -5    1    3    3    0  502  0.24420756440E+03  0.13503182471E+03 -0.10879167396E+04  0.11231455162E+04  0.46999998093E+01 0.  1.
</event>
<event>
 5   0  0.3977658E-04  0.1409719E+04  0.7818609E-02  0.8946813E-01
        1   -1    0    0  501    0  0.00000000000E+00  0.00000000000E+00  0.67936711559E+03  0.67936711561E+03  0.50400001928E-02 0.  1.
       -1   -1    0    0    0  501  0.00000000000E+00  0.00000000000E+00 -0.73130872168E+03  0.73130872169E+03  0.50400001928E-02 0. -1.
    10030    2    1    2    0    0  0.00000000000E+00  0.00000000000E+00 -0.51941606088E+02  0.14106758373E+04  0.14097192584E+04 0.  0.
        5    1    3    3  502    0  0.27924764434E+03  0.48600819018E+03 -0.45360349919E+03  0.72108351269E+03  0.46999998093E+01 0. -1.
       -5    1    3    3    0  502 -0.27924764434E+03 -0.48600819018E+03  0.40166189311E+03  0.68959232461E+03  0.46999998093E+01 0.  1.
</event>
<event>
 5   0  0.7296966E-04  0.1396524E+04  0.7818609E-02  0.8956338E-01
       -2   -1    0    0    0  501  0.00000000000E+00  0.00000000000E+00  0.40537687988E+03  0.40537687988E+03  0.25500000920E-02 0.  1.
        2   -1    0    0  501    0  0.00000000000E+00  0.00000000000E+00 -0.12027577060E+04  0.12027577060E+04  0.25500000920E-02 0. -1.
    10030    2    1    2    0    0  0.00000000000E+00  0.00000000000E+00 -0.79738082611E+03  0.16081345859E+04  0.13965244947E+04 0.  0.
        3    1    3    3  502    0  0.26199305762E+03 -0.62686577545E+03 -0.58425804582E+03  0.89607953719E+03  0.10100000352E+00 0. -1.
       -3    1    3    3    0  502 -0.26199305762E+03  0.62686577545E+03 -0.21312278030E+03  0.71205504868E+03  0.10100000352E+00 0.  1.
</event>
<event>
 5   0  0.6895048E-04  0.1394862E+04  0.7818609E-02  0.8957546E-01
       -2   -1    0    0    0  501  0.00000000000E+00  0.00000000000E+00  0.65345141999E+03  0.65345141999E+03  0.25500000920E-02 0.  1.
        2   -1    0    0  501    0  0.00000000000E+00  0.00000000000E+00 -0.74437019020E+03  0.74437019020E+03  0.25500000920E-02 0. -1.
    10030    2    1    2    0    0  0.00000000000E+00  0.00000000000E+00 -0.90918770210E+02  0.13978216102E+04  0.13948616530E+04 0.  0.
        4    1    3    3  502    0 -0.37344753820E+03  0.10660096490E+03 -0.62598247925E+03  0.73666987636E+03  0.12699999809E+01 0. -1.
       -4    1    3    3    0  502  0.37344753820E+03 -0.10660096490E+03  0.53506370904E+03  0.66115173383E+03  0.12699999809E+01 0.  1.
</event>
<event>
 5   0  0.6959748E-04  0.1398723E+04  0.7818609E-02  0.8954743E-01
        2   -1    0    0  501    0  0.00000000000E+00  0.00000000000E+00  0.12210977124E+04  0.12210977124E+04  0.25500000920E-02 0. -1.
       -2   -1    0    0    0  501  0.00000000000E+00  0.00000000000E+00 -0.40054684802E+03  0.40054684802E+03  0.25500000920E-02 0.  1.
    10030    2    1    2    0    0  0.00000000000E+00  0.00000000000E+00  0.82055086434E+03  0.16216445604E+04  0.13987234749E+04 0.  0.
        5    1    3    3  502    0 -0.41455510111E+03 -0.51582599125E+02  0.10605265588E+04  0.11398488357E+04  0.46999998093E+01 0. -1.
       -5    1    3    3    0  502  0.41455510111E+03  0.51582599125E+02 -0.23997569444E+03  0.48179572467E+03  0.46999998093E+01 0.  1.
</event>
<event>
 5   0  0.3977658E-04  0.1401620E+04  0.7818609E-02  0.8952646E-01
        1   -1    0    0  501    0  0.00000000000E+00  0.00000000000E+00  0.86794058191E+03  0.86794058192E+03  0.50400001928E-02 0.  1.
       -1   -1    0    0    0  501  0.00000000000E+00  0.00000000000E+00 -0.56586235617E+03  0.56586235620E+03  0.50400001928E-02 0. -1.
    10030    2    1    2    0    0  0.00000000000E+00  0.00000000000E+00  0.30207822573E+03  0.14338029381E+04  0.14016203519E+04 0.  0.
        5    1    3    3  502    0 -0.11006543647E+03  0.46475874218E+02 -0.55535111822E+03  0.56807689770E+03  0.46999998093E+01 0. -1.
       -5    1    3    3    0  502  0.11006543647E+03 -0.46475874218E+02  0.85742934395E+03  0.86572604042E+03  0.46999998093E+01 0.  1.
</event>
<event>
 5   0  0.7296966E-04  0.1385306E+04  0.7818609E-02  0.8964524E-01
        2   -1    0    0  501    0  0.00000000000E+00  0.00000000000E+00  0.13161697343E+04  0.13161697343E+04  0.25500000920E-02 0. -1.
       -2   -1    0    0    0  501  0.00000000000E+00  0.00000000000E+00 -0.36451853684E+03  0.36451853685E+03  0.25500000920E-02 0.  1.
    10030    2    1    2    0    0  0.00000000000E+00  0.00000000000E+00  0.95165119744E+03  0.16806882711E+04  0.13853061261E+04 0.  0.
        3    1    3    3  502    0 -0.39131390210E+03 -0.41596090034E+03  0.95133901170E+03  0.11095927027E+04  0.10100000352E+00 0. -1.
       -3    1    3    3    0  502  0.39131390210E+03  0.41596090034E+03  0.31218573907E+00  0.57109556840E+03  0.10100000352E+00 0.  1.
</event>
<event>
 5   0  0.7065539E-04  0.1402005E+04  0.7818609E-02  0.8952369E-01
        2   -1    0    0  501    0  0.00000000000E+00  0.00000000000E+00  0.13326151887E+04  0.13326151887E+04  0.25500000920E-02 0.  1.
       -2   -1    0    0    0  501  0.00000000000E+00  0.00000000000E+00 -0.36875175758E+03  0.36875175759E+03  0.25500000920E-02 0. -1.
    10030    2    1    2    0    0  0.00000000000E+00  0.00000000000E+00  0.96386343116E+03  0.17013669463E+04  0.14020045550E+04 0.  0.
        1    1    3    3  502    0  0.97881972777E+02 -0.17033238382E+03  0.12985266153E+04  0.13133032294E+04  0.50400001928E-02 0.  1.
       -1    1    3    3    0  502 -0.97881972777E+02  0.17033238382E+03 -0.33466318415E+03  0.38806371696E+03  0.50400001928E-02 0. -1.
</event>
<event>
 5   0  0.6895048E-04  0.1398991E+04  0.7818609E-02  0.8954549E-01
        2   -1    0    0  501    0  0.00000000000E+00  0.00000000000E+00  0.49837498729E+03  0.49837498729E+03  0.25500000920E-02 0. -1.
       -2   -1    0    0    0  501  0.00000000000E+00  0.00000000000E+00 -0.98177852600E+03  0.98177852601E+03  0.25500000920E-02 0.  1.
    10030    2    1    2    0    0  0.00000000000E+00  0.00000000000E+00 -0.48340353872E+03  0.14801535133E+04  0.13989908655E+04 0.  0.
        4    1    3    3  502    0  0.14169191675E+03 -0.67609966643E+03 -0.12529659313E+03  0.70205997419E+03  0.12699999809E+01 0. -1.
       -4    1    3    3    0  502 -0.14169191675E+03  0.67609966643E+03 -0.35810694559E+03  0.77809353910E+03  0.12699999809E+01 0.  1.
</event>
<event>
 5   0  0.7065539E-04  0.1453402E+04  0.7818609E-02  0.8916045E-01
        2   -1    0    0  501    0  0.00000000000E+00  0.00000000000E+00  0.12779535402E+04  0.12779535402E+04  0.25500000920E-02 0.  1.
       -2   -1    0    0    0  501  0.00000000000E+00  0.00000000000E+00 -0.41323454093E+03  0.41323454094E+03  0.25500000920E-02 0. -1.
    10030    2    1    2    0    0  0.00000000000E+00  0.00000000000E+00  0.86471899924E+03  0.16911880811E+04  0.14534022767E+04 0.  0.
        1    1    3    3  502    0 -0.41480916362E+02 -0.25923165200E+03 -0.35612682162E+03  0.44243420858E+03  0.50400001928E-02 0. -1.
       -1    1    3    3    0  502  0.41480916362E+02  0.25923165200E+03  0.12208458209E+04  0.12487538725E+04  0.50400001928E-02 0.  1.
</event>
<event>
 5   0  0.7296966E-04  0.1399882E+04  0.7818609E-02  0.8953904E-01
       -2   -1    0    0    0  501  0.00000000000E+00  0.00000000000E+00  0.46290438635E+03  0.46290438635E+03  0.25500000920E-02 0.  1.
        2   -1    0    0  501    0  0.00000000000E+00  0.00000000000E+00 -0.10583559601E+04  0.10583559601E+04  0.25500000920E-02 0. -1.
    10030    2    1    2    0    0  0.00000000000E+00  0.00000000000E+00 -0.59545157373E+03  0.15212603464E+04  0.13998823040E+04 0.  0.
        3    1    3    3  502    0  0.34459251103E+03 -0.46450465387E+03 -0.72612646707E+03  0.92831472492E+03  0.10100000352E+00 0. -1.
       -3    1    3    3    0  502 -0.34459251103E+03  0.46450465387E+03  0.13067489334E+03  0.59294562152E+03  0.10100000352E+00 0.  1.
</event>
<event>
 5   0  0.6870835E-04  0.1402610E+04  0.7818609E-02  0.8951932E-01
       -2   -1    0    0    0  501  0.00000000000E+00  0.00000000000E+00  0.41740949327E+03  0.41740949327E+03  0.25500000920E-02 0.  1.
        2   -1    0    0  501    0  0.00000000000E+00  0.00000000000E+00 -0.11782881294E+04  0.11782881294E+04  0.25500000920E-02 0. -1.
    10030    2    1    2    0    0  0.00000000000E+00  0.00000000000E+00 -0.76087863614E+03  0.15956976227E+04  0.14026099259E+04 0.  0.
        2    1    3    3  502    0  0.21360119077E+03 -0.50811240524E+03 -0.87375105621E+03  0.10330753086E+04  0.25500000920E-02 0. -1.
       -2    1    3    3    0  502 -0.21360119077E+03  0.50811240524E+03  0.11287242007E+03  0.56262231406E+03  0.25500000920E-02 0.  1.
</event>
<event>
 5   0  0.7065539E-04  0.1376173E+04  0.7818609E-02  0.8971249E-01
        2   -1    0    0  501    0  0.00000000000E+00  0.00000000000E+00  0.11929275535E+04  0.11929275535E+04  0.25500000920E-02 0. -1.
       -2   -1    0    0    0  501  0.00000000000E+00  0.00000000000E+00 -0.39689147594E+03  0.39689147595E+03  0.25500000920E-02 0.  1.
    10030    2    1    2    0    0  0.00000000000E+00  0.00000000000E+00  0.79603607757E+03  0.15898190295E+04  0.13761726308E+04 0.  0.
        1    1    3    3  502    0 -0.13817137956E+03  0.45652379998E+03 -0.17491620548E+03  0.50803640524E+03  0.50400001928E-02 0.  1.
       -1    1    3    3    0  502  0.13817137956E+03 -0.45652379998E+03  0.97095228306E+03  0.10817826242E+04  0.50400001928E-02 0. -1.
</event>
<event>
 5   0  0.6870835E-04  0.1414012E+04  0.7818609E-02  0.8943738E-01
        2   -1    0    0  501    0  0.00000000000E+00  0.00000000000E+00  0.56971244379E+03  0.56971244380E+03  0.25500000920E-02 0. -1.
       -2   -1    0    0    0  501  0.00000000000E+00  0.00000000000E+00 -0.87738597998E+03  0.87738597999E+03  0.25500000920E-02 0.  1.
    10030    2    1    2    0    0  0.00000000000E+00  0.00000000000E+00 -0.30767353619E+03  0.14470984238E+04  0.14140123208E+04 0.  0.
        2    1    3    3  502    0  0.67796619516E+03 -0.19812004896E+03 -0.18567738568E+03  0.73031897630E+03  0.25500000920E-02 0. -1.
       -2    1    3    3    0  502 -0.67796619516E+03  0.19812004896E+03 -0.12199615052E+03  0.71677944748E+03  0.25500000920E-02 0.  1.
</event>
<event>
 5   0  0.3784219E-04  0.1404514E+04  0.7818609E-02  0.8950558E-01
       -1   -1    0    0    0  501  0.00000000000E+00  0.00000000000E+00  0.13725466823E+04  0.13725466823E+04  0.50400001928E-02 0.  1.
        1   -1    0    0  501    0  0.00000000000E+00  0.00000000000E+00 -0.35930632166E+03  0.35930632169E+03  0.50400001928E-02 0. -1.
    10030    2    1    2    0    0  0.00000000000E+00  0.00000000000E+00  0.10132403606E+04  0.17318530040E+04  0.14045137233E+04 0.  0.
        1    1    3    3  502    0 -0.21302679895E+03 -0.66788760306E+03  0.45562396012E+03  0.83609058149E+03  0.50400001928E-02 0. -1.
       -1    1    3    3    0  502  0.21302679895E+03  0.66788760306E+03  0.55761640048E+03  0.89576242247E+03  0.50400001928E-02 0.  1.
</event>
<event>
 5   0  0.3756664E-04  0.1404627E+04  0.7818609E-02  0.8950476E-01
       -1   -1    0    0    0  501  0.00000000000E+00  0.00000000000E+00  0.67513976637E+03  0.67513976639E+03  0.50400001928E-02 0. -1.
        1   -1    0    0  501    0  0.00000000000E+00  0.00000000000E+00 -0.73058083275E+03  0.73058083277E+03  0.50400001928E-02 0.  1.
    10030    2    1    2    0    0  0.00000000000E+00  0.00000000000E+00 -0.55441066382E+02  0.14057205992E+04  0.14046268868E+04 0.  0.
        2    1    3    3  502    0 -0.10978947085E+03  0.50723262850E+03  0.44583445740E+03  0.68418347739E+03  0.25500000920E-02 0. -1.
       -2    1    3    3    0  502  0.10978947085E+03 -0.50723262850E+03 -0.50127552378E+03  0.72153712176E+03  0.25500000920E-02 0.  1.
</event>
<event>
 5   0  0.3907093E-04  0.1430111E+04  0.7818609E-02  0.8932307E-01
        1   -1    0    0  501    0  0.00000000000E+00  0.00000000000E+00  0.16640234611E+04  0.16640234611E+04  0.50400001928E-02 0. -1.
       -1   -1    0    0    0  501  0.00000000000E+00  0.00000000000E+00 -0.30726982155E+03  0.30726982159E+03  0.50400001928E-02 0.  1.
    10030    2    1    2    0    0  0.00000000000E+00  0.00000000000E+00  0.13567536395E+04  0.19712932827E+04  0.14301107537E+04 0.  0.
        4    1    3    3  502    0 -0.21689247713E+03 -0.34997293549E+02 -0.25959259559E+03  0.34008393931E+03  0.12699999809E+01 0.  1.
       -4    1    3    3    0  502  0.21689247713E+03  0.34997293549E+02  0.16163462351E+04  0.16312093434E+04  0.12699999809E+01 0. -1.
</event>
<event>
 5   0  0.3977658E-04  0.1360320E+04  0.7818609E-02  0.8983052E-01
       -1   -1    0    0    0  501  0.00000000000E+00  0.00000000000E+00  0.59011197740E+03  0.59011197742E+03  0.50400001928E-02 0.  1.
        1   -1    0    0  501    0  0.00000000000E+00  0.00000000000E+00 -0.78394931961E+03  0.78394931962E+03  0.50400001928E-02 0. -1.
    10030    2    1    2    0    0  0.00000000000E+00  0.00000000000E+00 -0.19383734221E+03  0.13740612970E+04  0.13603203787E+04 0.  0.
        5    1    3    3  502    0  0.67170875855E+03 -0.99177132940E+02 -0.56933035766E+02  0.68138991816E+03  0.46999998093E+01 0. -1.
       -5    1    3    3    0  502 -0.67170875855E+03  0.99177132940E+02 -0.13690430644E+03  0.69267137889E+03  0.46999998093E+01 0.  1.
</event>
<event>
 5   0  0.7296966E-04  0.1552659E+04  0.7818609E-02  0.8850171E-01
       -2   -1    0    0    0  501  0.00000000000E+00  0.00000000000E+00  0.45515540015E+03  0.45515540016E+03  0.25500000920E-02 0. -1.
        2   -1    0    0  501    0  0.00000000000E+00  0.00000000000E+00 -0.13241352158E+04  0.13241352158E+04  0.25500000920E-02 0.  1.
    10030    2    1    2    0    0  0.00000000000E+00  0.00000000000E+00 -0.86897981562E+03  0.17792906159E+04  0.15526587442E+04 0.  0.
        3    1    3    3  502    0 -0.49957055308E+03 -0.59419348424E+03 -0.44264556181E+03  0.89362841148E+03  0.10100000352E+00 0.  1.
       -3    1    3    3    0  502  0.49957055308E+03  0.59419348424E+03 -0.42633425381E+03  0.88566220445E+03  0.10100000352E+00 0. -1.
</event>
<event>
 5   0  0.2660250E-04  0.1390688E+04  0.7818609E-02  0.8960587E-01
        3   -1    0    0  501    0  0.00000000000E+00  0.00000000000E+00  0.50156427363E+03  0.50156428380E+03  0.10100000352E+00 0.  1.
       -3   -1    0    0    0  501  0.00000000000E+00  0.00000000000E+00 -0.96399095121E+03  0.96399095650E+03  0.10100000352E+00 0. -1.
    10030    2    1    2    0    0  0.00000000000E+00  0.00000000000E+00 -0.46242667758E+03  0.14655552403E+04  0.13906882218E+04 0.  0.
        1    1    3    3  502    0  0.24127239598E+03  0.46698501222E+03 -0.71092925070E+03  0.88414239251E+03  0.50400001928E-02 0. -1.
       -1    1    3    3    0  502 -0.24127239598E+03 -0.46698501222E+03  0.24850257312E+03  0.58141284779E+03  0.50400001928E-02 0.  1.
</event>
<event>
 5   0  0.7296966E-04  0.1382058E+04  0.7818609E-02  0.8966909E-01
        2   -1    0    0  501    0  0.00000000000E+00  0.00000000000E+00  0.13752044441E+04  0.13752044441E+04  0.25500000920E-02 0.  1.
       -2   -1    0    0    0  501  0.00000000000E+00  0.00000000000E+00 -0.34723659886E+03  0.34723659887E+03  0.25500000920E-02 0. -1.
    10030    2    1    2    0    0  0.00000000000E+00  0.00000000000E+00  0.10279678453E+04  0.17224410430E+04  0.13820583402E+04 0.  0.
        3    1    3    3  502    0  0.65144342015E+03 -0.22863889352E+03  0.55068131119E+03  0.88312184322E+03  0.10100000352E+00 0. -1.
       -3    1    3    3    0  502 -0.65144342015E+03  0.22863889352E+03  0.47728653407E+03  0.83931919976E+03  0.10100000352E+00 0.  1.
</event>
<event>
 5   0  0.3907270E-04  0.1394281E+04  0.7818609E-02  0.8957969E-01
        1   -1    0    0  501    0  0.00000000000E+00  0.00000000000E+00  0.14919345795E+04  0.14919345796E+04  0.50400001928E-02 0.  1.
       -1   -1    0    0    0  501  0.00000000000E+00  0.00000000000E+00 -0.32575491239E+03  0.32575491243E+03  0.50400001928E-02 0. -1.
    10030    2    1    2    0    0  0.00000000000E+00  0.00000000000E+00  0.11661796672E+04  0.18176894920E+04  0.13942812031E+04 0.  0.
        3    1    3    3  502    0  0.12764748873E+03 -0.52252809263E+03  0.11612450876E+04  0.12797732817E+04  0.10100000352E+00 0.  1.
       -3    1    3    3    0  502 -0.12764748873E+03  0.52252809263E+03  0.49345795412E+01  0.53791621024E+03  0.10100000352E+00 0. -1.
</event>
<event>
 5   0  0.3907093E-04  0.1380536E+04  0.7818609E-02  0.8968029E-01
       -1   -1    0    0    0  501  0.00000000000E+00  0.00000000000E+00  0.10927746223E+04  0.10927746223E+04  0.50400001928E-02 0.  1.
        1   -1    0    0  501    0  0.00000000000E+00  0.00000000000E+00 -0.43601859528E+03  0.43601859531E+03  0.50400001928E-02 0. -1.
    10030    2    1    2    0    0  0.00000000000E+00  0.00000000000E+00  0.65675602701E+03  0.15287932176E+04  0.13805362086E+04 0.  0.
        4    1    3    3  502    0 -0.55136103821E+03 -0.35502106822E+03  0.56699310086E+03  0.86690353712E+03  0.12699999809E+01 0. -1.
       -4    1    3    3    0  502  0.55136103821E+03  0.35502106822E+03  0.89762926143E+02  0.66188968050E+03  0.12699999809E+01 0.  1.
</event>
<event>
 5   0  0.3977658E-04  0.1407433E+04  0.7818609E-02  0.8948456E-01
       -1   -1    0    0    0  501  0.00000000000E+00  0.00000000000E+00  0.39599943759E+03  0.39599943762E+03  0.50400001928E-02 0.  1.
        1   -1    0    0  501    0  0.00000000000E+00  0.00000000000E+00 -0.12505489743E+04  0.12505489743E+04  0.50400001928E-02 0. -1.
    10030    2    1    2    0    0  0.00000000000E+00  0.00000000000E+00 -0.85454953668E+03  0.16465484119E+04  0.14074326848E+04 0.  0.
        5    1    3    3  502    0 -0.45810809916E+03  0.34112796236E+03  0.53612237516E+02  0.57369650445E+03  0.46999998093E+01 0.  1.
       -5    1    3    3    0  502  0.45810809916E+03 -0.34112796236E+03 -0.90816177420E+03  0.10728519075E+04  0.46999998093E+01 0. -1.
</event>
<event>
 5   0  0.6895048E-04  0.1384568E+04  0.7818609E-02  0.8965065E-01
       -2   -1    0    0    0  501  0.00000000000E+00  0.00000000000E+00  0.39069395761E+03  0.39069395762E+03  0.25500000920E-02 0.  1.
        2   -1    0    0  501    0  0.00000000000E+00  0.00000000000E+00 -0.12266819114E+04  0.12266819114E+04  0.25500000920E-02 0. -1.
    10030    2    1    2    0    0  0.00000000000E+00  0.00000000000E+00 -0.83598795375E+03  0.16173758690E+04  0.13845681069E+04 0.  0.
        4    1    3    3  502    0 -0.22974271208E+03  0.12536162418E+03  0.33067499511E+03  0.42171651125E+03  0.12699999809E+01 0.  1.
       -4    1    3    3    0  502  0.22974271208E+03 -0.12536162418E+03 -0.11666629489E+04  0.11956593577E+04  0.12699999809E+01 0. -1.
</event>
<event>
 5   0  0.6895048E-04  0.1396884E+04  0.7818609E-02  0.8956077E-01
        2   -1    0    0  501    0  0.00000000000E+00  0.00000000000E+00  0.62015175369E+03  0.62015175369E+03  0.25500000920E-02 0.  1.
       -2   -1    0    0    0  501  0.00000000000E+00  0.00000000000E+00 -0.78661564332E+03  0.78661564332E+03  0.25500000920E-02 0. -1.
    10030    2    1    2    0    0  0.00000000000E+00  0.00000000000E+00 -0.16646388963E+03  0.14067673970E+04  0.13968837757E+04 0.  0.
        4    1    3    3  502    0  0.23234141053E+03 -0.30947936985E+03 -0.66877462920E+03  0.77267142368E+03  0.12699999809E+01 0. -1.
       -4    1    3    3    0  502 -0.23234141053E+03  0.30947936985E+03  0.50231073957E+03  0.63409597333E+03  0.12699999809E+01 0.  1.
</event>
<event>
 5   0  0.7296966E-04  0.1390199E+04  0.7818609E-02  0.8960944E-01
       -2   -1    0    0    0  501  0.00000000000E+00  0.00000000000E+00  0.12056732465E+04  0.12056732466E+04  0.25500000920E-02 0.  1.
        2   -1    0    0  501    0  0.00000000000E+00  0.00000000000E+00 -0.40074141061E+03  0.40074141062E+03  0.25500000920E-02 0. -1.
    10030    2    1    2    0    0  0.00000000000E+00  0.00000000000E+00  0.80493183594E+03  0.16064146572E+04  0.13901988312E+04 0.  0.
        3    1    3    3  502    0 -0.89365448158E+02 -0.47448421763E+02 -0.39218643618E+03  0.40502808171E+03  0.10100000352E+00 0. -1.
       -3    1    3    3    0  502  0.89365448158E+02  0.47448421763E+02  0.11971182721E+04  0.12013865755E+04  0.10100000352E+00 0.  1.
</event>
<event>
 5   0  0.3784219E-04  0.1425232E+04  0.7818609E-02  0.8935754E-01
        1   -1    0    0  501    0  0.00000000000E+00  0.00000000000E+00  0.14051040193E+04  0.14051040193E+04  0.50400001928E-02 0. -1.
       -1   -1    0    0    0  501  0.00000000000E+00  0.00000000000E+00 -0.36141186488E+03  0.36141186491E+03  0.50400001928E-02 0.  1.
    10030    2    1    2    0    0  0.00000000000E+00  0.00000000000E+00  0.10436921544E+04  0.17665158842E+04  0.14252315798E+04 0.  0.
        1    1    3    3  502    0 -0.71758865903E+02  0.30071250708E+03  0.13176557953E+04  0.13534378973E+04  0.50400001928E-02 0. -1.
       -1    1    3    3    0  502  0.71758865903E+02 -0.30071250708E+03 -0.27396364090E+03  0.41307798696E+03  0.50400001928E-02 0.  1.
</event>
<event>
 5   0  0.6895048E-04  0.1408700E+04  0.7818609E-02  0.8947545E-01
        2   -1    0    0  501    0  0.00000000000E+00  0.00000000000E+00  0.16023468983E+04  0.16023468983E+04  0.25500000920E-02 0.  1.
       -2   -1    0    0    0  501  0.00000000000E+00  0.00000000000E+00 -0.30961393385E+03  0.30961393386E+03  0.25500000920E-02 0. -1.
    10030    2    1    2    0    0  0.00000000000E+00  0.00000000000E+00  0.12927329644E+04  0.19119608321E+04  0.14087000058E+04 0.  0.
        4    1    3    3  502    0  0.16247161222E+03  0.49502781249E+03  0.12896777836E+04  0.13909421118E+04  0.12699999809E+01 0.  1.
       -4    1    3    3    0  502 -0.16247161222E+03 -0.49502781249E+03  0.30551808020E+01  0.52101872034E+03  0.12699999809E+01 0. -1.
</event>
<event>
 5   0  0.3907093E-04  0.1260845E+04  0.7818609E-02  0.9061205E-01
        1   -1    0    0  501    0  0.00000000000E+00  0.00000000000E+00  0.34296619332E+03  0.34296619335E+03  0.50400001928E-02 0.  1.
       -1   -1    0    0    0  501  0.00000000000E+00  0.00000000000E+00 -0.11588096095E+04  0.11588096096E+04  0.50400001928E-02 0. -1.
    10030    2    1    2    0    0  0.00000000000E+00  0.00000000000E+00 -0.81584341623E+03  0.15017758029E+04  0.12608449875E+04 0.  0.
        4    1    3    3  502    0  0.11772936796E+03  0.12206273161E+03  0.31528613336E+03  0.35800345433E+03  0.12699999809E+01 0.  1.
       -4    1    3    3    0  502 -0.11772936796E+03 -0.12206273161E+03 -0.11311295496E+04  0.11437723486E+04  0.12699999809E+01 0. -1.
</event>
<event>
 5   0  0.7065539E-04  0.1431405E+04  0.7818609E-02  0.8931394E-01
        2   -1    0    0  501    0  0.00000000000E+00  0.00000000000E+00  0.34165074523E+03  0.34165074524E+03  0.25500000920E-02 0.  1.
       -2   -1    0    0    0  501  0.00000000000E+00  0.00000000000E+00 -0.14992808686E+04  0.14992808686E+04  0.25500000920E-02 0. -1.
    10030    2    1    2    0    0  0.00000000000E+00  0.00000000000E+00 -0.11576301234E+04  0.18409316138E+04  0.14314054996E+04 0.  0.
        1    1    3    3  502    0 -0.51048564074E+03  0.48313659469E+03 -0.40524450313E+03  0.81131970632E+03  0.50400001928E-02 0.  1.
       -1    1    3    3    0  502  0.51048564074E+03 -0.48313659469E+03 -0.75238562024E+03  0.10296119075E+04  0.50400001928E-02 0. -1.
</event>
<event>
 5   0  0.6959748E-04  0.1396551E+04  0.7818609E-02  0.8956319E-01
        2   -1    0    0  501    0  0.00000000000E+00  0.00000000000E+00  0.17826242745E+04  0.17826242745E+04  0.25500000920E-02 0.  1.
       -2   -1    0    0    0  501  0.00000000000E+00  0.00000000000E+00 -0.27352310675E+03  0.27352310676E+03  0.25500000920E-02 0. -1.
    10030    2    1    2    0    0  0.00000000000E+00  0.00000000000E+00  0.15091011678E+04  0.20561473813E+04  0.13965513664E+04 0.  0.
        5    1    3    3  502    0 -0.37646771337E+03  0.12143963450E+03 -0.92620691077E+02  0.40629571306E+03  0.46999998093E+01 0. -1.
       -5    1    3    3    0  502  0.37646771337E+03 -0.12143963450E+03  0.16017218588E+04  0.16498516682E+04  0.46999998093E+01 0.  1.
</event>
<event>
 5   0  0.3907093E-04  0.1400568E+04  0.7818609E-02  0.8953407E-01
       -1   -1    0    0    0  501  0.00000000000E+00  0.00000000000E+00  0.28285163182E+03  0.28285163186E+03  0.50400001928E-02 0. -1.
        1   -1    0    0  501    0  0.00000000000E+00  0.00000000000E+00 -0.17337638097E+04  0.17337638097E+04  0.50400001928E-02 0.  1.
    10030    2    1    2    0    0  0.00000000000E+00  0.00000000000E+00 -0.14509121779E+04  0.20166154416E+04  0.14005683458E+04 0.  0.
        4    1    3    3  502    0  0.57239751781E+02  0.21123355039E+02 -0.17299278490E+04  0.17310039171E+04  0.12699999809E+01 0.  1.
       -4    1    3    3    0  502 -0.57239751781E+02 -0.21123355039E+02  0.27901567110E+03  0.28561152451E+03  0.12699999809E+01 0. -1.
</event>
<event>
 5   0  0.3784219E-04  0.1391665E+04  0.7818609E-02  0.8959874E-01
        1   -1    0    0  501    0  0.00000000000E+00  0.00000000000E+00  0.19328394480E+04  0.19328394480E+04  0.50400001928E-02 0. -1.
       -1   -1    0    0    0  501  0.00000000000E+00  0.00000000000E+00 -0.25050348081E+03  0.25050348086E+03  0.50400001928E-02 0.  1.
    10030    2    1    2    0    0  0.00000000000E+00  0.00000000000E+00  0.16823359672E+04  0.21833429289E+04  0.13916652035E+04 0.  0.
        1    1    3    3  502    0  0.57151141423E+03  0.32645805487E+03  0.11954093270E+04  0.13646258158E+04  0.50400001928E-02 0. -1.
       -1    1    3    3    0  502 -0.57151141423E+03 -0.32645805487E+03  0.48692664021E+03  0.81871711303E+03  0.50400001928E-02 0.  1.
</event>
<event>
 5   0  0.3907093E-04  0.1413520E+04  0.7818609E-02  0.8944090E-01
       -1   -1    0    0    0  501  0.00000000000E+00  0.00000000000E+00  0.71747171690E+03  0.71747171692E+03  0.50400001928E-02 0.  1.
        1   -1    0    0  501    0  0.00000000000E+00  0.00000000000E+00 -0.69620855431E+03  0.69620855433E+03  0.50400001928E-02 0. -1.
    10030    2    1    2    0    0  0.00000000000E+00  0.00000000000E+00  0.21263162593E+02  0.14136802713E+04  0.14135203526E+04 0.  0.
        4    1    3    3  502    0 -0.37665418017E+03 -0.54709607098E+03 -0.23090319826E+03  0.70320721141E+03  0.12699999809E+01 0. -1.
       -4    1    3    3    0  502  0.37665418017E+03  0.54709607098E+03  0.25216636085E+03  0.71047305984E+03  0.12699999809E+01 0.  1.
</event>
<event>
 5   0  0.6895048E-04  0.1407786E+04  0.7818609E-02  0.8948202E-01
        2   -1    0    0  501    0  0.00000000000E+00  0.00000000000E+00  0.79972697769E+03  0.79972697770E+03  0.25500000920E-02 0.  1.
       -2   -1    0    0    0  501  0.00000000000E+00  0.00000000000E+00 -0.61954315138E+03  0.61954315139E+03  0.25500000920E-02 0. -1.
    10030    2    1    2    0    0  0.00000000000E+00  0.00000000000E+00  0.18018382631E+03  0.14192701291E+04  0.14077860235E+04 0.  0.
        4    1    3    3  502    0 -0.56543849460E+03 -0.34001976295E+03  0.33730569268E+03  0.74102015734E+03  0.12699999809E+01 0. -1.
       -4    1    3    3    0  502  0.56543849460E+03  0.34001976295E+03 -0.15712186637E+03  0.67824997174E+03  0.12699999809E+01 0.  1.
</event>
<event>
 5   0  0.3784219E-04  0.1355203E+04  0.7818609E-02  0.8986899E-01
        1   -1    0    0  501    0  0.00000000000E+00  0.00000000000E+00  0.85344674756E+03  0.85344674757E+03  0.50400001928E-02 0.  1.
       -1   -1    0    0    0  501  0.00000000000E+00  0.00000000000E+00 -0.53798756981E+03  0.53798756983E+03  0.50400001928E-02 0. -1.
    10030    2    1    2    0    0  0.00000000000E+00  0.00000000000E+00  0.31545917775E+03  0.13914343174E+04  0.13552029246E+04 0.  0.
        1    1    3    3  502    0  0.22023317773E+03 -0.31504685129E+03 -0.41520932355E+03  0.56582325286E+03  0.50400001928E-02 0. -1.
       -1    1    3    3    0  502 -0.22023317773E+03  0.31504685129E+03  0.73066850130E+03  0.82561106455E+03  0.50400001928E-02 0.  1.
</event>
<event>
 5   0  0.7065539E-04  0.1404860E+04  0.7818609E-02  0.8950308E-01
        2   -1    0    0  501    0  0.00000000000E+00  0.00000000000E+00  0.18017821910E+04  0.18017821910E+04  0.25500000920E-02 0. -1.
       -2   -1    0    0    0  501  0.00000000000E+00  0.00000000000E+00 -0.27384445273E+03  0.27384445274E+03  0.25500000920E-02 0.  1.
    10030    2    1    2    0    0  0.00000000000E+00  0.00000000000E+00  0.15279377383E+04  0.20756266437E+04  0.14048602180E+04 0.  0.
        1    1    3    3  502    0 -0.35522878598E+03 -0.25601044385E+03 -0.47531685031E+02  0.44044080062E+03  0.50400001928E-02 0.  1.
       -1    1    3    3    0  502  0.35522878598E+03  0.25601044385E+03  0.15754694233E+04  0.16351858431E+04  0.50400001928E-02 0. -1.
</event>
<event>
 5   0  0.2660250E-04  0.1402996E+04  0.7818609E-02  0.8951653E-01
        3   -1    0    0  501    0  0.00000000000E+00  0.00000000000E+00  0.51230592033E+03  0.51230593028E+03  0.10100000352E+00 0. -1.
       -3   -1    0    0    0  501  0.00000000000E+00  0.00000000000E+00 -0.96055768147E+03  0.96055768678E+03  0.10100000352E+00 0.  1.
    10030    2    1    2    0    0  0.00000000000E+00  0.00000000000E+00 -0.44825176114E+03  0.14728636171E+04  0.14029959348E+04 0.  0.
        4    1    3    3  502    0  0.35188472589E+02 -0.59565351967E+03  0.16310115840E+03  0.61858301373E+03  0.12699999809E+01 0. -1.
       -4    1    3    3    0  502 -0.35188472589E+02  0.59565351967E+03 -0.61135291954E+03  0.85428060334E+03  0.12699999809E+01 0.  1.
</event>
<event>
 5   0  0.3977658E-04  0.1434788E+04  0.7818609E-02  0.8929015E-01
        1   -1    0    0  501    0  0.00000000000E+00  0.00000000000E+00  0.12097029783E+04  0.12097029783E+04  0.50400001928E-02 0.  1.
       -1   -1    0    0    0  501  0.00000000000E+00  0.00000000000E+00 -0.42543841874E+03  0.42543841877E+03  0.50400001928E-02 0. -1.
    10030    2    1    2    0    0  0.00000000000E+00  0.00000000000E+00  0.78426455959E+03  0.16351413971E+04  0.14347879596E+04 0.  0.
        5    1    3    3  502    0 -0.65683087834E+03  0.28830862034E+03  0.38172661579E+03  0.81257981916E+03  0.46999998093E+01 0. -1.
       -5    1    3    3    0  502  0.65683087834E+03 -0.28830862034E+03  0.40253794380E+03  0.82256157794E+03  0.46999998093E+01 0.  1.
</event>
<event>
 5   0  0.7296966E-04  0.1399106E+04  0.7818609E-02  0.8954466E-01
       -2   -1    0    0    0  501  0.00000000000E+00  0.00000000000E+00  0.24880662617E+03  0.24880662619E+03  0.25500000920E-02 0. -1.
        2   -1    0    0  501    0  0.00000000000E+00  0.00000000000E+00 -0.19668856840E+04  0.19668856840E+04  0.25500000920E-02 0.  1.
    10030    2    1    2    0    0  0.00000000000E+00  0.00000000000E+00 -0.17180790578E+04  0.22156923102E+04  0.13991057017E+04 0.  0.
        3    1    3    3  502    0  0.54388276914E+03  0.43871997563E+03 -0.91133586095E+03  0.11483974683E+04  0.10100000352E+00 0. -1.
       -3    1    3    3    0  502 -0.54388276914E+03 -0.43871997563E+03 -0.80674319689E+03  0.10672948419E+04  0.10100000352E+00 0.  1.
</event>
<event>
 5   0  0.3784219E-04  0.1399672E+04  0.7818609E-02  0.8954056E-01
        1   -1    0    0  501    0  0.00000000000E+00  0.00000000000E+00  0.31354566576E+03  0.31354566580E+03  0.50400001928E-02 0. -1.
       -1   -1    0    0    0  501  0.00000000000E+00  0.00000000000E+00 -0.15620386352E+04  0.15620386352E+04  0.50400001928E-02 0.  1.
    10030    2    1    2    0    0  0.00000000000E+00  0.00000000000E+00 -0.12484929694E+04  0.18755843010E+04  0.13996720242E+04 0.  0.
        1    1    3    3  502    0  0.42170448334E+03  0.10201384768E+03 -0.13600719480E+04  0.14275984029E+04  0.50400001928E-02 0.  1.
       -1    1    3    3    0  502 -0.42170448334E+03 -0.10201384768E+03  0.11157897854E+03  0.44798589807E+03  0.50400001928E-02 0. -1.
</event>
<event>
 5   0  0.3977658E-04  0.1409626E+04  0.7818609E-02  0.8946880E-01
       -1   -1    0    0    0  501  0.00000000000E+00  0.00000000000E+00  0.20922585261E+03  0.20922585267E+03  0.50400001928E-02 0. -1.
        1   -1    0    0  501    0  0.00000000000E+00  0.00000000000E+00 -0.23742841093E+04  0.23742841093E+04  0.50400001928E-02 0.  1.
    10030    2    1    2    0    0  0.00000000000E+00  0.00000000000E+00 -0.21650582566E+04  0.25835099619E+04  0.14096263579E+04 0.  0.
        5    1    3    3  502    0 -0.25313569409E+03  0.14959827326E+03  0.91415110247E+02  0.30795476188E+03  0.46999998093E+01 0. -1.
       -5    1    3    3    0  502  0.25313569409E+03 -0.14959827326E+03 -0.22564733669E+04  0.22755552001E+04  0.46999998093E+01 0.  1.
</event>
<event>
 5   0  0.2660250E-04  0.1337636E+04  0.7818609E-02  0.9000241E-01
       -3   -1    0    0    0  501  0.00000000000E+00  0.00000000000E+00  0.10413928821E+04  0.10413928870E+04  0.10100000352E+00 0.  1.
        3   -1    0    0  501    0  0.00000000000E+00  0.00000000000E+00 -0.42953768466E+03  0.42953769654E+03  0.10100000352E+00 0. -1.
    10030    2    1    2    0    0  0.00000000000E+00  0.00000000000E+00  0.61185519746E+03  0.14709305836E+04  0.13376359740E+04 0.  0.
        3    1    3    3  502    0 -0.17296849469E+03  0.62921693890E+02 -0.40113947712E+03  0.44135034839E+03  0.10100000352E+00 0. -1.
       -3    1    3    3    0  502  0.17296849469E+03 -0.62921693890E+02  0.10129946746E+04  0.10295802352E+04  0.10100000352E+00 0.  1.
</event>
<event>
 5   0  0.6959748E-04  0.1399330E+04  0.7818609E-02  0.8954304E-01
       -2   -1    0    0    0  501  0.00000000000E+00  0.00000000000E+00  0.72638593448E+03  0.72638593448E+03  0.25500000920E-02 0. -1.
        2   -1    0    0  501    0  0.00000000000E+00  0.00000000000E+00 -0.67392700005E+03  0.67392700005E+03  0.25500000920E-02 0.  1.
    10030    2    1    2    0    0  0.00000000000E+00  0.00000000000E+00  0.52458934433E+02  0.14003129345E+04  0.13993299735E+04 0.  0.
        5    1    3    3  502    0 -0.26283307539E+03  0.52438067988E+03 -0.35542102649E+03  0.68585896438E+03  0.46999998093E+01 0.  1.
       -5    1    3    3    0  502  0.26283307539E+03 -0.52438067988E+03  0.40787996092E+03  0.71445397015E+03  0.46999998093E+01 0. -1.
</event>
<event>
 5   0  0.3784219E-04  0.1401570E+04  0.7818609E-02  0.8952683E-01
       -1   -1    0    0    0  501  0.00000000000E+00  0.00000000000E+00  0.31592544165E+03  0.31592544169E+03  0.50400001928E-02 0. -1.
        1   -1    0    0  501    0  0.00000000000E+00  0.00000000000E+00 -0.15544799269E+04  0.15544799269E+04  0.50400001928E-02 0.  1.
    10030    2    1    2    0    0  0.00000000000E+00  0.00000000000E+00 -0.12385544853E+04  0.18704053686E+04  0.14015702016E+04 0.  0.
        1    1    3    3  502    0  0.36335857876E+03  0.35224272023E+03 -0.12661971784E+04  0.13635833987E+04  0.50400001928E-02 0.  1.
       -1    1    3    3    0  502 -0.36335857876E+03 -0.35224272023E+03  0.27642693068E+02  0.50682196994E+03  0.50400001928E-02 0. -1.
</event>
<event>
 5   0  0.3977658E-04  0.1390661E+04  0.7818609E-02  0.8960606E-01
        1   -1    0    0  501    0  0.00000000000E+00  0.00000000000E+00  0.57967401274E+03  0.57967401276E+03  0.50400001928E-02 0. -1.
       -1   -1    0    0    0  501  0.00000000000E+00  0.00000000000E+00 -0.83406322648E+03  0.83406322649E+03  0.50400001928E-02 0.  1.
    10030    2    1    2    0    0  0.00000000000E+00  0.00000000000E+00 -0.25438921374E+03  0.14137372393E+04  0.13906613929E+04 0.  0.
        5    1    3    3  502    0 -0.29274766342E+03  0.39884575371E+03  0.36946466917E+03  0.61749928053E+03  0.46999998093E+01 0. -1.
       -5    1    3    3    0  502  0.29274766342E+03 -0.39884575371E+03 -0.62385388291E+03  0.79623795872E+03  0.46999998093E+01 0.  1.
</event>
<event>
 5   0  0.3907270E-04  0.1436693E+04  0.7818609E-02  0.8927679E-01
       -1   -1    0    0    0  501  0.00000000000E+00  0.00000000000E+00  0.60898110364E+03  0.60898110366E+03  0.50400001928E-02 0.  1.
        1   -1    0    0  501    0  0.00000000000E+00  0.00000000000E+00 -0.84735201895E+03  0.84735201896E+03  0.50400001928E-02 0. -1.
    10030    2    1    2    0    0  0.00000000000E+00  0.00000000000E+00 -0.23837091531E+03  0.14563331226E+04  0.14366925457E+04 0.  0.
        3    1    3    3  502    0 -0.28749878452E+03 -0.54736755427E+03 -0.48990988116E+03  0.78884630469E+03  0.10100000352E+00 0. -1.
       -3    1    3    3    0  502  0.28749878452E+03  0.54736755427E+03  0.25153896585E+03  0.66748681793E+03  0.10100000352E+00 0.  1.
</event>
<event>
 5   0  0.6895048E-04  0.1390520E+04  0.7818609E-02  0.8960710E-01
        2   -1    0    0  501    0  0.00000000000E+00  0.00000000000E+00  0.14125744633E+04  0.14125744633E+04  0.25500000920E-02 0.  1.
       -2   -1    0    0    0  501  0.00000000000E+00  0.00000000000E+00 -0.34220227515E+03  0.34220227516E+03  0.25500000920E-02 0. -1.
    10030    2    1    2    0    0  0.00000000000E+00  0.00000000000E+00  0.10703721881E+04  0.17547767385E+04  0.13905196082E+04 0.  0.
        4    1    3    3  502    0 -0.13542016574E+03  0.52731712403E+03  0.10808752985E+04  0.12102458405E+04  0.12699999809E+01 0. -1.
       -4    1    3    3    0  502  0.13542016574E+03 -0.52731712403E+03 -0.10503110396E+02  0.54453089794E+03  0.12699999809E+01 0.  1.
</event>
<event>
 5   0  0.3756664E-04  0.1398481E+04  0.7818609E-02  0.8954919E-01
       -1   -1    0    0    0  501  0.00000000000E+00  0.00000000000E+00  0.51051725576E+03  0.51051725578E+03  0.50400001928E-02 0. -1.
        1   -1    0    0  501    0  0.00000000000E+00  0.00000000000E+00 -0.95772930879E+03  0.95772930880E+03  0.50400001928E-02 0.  1.
    10030    2    1    2    0    0  0.00000000000E+00  0.00000000000E+00 -0.44721205303E+03  0.14682465646E+04  0.13984810882E+04 0.  0.
        2    1    3    3  502    0  0.48906669777E+03  0.48914690624E+03 -0.11609431734E+03  0.70137637633E+03  0.25500000920E-02 0. -1.
       -2    1    3    3    0  502 -0.48906669777E+03 -0.48914690624E+03 -0.33111773569E+03  0.76687018826E+03  0.25500000920E-02 0.  1.
</event>
<event>
 5   0  0.2660250E-04  0.1403260E+04  0.7818609E-02  0.8951462E-01
       -3   -1    0    0    0  501  0.00000000000E+00  0.00000000000E+00  0.17360308016E+03  0.17360310954E+03  0.10100000352E+00 0. -1.
        3   -1    0    0  501    0  0.00000000000E+00  0.00000000000E+00 -0.28356912140E+04  0.28356912158E+04  0.10100000352E+00 0.  1.
    10030    2    1    2    0    0  0.00000000000E+00  0.00000000000E+00 -0.26620881338E+04  0.30092943253E+04  0.14032601698E+04 0.  0.
        2    1    3    3  502    0 -0.14971589640E+03  0.49423905941E+03 -0.31246726476E+03  0.60359165753E+03  0.25500000920E-02 0. -1.
       -2    1    3    3    0  502  0.14971589640E+03 -0.49423905941E+03 -0.23496208690E+04  0.24057026678E+04  0.25500000920E-02 0.  1.
</event>
<event>
 5   0  0.7065539E-04  0.1400235E+04  0.7818609E-02  0.8953649E-01
        2   -1    0    0  501    0  0.00000000000E+00  0.00000000000E+00  0.76295209923E+03  0.76295209923E+03  0.25500000920E-02 0.  1.
       -2   -1    0    0    0  501  0.00000000000E+00  0.00000000000E+00 -0.64245763231E+03  0.64245763231E+03  0.25500000920E-02 0. -1.
    10030    2    1    2    0    0  0.00000000000E+00  0.00000000000E+00  0.12049446692E+03  0.14054097315E+04  0.14002348364E+04 0.  0.
        1    1    3    3  502    0  0.21398212507E+03  0.20230481600E+03  0.69777088014E+03  0.75736371026E+03  0.50400001928E-02 0.  1.
       -1    1    3    3    0  502 -0.21398212507E+03 -0.20230481600E+03 -0.57727641322E+03  0.64804602129E+03  0.50400001928E-02 0. -1.
</event>
<event>
 5   0  0.6895048E-04  0.1393296E+04  0.7818609E-02  0.8958686E-01
        2   -1    0    0  501    0  0.00000000000E+00  0.00000000000E+00  0.50882117242E+03  0.50882117243E+03  0.25500000920E-02 0.  1.
       -2   -1    0    0    0  501  0.00000000000E+00  0.00000000000E+00 -0.95380890339E+03  0.95380890339E+03  0.25500000920E-02 0. -1.
    10030    2    1    2    0    0  0.00000000000E+00  0.00000000000E+00 -0.44498773097E+03  0.14626300758E+04  0.13932956104E+04 0.  0.
        4    1    3    3  502    0  0.29216065741E+02 -0.19905914242E+03 -0.92264594128E+03  0.94432794438E+03  0.12699999809E+01 0. -1.
       -4    1    3    3    0  502 -0.29216065741E+02  0.19905914242E+03  0.47765821031E+03  0.51830213144E+03  0.12699999809E+01 0.  1.
</event>
<event>
 5   0  0.6895048E-04  0.1400973E+04  0.7818609E-02  0.8953114E-01
       -2   -1    0    0    0  501  0.00000000000E+00  0.00000000000E+00  0.24397700533E+03  0.24397700534E+03  0.25500000920E-02 0. -1.
        2   -1    0    0  501    0  0.00000000000E+00  0.00000000000E+00 -0.20111793641E+04  0.20111793641E+04  0.25500000920E-02 0.  1.
    10030    2    1    2    0    0  0.00000000000E+00  0.00000000000E+00 -0.17672023588E+04  0.22551563694E+04  0.14009732595E+04 0.  0.
        4    1    3    3  502    0  0.18464620010E+03 -0.36768292879E+03 -0.17961714978E+04  0.18426933054E+04  0.12699999809E+01 0.  1.
       -4    1    3    3    0  502 -0.18464620010E+03  0.36768292879E+03  0.28969138980E+02  0.41246306410E+03  0.12699999809E+01 0. -1.
</event>
<event>
 5   0  0.6870835E-04  0.1412316E+04  0.7818609E-02  0.8944952E-01
       -2   -1    0    0    0  501  0.00000000000E+00  0.00000000000E+00  0.34284988993E+03  0.34284988994E+03  0.25500000920E-02 0.  1.
        2   -1    0    0  501    0  0.00000000000E+00  0.00000000000E+00 -0.14544531485E+04  0.14544531485E+04  0.25500000920E-02 0. -1.
    10030    2    1    2    0    0  0.00000000000E+00  0.00000000000E+00 -0.11116032585E+04  0.17973030384E+04  0.14123159730E+04 0.  0.
        2    1    3    3  502    0 -0.19356367755E+03 -0.71145683170E+02 -0.14152781012E+04  0.14302240066E+04  0.25500000920E-02 0. -1.
       -2    1    3    3    0  502  0.19356367755E+03  0.71145683170E+02  0.30367484265E+03  0.36707903177E+03  0.25500000920E-02 0.  1.
</event>
<event>
 5   0  0.7296966E-04  0.1390960E+04  0.7818609E-02  0.8960389E-01
       -2   -1    0    0    0  501  0.00000000000E+00  0.00000000000E+00  0.83374574984E+03  0.83374574984E+03  0.25500000920E-02 0. -1.
        2   -1    0    0  501    0  0.00000000000E+00  0.00000000000E+00 -0.58014351976E+03  0.58014351976E+03  0.25500000920E-02 0.  1.
    10030    2    1    2    0    0  0.00000000000E+00  0.00000000000E+00  0.25360223008E+03  0.14138892696E+04  0.13909596599E+04 0.  0.
        3    1    3    3  502    0 -0.25673430004E+02  0.68198128171E+03  0.26292884146E+03  0.73136118265E+03  0.10100000352E+00 0. -1.
       -3    1    3    3    0  502  0.25673430004E+02 -0.68198128171E+03 -0.93266113772E+01  0.68252808696E+03  0.10100000352E+00 0.  1.
</event>
<event>
 5   0  0.3907270E-04  0.1224417E+04  0.7818609E-02  0.9091749E-01
       -1   -1    0    0    0  501  0.00000000000E+00  0.00000000000E+00  0.50423802191E+03  0.50423802193E+03  0.50400001928E-02 0. -1.
        1   -1    0    0  501    0  0.00000000000E+00  0.00000000000E+00 -0.74329823927E+03  0.74329823928E+03  0.50400001928E-02 0.  1.
    10030    2    1    2    0    0  0.00000000000E+00  0.00000000000E+00 -0.23906021736E+03  0.12475362612E+04  0.12244169778E+04 0.  0.
        3    1    3    3  502    0 -0.50207361163E+03  0.34571750331E+03 -0.17717325569E+03  0.63481404862E+03  0.10100000352E+00 0. -1.
       -3    1    3    3    0  502  0.50207361163E+03 -0.34571750331E+03 -0.61886961668E+02  0.61272221260E+03  0.10100000352E+00 0.  1.
</event>
<event>
 5   0  0.3907093E-04  0.1409589E+04  0.7818609E-02  0.8946906E-01
        1   -1    0    0  501    0  0.00000000000E+00  0.00000000000E+00  0.99384986751E+03  0.99384986752E+03  0.50400001928E-02 0.  1.
       -1   -1    0    0    0  501  0.00000000000E+00  0.00000000000E+00 -0.49980936033E+03  0.49980936036E+03  0.50400001928E-02 0. -1.
    10030    2    1    2    0    0  0.00000000000E+00  0.00000000000E+00  0.49404050717E+03  0.14936592279E+04  0.14095892545E+04 0.  0.
        4    1    3    3  502    0  0.80778847011E+02 -0.52812221660E+03  0.73410454904E+03  0.90793689187E+03  0.12699999809E+01 0.  1.
       -4    1    3    3    0  502 -0.80778847011E+02  0.52812221660E+03 -0.24006404187E+03  0.58572233601E+03  0.12699999809E+01 0. -1.
</event>
<event>
 5   0  0.7296966E-04  0.1391146E+04  0.7818609E-02  0.8960253E-01
        2   -1    0    0  501    0  0.00000000000E+00  0.00000000000E+00  0.73252452970E+03  0.73252452970E+03  0.25500000920E-02 0. -1.
       -2   -1    0    0    0  501  0.00000000000E+00  0.00000000000E+00 -0.66048525619E+03  0.66048525620E+03  0.25500000920E-02 0.  1.
    10030    2    1    2    0    0  0.00000000000E+00  0.00000000000E+00  0.72039273506E+02  0.13930097859E+04  0.13911457892E+04 0.  0.
        3    1    3    3  502    0  0.52383689027E+03  0.70698996966E+02  0.48875175705E+03  0.71991786059E+03  0.10100000352E+00 0. -1.
       -3    1    3    3    0  502 -0.52383689027E+03 -0.70698996966E+02 -0.41671248354E+03  0.67309192531E+03  0.10100000352E+00 0.  1.
</event>
<event>
 5   0  0.6870835E-04  0.1375362E+04  0.7818609E-02  0.8971849E-01
        2   -1    0    0  501    0  0.00000000000E+00  0.00000000000E+00  0.18287795310E+04  0.18287795310E+04  0.25500000920E-02 0. -1.
       -2   -1    0    0    0  501  0.00000000000E+00  0.00000000000E+00 -0.25859039961E+03  0.25859039962E+03  0.25500000920E-02 0.  1.
    10030    2    1    2    0    0  0.00000000000E+00  0.00000000000E+00  0.15701891314E+04  0.20873699306E+04  0.13753615230E+04 0.  0.
        2    1    3    3  502    0  0.66420324912E+02 -0.17242375360E+03 -0.22021001123E+03  0.28746140510E+03  0.25500000920E-02 0.  1.
       -2    1    3    3    0  502 -0.66420324912E+02  0.17242375360E+03  0.17903991426E+04  0.17999085255E+04  0.25500000920E-02 0. -1.
</event>
<event>
 5   0  0.3784219E-04  0.1395560E+04  0.7818609E-02  0.8957039E-01
        1   -1    0    0  501    0  0.00000000000E+00  0.00000000000E+00  0.62722460199E+03  0.62722460201E+03  0.50400001928E-02 0.  1.
       -1   -1    0    0    0  501  0.00000000000E+00  0.00000000000E+00 -0.77627217812E+03  0.77627217814E+03  0.50400001928E-02 0. -1.
    10030    2    1    2    0    0  0.00000000000E+00  0.00000000000E+00 -0.14904757613E+03  0.14034967801E+04  0.13955601141E+04 0.  0.
        1    1    3    3  502    0  0.11464974127E+02 -0.47466737115E+03 -0.58875987623E+03  0.75635887695E+03  0.50400001928E-02 0. -1.
       -1    1    3    3    0  502 -0.11464974127E+02  0.47466737115E+03  0.43971230010E+03  0.64713790319E+03  0.50400001928E-02 0.  1.
</event>
<event>
 5   0  0.7065539E-04  0.1435958E+04  0.7818609E-02  0.8928194E-01
        2   -1    0    0  501    0  0.00000000000E+00  0.00000000000E+00  0.54060711015E+03  0.54060711016E+03  0.25500000920E-02 0.  1.
       -2   -1    0    0    0  501  0.00000000000E+00  0.00000000000E+00 -0.95354574491E+03  0.95354574492E+03  0.25500000920E-02 0. -1.
    10030    2    1    2    0    0  0.00000000000E+00  0.00000000000E+00 -0.41293863476E+03  0.14941528551E+04  0.14359576729E+04 0.  0.
        1    1    3    3  502    0 -0.23103646196E+03 -0.40915094558E+03 -0.77134354414E+03  0.90319057022E+03  0.50400001928E-02 0. -1.
       -1    1    3    3    0  502  0.23103646196E+03  0.40915094558E+03  0.35840490938E+03  0.59096228485E+03  0.50400001928E-02 0.  1.
</event>
<event>
 5   0  0.3756664E-04  0.1391008E+04  0.7818609E-02  0.8960354E-01
       -1   -1    0    0    0  501  0.00000000000E+00  0.00000000000E+00  0.58906640163E+03  0.58906640165E+03  0.50400001928E-02 0.  1.
        1   -1    0    0  501    0  0.00000000000E+00  0.00000000000E+00 -0.82117323145E+03  0.82117323147E+03  0.50400001928E-02 0. -1.
    10030    2    1    2    0    0  0.00000000000E+00  0.00000000000E+00 -0.23210682983E+03  0.14102396331E+04  0.13910076356E+04 0.  0.
        2    1    3    3  502    0  0.27639594757E+03 -0.63682379352E+03 -0.73204462696E+02  0.69806744459E+03  0.25500000920E-02 0. -1.
       -2    1    3    3    0  502 -0.27639594757E+03  0.63682379352E+03 -0.15890236713E+03  0.71217218853E+03  0.25500000920E-02 0.  1.
</event>
<event>
 5   0  0.6959748E-04  0.1394824E+04  0.7818609E-02  0.8957574E-01
       -2   -1    0    0    0  501  0.00000000000E+00  0.00000000000E+00  0.31835441496E+03  0.31835441497E+03  0.25500000920E-02 0.  1.
        2   -1    0    0  501    0  0.00000000000E+00  0.00000000000E+00 -0.15278045770E+04  0.15278045770E+04  0.25500000920E-02 0. -1.
    10030    2    1    2    0    0  0.00000000000E+00  0.00000000000E+00 -0.12094501620E+04  0.18461589919E+04  0.13948237627E+04 0.  0.
        5    1    3    3  502    0 -0.52155782251E+03 -0.44403448797E+03 -0.77816971944E+03  0.10367060292E+04  0.46999998093E+01 0.  1.
       -5    1    3    3    0  502  0.52155782251E+03  0.44403448797E+03 -0.43128044256E+03  0.80945296272E+03  0.46999998093E+01 0. -1.
</event>
<event>
 5   0  0.3756664E-04  0.1405780E+04  0.7818609E-02  0.8949645E-01
        1   -1    0    0  501    0  0.00000000000E+00  0.00000000000E+00  0.76113947323E+03  0.76113947325E+03  0.50400001928E-02 0. -1.
       -1   -1    0    0    0  501  0.00000000000E+00  0.00000000000E+00 -0.64909835689E+03  0.64909835691E+03  0.50400001928E-02 0.  1.
    10030    2    1    2    0    0  0.00000000000E+00  0.00000000000E+00  0.11204111634E+03  0.14102378302E+04  0.14057800418E+04 0.  0.
        2    1    3    3  502    0 -0.64519321894E+03  0.24649003663E+03 -0.74864446552E+02  0.69472031299E+03  0.25500000920E-02 0.  1.
       -2    1    3    3    0  502  0.64519321894E+03 -0.24649003663E+03  0.18690556290E+03  0.71551751716E+03  0.25500000920E-02 0. -1.
</event>
<event>
 5   0  0.3784219E-04  0.1429751E+04  0.7818609E-02  0.8932560E-01
       -1   -1    0    0    0  501  0.00000000000E+00  0.00000000000E+00  0.45411937806E+03  0.45411937808E+03  0.50400001928E-02 0. -1.
        1   -1    0    0  501    0  0.00000000000E+00  0.00000000000E+00 -0.11253586376E+04  0.11253586376E+04  0.50400001928E-02 0.  1.
    10030    2    1    2    0    0  0.00000000000E+00  0.00000000000E+00 -0.67123925953E+03  0.15794780157E+04  0.14297512576E+04 0.  0.
        1    1    3    3  502    0 -0.53037351305E+03  0.32529382634E+03  0.53291285653E+02  0.62446144633E+03  0.50400001928E-02 0. -1.
       -1    1    3    3    0  502  0.53037351305E+03 -0.32529382634E+03 -0.72453054518E+03  0.95501656935E+03  0.50400001928E-02 0.  1.
</event>
<event>
 5   0  0.3977658E-04  0.1420736E+04  0.7818609E-02  0.8938944E-01
       -1   -1    0    0    0  501  0.00000000000E+00  0.00000000000E+00  0.61591692968E+03  0.61591692970E+03  0.50400001928E-02 0. -1.
        1   -1    0    0  501    0  0.00000000000E+00  0.00000000000E+00 -0.81930326755E+03  0.81930326757E+03  0.50400001928E-02 0.  1.
    10030    2    1    2    0    0  0.00000000000E+00  0.00000000000E+00 -0.20338633788E+03  0.14352201973E+04  0.14207360811E+04 0.  0.
        5    1    3    3  502    0  0.14822674275E+03 -0.35570912570E+03 -0.70451840861E+03  0.80303700254E+03  0.46999998093E+01 0.  1.
       -5    1    3    3    0  502 -0.14822674275E+03  0.35570912570E+03  0.50113207074E+03  0.63218319473E+03  0.46999998093E+01 0. -1.
</event>
<event>
 5   0  0.7065539E-04  0.1389726E+04  0.7818609E-02  0.8961289E-01
        2   -1    0    0  501    0  0.00000000000E+00  0.00000000000E+00  0.77012383399E+03  0.77012383399E+03  0.25500000920E-02 0. -1.
       -2   -1    0    0    0  501  0.00000000000E+00  0.00000000000E+00 -0.62695677777E+03  0.62695677778E+03  0.25500000920E-02 0.  1.
    10030    2    1    2    0    0  0.00000000000E+00  0.00000000000E+00  0.14316705622E+03  0.13970806118E+04  0.13897256671E+04 0.  0.
        1    1    3    3  502    0 -0.84395789973E+02  0.21800653474E+03  0.72940499231E+03  0.76595113512E+03  0.50400001928E-02 0. -1.
       -1    1    3    3    0  502  0.84395789973E+02 -0.21800653474E+03 -0.58623793610E+03  0.63112947665E+03  0.50400001928E-02 0.  1.
</event>
<event>
 5   0  0.3907270E-04  0.1405113E+04  0.7818609E-02  0.8950125E-01
       -1   -1    0    0    0  501  0.00000000000E+00  0.00000000000E+00  0.20958973802E+03  0.20958973808E+03  0.50400001928E-02 0.  1.
        1   -1    0    0  501    0  0.00000000000E+00  0.00000000000E+00 -0.23550101922E+04  0.23550101922E+04  0.50400001928E-02 0. -1.
    10030    2    1    2    0    0  0.00000000000E+00  0.00000000000E+00 -0.21454204541E+04  0.25645999302E+04  0.14051134748E+04 0.  0.
        3    1    3    3  502    0 -0.27880851906E+03 -0.20247099093E+03 -0.21901939205E+04  0.22171328585E+04  0.10100000352E+00 0. -1.
       -3    1    3    3    0  502  0.27880851906E+03  0.20247099093E+03  0.44773466383E+02  0.34746707176E+03  0.10100000352E+00 0.  1.
</event>
<event>
 5   0  0.6870835E-04  0.1392333E+04  0.7818609E-02  0.8959387E-01
       -2   -1    0    0    0  501  0.00000000000E+00  0.00000000000E+00  0.10769502771E+04  0.10769502771E+04  0.25500000920E-02 0.  1.
        2   -1    0    0  501    0  0.00000000000E+00  0.00000000000E+00 -0.45001905193E+03  0.45001905194E+03  0.25500000920E-02 0. -1.
    10030    2    1    2    0    0  0.00000000000E+00  0.00000000000E+00  0.62693122520E+03  0.15269693291E+04  0.13923334984E+04 0.  0.
        2    1    3    3  502    0 -0.54836815426E+03  0.38781778011E+03  0.51430775338E+03  0.84594487313E+03  0.25500000920E-02 0. -1.
       -2    1    3    3    0  502  0.54836815426E+03 -0.38781778011E+03  0.11262347183E+03  0.68102445595E+03  0.25500000920E-02 0.  1.
</event>
<event>
 5   0  0.3907093E-04  0.1397248E+04  0.7818609E-02  0.8955813E-01
        1   -1    0    0  501    0  0.00000000000E+00  0.00000000000E+00  0.46104213947E+03  0.46104213950E+03  0.50400001928E-02 0. -1.
       -1   -1    0    0    0  501  0.00000000000E+00  0.00000000000E+00 -0.10586352192E+04  0.10586352192E+04  0.50400001928E-02 0.  1.
    10030    2    1    2    0    0  0.00000000000E+00  0.00000000000E+00 -0.59759307975E+03  0.15196773587E+04  0.13972479328E+04 0.  0.
        4    1    3    3  502    0  0.28715111560E+03  0.29052024582E+03 -0.91521628385E+03  0.10022376143E+04  0.12699999809E+01 0.  1.
       -4    1    3    3    0  502 -0.28715111560E+03 -0.29052024582E+03  0.31762320410E+03  0.51743974442E+03  0.12699999809E+01 0. -1.
</event>
<event>
 5   0  0.3977658E-04  0.1398531E+04  0.7818609E-02  0.8954882E-01
        1   -1    0    0  501    0  0.00000000000E+00  0.00000000000E+00  0.67786489517E+03  0.67786489518E+03  0.50400001928E-02 0.  1.
       -1   -1    0    0    0  501  0.00000000000E+00  0.00000000000E+00 -0.72134191932E+03  0.72134191934E+03  0.50400001928E-02 0. -1.
    10030    2    1    2    0    0  0.00000000000E+00  0.00000000000E+00 -0.43477024158E+02  0.13992068145E+04  0.13985311788E+04 0.  0.
        5    1    3    3  502    0  0.45150651253E+03 -0.49643138958E+03  0.17494745630E+03  0.69349185856E+03  0.46999998093E+01 0.  1.
       -5    1    3    3    0  502 -0.45150651253E+03  0.49643138958E+03 -0.21842448046E+03  0.70571495597E+03  0.46999998093E+01 0. -1.
</event>
<event>
 5   0  0.6959748E-04  0.1405521E+04  0.7818609E-02  0.8949832E-01
        2   -1    0    0  501    0  0.00000000000E+00  0.00000000000E+00  0.13859328177E+04  0.13859328177E+04  0.25500000920E-02 0. -1.
       -2   -1    0    0    0  501  0.00000000000E+00  0.00000000000E+00 -0.35634649691E+03  0.35634649692E+03  0.25500000920E-02 0.  1.
    10030    2    1    2    0    0  0.00000000000E+00  0.00000000000E+00  0.10295863208E+04  0.17422793146E+04  0.14055209775E+04 0.  0.
        5    1    3    3  502    0  0.20477392101E+03  0.44293375418E+03  0.11416512048E+04  0.12415765110E+04  0.46999998093E+01 0. -1.
       -5    1    3    3    0  502 -0.20477392101E+03 -0.44293375418E+03 -0.11206488400E+03  0.50070280361E+03  0.46999998093E+01 0.  1.
</event>
<event>
 5   0  0.3977658E-04  0.1404730E+04  0.7818609E-02  0.8950402E-01
       -1   -1    0    0    0  501  0.00000000000E+00  0.00000000000E+00  0.58018539140E+03  0.58018539142E+03  0.50400001928E-02 0.  1.
        1   -1    0    0  501    0  0.00000000000E+00  0.00000000000E+00 -0.85027427363E+03  0.85027427365E+03  0.50400001928E-02 0. -1.
    10030    2    1    2    0    0  0.00000000000E+00  0.00000000000E+00 -0.27008888224E+03  0.14304596651E+04  0.14047301695E+04 0.  0.
        5    1    3    3  502    0  0.31767503819E+03 -0.15637704942E+03  0.48263254146E+03  0.59860460368E+03  0.46999998093E+01 0.  1.
       -5    1    3    3    0  502 -0.31767503819E+03  0.15637704942E+03 -0.75272142369E+03  0.83185506139E+03  0.46999998093E+01 0. -1.
</event>
<event>
 5   0  0.3756664E-04  0.1400404E+04  0.7818609E-02  0.8953526E-01
       -1   -1    0    0    0  501  0.00000000000E+00  0.00000000000E+00  0.42826768298E+03  0.42826768301E+03  0.50400001928E-02 0.  1.
        1   -1    0    0  501    0  0.00000000000E+00  0.00000000000E+00 -0.11448048852E+04  0.11448048852E+04  0.50400001928E-02 0. -1.
    10030    2    1    2    0    0  0.00000000000E+00  0.00000000000E+00 -0.71653720224E+03  0.15730725682E+04  0.14004041355E+04 0.  0.
        2    1    3    3  502    0  0.55312390406E+02  0.69726450909E+03 -0.32194451704E+03  0.76999060269E+03  0.25500000920E-02 0.  1.
       -2    1    3    3    0  502 -0.55312390406E+02 -0.69726450909E+03 -0.39459268520E+03  0.80308196555E+03  0.25500000920E-02 0. -1.
</event>
<event>
 5   0  0.7065539E-04  0.1394173E+04  0.7818609E-02  0.8958047E-01
        2   -1    0    0  501    0  0.00000000000E+00  0.00000000000E+00  0.16263622798E+04  0.16263622798E+04  0.25500000920E-02 0.  1.
       -2   -1    0    0    0  501  0.00000000000E+00  0.00000000000E+00 -0.29878309965E+03  0.29878309966E+03  0.25500000920E-02 0. -1.
    10030    2    1    2    0    0  0.00000000000E+00  0.00000000000E+00  0.13275791801E+04  0.19251453795E+04  0.13941729636E+04 0.  0.
        1    1    3    3  502    0 -0.26474566430E+03  0.58057470692E+03  0.27623431322E+03  0.69531478692E+03  0.50400001928E-02 0. -1.
       -1    1    3    3    0  502  0.26474566430E+03 -0.58057470692E+03  0.10513448669E+04  0.12298305925E+04  0.50400001928E-02 0.  1.
</event>
<event>
 5   0  0.3907093E-04  0.1339986E+04  0.7818609E-02  0.8998444E-01
        1   -1    0    0  501    0  0.00000000000E+00  0.00000000000E+00  0.56366742706E+03  0.56366742708E+03  0.50400001928E-02 0.  1.
       -1   -1    0    0    0  501  0.00000000000E+00  0.00000000000E+00 -0.79637460836E+03  0.79637460837E+03  0.50400001928E-02 0. -1.
    10030    2    1    2    0    0  0.00000000000E+00  0.00000000000E+00 -0.23270718130E+03  0.13600420355E+04  0.13399857111E+04 0.  0.
        4    1    3    3  502    0  0.46336835750E+03  0.22015883518E+03 -0.55374298635E+03  0.75485962620E+03  0.12699999809E+01 0. -1.
       -4    1    3    3    0  502 -0.46336835750E+03 -0.22015883518E+03  0.32103580506E+03  0.60518240925E+03  0.12699999809E+01 0.  1.
</event>
<event>
 5   0  0.7065539E-04  0.1427768E+04  0.7818609E-02  0.8933961E-01
       -2   -1    0    0    0  501  0.00000000000E+00  0.00000000000E+00  0.53498443649E+03  0.53498443649E+03  0.25500000920E-02 0. -1.
        2   -1    0    0  501    0  0.00000000000E+00  0.00000000000E+00 -0.95260738595E+03  0.95260738595E+03  0.25500000920E-02 0.  1.
    10030    2    1    2    0    0  0.00000000000E+00  0.00000000000E+00 -0.41762294946E+03  0.14875918224E+04  0.14277676640E+04 0.  0.
        1    1    3    3  502    0 -0.58323214208E+03  0.68761140574E+02 -0.63170282506E+03  0.86251741154E+03  0.50400001928E-02 0.  1.
       -1    1    3    3    0  502  0.58323214208E+03 -0.68761140574E+02  0.21407987559E+03  0.62507441090E+03  0.50400001928E-02 0. -1.
</event>
<event>
 5   0  0.7065539E-04  0.1401078E+04  0.7818609E-02  0.8953039E-01
        2   -1    0    0  501    0  0.00000000000E+00  0.00000000000E+00  0.11159547630E+04  0.11159547630E+04  0.25500000920E-02 0.  1.
       -2   -1    0    0    0  501  0.00000000000E+00  0.00000000000E+00 -0.43976211492E+03  0.43976211493E+03  0.25500000920E-02 0. -1.
    10030    2    1    2    0    0  0.00000000000E+00  0.00000000000E+00  0.67619264804E+03  0.15557168779E+04  0.14010776234E+04 0.  0.
        1    1    3    3  502    0 -0.50703660379E+03 -0.36054999452E+03  0.69561566887E+03  0.93325429275E+03  0.50400001928E-02 0.  1.
       -1    1    3    3    0  502  0.50703660379E+03  0.36054999452E+03 -0.19423020834E+02  0.62246258514E+03  0.50400001928E-02 0. -1.
</event>
<event>
 5   0  0.3907093E-04  0.1416036E+04  0.7818609E-02  0.8942292E-01
       -1   -1    0    0    0  501  0.00000000000E+00  0.00000000000E+00  0.70498462693E+03  0.70498462695E+03  0.50400001928E-02 0. -1.
        1   -1    0    0  501    0  0.00000000000E+00  0.00000000000E+00 -0.71106417615E+03  0.71106417617E+03  0.50400001928E-02 0.  1.
    10030    2    1    2    0    0  0.00000000000E+00  0.00000000000E+00 -0.60795492208E+01  0.14160488031E+04  0.14160357523E+04 0.  0.
        4    1    3    3  502    0 -0.46838160179E+03  0.79085484386E+02  0.52199064585E+03  0.70577027848E+03  0.12699999809E+01 0. -1.
       -4    1    3    3    0  502  0.46838160179E+03 -0.79085484386E+02 -0.52807019507E+03  0.71027852463E+03  0.12699999809E+01 0.  1.
</event>
<event>
 5   0  0.3907270E-04  0.1393725E+04  0.7818609E-02  0.8958373E-01
        1   -1    0    0  501    0  0.00000000000E+00  0.00000000000E+00  0.70703168743E+03  0.70703168745E+03  0.50400001928E-02 0.  1.
       -1   -1    0    0    0  501  0.00000000000E+00  0.00000000000E+00 -0.68683996772E+03  0.68683996774E+03  0.50400001928E-02 0. -1.
    10030    2    1    2    0    0  0.00000000000E+00  0.00000000000E+00  0.20191719711E+02  0.13938716552E+04  0.13937253982E+04 0.  0.
        3    1    3    3  502    0 -0.62641776706E+03 -0.17906261104E+03 -0.23722540786E+03  0.69335311487E+03  0.10100000352E+00 0. -1.
       -3    1    3    3    0  502  0.62641776706E+03  0.17906261104E+03  0.25741712757E+03  0.70051854032E+03  0.10100000352E+00 0.  1.
</event>
<event>
 5   0  0.6895048E-04  0.1398889E+04  0.7818609E-02  0.8954623E-01
        2   -1    0    0  501    0  0.00000000000E+00  0.00000000000E+00  0.79717887612E+03  0.79717887613E+03  0.25500000920E-02 0.  1.
       -2   -1    0    0    0  501  0.00000000000E+00  0.00000000000E+00 -0.61369217040E+03  0.61369217040E+03  0.25500000920E-02 0. -1.
    10030    2    1    2    0    0  0.00000000000E+00  0.00000000000E+00  0.18348670573E+03  0.14108710465E+04  0.13988887514E+04 0.  0.
        4    1    3    3  502    0  0.97984755076E+02 -0.38446236350E+03 -0.48921887518E+03  0.62988018060E+03  0.12699999809E+01 0. -1.
       -4    1    3    3    0  502 -0.97984755076E+02  0.38446236350E+03  0.67270558091E+03  0.78099086593E+03  0.12699999809E+01 0.  1.
</event>
<event>
 5   0  0.3907093E-04  0.1382808E+04  0.7818609E-02  0.8966358E-01
        1   -1    0    0  501    0  0.00000000000E+00  0.00000000000E+00  0.16423279786E+04  0.16423279786E+04  0.50400001928E-02 0.  1.
       -1   -1    0    0    0  501  0.00000000000E+00  0.00000000000E+00 -0.29107420411E+03  0.29107420415E+03  0.50400001928E-02 0. -1.
    10030    2    1    2    0    0  0.00000000000E+00  0.00000000000E+00  0.13512537745E+04  0.19334021828E+04  0.13828077369E+04 0.  0.
        4    1    3    3  502    0  0.47687194060E+03  0.18946240993E+03  0.27721390875E+02  0.51388027878E+03  0.12699999809E+01 0. -1.
       -4    1    3    3    0  502 -0.47687194060E+03 -0.18946240993E+03  0.13235323836E+04  0.14195219040E+04  0.12699999809E+01 0.  1.
</event>
<event>
 5   0  0.3784219E-04  0.1396565E+04  0.7818609E-02  0.8956309E-01
       -1   -1    0    0    0  501  0.00000000000E+00  0.00000000000E+00  0.60619339757E+03  0.60619339759E+03  0.50400001928E-02 0. -1.
        1   -1    0    0  501    0  0.00000000000E+00  0.00000000000E+00 -0.80436093863E+03  0.80436093864E+03  0.50400001928E-02 0.  1.
    10030    2    1    2    0    0  0.00000000000E+00  0.00000000000E+00 -0.19816754106E+03  0.14105543362E+04  0.13965647715E+04 0.  0.
        1    1    3    3  502    0 -0.65613144110E+03  0.15878107911E+03 -0.27941748793E+03  0.73061209385E+03  0.50400001928E-02 0.  1.
       -1    1    3    3    0  502  0.65613144110E+03 -0.15878107911E+03  0.81249946876E+02  0.67994224238E+03  0.50400001928E-02 0. -1.
</event>
<event>
 5   0  0.3977658E-04  0.1393391E+04  0.7818609E-02  0.8958616E-01
       -1   -1    0    0    0  501  0.00000000000E+00  0.00000000000E+00  0.53744326016E+03  0.53744326019E+03  0.50400001928E-02 0. -1.
        1   -1    0    0  501    0  0.00000000000E+00  0.00000000000E+00 -0.90313648044E+03  0.90313648045E+03  0.50400001928E-02 0.  1.
    10030    2    1    2    0    0  0.00000000000E+00  0.00000000000E+00 -0.36569322028E+03  0.14405797406E+04  0.13933909924E+04 0.  0.
        5    1    3    3  502    0 -0.25544869010E+03  0.21904475232E+02  0.48687897175E+03  0.55027907687E+03  0.46999998093E+01 0. -1.
       -5    1    3    3    0  502  0.25544869010E+03 -0.21904475232E+02 -0.85257219202E+03  0.89030066377E+03  0.46999998093E+01 0.  1.
</event>
<event>
 5   0  0.6895048E-04  0.1400668E+04  0.7818609E-02  0.8953335E-01
       -2   -1    0    0    0  501  0.00000000000E+00  0.00000000000E+00  0.75759541371E+03  0.75759541371E+03  0.25500000920E-02 0. -1.
        2   -1    0    0  501    0  0.00000000000E+00  0.00000000000E+00 -0.64740079969E+03  0.64740079969E+03  0.25500000920E-02 0.  1.
    10030    2    1    2    0    0  0.00000000000E+00  0.00000000000E+00  0.11019461402E+03  0.14049962134E+04  0.14006682358E+04 0.  0.
        4    1    3    3  502    0  0.49472861824E+03  0.26266427593E+02  0.55162169202E+03  0.74144078315E+03  0.12699999809E+01 0. -1.
       -4    1    3    3    0  502 -0.49472861824E+03 -0.26266427593E+02 -0.44142707800E+03  0.66355543025E+03  0.12699999809E+01 0.  1.
</event>
<event>
 5   0  0.6870835E-04  0.1395367E+04  0.7818609E-02  0.8957179E-01
        2   -1    0    0  501    0  0.00000000000E+00  0.00000000000E+00  0.16927415683E+04  0.16927415683E+04  0.25500000920E-02 0. -1.
       -2   -1    0    0    0  501  0.00000000000E+00  0.00000000000E+00 -0.28755856905E+03  0.28755856906E+03  0.25500000920E-02 0.  1.
    10030    2    1    2    0    0  0.00000000000E+00  0.00000000000E+00  0.14051829993E+04  0.19803001374E+04  0.13953671103E+04 0.  0.
        2    1    3    3  502    0  0.12911550286E+03  0.11322773573E+03 -0.25709496559E+03  0.30917495784E+03  0.25500000920E-02 0.  1.
       -2    1    3    3    0  502 -0.12911550286E+03 -0.11322773573E+03  0.16622779649E+04  0.16711251795E+04  0.25500000920E-02 0. -1.
</event>
<event>
 5   0  0.3977658E-04  0.1400002E+04  0.7818609E-02  0.8953817E-01
       -1   -1    0    0    0  501  0.00000000000E+00  0.00000000000E+00  0.42847481639E+03  0.42847481641E+03  0.50400001928E-02 0. -1.
        1   -1    0    0  501    0  0.00000000000E+00  0.00000000000E+00 -0.11435951299E+04  0.11435951299E+04  0.50400001928E-02 0.  1.
    10030    2    1    2    0    0  0.00000000000E+00  0.00000000000E+00 -0.71512031348E+03  0.15720699463E+04  0.14000024476E+04 0.  0.
        5    1    3    3  502    0 -0.67042430357E+03 -0.20122961596E+03 -0.35286027003E+03  0.78389703745E+03  0.46999998093E+01 0. -1.
       -5    1    3    3    0  502  0.67042430357E+03  0.20122961596E+03 -0.36226004344E+03  0.78817290884E+03  0.46999998093E+01 0.  1.
</event>
<event>
 5   0  0.3784219E-04  0.1391604E+04  0.7818609E-02  0.8959919E-01
       -1   -1    0    0    0  501  0.00000000000E+00  0.00000000000E+00  0.27935640216E+03  0.27935640220E+03  0.50400001928E-02 0. -1.
        1   -1    0    0  501    0  0.00000000000E+00  0.00000000000E+00 -0.17330559775E+04  0.17330559775E+04  0.50400001928E-02 0.  1.
    10030    2    1    2    0    0  0.00000000000E+00  0.00000000000E+00 -0.14536995753E+04  0.20124123797E+04  0.13916037980E+04 0.  0.
        1    1    3    3  502    0  0.36454429620E+03  0.21461010066E+03 -0.15257392593E+04  0.15832972957E+04  0.50400001928E-02 0.  1.
       -1    1    3    3    0  502 -0.36454429620E+03 -0.21461010066E+03  0.72039683991E+02  0.42911508397E+03  0.50400001928E-02 0. -1.
</event>
<event>
 5   0  0.7296966E-04  0.1324577E+04  0.7818609E-02  0.9010299E-01
       -2   -1    0    0    0  501  0.00000000000E+00  0.00000000000E+00  0.25788531058E+03  0.25788531059E+03  0.25500000920E-02 0.  1.
        2   -1    0    0  501    0  0.00000000000E+00  0.00000000000E+00 -0.17008576989E+04  0.17008576989E+04  0.25500000920E-02 0. -1.
    10030    2    1    2    0    0  0.00000000000E+00  0.00000000000E+00 -0.14429723883E+04  0.19587430095E+04  0.13245772396E+04 0.  0.
        3    1    3    3  502    0 -0.50027133020E+02  0.44372725879E+03  0.17957753038E+01  0.44654208003E+03  0.10100000352E+00 0.  1.
       -3    1    3    3    0  502  0.50027133020E+02 -0.44372725879E+03 -0.14447681636E+04  0.15122009294E+04  0.10100000352E+00 0. -1.
</event>
<event>
 5   0  0.6895048E-04  0.1393960E+04  0.7818609E-02  0.8958202E-01
       -2   -1    0    0    0  501  0.00000000000E+00  0.00000000000E+00  0.84870334243E+03  0.84870334243E+03  0.25500000920E-02 0.  1.
        2   -1    0    0  501    0  0.00000000000E+00  0.00000000000E+00 -0.57238020283E+03  0.57238020284E+03  0.25500000920E-02 0. -1.
    10030    2    1    2    0    0  0.00000000000E+00  0.00000000000E+00  0.27632313960E+03  0.14210835453E+04  0.13939598148E+04 0.  0.
        4    1    3    3  502    0  0.32532168833E+03 -0.19124716696E+03 -0.45921796505E+03  0.59438407793E+03  0.12699999809E+01 0. -1.
       -4    1    3    3    0  502 -0.32532168833E+03  0.19124716696E+03  0.73554110465E+03  0.82669946734E+03  0.12699999809E+01 0.  1.
</event>
<event>
 5   0  0.6895048E-04  0.1436801E+04  0.7818609E-02  0.8927603E-01
        2   -1    0    0  501    0  0.00000000000E+00  0.00000000000E+00  0.99872303630E+03  0.99872303630E+03  0.25500000920E-02 0.  1.
       -2   -1    0    0    0  501  0.00000000000E+00  0.00000000000E+00 -0.51675921746E+03  0.51675921746E+03  0.25500000920E-02 0. -1.
    10030    2    1    2    0    0  0.00000000000E+00  0.00000000000E+00  0.48196381884E+03  0.15154822538E+04  0.14368010784E+04 0.  0.
        4    1    3    3  502    0  0.43463178649E+03 -0.19149252353E+03 -0.32753695201E+03  0.57693694996E+03  0.12699999809E+01 0. -1.
       -4    1    3    3    0  502 -0.43463178649E+03  0.19149252353E+03  0.80950077085E+03  0.93854530381E+03  0.12699999809E+01 0.  1.
</event>
<event>
 5   0  0.3907270E-04  0.1383763E+04  0.7818609E-02  0.8965656E-01
        1   -1    0    0  501    0  0.00000000000E+00  0.00000000000E+00  0.62984493236E+03  0.62984493238E+03  0.50400001928E-02 0. -1.
       -1   -1    0    0    0  501  0.00000000000E+00  0.00000000000E+00 -0.76002877352E+03  0.76002877354E+03  0.50400001928E-02 0.  1.
    10030    2    1    2    0    0  0.00000000000E+00  0.00000000000E+00 -0.13018384116E+03  0.13898737059E+04  0.13837633779E+04 0.  0.
        3    1    3    3  502    0  0.25655189900E+03  0.59355796579E+03  0.18210523015E+03  0.67178289698E+03  0.10100000352E+00 0. -1.
       -3    1    3    3    0  502 -0.25655189900E+03 -0.59355796579E+03 -0.31228907130E+03  0.71809080894E+03  0.10100000352E+00 0.  1.
</event>
<event>
 5   0  0.3907270E-04  0.1347457E+04  0.7818609E-02  0.8992755E-01
       -1   -1    0    0    0  501  0.00000000000E+00  0.00000000000E+00  0.22556478106E+03  0.22556478111E+03  0.50400001928E-02 0. -1.
        1   -1    0    0  501    0  0.00000000000E+00  0.00000000000E+00 -0.20123277444E+04  0.20123277444E+04  0.50400001928E-02 0.  1.
    10030    2    1    2    0    0  0.00000000000E+00  0.00000000000E+00 -0.17867629633E+04  0.22378925255E+04  0.13474572604E+04 0.  0.
        3    1    3    3  502    0  0.60104459058E+03 -0.23969457500E+03 -0.12049897202E+04  0.13677383979E+04  0.10100000352E+00 0.  1.
       -3    1    3    3    0  502 -0.60104459058E+03  0.23969457500E+03 -0.58177324318E+03  0.87015412763E+03  0.10100000352E+00 0. -1.
</event>
<event>
 5   0  0.3784219E-04  0.1395910E+04  0.7818609E-02  0.8956785E-01
        1   -1    0    0  501    0  0.00000000000E+00  0.00000000000E+00  0.14715956266E+04  0.14715956266E+04  0.50400001928E-02 0.  1.
       -1   -1    0    0    0  501  0.00000000000E+00  0.00000000000E+00 -0.33102905276E+03  0.33102905280E+03  0.50400001928E-02 0. -1.
    10030    2    1    2    0    0  0.00000000000E+00  0.00000000000E+00  0.11405665738E+04  0.18026246794E+04  0.13959096050E+04 0.  0.
        1    1    3    3  502    0  0.23299997632E+02 -0.41343749832E+03  0.12958258903E+04  0.13603816350E+04  0.50400001928E-02 0.  1.
       -1    1    3    3    0  502 -0.23299997632E+02  0.41343749832E+03 -0.15525931649E+03  0.44224304436E+03  0.50400001928E-02 0. -1.
</event>
<event>
 5   0  0.3756664E-04  0.1399454E+04  0.7818609E-02  0.8954214E-01
        1   -1    0    0  501    0  0.00000000000E+00  0.00000000000E+00  0.18503869696E+04  0.18503869696E+04  0.50400001928E-02 0.  1.
       -1   -1    0    0    0  501  0.00000000000E+00  0.00000000000E+00 -0.26460302618E+03  0.26460302622E+03  0.50400001928E-02 0. -1.
    10030    2    1    2    0    0  0.00000000000E+00  0.00000000000E+00  0.15857839434E+04  0.21149899958E+04  0.13994541676E+04 0.  0.
        2    1    3    3  502    0  0.97364724416E+01  0.27573125528E+03 -0.17892619768E+03  0.32884207190E+03  0.25500000920E-02 0. -1.
       -2    1    3    3    0  502 -0.97364724416E+01 -0.27573125528E+03  0.17647101411E+04  0.17861479239E+04  0.25500000920E-02 0.  1.
</event>
<event>
 5   0  0.7296966E-04  0.1408294E+04  0.7818609E-02  0.8947837E-01
        2   -1    0    0  501    0  0.00000000000E+00  0.00000000000E+00  0.84677454308E+03  0.84677454308E+03  0.25500000920E-02 0.  1.
       -2   -1    0    0    0  501  0.00000000000E+00  0.00000000000E+00 -0.58554275861E+03  0.58554275862E+03  0.25500000920E-02 0. -1.
    10030    2    1    2    0    0  0.00000000000E+00  0.00000000000E+00  0.26123178446E+03  0.14323173017E+04  0.14082935800E+04 0.  0.
        3    1    3    3  502    0  0.33900871939E+03  0.14804318101E+03  0.73998517454E+03  0.82729786897E+03  0.10100000352E+00 0.  1.
       -3    1    3    3    0  502 -0.33900871939E+03 -0.14804318101E+03 -0.47875339008E+03  0.60501943273E+03  0.10100000352E+00 0. -1.
</event>
<event>
 5   0  0.7296966E-04  0.1385171E+04  0.7818609E-02  0.8964623E-01
        2   -1    0    0  501    0  0.00000000000E+00  0.00000000000E+00  0.14745783628E+04  0.14745783628E+04  0.25500000920E-02 0. -1.
       -2   -1    0    0    0  501  0.00000000000E+00  0.00000000000E+00 -0.32529593821E+03  0.32529593822E+03  0.25500000920E-02 0.  1.
    10030    2    1    2    0    0  0.00000000000E+00  0.00000000000E+00  0.11492824246E+04  0.17998743010E+04  0.13851705339E+04 0.  0.
        3    1    3    3  502    0  0.63827564381E+02  0.50896671335E+03 -0.30032799019E+02  0.51383173558E+03  0.10100000352E+00 0.  1.
       -3    1    3    3    0  502 -0.63827564381E+02 -0.50896671335E+03  0.11793152236E+04  0.12860425654E+04  0.10100000352E+00 0. -1.
</event>
<event>
 5   0  0.3907270E-04  0.1396462E+04  0.7818609E-02  0.8956384E-01
        1   -1    0    0  501    0  0.00000000000E+00  0.00000000000E+00  0.99262238639E+03  0.99262238640E+03  0.50400001928E-02 0.  1.
       -1   -1    0    0    0  501  0.00000000000E+00  0.00000000000E+00 -0.49114994640E+03  0.49114994642E+03  0.50400001928E-02 0. -1.
    10030    2    1    2    0    0  0.00000000000E+00  0.00000000000E+00  0.50147243999E+03  0.14837723328E+04  0.13964618604E+04 0.  0.
        3    1    3    3  502    0  0.14295938304E+03 -0.67759376929E+03  0.34550776118E+03  0.77391622584E+03  0.10100000352E+00 0.  1.
       -3    1    3    3    0  502 -0.14295938304E+03  0.67759376929E+03  0.15596467881E+03  0.70985610698E+03  0.10100000352E+00 0. -1.
</event>
<event>
 5   0  0.6870835E-04  0.1395635E+04  0.7818609E-02  0.8956984E-01
        2   -1    0    0  501    0  0.00000000000E+00  0.00000000000E+00  0.15957091479E+04  0.15957091479E+04  0.25500000920E-02 0.  1.
       -2   -1    0    0    0  501  0.00000000000E+00  0.00000000000E+00 -0.30516157828E+03  0.30516157829E+03  0.25500000920E-02 0. -1.
    10030    2    1    2    0    0  0.00000000000E+00  0.00000000000E+00  0.12905475696E+04  0.19008707262E+04  0.13956347976E+04 0.  0.
        2    1    3    3  502    0  0.58489830499E+03 -0.37583820642E+03  0.72686654745E+03  0.10058306828E+04  0.25500000920E-02 0.  1.
       -2    1    3    3    0  502 -0.58489830499E+03  0.37583820642E+03  0.56368102216E+03  0.89504004343E+03  0.25500000920E-02 0. -1.
</event>
<event>
 5   0  0.7065539E-04  0.1405304E+04  0.7818609E-02  0.8949988E-01
        2   -1    0    0  501    0  0.00000000000E+00  0.00000000000E+00  0.10281798802E+04  0.10281798803E+04  0.25500000920E-02 0.  1.
       -2   -1    0    0    0  501  0.00000000000E+00  0.00000000000E+00 -0.48018831116E+03  0.48018831117E+03  0.25500000920E-02 0. -1.
    10030    2    1    2    0    0  0.00000000000E+00  0.00000000000E+00  0.54799156909E+03  0.15083681914E+04  0.14053041810E+04 0.  0.
        1    1    3    3  502    0 -0.66585846889E+03  0.75702925738E+02  0.47265653152E+02  0.67181282776E+03  0.50400001928E-02 0. -1.
       -1    1    3    3    0  502  0.66585846889E+03 -0.75702925738E+02  0.50072591593E+03  0.83655536366E+03  0.50400001928E-02 0.  1.
</event>
<event>
 5   0  0.6895048E-04  0.1397889E+04  0.7818609E-02  0.8955348E-01
       -2   -1    0    0    0  501  0.00000000000E+00  0.00000000000E+00  0.50242772047E+03  0.50242772048E+03  0.25500000920E-02 0. -1.
        2   -1    0    0  501    0  0.00000000000E+00  0.00000000000E+00 -0.97232584975E+03  0.97232584976E+03  0.25500000920E-02 0.  1.
    10030    2    1    2    0    0  0.00000000000E+00  0.00000000000E+00 -0.46989812928E+03  0.14747535702E+04  0.13978890661E+04 0.  0.
        4    1    3    3  502    0  0.31561362152E+02  0.19017261180E+03 -0.94372397124E+03  0.96321248365E+03  0.12699999809E+01 0.  1.
       -4    1    3    3    0  502 -0.31561362152E+02 -0.19017261180E+03  0.47382584195E+03  0.51154108659E+03  0.12699999809E+01 0. -1.
</event>
<event>
 5   0  0.3977658E-04  0.1390321E+04  0.7818609E-02  0.8960854E-01
        1   -1    0    0  501    0  0.00000000000E+00  0.00000000000E+00  0.63362142272E+03  0.63362142274E+03  0.50400001928E-02 0. -1.
       -1   -1    0    0    0  501  0.00000000000E+00  0.00000000000E+00 -0.76267671629E+03  0.76267671630E+03  0.50400001928E-02 0.  1.
    10030    2    1    2    0    0  0.00000000000E+00  0.00000000000E+00 -0.12905529357E+03  0.13962981390E+04  0.13903212666E+04 0.  0.
        5    1    3    3  502    0  0.91717927221E+02  0.60545192838E+03  0.26588822292E+03  0.66760980583E+03  0.46999998093E+01 0. -1.
       -5    1    3    3    0  502 -0.91717927221E+02 -0.60545192838E+03 -0.39494351649E+03  0.72868833322E+03  0.46999998093E+01 0.  1.
</event>
<event>
 5   0  0.7065539E-04  0.1393828E+04  0.7818609E-02  0.8958298E-01
        2   -1    0    0  501    0  0.00000000000E+00  0.00000000000E+00  0.18031669768E+04  0.18031669768E+04  0.25500000920E-02 0. -1.
       -2   -1    0    0    0  501  0.00000000000E+00  0.00000000000E+00 -0.26935346234E+03  0.26935346235E+03  0.25500000920E-02 0.  1.
    10030    2    1    2    0    0  0.00000000000E+00  0.00000000000E+00  0.15338135145E+04  0.20725204392E+04  0.13938282081E+04 0.  0.
        1    1    3    3  502    0 -0.11533167325E+03 -0.65513884420E+03  0.45792292070E+03  0.80759005774E+03  0.50400001928E-02 0.  1.
       -1    1    3    3    0  502  0.11533167325E+03  0.65513884420E+03  0.10758905938E+04  0.12649303814E+04  0.50400001928E-02 0. -1.
</event>
<event>
 5   0  0.7296966E-04  0.1401015E+04  0.7818609E-02  0.8953084E-01
       -2   -1    0    0    0  501  0.00000000000E+00  0.00000000000E+00  0.12998922405E+04  0.12998922405E+04  0.25500000920E-02 0.  1.
        2   -1    0    0  501    0  0.00000000000E+00  0.00000000000E+00 -0.37750095822E+03  0.37750095823E+03  0.25500000920E-02 0. -1.
    10030    2    1    2    0    0  0.00000000000E+00  0.00000000000E+00  0.92239128224E+03  0.16773931987E+04  0.14010147271E+04 0.  0.
        3    1    3    3  502    0  0.64772471994E+03  0.15710447227E+03  0.20306954757E+03  0.69675417428E+03  0.10100000352E+00 0. -1.
       -3    1    3    3    0  502 -0.64772471994E+03 -0.15710447227E+03  0.71932173466E+03  0.98063902441E+03  0.10100000352E+00 0.  1.
</event>
<event>
 5   0  0.3907093E-04  0.1393949E+04  0.7818609E-02  0.8958210E-01
       -1   -1    0    0    0  501  0.00000000000E+00  0.00000000000E+00  0.62007630533E+03  0.62007630535E+03  0.50400001928E-02 0. -1.
        1   -1    0    0  501    0  0.00000000000E+00  0.00000000000E+00 -0.78340906904E+03  0.78340906906E+03  0.50400001928E-02 0.  1.
    10030    2    1    2    0    0  0.00000000000E+00  0.00000000000E+00 -0.16333276371E+03  0.14034853744E+04  0.13939489246E+04 0.  0.
        4    1    3    3  502    0  0.74579723396E+02 -0.44887784108E+03 -0.61321598840E+03  0.76360258819E+03  0.12699999809E+01 0.  1.
       -4    1    3    3    0  502 -0.74579723396E+02  0.44887784108E+03  0.44988322469E+03  0.63988278623E+03  0.12699999809E+01 0. -1.
</event>
<event>
 5   0  0.6959748E-04  0.1407165E+04  0.7818609E-02  0.8948649E-01
        2   -1    0    0  501    0  0.00000000000E+00  0.00000000000E+00  0.18233114715E+04  0.18233114715E+04  0.25500000920E-02 0.  1.
       -2   -1    0    0    0  501  0.00000000000E+00  0.00000000000E+00 -0.27149945687E+03  0.27149945689E+03  0.25500000920E-02 0. -1.
    10030    2    1    2    0    0  0.00000000000E+00  0.00000000000E+00  0.15518120146E+04  0.20948109284E+04  0.14071646304E+04 0.  0.
        5    1    3    3  502    0  0.17513116918E+03 -0.46906069188E+03  0.40077049245E+02  0.50231177466E+03  0.46999998093E+01 0.  1.
       -5    1    3    3    0  502 -0.17513116918E+03  0.46906069188E+03  0.15117349654E+04  0.15924991537E+04  0.46999998093E+01 0. -1.
</event>
<event>
 5   0  0.6870835E-04  0.1404636E+04  0.7818609E-02  0.8950470E-01
        2   -1    0    0  501    0  0.00000000000E+00  0.00000000000E+00  0.15068443619E+04  0.15068443619E+04  0.25500000920E-02 0.  1.
       -2   -1    0    0    0  501  0.00000000000E+00  0.00000000000E+00 -0.32733994406E+03  0.32733994407E+03  0.25500000920E-02 0. -1.
    10030    2    1    2    0    0  0.00000000000E+00  0.00000000000E+00  0.11795044178E+04  0.18341843060E+04  0.14046356811E+04 0.  0.
        2    1    3    3  502    0  0.16789369966E+03 -0.13431954934E+03  0.14628098268E+04  0.14785271811E+04  0.25500000920E-02 0.  1.
       -2    1    3    3    0  502 -0.16789369966E+03  0.13431954934E+03 -0.28330540899E+03  0.35565712489E+03  0.25500000920E-02 0. -1.
</event>
<event>
 5   0  0.6870835E-04  0.1395739E+04  0.7818609E-02  0.8956909E-01
       -2   -1    0    0    0  501  0.00000000000E+00  0.00000000000E+00  0.48715834310E+03  0.48715834311E+03  0.25500000920E-02 0. -1.
        2   -1    0    0  501    0  0.00000000000E+00  0.00000000000E+00 -0.99971925279E+03  0.99971925280E+03  0.25500000920E-02 0.  1.
    10030    2    1    2    0    0  0.00000000000E+00  0.00000000000E+00 -0.51256090969E+03  0.14868775959E+04  0.13957386213E+04 0.  0.
        2    1    3    3  502    0  0.46689974751E+03  0.16457901108E+03 -0.78027276626E+03  0.92407100100E+03  0.25500000920E-02 0.  1.
       -2    1    3    3    0  502 -0.46689974751E+03 -0.16457901108E+03  0.26771185657E+03  0.56280659491E+03  0.25500000920E-02 0. -1.
</event>
<event>
 5   0  0.3907270E-04  0.1398144E+04  0.7818609E-02  0.8955163E-01
        1   -1    0    0  501    0  0.00000000000E+00  0.00000000000E+00  0.11749190128E+04  0.11749190128E+04  0.50400001928E-02 0. -1.
       -1   -1    0    0    0  501  0.00000000000E+00  0.00000000000E+00 -0.41594475899E+03  0.41594475902E+03  0.50400001928E-02 0.  1.
    10030    2    1    2    0    0  0.00000000000E+00  0.00000000000E+00  0.75897425376E+03  0.15908637718E+04  0.13981436344E+04 0.  0.
        3    1    3    3  502    0  0.21107665569E+03 -0.61463500026E+03  0.86348406595E+02  0.65558035026E+03  0.10100000352E+00 0.  1.
       -3    1    3    3    0  502 -0.21107665569E+03  0.61463500026E+03  0.67262584717E+03  0.93528342154E+03  0.10100000352E+00 0. -1.
</event>
<event>
 5   0  0.3756664E-04  0.1386302E+04  0.7818609E-02  0.8963794E-01
        1   -1    0    0  501    0  0.00000000000E+00  0.00000000000E+00  0.41869571314E+03  0.41869571317E+03  0.50400001928E-02 0.  1.
       -1   -1    0    0    0  501  0.00000000000E+00  0.00000000000E+00 -0.11475122468E+04  0.11475122468E+04  0.50400001928E-02 0. -1.
    10030    2    1    2    0    0  0.00000000000E+00  0.00000000000E+00 -0.72881653367E+03  0.15662079600E+04  0.13863022160E+04 0.  0.
        2    1    3    3  502    0 -0.22719511538E+03  0.64618872007E+03 -0.24441279722E+03  0.72726549337E+03  0.25500000920E-02 0. -1.
       -2    1    3    3    0  502  0.22719511538E+03 -0.64618872007E+03 -0.48440373645E+03  0.83894246662E+03  0.25500000920E-02 0.  1.
</event>
<event>
 5   0  0.7065539E-04  0.1388447E+04  0.7818609E-02  0.8962224E-01
        2   -1    0    0  501    0  0.00000000000E+00  0.00000000000E+00  0.69919540640E+03  0.69919540641E+03  0.25500000920E-02 0. -1.
       -2   -1    0    0    0  501  0.00000000000E+00  0.00000000000E+00 -0.68928724633E+03  0.68928724633E+03  0.25500000920E-02 0.  1.
    10030    2    1    2    0    0  0.00000000000E+00  0.00000000000E+00  0.99081600764E+01  0.13884826527E+04  0.13884473002E+04 0.  0.
        1    1    3    3  502    0  0.14857785826E+03  0.20223788793E+03 -0.64234204148E+03  0.68962224555E+03  0.50400001928E-02 0.  1.
       -1    1    3    3    0  502 -0.14857785826E+03 -0.20223788793E+03  0.65225020156E+03  0.69886040719E+03  0.50400001928E-02 0. -1.
</event>
<event>
 5   0  0.2660250E-04  0.1400072E+04  0.7818609E-02  0.8953767E-01
       -4   -1    0    0    0  501  0.00000000000E+00  0.00000000000E+00  0.14164445760E+04  0.14164451454E+04  0.12699999809E+01 0.  1.
        4   -1    0    0  501    0  0.00000000000E+00  0.00000000000E+00 -0.34597014249E+03  0.34597247347E+03  0.12699999809E+01 0. -1.
    10030    2    1    2    0    0  0.00000000000E+00  0.00000000000E+00  0.10704744335E+04  0.17624176188E+04  0.14000715519E+04 0.  0.
        3    1    3    3  502    0 -0.34553901110E+02 -0.65661701112E+03  0.83763938923E+03  0.10648847956E+04  0.10100000352E+00 0.  1.
       -3    1    3    3    0  502  0.34553901110E+02  0.65661701112E+03  0.23283504429E+03  0.69753282319E+03  0.10100000352E+00 0. -1.
</event>
<event>
 5   0  0.3977658E-04  0.1397843E+04  0.7818609E-02  0.8955381E-01
       -1   -1    0    0    0  501  0.00000000000E+00  0.00000000000E+00  0.99963898541E+03  0.99963898542E+03  0.50400001928E-02 0. -1.
        1   -1    0    0  501    0  0.00000000000E+00  0.00000000000E+00 -0.48866770136E+03  0.48866770139E+03  0.50400001928E-02 0.  1.
    10030    2    1    2    0    0  0.00000000000E+00  0.00000000000E+00  0.51097128405E+03  0.14883066868E+04  0.13978430316E+04 0.  0.
        5    1    3    3  502    0  0.31514900145E+03 -0.57133463158E+03 -0.11176539299E+02  0.65260183832E+03  0.46999998093E+01 0.  1.
       -5    1    3    3    0  502 -0.31514900145E+03  0.57133463158E+03  0.52214782335E+03  0.83570484849E+03  0.46999998093E+01 0. -1.
</event>
<event>
 5   0  0.6959748E-04  0.1398093E+04  0.7818609E-02  0.8955200E-01
       -2   -1    0    0    0  501  0.00000000000E+00  0.00000000000E+00  0.37084114369E+03  0.37084114369E+03  0.25500000920E-02 0. -1.
        2   -1    0    0  501    0  0.00000000000E+00  0.00000000000E+00 -0.13177232578E+04  0.13177232578E+04  0.25500000920E-02 0.  1.
    10030    2    1    2    0    0  0.00000000000E+00  0.00000000000E+00 -0.94688211410E+03  0.16885644015E+04  0.13980929869E+04 0.  0.
        5    1    3    3  502    0  0.97555742882E+02  0.29384409101E+03  0.28349222650E+03  0.41982306425E+03  0.46999998093E+01 0. -1.
       -5    1    3    3    0  502 -0.97555742882E+02 -0.29384409101E+03 -0.12303743406E+04  0.12687413372E+04  0.46999998093E+01 0.  1.
</event>
<event>
 5   0  0.3756664E-04  0.1404597E+04  0.7818609E-02  0.8950498E-01
        1   -1    0    0  501    0  0.00000000000E+00  0.00000000000E+00  0.13756902222E+04  0.13756902222E+04  0.50400001928E-02 0. -1.
       -1   -1    0    0    0  501  0.00000000000E+00  0.00000000000E+00 -0.35852785300E+03  0.35852785303E+03  0.50400001928E-02 0.  1.
    10030    2    1    2    0    0  0.00000000000E+00  0.00000000000E+00  0.10171623692E+04  0.17342180753E+04  0.14045971121E+04 0.  0.
        2    1    3    3  502    0 -0.38474779664E+03 -0.58741368855E+03  0.49410055580E+03  0.85861578588E+03  0.25500000920E-02 0. -1.
       -2    1    3    3    0  502  0.38474779664E+03  0.58741368855E+03  0.52306181343E+03  0.87560228940E+03  0.25500000920E-02 0.  1.
</event>
<event>
 5   0  0.3907270E-04  0.1382076E+04  0.7818609E-02  0.8966896E-01
       -1   -1    0    0    0  501  0.00000000000E+00  0.00000000000E+00  0.89384822865E+03  0.89384822867E+03  0.50400001928E-02 0.  1.
        1   -1    0    0  501    0  0.00000000000E+00  0.00000000000E+00 -0.53424475683E+03  0.53424475685E+03  0.50400001928E-02 0. -1.
    10030    2    1    2    0    0  0.00000000000E+00  0.00000000000E+00  0.35960347182E+03  0.14280929855E+04  0.13820763070E+04 0.  0.
        3    1    3    3  502    0  0.43296382842E+02  0.66992115444E+03  0.10439653612E+02  0.67139997505E+03  0.10100000352E+00 0. -1.
       -3    1    3    3    0  502 -0.43296382842E+02 -0.66992115444E+03  0.34916381821E+03  0.75669301046E+03  0.10100000352E+00 0.  1.
</event>
<event>
 5   0  0.3907270E-04  0.1399844E+04  0.7818609E-02  0.8953931E-01
        1   -1    0    0  501    0  0.00000000000E+00  0.00000000000E+00  0.16529712288E+04  0.16529712288E+04  0.50400001928E-02 0.  1.
       -1   -1    0    0    0  501  0.00000000000E+00  0.00000000000E+00 -0.29636988208E+03  0.29636988213E+03  0.50400001928E-02 0. -1.
    10030    2    1    2    0    0  0.00000000000E+00  0.00000000000E+00  0.13566013467E+04  0.19493411109E+04  0.13998441173E+04 0.  0.
        3    1    3    3  502    0 -0.18481823507E+03 -0.66312960275E+03  0.85440200954E+03  0.10972244320E+04  0.10100000352E+00 0. -1.
       -3    1    3    3    0  502  0.18481823507E+03  0.66312960275E+03  0.50219933715E+03  0.85211667892E+03  0.10100000352E+00 0.  1.
</event>
<event>
 5   0  0.6870835E-04  0.1389627E+04  0.7818609E-02  0.8961361E-01
        2   -1    0    0  501    0  0.00000000000E+00  0.00000000000E+00  0.13053771790E+04  0.13053771790E+04  0.25500000920E-02 0. -1.
       -2   -1    0    0    0  501  0.00000000000E+00  0.00000000000E+00 -0.36982869632E+03  0.36982869632E+03  0.25500000920E-02 0.  1.
    10030    2    1    2    0    0  0.00000000000E+00  0.00000000000E+00  0.93554848267E+03  0.16752058753E+04  0.13896272023E+04 0.  0.
        2    1    3    3  502    0 -0.64130116529E+03 -0.26610500334E+03  0.43617975975E+03  0.81995843811E+03  0.25500000920E-02 0.  1.
       -2    1    3    3    0  502  0.64130116529E+03  0.26610500334E+03  0.49936872292E+03  0.85524743720E+03  0.25500000920E-02 0. -1.
</event>
<event>
 5   0  0.7065539E-04  0.1404989E+04  0.7818609E-02  0.8950215E-01
       -2   -1    0    0    0  501  0.00000000000E+00  0.00000000000E+00  0.44560078646E+03  0.44560078646E+03  0.25500000920E-02 0.  1.
        2   -1    0    0  501    0  0.00000000000E+00  0.00000000000E+00 -0.11074899582E+04  0.11074899582E+04  0.25500000920E-02 0. -1.
    10030    2    1    2    0    0  0.00000000000E+00  0.00000000000E+00 -0.66188917173E+03  0.15530907446E+04  0.14049888204E+04 0.  0.
        1    1    3    3  502    0  0.44530045104E+03 -0.29849763620E+03  0.17089890584E+03  0.56267198842E+03  0.50400001928E-02 0.  1.
       -1    1    3    3    0  502 -0.44530045104E+03  0.29849763620E+03 -0.83278807757E+03  0.99041875623E+03  0.50400001928E-02 0. -1.
</event>
<event>
 5   0  0.3784219E-04  0.1405534E+04  0.7818609E-02  0.8949823E-01
       -1   -1    0    0    0  501  0.00000000000E+00  0.00000000000E+00  0.60890881592E+03  0.60890881594E+03  0.50400001928E-02 0.  1.
        1   -1    0    0  501    0  0.00000000000E+00  0.00000000000E+00 -0.81109254059E+03  0.81109254061E+03  0.50400001928E-02 0. -1.
    10030    2    1    2    0    0  0.00000000000E+00  0.00000000000E+00 -0.20218372468E+03  0.14200013565E+04  0.14055339178E+04 0.  0.
        1    1    3    3  502    0 -0.69983230256E+03 -0.62960624639E+02 -0.11355195747E+03  0.71177478112E+03  0.50400001928E-02 0.  1.
       -1    1    3    3    0  502  0.69983230256E+03  0.62960624639E+02 -0.88631767208E+02  0.70822657543E+03  0.50400001928E-02 0. -1.
</event>
<event>
 5   0  0.7065539E-04  0.1394432E+04  0.7818609E-02  0.8957859E-01
        2   -1    0    0  501    0  0.00000000000E+00  0.00000000000E+00  0.98866513942E+03  0.98866513942E+03  0.25500000920E-02 0. -1.
       -2   -1    0    0    0  501  0.00000000000E+00  0.00000000000E+00 -0.49168301708E+03  0.49168301709E+03  0.25500000920E-02 0.  1.
    10030    2    1    2    0    0  0.00000000000E+00  0.00000000000E+00  0.49698212234E+03  0.14803481565E+04  0.13944315812E+04 0.  0.
        1    1    3    3  502    0  0.62694156671E+03  0.33523735675E+01 -0.75332360778E+02  0.63146015796E+03  0.50400001928E-02 0.  1.
       -1    1    3    3    0  502 -0.62694156671E+03 -0.33523735675E+01  0.57231448312E+03  0.84888799856E+03  0.50400001928E-02 0. -1.
</event>
<event>
 5   0  0.7065539E-04  0.1404755E+04  0.7818609E-02  0.8950384E-01
        2   -1    0    0  501    0  0.00000000000E+00  0.00000000000E+00  0.17034225403E+04  0.17034225403E+04  0.25500000920E-02 0. -1.
       -2   -1    0    0    0  501  0.00000000000E+00  0.00000000000E+00 -0.28961331248E+03  0.28961331249E+03  0.25500000920E-02 0.  1.
    10030    2    1    2    0    0  0.00000000000E+00  0.00000000000E+00  0.14138092278E+04  0.19930358528E+04  0.14047545614E+04 0.  0.
        1    1    3    3  502    0 -0.38270369710E+03 -0.54459617055E+03  0.38874768733E+03  0.77082544923E+03  0.50400001928E-02 0.  1.
       -1    1    3    3    0  502  0.38270369710E+03  0.54459617055E+03  0.10250615405E+04  0.12222104035E+04  0.50400001928E-02 0. -1.
</event>
<event>
 5   0  0.6959748E-04  0.1418619E+04  0.7818609E-02  0.8940450E-01
       -2   -1    0    0    0  501  0.00000000000E+00  0.00000000000E+00  0.66627305332E+03  0.66627305332E+03  0.25500000920E-02 0. -1.
        2   -1    0    0  501    0  0.00000000000E+00  0.00000000000E+00 -0.75512596387E+03  0.75512596387E+03  0.25500000920E-02 0.  1.
    10030    2    1    2    0    0  0.00000000000E+00  0.00000000000E+00 -0.88852910551E+02  0.14213990172E+04  0.14186191619E+04 0.  0.
        5    1    3    3  502    0 -0.29883235517E+03 -0.19639498556E+03 -0.65818391123E+03  0.74906603037E+03  0.46999998093E+01 0.  1.
       -5    1    3    3    0  502  0.29883235517E+03  0.19639498556E+03  0.56933100068E+03  0.67233298683E+03  0.46999998093E+01 0. -1.
</event>
<event>
 5   0  0.7296966E-04  0.1393524E+04  0.7818609E-02  0.8958519E-01
       -2   -1    0    0    0  501  0.00000000000E+00  0.00000000000E+00  0.30281474830E+03  0.30281474831E+03  0.25500000920E-02 0. -1.
        2   -1    0    0  501    0  0.00000000000E+00  0.00000000000E+00 -0.16032165291E+04  0.16032165291E+04  0.25500000920E-02 0.  1.
    10030    2    1    2    0    0  0.00000000000E+00  0.00000000000E+00 -0.13004017808E+04  0.19060312774E+04  0.13935244666E+04 0.  0.
        3    1    3    3  502    0 -0.15642293501E+03  0.70741017680E+02  0.27343395669E+03  0.32285997746E+03  0.10100000352E+00 0. -1.
       -3    1    3    3    0  502  0.15642293501E+03 -0.70741017680E+02 -0.15738357375E+04  0.15831713000E+04  0.10100000352E+00 0.  1.
</event>
<event>
 5   0  0.3907093E-04  0.1401039E+04  0.7818609E-02  0.8953067E-01
       -1   -1    0    0    0  501  0.00000000000E+00  0.00000000000E+00  0.60820489463E+03  0.60820489465E+03  0.50400001928E-02 0. -1.
        1   -1    0    0  501    0  0.00000000000E+00  0.00000000000E+00 -0.80684553417E+03  0.80684553418E+03  0.50400001928E-02 0.  1.
    10030    2    1    2    0    0  0.00000000000E+00  0.00000000000E+00 -0.19864063954E+03  0.14150504288E+04  0.14010387619E+04 0.  0.
        4    1    3    3  502    0  0.39390362108E+03 -0.50991930080E+03 -0.37692919753E+03  0.74649513655E+03  0.12699999809E+01 0.  1.
       -4    1    3    3    0  502 -0.39390362108E+03  0.50991930080E+03  0.17828855799E+03  0.66855529229E+03  0.12699999809E+01 0. -1.
</event>
<event>
 5   0  0.3784219E-04  0.1470387E+04  0.7818609E-02  0.8904388E-01
        1   -1    0    0  501    0  0.00000000000E+00  0.00000000000E+00  0.27404133801E+04  0.27404133801E+04  0.50400001928E-02 0. -1.
       -1   -1    0    0    0  501  0.00000000000E+00  0.00000000000E+00 -0.19723646577E+03  0.19723646583E+03  0.50400001928E-02 0.  1.
    10030    2    1    2    0    0  0.00000000000E+00  0.00000000000E+00  0.25431769144E+04  0.29376498460E+04  0.14703869558E+04 0.  0.
        1    1    3    3  502    0  0.61205778079E+03  0.38142255714E+03  0.98615397220E+03  0.12217190966E+04  0.50400001928E-02 0.  1.
       -1    1    3    3    0  502 -0.61205778079E+03 -0.38142255714E+03  0.15570229422E+04  0.17159307494E+04  0.50400001928E-02 0. -1.
</event>
<event>
 5   0  0.3784219E-04  0.1395182E+04  0.7818609E-02  0.8957314E-01
       -1   -1    0    0    0  501  0.00000000000E+00  0.00000000000E+00  0.39310036586E+03  0.39310036590E+03  0.50400001928E-02 0. -1.
        1   -1    0    0  501    0  0.00000000000E+00  0.00000000000E+00 -0.12379355593E+04  0.12379355593E+04  0.50400001928E-02 0.  1.
    10030    2    1    2    0    0  0.00000000000E+00  0.00000000000E+00 -0.84483519341E+03  0.16310359252E+04  0.13951815958E+04 0.  0.
        1    1    3    3  502    0  0.46353312690E+03 -0.42868674074E+03 -0.75626211575E+02  0.63588883094E+03  0.50400001928E-02 0. -1.
       -1    1    3    3    0  502 -0.46353312690E+03  0.42868674074E+03 -0.76920898183E+03  0.99514709424E+03  0.50400001928E-02 0.  1.
</event>
<event>
 5   0  0.6959748E-04  0.1414787E+04  0.7818609E-02  0.8943184E-01
       -2   -1    0    0    0  501  0.00000000000E+00  0.00000000000E+00  0.12852467254E+04  0.12852467254E+04  0.25500000920E-02 0. -1.
        2   -1    0    0  501    0  0.00000000000E+00  0.00000000000E+00 -0.38934611517E+03  0.38934611517E+03  0.25500000920E-02 0.  1.
    10030    2    1    2    0    0  0.00000000000E+00  0.00000000000E+00  0.89590061026E+03  0.16745928406E+04  0.14147873615E+04 0.  0.
        5    1    3    3  502    0  0.69732941289E+03 -0.68487639726E+02  0.33304090039E+03  0.77582033887E+03  0.46999998093E+01 0.  1.
       -5    1    3    3    0  502 -0.69732941289E+03  0.68487639726E+02  0.56285970986E+03  0.89877250173E+03  0.46999998093E+01 0. -1.
</event>
<event>
 5   0  0.7065539E-04  0.1392267E+04  0.7818609E-02  0.8959435E-01
       -2   -1    0    0    0  501  0.00000000000E+00  0.00000000000E+00  0.51162016877E+03  0.51162016878E+03  0.25500000920E-02 0.  1.
        2   -1    0    0  501    0  0.00000000000E+00  0.00000000000E+00 -0.94719046409E+03  0.94719046409E+03  0.25500000920E-02 0. -1.
    10030    2    1    2    0    0  0.00000000000E+00  0.00000000000E+00 -0.43557029532E+03  0.14588106329E+04  0.13922668496E+04 0.  0.
        1    1    3    3  502    0 -0.29787628425E+03  0.45101030126E+03 -0.67745709563E+03  0.86665373074E+03  0.50400001928E-02 0. -1.
       -1    1    3    3    0  502  0.29787628425E+03 -0.45101030126E+03  0.24188680031E+03  0.59215690214E+03  0.50400001928E-02 0.  1.
</event>
<event>
 5   0  0.3907270E-04  0.1406641E+04  0.7818609E-02  0.8949026E-01
       -1   -1    0    0    0  501  0.00000000000E+00  0.00000000000E+00  0.43256665458E+03  0.43256665461E+03  0.50400001928E-02 0. -1.
        1   -1    0    0  501    0  0.00000000000E+00  0.00000000000E+00 -0.11435455086E+04  0.11435455086E+04  0.50400001928E-02 0.  1.
    10030    2    1    2    0    0  0.00000000000E+00  0.00000000000E+00 -0.71097885403E+03  0.15761121632E+04  0.14066408995E+04 0.  0.
        3    1    3    3  502    0  0.18344669826E+03  0.57641158394E+03  0.46568562515E+02  0.60668908547E+03  0.10100000352E+00 0. -1.
       -3    1    3    3    0  502 -0.18344669826E+03 -0.57641158394E+03 -0.75754741655E+03  0.96942307778E+03  0.10100000352E+00 0.  1.
</event>
<event>
 5   0  0.3907270E-04  0.1406087E+04  0.7818609E-02  0.8949425E-01
        1   -1    0    0  501    0  0.00000000000E+00  0.00000000000E+00  0.40184056263E+03  0.40184056266E+03  0.50400001928E-02 0.  1.
       -1   -1    0    0    0  501  0.00000000000E+00  0.00000000000E+00 -0.12300149058E+04  0.12300149058E+04  0.50400001928E-02 0. -1.
    10030    2    1    2    0    0  0.00000000000E+00  0.00000000000E+00 -0.82817434314E+03  0.16318554684E+04  0.14060866002E+04 0.  0.
        3    1    3    3  502    0  0.59042114148E+03  0.18230833761E+03 -0.24931717893E+02  0.61842950691E+03  0.10100000352E+00 0.  1.
       -3    1    3    3    0  502 -0.59042114148E+03 -0.18230833761E+03 -0.80324262524E+03  0.10134259615E+04  0.10100000352E+00 0. -1.
</event>
<event>
 5   0  0.7065539E-04  0.1404706E+04  0.7818609E-02  0.8950419E-01
       -2   -1    0    0    0  501  0.00000000000E+00  0.00000000000E+00  0.50645381810E+03  0.50645381811E+03  0.25500000920E-02 0. -1.
        2   -1    0    0  501    0  0.00000000000E+00  0.00000000000E+00 -0.97402691658E+03  0.97402691659E+03  0.25500000920E-02 0.  1.
    10030    2    1    2    0    0  0.00000000000E+00  0.00000000000E+00 -0.46757309848E+03  0.14804807347E+04  0.14047058779E+04 0.  0.
        1    1    3    3  502    0 -0.44703045067E+03 -0.11381943456E+03  0.32441420963E+03  0.56394651071E+03  0.50400001928E-02 0. -1.
       -1    1    3    3    0  502  0.44703045067E+03  0.11381943456E+03 -0.79198730811E+03  0.91653422399E+03  0.50400001928E-02 0.  1.
</event>
<event>
 5   0  0.3784219E-04  0.1452081E+04  0.7818609E-02  0.8916959E-01
       -1   -1    0    0    0  501  0.00000000000E+00  0.00000000000E+00  0.24432981736E+03  0.24432981741E+03  0.50400001928E-02 0. -1.
        1   -1    0    0  501    0  0.00000000000E+00  0.00000000000E+00 -0.21574716829E+04  0.21574716829E+04  0.50400001928E-02 0.  1.
    10030    2    1    2    0    0  0.00000000000E+00  0.00000000000E+00 -0.19131418656E+04  0.24018015004E+04  0.14520807999E+04 0.  0.
        1    1    3    3  502    0 -0.11742697736E+03  0.67168008608E+03 -0.13690591977E+04  0.15294660245E+04  0.50400001928E-02 0.  1.
       -1    1    3    3    0  502  0.11742697736E+03 -0.67168008608E+03 -0.54408266785E+03  0.87233547591E+03  0.50400001928E-02 0. -1.
</event>
<event>
 5   0  0.3756664E-04  0.1395231E+04  0.7818609E-02  0.8957278E-01
       -1   -1    0    0    0  501  0.00000000000E+00  0.00000000000E+00  0.55992465908E+03  0.55992465910E+03  0.50400001928E-02 0. -1.
        1   -1    0    0  501    0  0.00000000000E+00  0.00000000000E+00 -0.86916578221E+03  0.86916578223E+03  0.50400001928E-02 0.  1.
    10030    2    1    2    0    0  0.00000000000E+00  0.00000000000E+00 -0.30924112314E+03  0.14290904413E+04  0.13952309548E+04 0.  0.
        2    1    3    3  502    0  0.35943661057E+03  0.98159356098E+02  0.44946959729E+03  0.58382604866E+03  0.25500000920E-02 0. -1.
       -2    1    3    3    0  502 -0.35943661057E+03 -0.98159356098E+02 -0.75871072043E+03  0.84526439266E+03  0.25500000920E-02 0.  1.
</event>
<event>
 5   0  0.3907093E-04  0.1395112E+04  0.7818609E-02  0.8957364E-01
        1   -1    0    0  501    0  0.00000000000E+00  0.00000000000E+00  0.12773098094E+04  0.12773098094E+04  0.50400001928E-02 0. -1.
       -1   -1    0    0    0  501  0.00000000000E+00  0.00000000000E+00 -0.38094490735E+03  0.38094490738E+03  0.50400001928E-02 0.  1.
    10030    2    1    2    0    0  0.00000000000E+00  0.00000000000E+00  0.89636490208E+03  0.16582547168E+04  0.13951124213E+04 0.  0.
        4    1    3    3  502    0 -0.39680580670E+03 -0.15517928069E+03 -0.20830410957E+03  0.47426540286E+03  0.12699999809E+01 0.  1.
       -4    1    3    3    0  502  0.39680580670E+03  0.15517928069E+03  0.11046690116E+04  0.11839893140E+04  0.12699999809E+01 0. -1.
</event>
<event>
 5   0  0.3756664E-04  0.1399120E+04  0.7818609E-02  0.8954456E-01
       -1   -1    0    0    0  501  0.00000000000E+00  0.00000000000E+00  0.26846487620E+03  0.26846487625E+03  0.50400001928E-02 0.  1.
        1   -1    0    0  501    0  0.00000000000E+00  0.00000000000E+00 -0.18228986459E+04  0.18228986459E+04  0.50400001928E-02 0. -1.
    10030    2    1    2    0    0  0.00000000000E+00  0.00000000000E+00 -0.15544337697E+04  0.20913635222E+04  0.13991200940E+04 0.  0.
        2    1    3    3  502    0  0.16289460136E+03  0.44504871470E+03 -0.80543028678E+01  0.47399143600E+03  0.25500000920E-02 0.  1.
       -2    1    3    3    0  502 -0.16289460136E+03 -0.44504871470E+03 -0.15463794669E+04  0.16173720862E+04  0.25500000920E-02 0. -1.
</event>
<event>
 5   0  0.3784219E-04  0.1507249E+04  0.7818609E-02  0.8879646E-01
        1   -1    0    0  501    0  0.00000000000E+00  0.00000000000E+00  0.13004161221E+04  0.13004161221E+04  0.50400001928E-02 0.  1.
       -1   -1    0    0    0  501  0.00000000000E+00  0.00000000000E+00 -0.43674496208E+03  0.43674496211E+03  0.50400001928E-02 0. -1.
    10030    2    1    2    0    0  0.00000000000E+00  0.00000000000E+00  0.86367115999E+03  0.17371610842E+04  0.15072494020E+04 0.  0.
        1    1    3    3  502    0  0.63657578004E+03 -0.87987143078E+02  0.88556027760E+03  0.10941606218E+04  0.50400001928E-02 0.  1.
       -1    1    3    3    0  502 -0.63657578004E+03  0.87987143078E+02 -0.21889117616E+02  0.64300046235E+03  0.50400001928E-02 0. -1.
</event>
<event>
 5   0  0.3907270E-04  0.1368159E+04  0.7818609E-02  0.8977195E-01
        1   -1    0    0  501    0  0.00000000000E+00  0.00000000000E+00  0.44507890601E+03  0.44507890604E+03  0.50400001928E-02 0. -1.
       -1   -1    0    0    0  501  0.00000000000E+00  0.00000000000E+00 -0.10514201584E+04  0.10514201584E+04  0.50400001928E-02 0.  1.
    10030    2    1    2    0    0  0.00000000000E+00  0.00000000000E+00 -0.60634125242E+03  0.14964990645E+04  0.13681592508E+04 0.  0.
        3    1    3    3  502    0  0.24858853574E+03  0.53506646452E+03 -0.68187442029E+03  0.90169014457E+03  0.10100000352E+00 0.  1.
       -3    1    3    3    0  502 -0.24858853574E+03 -0.53506646452E+03  0.75533167876E+02  0.59480891991E+03  0.10100000352E+00 0. -1.
</event>
<event>
 5   0  0.3907093E-04  0.1398362E+04  0.7818609E-02  0.8955005E-01
       -1   -1    0    0    0  501  0.00000000000E+00  0.00000000000E+00  0.63958203036E+03  0.63958203038E+03  0.50400001928E-02 0. -1.
        1   -1    0    0  501    0  0.00000000000E+00  0.00000000000E+00 -0.76433332750E+03  0.76433332752E+03  0.50400001928E-02 0.  1.
    10030    2    1    2    0    0  0.00000000000E+00  0.00000000000E+00 -0.12475129714E+03  0.14039153579E+04  0.13983617007E+04 0.  0.
        4    1    3    3  502    0  0.61658185350E+02  0.69404832573E+03 -0.12046248133E+03  0.70711924919E+03  0.12699999809E+01 0.  1.
       -4    1    3    3    0  502 -0.61658185350E+02 -0.69404832573E+03 -0.42888158060E+01  0.69679610871E+03  0.12699999809E+01 0. -1.
</event>
<event>
 5   0  0.7296966E-04  0.1395511E+04  0.7818609E-02  0.8957074E-01
       -2   -1    0    0    0  501  0.00000000000E+00  0.00000000000E+00  0.93372610930E+03  0.93372610930E+03  0.25500000920E-02 0. -1.
        2   -1    0    0  501    0  0.00000000000E+00  0.00000000000E+00 -0.52141907445E+03  0.52141907446E+03  0.25500000920E-02 0.  1.
    10030    2    1    2    0    0  0.00000000000E+00  0.00000000000E+00  0.41230703484E+03  0.14551451838E+04  0.13955108079E+04 0.  0.
        3    1    3    3  502    0 -0.48326685433E+03 -0.38089449686E+03  0.54920336440E+03  0.82477379681E+03  0.10100000352E+00 0. -1.
       -3    1    3    3    0  502  0.48326685433E+03  0.38089449686E+03 -0.13689632956E+03  0.63037138695E+03  0.10100000352E+00 0.  1.
</event>
<event>
 5   0  0.3756664E-04  0.1395843E+04  0.7818609E-02  0.8956833E-01
        1   -1    0    0  501    0  0.00000000000E+00  0.00000000000E+00  0.58731525550E+03  0.58731525553E+03  0.50400001928E-02 0.  1.
       -1   -1    0    0    0  501  0.00000000000E+00  0.00000000000E+00 -0.82935812413E+03  0.82935812415E+03  0.50400001928E-02 0. -1.
    10030    2    1    2    0    0  0.00000000000E+00  0.00000000000E+00 -0.24204286863E+03  0.14166733797E+04  0.13958433703E+04 0.  0.
        2    1    3    3  502    0  0.62318073145E+02  0.14690758220E+03  0.56855073843E+03  0.59052122919E+03  0.25500000920E-02 0.  1.
       -2    1    3    3    0  502 -0.62318073145E+02 -0.14690758220E+03 -0.81059360706E+03  0.82615215049E+03  0.25500000920E-02 0. -1.
</event>
<event>
 5   0  0.3907270E-04  0.1397847E+04  0.7818609E-02  0.8955379E-01
        1   -1    0    0  501    0  0.00000000000E+00  0.00000000000E+00  0.99959717629E+03  0.99959717630E+03  0.50400001928E-02 0.  1.
       -1   -1    0    0    0  501  0.00000000000E+00  0.00000000000E+00 -0.48869068654E+03  0.48869068656E+03  0.50400001928E-02 0. -1.
    10030    2    1    2    0    0  0.00000000000E+00  0.00000000000E+00  0.51090648975E+03  0.14882878629E+04  0.13978466731E+04 0.  0.
        3    1    3    3  502    0 -0.43297646881E+03  0.24615833725E+03  0.77751620160E+03  0.92336016997E+03  0.10100000352E+00 0.  1.
       -3    1    3    3    0  502  0.43297646881E+03 -0.24615833725E+03 -0.26660971185E+03  0.56492769289E+03  0.10100000352E+00 0. -1.
</event>
<event>
 5   0  0.3756664E-04  0.1408612E+04  0.7818609E-02  0.8947608E-01
        1   -1    0    0  501    0  0.00000000000E+00  0.00000000000E+00  0.11462889016E+04  0.11462889016E+04  0.50400001928E-02 0.  1.
       -1   -1    0    0    0  501  0.00000000000E+00  0.00000000000E+00 -0.43274146299E+03  0.43274146302E+03  0.50400001928E-02 0. -1.
    10030    2    1    2    0    0  0.00000000000E+00  0.00000000000E+00  0.71354743857E+03  0.15790303646E+04  0.14086117085E+04 0.  0.
        2    1    3    3  502    0  0.51958737649E+03  0.47205552517E+03  0.29297335769E+03  0.76068446085E+03  0.25500000920E-02 0. -1.
       -2    1    3    3    0  502 -0.51958737649E+03 -0.47205552517E+03  0.42057408088E+03  0.81834590374E+03  0.25500000920E-02 0.  1.
</event>
<event>
 5   0  0.7065539E-04  0.1386666E+04  0.7818609E-02  0.8963527E-01
        2   -1    0    0  501    0  0.00000000000E+00  0.00000000000E+00  0.11796234943E+04  0.11796234943E+04  0.25500000920E-02 0. -1.
       -2   -1    0    0    0  501  0.00000000000E+00  0.00000000000E+00 -0.40751186604E+03  0.40751186605E+03  0.25500000920E-02 0.  1.
    10030    2    1    2    0    0  0.00000000000E+00  0.00000000000E+00  0.77211162829E+03  0.15871353604E+04  0.13866658883E+04 0.  0.
        1    1    3    3  502    0 -0.65737593586E+02  0.44058111022E+03 -0.22205147526E+03  0.49773487278E+03  0.50400001928E-02 0.  1.
       -1    1    3    3    0  502  0.65737593586E+02 -0.44058111022E+03  0.99416310355E+03  0.10894004876E+04  0.50400001928E-02 0. -1.
</event>
<event>
 5   0  0.3784219E-04  0.1411002E+04  0.7818609E-02  0.8945893E-01
       -1   -1    0    0    0  501  0.00000000000E+00  0.00000000000E+00  0.51070079168E+03  0.51070079171E+03  0.50400001928E-02 0. -1.
        1   -1    0    0  501    0  0.00000000000E+00  0.00000000000E+00 -0.97460458053E+03  0.97460458054E+03  0.50400001928E-02 0.  1.
    10030    2    1    2    0    0  0.00000000000E+00  0.00000000000E+00 -0.46390378885E+03  0.14853053723E+04  0.14110015321E+04 0.  0.
        1    1    3    3  502    0 -0.43605322065E+01  0.14117604465E+03 -0.95956915931E+03  0.96990858402E+03  0.50400001928E-02 0.  1.
       -1    1    3    3    0  502  0.43605322065E+01 -0.14117604465E+03  0.49566537046E+03  0.51539678823E+03  0.50400001928E-02 0. -1.
</event>
<event>
 5   0  0.6870835E-04  0.1307329E+04  0.7818609E-02  0.9023773E-01
        2   -1    0    0  501    0  0.00000000000E+00  0.00000000000E+00  0.93385637115E+03  0.93385637115E+03  0.25500000920E-02 0. -1.
       -2   -1    0    0    0  501  0.00000000000E+00  0.00000000000E+00 -0.45754054952E+03  0.45754054952E+03  0.25500000920E-02 0.  1.
    10030    2    1    2    0    0  0.00000000000E+00  0.00000000000E+00  0.47631582163E+03  0.13913969207E+04  0.13073288144E+04 0.  0.
        2    1    3    3  502    0  0.62852854046E+03  0.31375774199E+02  0.50029826845E+02  0.63129672022E+03  0.25500000920E-02 0.  1.
       -2    1    3    3    0  502 -0.62852854046E+03 -0.31375774199E+02  0.42628599479E+03  0.76010020046E+03  0.25500000920E-02 0. -1.
</event>
<event>
 5   0  0.3977658E-04  0.1397882E+04  0.7818609E-02  0.8955353E-01
        1   -1    0    0  501    0  0.00000000000E+00  0.00000000000E+00  0.45586615060E+03  0.45586615063E+03  0.50400001928E-02 0.  1.
       -1   -1    0    0    0  501  0.00000000000E+00  0.00000000000E+00 -0.10716272043E+04  0.10716272043E+04  0.50400001928E-02 0. -1.
    10030    2    1    2    0    0  0.00000000000E+00  0.00000000000E+00 -0.61576105367E+03  0.15274933549E+04  0.13978820673E+04 0.  0.
        5    1    3    3  502    0  0.52352166965E+03 -0.66269861372E+02  0.19290215587E+03  0.56187184025E+03  0.46999998093E+01 0.  1.
       -5    1    3    3    0  502 -0.52352166965E+03  0.66269861372E+02 -0.80866320954E+03  0.96562151467E+03  0.46999998093E+01 0. -1.
</event>
<event>
 5   0  0.3907093E-04  0.1414063E+04  0.7818609E-02  0.8943702E-01
        1   -1    0    0  501    0  0.00000000000E+00  0.00000000000E+00  0.38072004370E+03  0.38072004373E+03  0.50400001928E-02 0.  1.
       -1   -1    0    0    0  501  0.00000000000E+00  0.00000000000E+00 -0.13130210847E+04  0.13130210847E+04  0.50400001928E-02 0. -1.
    10030    2    1    2    0    0  0.00000000000E+00  0.00000000000E+00 -0.93230104096E+03  0.16937411284E+04  0.14140628625E+04 0.  0.
        4    1    3    3  502    0  0.40091291930E+03  0.57350832106E+03 -0.34489087869E+03  0.78012453768E+03  0.12699999809E+01 0.  1.
       -4    1    3    3    0  502 -0.40091291930E+03 -0.57350832106E+03 -0.58741016227E+03  0.91361659072E+03  0.12699999809E+01 0. -1.
</event>
<event>
 5   0  0.3907270E-04  0.1401678E+04  0.7818609E-02  0.8952605E-01
       -1   -1    0    0    0  501  0.00000000000E+00  0.00000000000E+00  0.23506918259E+03  0.23506918265E+03  0.50400001928E-02 0.  1.
        1   -1    0    0  501    0  0.00000000000E+00  0.00000000000E+00 -0.20894923966E+04  0.20894923966E+04  0.50400001928E-02 0. -1.
    10030    2    1    2    0    0  0.00000000000E+00  0.00000000000E+00 -0.18544232140E+04  0.23245615792E+04  0.14016779513E+04 0.  0.
        3    1    3    3  502    0  0.82502097998E+02 -0.68978578057E+03 -0.77373675040E+03  0.10398459445E+04  0.10100000352E+00 0. -1.
       -3    1    3    3    0  502 -0.82502097998E+02  0.68978578057E+03 -0.10806864636E+04  0.12847156347E+04  0.10100000352E+00 0.  1.
</event>
<event>
 5   0  0.2660250E-04  0.1395931E+04  0.7818609E-02  0.8956769E-01
       -3   -1    0    0    0  501  0.00000000000E+00  0.00000000000E+00  0.90894647853E+03  0.90894648414E+03  0.10100000352E+00 0.  1.
        3   -1    0    0  501    0  0.00000000000E+00  0.00000000000E+00 -0.53595662401E+03  0.53595663353E+03  0.10100000352E+00 0. -1.
    10030    2    1    2    0    0  0.00000000000E+00  0.00000000000E+00  0.37298985452E+03  0.14449031177E+04  0.13959310828E+04 0.  0.
        3    1    3    3  502    0  0.27830187531E+03 -0.60543343251E+03 -0.28529028815E+02  0.66694489329E+03  0.10100000352E+00 0. -1.
       -3    1    3    3    0  502 -0.27830187531E+03  0.60543343251E+03  0.40151888333E+03  0.77795822437E+03  0.10100000352E+00 0.  1.
</event>
<event>
 5   0  0.7296966E-04  0.1386890E+04  0.7818609E-02  0.8963364E-01
       -2   -1    0    0    0  501  0.00000000000E+00  0.00000000000E+00  0.10586534989E+04  0.10586534989E+04  0.25500000920E-02 0.  1.
        2   -1    0    0  501    0  0.00000000000E+00  0.00000000000E+00 -0.45422385229E+03  0.45422385229E+03  0.25500000920E-02 0. -1.
    10030    2    1    2    0    0  0.00000000000E+00  0.00000000000E+00  0.60442964659E+03  0.15128773512E+04  0.13868895710E+04 0.  0.
        3    1    3    3  502    0  0.10463430835E+03  0.27767409974E+03 -0.38146938355E+03  0.48329095267E+03  0.10100000352E+00 0. -1.
       -3    1    3    3    0  502 -0.10463430835E+03 -0.27767409974E+03  0.98589903014E+03  0.10295863985E+04  0.10100000352E+00 0.  1.
</event>
<event>
 5   0  0.6895048E-04  0.1416752E+04  0.7818609E-02  0.8941781E-01
       -2   -1    0    0    0  501  0.00000000000E+00  0.00000000000E+00  0.11113175545E+04  0.11113175545E+04  0.25500000920E-02 0.  1.
        2   -1    0    0  501    0  0.00000000000E+00  0.00000000000E+00 -0.45153294222E+03  0.45153294223E+03  0.25500000920E-02 0. -1.
    10030    2    1    2    0    0  0.00000000000E+00  0.00000000000E+00  0.65978461224E+03  0.15628504967E+04  0.14167518980E+04 0.  0.
        4    1    3    3  502    0  0.49571895234E+03  0.31727899075E+03 -0.10495566635E+03  0.59784658775E+03  0.12699999809E+01 0. -1.
       -4    1    3    3    0  502 -0.49571895234E+03 -0.31727899075E+03  0.76474027859E+03  0.96500390894E+03  0.12699999809E+01 0.  1.
</event>
<event>
 5   0  0.3907093E-04  0.1405544E+04  0.7818609E-02  0.8949815E-01
       -1   -1    0    0    0  501  0.00000000000E+00  0.00000000000E+00  0.19985489424E+03  0.19985489431E+03  0.50400001928E-02 0. -1.
        1   -1    0    0  501    0  0.00000000000E+00  0.00000000000E+00 -0.24712365387E+04  0.24712365387E+04  0.50400001928E-02 0.  1.
    10030    2    1    2    0    0  0.00000000000E+00  0.00000000000E+00 -0.22713816444E+04  0.26710914330E+04  0.14055443318E+04 0.  0.
        4    1    3    3  502    0  0.41236390399E+03  0.13396442792E+03 -0.84621005758E+02  0.44176100414E+03  0.12699999809E+01 0. -1.
       -4    1    3    3    0  502 -0.41236390399E+03 -0.13396442792E+03 -0.21867606387E+04  0.22293304288E+04  0.12699999809E+01 0.  1.
</event>
<event>
 5   0  0.3977658E-04  0.1404389E+04  0.7818609E-02  0.8950648E-01
       -1   -1    0    0    0  501  0.00000000000E+00  0.00000000000E+00  0.35731397542E+03  0.35731397545E+03  0.50400001928E-02 0.  1.
        1   -1    0    0  501    0  0.00000000000E+00  0.00000000000E+00 -0.13799541254E+04  0.13799541255E+04  0.50400001928E-02 0. -1.
    10030    2    1    2    0    0  0.00000000000E+00  0.00000000000E+00 -0.10226401500E+04  0.17372681009E+04  0.14043886848E+04 0.  0.
        5    1    3    3  502    0  0.17218901514E+03  0.25302434012E+03 -0.12930830340E+04  0.13288175934E+04  0.46999998093E+01 0. -1.
       -5    1    3    3    0  502 -0.17218901514E+03 -0.25302434012E+03  0.27044288397E+03  0.40845050755E+03  0.46999998093E+01 0.  1.
</event>
<event>
 5   0  0.7296966E-04  0.1395080E+04  0.7818609E-02  0.8957387E-01
        2   -1    0    0  501    0  0.00000000000E+00  0.00000000000E+00  0.11081908881E+04  0.11081908881E+04  0.25500000920E-02 0.  1.
       -2   -1    0    0    0  501  0.00000000000E+00  0.00000000000E+00 -0.43906004490E+03  0.43906004491E+03  0.25500000920E-02 0. -1.
    10030    2    1    2    0    0  0.00000000000E+00  0.00000000000E+00  0.66913084315E+03  0.15472509330E+04  0.13950804150E+04 0.  0.
        3    1    3    3  502    0 -0.55003507490E+03  0.14839717928E+03 -0.11183205632E+03  0.58057447883E+03  0.10100000352E+00 0.  1.
       -3    1    3    3    0  502  0.55003507490E+03 -0.14839717928E+03  0.78096289947E+03  0.96667645414E+03  0.10100000352E+00 0. -1.
</event>
<event>
 5   0  0.3907093E-04  0.1378843E+04  0.7818609E-02  0.8969277E-01
        1   -1    0    0  501    0  0.00000000000E+00  0.00000000000E+00  0.17770527100E+04  0.17770527101E+04  0.50400001928E-02 0.  1.
       -1   -1    0    0    0  501  0.00000000000E+00  0.00000000000E+00 -0.26746653601E+03  0.26746653606E+03  0.50400001928E-02 0. -1.
    10030    2    1    2    0    0  0.00000000000E+00  0.00000000000E+00  0.15095861740E+04  0.20445192461E+04  0.13788431858E+04 0.  0.
        4    1    3    3  502    0 -0.10775464170E+03 -0.50287240478E+03  0.14355948875E+04  0.15249347567E+04  0.12699999809E+01 0.  1.
       -4    1    3    3    0  502  0.10775464170E+03  0.50287240478E+03  0.73991286584E+02  0.51958448946E+03  0.12699999809E+01 0. -1.
</event>
<event>
 5   0  0.7296966E-04  0.1369755E+04  0.7818609E-02  0.8976007E-01
        2   -1    0    0  501    0  0.00000000000E+00  0.00000000000E+00  0.18702565490E+04  0.18702565490E+04  0.25500000920E-02 0.  1.
       -2   -1    0    0    0  501  0.00000000000E+00  0.00000000000E+00 -0.25079817316E+03  0.25079817317E+03  0.25500000920E-02 0. -1.
    10030    2    1    2    0    0  0.00000000000E+00  0.00000000000E+00  0.16194583759E+04  0.21210547222E+04  0.13697546143E+04 0.  0.
        3    1    3    3  502    0  0.33626387963E+03 -0.37185352570E+03  0.87214353511E+02  0.50887601140E+03  0.10100000352E+00 0. -1.
       -3    1    3    3    0  502 -0.33626387963E+03  0.37185352570E+03  0.15322440224E+04  0.16121787108E+04  0.10100000352E+00 0.  1.
</event>
<event>
 5   0  0.3977658E-04  0.1410564E+04  0.7818609E-02  0.8946207E-01
        1   -1    0    0  501    0  0.00000000000E+00  0.00000000000E+00  0.21296384339E+04  0.21296384339E+04  0.50400001928E-02 0. -1.
       -1   -1    0    0    0  501  0.00000000000E+00  0.00000000000E+00 -0.23357129589E+03  0.23357129595E+03  0.50400001928E-02 0.  1.
    10030    2    1    2    0    0  0.00000000000E+00  0.00000000000E+00  0.18960671380E+04  0.23632097299E+04  0.14105635879E+04 0.  0.
        5    1    3    3  502    0  0.28744462452E+03  0.22920664679E+03 -0.60308604026E+02  0.37258464383E+03  0.46999998093E+01 0.  1.
       -5    1    3    3    0  502 -0.28744462452E+03 -0.22920664679E+03  0.19563757420E+04  0.19906250860E+04  0.46999998093E+01 0. -1.
</event>
<event>
 5   0  0.3756664E-04  0.1405624E+04  0.7818609E-02  0.8949758E-01
        1   -1    0    0  501    0  0.00000000000E+00  0.00000000000E+00  0.54273907178E+03  0.54273907180E+03  0.50400001928E-02 0.  1.
       -1   -1    0    0    0  501  0.00000000000E+00  0.00000000000E+00 -0.91009610788E+03  0.91009610790E+03  0.50400001928E-02 0. -1.
    10030    2    1    2    0    0  0.00000000000E+00  0.00000000000E+00 -0.36735703610E+03  0.14528351797E+04  0.14056240135E+04 0.  0.
        2    1    3    3  502    0 -0.63896176090E+03  0.21119535146E+03  0.25783275148E+02  0.67345407093E+03  0.25500000920E-02 0.  1.
       -2    1    3    3    0  502  0.63896176090E+03 -0.21119535146E+03 -0.39314031125E+03  0.77938110877E+03  0.25500000920E-02 0. -1.
</event>
<event>
 5   0  0.6959748E-04  0.1404891E+04  0.7818609E-02  0.8950286E-01
        2   -1    0    0  501    0  0.00000000000E+00  0.00000000000E+00  0.89078996060E+03  0.89078996060E+03  0.25500000920E-02 0.  1.
       -2   -1    0    0    0  501  0.00000000000E+00  0.00000000000E+00 -0.55392392158E+03  0.55392392159E+03  0.25500000920E-02 0. -1.
    10030    2    1    2    0    0  0.00000000000E+00  0.00000000000E+00  0.33686603901E+03  0.14447138822E+04  0.14048912674E+04 0.  0.
        5    1    3    3  502    0  0.29599626448E+03 -0.60959728064E+03 -0.21700132082E+02  0.67802331736E+03  0.46999998093E+01 0.  1.
       -5    1    3    3    0  502 -0.29599626448E+03  0.60959728064E+03  0.35856617110E+03  0.76669056483E+03  0.46999998093E+01 0. -1.
</event>
<event>
 5   0  0.3784219E-04  0.1397076E+04  0.7818609E-02  0.8955938E-01
       -1   -1    0    0    0  501  0.00000000000E+00  0.00000000000E+00  0.53817931966E+03  0.53817931969E+03  0.50400001928E-02 0. -1.
        1   -1    0    0  501    0  0.00000000000E+00  0.00000000000E+00 -0.90667833072E+03  0.90667833073E+03  0.50400001928E-02 0.  1.
    10030    2    1    2    0    0  0.00000000000E+00  0.00000000000E+00 -0.36849901105E+03  0.14448576504E+04  0.13970762717E+04 0.  0.
        1    1    3    3  502    0 -0.44572388265E+03 -0.37472117073E+03  0.21478296390E+03  0.62065888938E+03  0.50400001928E-02 0.  1.
       -1    1    3    3    0  502  0.44572388265E+03  0.37472117073E+03 -0.58328197496E+03  0.82419876104E+03  0.50400001928E-02 0. -1.
</event>
<event>
 5   0  0.3784219E-04  0.1399974E+04  0.7818609E-02  0.8953837E-01
        1   -1    0    0  501    0  0.00000000000E+00  0.00000000000E+00  0.36877491402E+03  0.36877491406E+03  0.50400001928E-02 0.  1.
       -1   -1    0    0    0  501  0.00000000000E+00  0.00000000000E+00 -0.13286751561E+04  0.13286751561E+04  0.50400001928E-02 0. -1.
    10030    2    1    2    0    0  0.00000000000E+00  0.00000000000E+00 -0.95990024211E+03  0.16974500702E+04  0.13999743805E+04 0.  0.
        1    1    3    3  502    0  0.40015762292E+03  0.63503602635E+02 -0.11720486825E+04  0.12401036025E+04  0.50400001928E-02 0. -1.
       -1    1    3    3    0  502 -0.40015762292E+03 -0.63503602635E+02  0.21214844040E+03  0.45734646770E+03  0.50400001928E-02 0.  1.
</event>
<event>
 5   0  0.7296966E-04  0.1558427E+04  0.7818609E-02  0.8846503E-01
       -2   -1    0    0    0  501  0.00000000000E+00  0.00000000000E+00  0.71067094562E+03  0.71067094563E+03  0.25500000920E-02 0. -1.
        2   -1    0    0  501    0  0.00000000000E+00  0.00000000000E+00 -0.85436685905E+03  0.85436685906E+03  0.25500000920E-02 0.  1.
    10030    2    1    2    0    0  0.00000000000E+00  0.00000000000E+00 -0.14369591343E+03  0.15650378047E+04  0.15584270322E+04 0.  0.
        3    1    3    3  502    0 -0.60526396544E+03 -0.48912128911E+03 -0.31809167493E+02  0.77884269058E+03  0.10100000352E+00 0. -1.
       -3    1    3    3    0  502  0.60526396544E+03  0.48912128911E+03 -0.11188674594E+03  0.78619511411E+03  0.10100000352E+00 0.  1.
</event>
<event>
 5   0  0.3907093E-04  0.1393999E+04  0.7818609E-02  0.8958174E-01
       -1   -1    0    0    0  501  0.00000000000E+00  0.00000000000E+00  0.63159195547E+03  0.63159195549E+03  0.50400001928E-02 0. -1.
        1   -1    0    0  501    0  0.00000000000E+00  0.00000000000E+00 -0.76918046799E+03  0.76918046801E+03  0.50400001928E-02 0.  1.
    10030    2    1    2    0    0  0.00000000000E+00  0.00000000000E+00 -0.13758851252E+03  0.14007724235E+04  0.13939988464E+04 0.  0.
        4    1    3    3  502    0  0.59720719693E+03  0.46930235444E+02 -0.42682274667E+03  0.73555295733E+03  0.12699999809E+01 0. -1.
       -4    1    3    3    0  502 -0.59720719693E+03 -0.46930235444E+02  0.28923423415E+03  0.66521946617E+03  0.12699999809E+01 0.  1.
</event>
<event>
 5   0  0.3784219E-04  0.1409283E+04  0.7818609E-02  0.8947127E-01
        1   -1    0    0  501    0  0.00000000000E+00  0.00000000000E+00  0.20453972456E+04  0.20453972456E+04  0.50400001928E-02 0. -1.
       -1   -1    0    0    0  501  0.00000000000E+00  0.00000000000E+00 -0.24274956869E+03  0.24274956875E+03  0.50400001928E-02 0.  1.
    10030    2    1    2    0    0  0.00000000000E+00  0.00000000000E+00  0.18026476769E+04  0.22881468143E+04  0.14092825114E+04 0.  0.
        1    1    3    3  502    0  0.13891145127E+03 -0.51956604780E+03  0.16213011654E+03  0.56172185647E+03  0.50400001928E-02 0.  1.
       -1    1    3    3    0  502 -0.13891145127E+03  0.51956604780E+03  0.16405175603E+04  0.17264249579E+04  0.50400001928E-02 0. -1.
</event>
<event>
 5   0  0.6959748E-04  0.1410550E+04  0.7818609E-02  0.8946217E-01
       -2   -1    0    0    0  501  0.00000000000E+00  0.00000000000E+00  0.37158430559E+03  0.37158430560E+03  0.25500000920E-02 0.  1.
        2   -1    0    0  501    0  0.00000000000E+00  0.00000000000E+00 -0.13386275136E+04  0.13386275136E+04  0.25500000920E-02 0. -1.
    10030    2    1    2    0    0  0.00000000000E+00  0.00000000000E+00 -0.96704320802E+03  0.17102118192E+04  0.14105502119E+04 0.  0.
        5    1    3    3  502    0 -0.36095069132E+03 -0.41091198004E+03  0.56331285097E+02  0.54984485137E+03  0.46999998093E+01 0. -1.
       -5    1    3    3    0  502  0.36095069132E+03  0.41091198004E+03 -0.10233744931E+04  0.11603669678E+04  0.46999998093E+01 0.  1.
</event>
<event>
 5   0  0.3977658E-04  0.1383394E+04  0.7818609E-02  0.8965927E-01
       -1   -1    0    0    0  501  0.00000000000E+00  0.00000000000E+00  0.76543733926E+03  0.76543733928E+03  0.50400001928E-02 0. -1.
        1   -1    0    0  501    0  0.00000000000E+00  0.00000000000E+00 -0.62506054787E+03  0.62506054789E+03  0.50400001928E-02 0.  1.
    10030    2    1    2    0    0  0.00000000000E+00  0.00000000000E+00  0.14037679139E+03  0.13904978872E+04  0.13833939174E+04 0.  0.
        5    1    3    3  502    0 -0.18806447843E+03 -0.61581540128E+03 -0.18374650125E+03  0.66961311458E+03  0.46999998093E+01 0.  1.
       -5    1    3    3    0  502  0.18806447843E+03  0.61581540128E+03  0.32412329265E+03  0.72088477258E+03  0.46999998093E+01 0. -1.
</event>
<event>
 5   0  0.7296966E-04  0.1420037E+04  0.7818609E-02  0.8939441E-01
        2   -1    0    0  501    0  0.00000000000E+00  0.00000000000E+00  0.14136274549E+04  0.14136274549E+04  0.25500000920E-02 0. -1.
       -2   -1    0    0    0  501  0.00000000000E+00  0.00000000000E+00 -0.35661908998E+03  0.35661908999E+03  0.25500000920E-02 0.  1.
    10030    2    1    2    0    0  0.00000000000E+00  0.00000000000E+00  0.10570083649E+04  0.17702465448E+04  0.14200373749E+04 0.  0.
        3    1    3    3  502    0  0.36337283009E+03  0.57868482808E+03  0.76897767680E+03  0.10287092016E+04  0.10100000352E+00 0. -1.
       -3    1    3    3    0  502 -0.36337283009E+03 -0.57868482808E+03  0.28803068807E+03  0.74153734321E+03  0.10100000352E+00 0.  1.
</event>
<event>
 5   0  0.3756664E-04  0.1394921E+04  0.7818609E-02  0.8957503E-01
       -1   -1    0    0    0  501  0.00000000000E+00  0.00000000000E+00  0.83520547700E+03  0.83520547702E+03  0.50400001928E-02 0. -1.
        1   -1    0    0  501    0  0.00000000000E+00  0.00000000000E+00 -0.58243312501E+03  0.58243312503E+03  0.50400001928E-02 0.  1.
    10030    2    1    2    0    0  0.00000000000E+00  0.00000000000E+00  0.25277235199E+03  0.14176386020E+04  0.13949212681E+04 0.  0.
        2    1    3    3  502    0 -0.12582353802E+02  0.17173609644E+03 -0.56049047795E+03  0.58634561338E+03  0.25500000920E-02 0.  1.
       -2    1    3    3    0  502  0.12582353802E+02 -0.17173609644E+03  0.81326282994E+03  0.83129298867E+03  0.25500000920E-02 0. -1.
</event>
<event>
 5   0  0.3907093E-04  0.1394653E+04  0.7818609E-02  0.8957698E-01
       -1   -1    0    0    0  501  0.00000000000E+00  0.00000000000E+00  0.15798991346E+04  0.15798991346E+04  0.50400001928E-02 0.  1.
        1   -1    0    0  501    0  0.00000000000E+00  0.00000000000E+00 -0.30778170246E+03  0.30778170250E+03  0.50400001928E-02 0. -1.
    10030    2    1    2    0    0  0.00000000000E+00  0.00000000000E+00  0.12721174321E+04  0.18876808371E+04  0.13946527100E+04 0.  0.
        4    1    3    3  502    0  0.60917085525E+03  0.33907241710E+03  0.61676473920E+03  0.93083811232E+03  0.12699999809E+01 0.  1.
       -4    1    3    3    0  502 -0.60917085525E+03 -0.33907241710E+03  0.65535269292E+03  0.95684272477E+03  0.12699999809E+01 0. -1.
</event>
<event>
 5   0  0.3784219E-04  0.1383967E+04  0.7818609E-02  0.8965506E-01
        1   -1    0    0  501    0  0.00000000000E+00  0.00000000000E+00  0.33517513453E+03  0.33517513457E+03  0.50400001928E-02 0. -1.
       -1   -1    0    0    0  501  0.00000000000E+00  0.00000000000E+00 -0.14286297096E+04  0.14286297096E+04  0.50400001928E-02 0.  1.
    10030    2    1    2    0    0  0.00000000000E+00  0.00000000000E+00 -0.10934545751E+04  0.17638048442E+04  0.13839669868E+04 0.  0.
        1    1    3    3  502    0 -0.27259563246E+03 -0.51711792569E+03 -0.10186578424E+04  0.11744714249E+04  0.50400001928E-02 0.  1.
       -1    1    3    3    0  502  0.27259563246E+03  0.51711792569E+03 -0.74796732693E+02  0.58933341934E+03  0.50400001928E-02 0. -1.
</event>
<event>
 5   0  0.3907093E-04  0.1387379E+04  0.7818609E-02  0.8963005E-01
       -1   -1    0    0    0  501  0.00000000000E+00  0.00000000000E+00  0.81226272933E+03  0.81226272935E+03  0.50400001928E-02 0.  1.
        1   -1    0    0  501    0  0.00000000000E+00  0.00000000000E+00 -0.59242519906E+03  0.59242519908E+03  0.50400001928E-02 0. -1.
    10030    2    1    2    0    0  0.00000000000E+00  0.00000000000E+00  0.21983753027E+03  0.14046879284E+04  0.13873786926E+04 0.  0.
        4    1    3    3  502    0 -0.32320040335E+03  0.46189093931E+03  0.51919160353E+03  0.76639629084E+03  0.12699999809E+01 0.  1.
       -4    1    3    3    0  502  0.32320040335E+03 -0.46189093931E+03 -0.29935407326E+03  0.63829163759E+03  0.12699999809E+01 0. -1.
</event>
<event>
 5   0  0.6870835E-04  0.1377403E+04  0.7818609E-02  0.8970340E-01
        2   -1    0    0  501    0  0.00000000000E+00  0.00000000000E+00  0.16422517063E+04  0.16422517063E+04  0.25500000920E-02 0.  1.
       -2   -1    0    0    0  501  0.00000000000E+00  0.00000000000E+00 -0.28881682174E+03  0.28881682175E+03  0.25500000920E-02 0. -1.
    10030    2    1    2    0    0  0.00000000000E+00  0.00000000000E+00  0.13534348845E+04  0.19310685280E+04  0.13774032355E+04 0.  0.
        2    1    3    3  502    0  0.31919049578E+03  0.45911091174E+03  0.11305762532E+03  0.57047999836E+03  0.25500000920E-02 0. -1.
       -2    1    3    3    0  502 -0.31919049578E+03 -0.45911091174E+03  0.12403772592E+04  0.13605885297E+04  0.25500000920E-02 0.  1.
</event>
<event>
 5   0  0.7065539E-04  0.1402046E+04  0.7818609E-02  0.8952339E-01
        2   -1    0    0  501    0  0.00000000000E+00  0.00000000000E+00  0.21717868041E+04  0.21717868041E+04  0.25500000920E-02 0. -1.
       -2   -1    0    0    0  501  0.00000000000E+00  0.00000000000E+00 -0.22628052334E+03  0.22628052336E+03  0.25500000920E-02 0.  1.
    10030    2    1    2    0    0  0.00000000000E+00  0.00000000000E+00  0.19455062807E+04  0.23980673274E+04  0.14020457263E+04 0.  0.
        1    1    3    3  502    0 -0.12912460596E+03  0.13678851518E+03  0.21278139515E+04  0.21361124675E+04  0.50400001928E-02 0. -1.
       -1    1    3    3    0  502  0.12912460596E+03 -0.13678851518E+03 -0.18230767080E+03  0.26195485987E+03  0.50400001928E-02 0.  1.
</event>
<event>
 5   0  0.7296966E-04  0.1400856E+04  0.7818609E-02  0.8953199E-01
        2   -1    0    0  501    0  0.00000000000E+00  0.00000000000E+00  0.13823320842E+04  0.13823320842E+04  0.25500000920E-02 0. -1.
       -2   -1    0    0    0  501  0.00000000000E+00  0.00000000000E+00 -0.35490686215E+03  0.35490686216E+03  0.25500000920E-02 0.  1.
    10030    2    1    2    0    0  0.00000000000E+00  0.00000000000E+00  0.10274252221E+04  0.17372389464E+04  0.14008556563E+04 0.  0.
        3    1    3    3  502    0 -0.49958179426E+03 -0.38957873811E+03  0.14323710266E+03  0.64951554263E+03  0.10100000352E+00 0.  1.
       -3    1    3    3    0  502  0.49958179426E+03  0.38957873811E+03  0.88418811941E+03  0.10877234037E+04  0.10100000352E+00 0. -1.
</event>
<event>
 5   0  0.7065539E-04  0.1402554E+04  0.7818609E-02  0.8951972E-01
       -2   -1    0    0    0  501  0.00000000000E+00  0.00000000000E+00  0.46308157361E+03  0.46308157362E+03  0.25500000920E-02 0. -1.
        2   -1    0    0  501    0  0.00000000000E+00  0.00000000000E+00 -0.10619932081E+04  0.10619932081E+04  0.25500000920E-02 0.  1.
    10030    2    1    2    0    0  0.00000000000E+00  0.00000000000E+00 -0.59891163449E+03  0.15250747817E+04  0.14025540788E+04 0.  0.
        1    1    3    3  502    0 -0.65356762063E+02 -0.69638426535E+03 -0.35454659757E+03  0.78417207375E+03  0.50400001928E-02 0.  1.
       -1    1    3    3    0  502  0.65356762063E+02  0.69638426535E+03 -0.24436503693E+03  0.74090270797E+03  0.50400001928E-02 0. -1.
</event>
<event>
 5   0  0.6895048E-04  0.1362740E+04  0.7818609E-02  0.8981240E-01
       -2   -1    0    0    0  501  0.00000000000E+00  0.00000000000E+00  0.75908858466E+03  0.75908858467E+03  0.25500000920E-02 0.  1.
        2   -1    0    0  501    0  0.00000000000E+00  0.00000000000E+00 -0.61160827540E+03  0.61160827541E+03  0.25500000920E-02 0. -1.
    10030    2    1    2    0    0  0.00000000000E+00  0.00000000000E+00  0.14748030926E+03  0.13706968601E+04  0.13627396819E+04 0.  0.
        4    1    3    3  502    0 -0.56949865568E+03  0.37325652916E+03  0.98665729862E+02  0.68803030059E+03  0.12699999809E+01 0.  1.
       -4    1    3    3    0  502  0.56949865568E+03 -0.37325652916E+03  0.48814579400E+02  0.68266655949E+03  0.12699999809E+01 0. -1.
</event>
<event>
 5   0  0.3907270E-04  0.1398528E+04  0.7818609E-02  0.8954885E-01
       -1   -1    0    0    0  501  0.00000000000E+00  0.00000000000E+00  0.76965445186E+03  0.76965445188E+03  0.50400001928E-02 0. -1.
        1   -1    0    0  501    0  0.00000000000E+00  0.00000000000E+00 -0.63531114165E+03  0.63531114167E+03  0.50400001928E-02 0.  1.
    10030    2    1    2    0    0  0.00000000000E+00  0.00000000000E+00  0.13434331021E+03  0.14049655935E+04  0.13985278667E+04 0.  0.
        3    1    3    3  502    0 -0.43240995285E+03 -0.42864966849E+03  0.41263121795E+03  0.73551576315E+03  0.10100000352E+00 0.  1.
       -3    1    3    3    0  502  0.43240995285E+03  0.42864966849E+03 -0.27828790774E+03  0.66944983039E+03  0.10100000352E+00 0. -1.
</event>
<event>
 5   0  0.3784219E-04  0.1401706E+04  0.7818609E-02  0.8952584E-01
        1   -1    0    0  501    0  0.00000000000E+00  0.00000000000E+00  0.10511289986E+04  0.10511289986E+04  0.50400001928E-02 0.  1.
       -1   -1    0    0    0  501  0.00000000000E+00  0.00000000000E+00 -0.46730233093E+03  0.46730233095E+03  0.50400001928E-02 0. -1.
    10030    2    1    2    0    0  0.00000000000E+00  0.00000000000E+00  0.58382666770E+03  0.15184313296E+04  0.14017061478E+04 0.  0.
        1    1    3    3  502    0  0.26615085633E+03 -0.58277136076E+03  0.59971614559E+03  0.87756378261E+03  0.50400001928E-02 0.  1.
       -1    1    3    3    0  502 -0.26615085633E+03  0.58277136076E+03 -0.15889477889E+02  0.64086754698E+03  0.50400001928E-02 0. -1.
</event>
<event>
 5   0  0.3977658E-04  0.1377759E+04  0.7818609E-02  0.8970077E-01
        1   -1    0    0  501    0  0.00000000000E+00  0.00000000000E+00  0.10413657309E+04  0.10413657309E+04  0.50400001928E-02 0.  1.
       -1   -1    0    0    0  501  0.00000000000E+00  0.00000000000E+00 -0.45570438818E+03  0.45570438821E+03  0.50400001928E-02 0. -1.
    10030    2    1    2    0    0  0.00000000000E+00  0.00000000000E+00  0.58566134268E+03  0.14970701191E+04  0.13777589532E+04 0.  0.
        5    1    3    3  502    0  0.32397942520E+03 -0.32981393720E+03  0.84773334471E+03  0.96561576979E+03  0.46999998093E+01 0.  1.
       -5    1    3    3    0  502 -0.32397942520E+03  0.32981393720E+03 -0.26207200204E+03  0.53145434929E+03  0.46999998093E+01 0. -1.
</event>
<event>
 5   0  0.3784219E-04  0.1398485E+04  0.7818609E-02  0.8954916E-01
       -1   -1    0    0    0  501  0.00000000000E+00  0.00000000000E+00  0.70713307819E+03  0.70713307821E+03  0.50400001928E-02 0.  1.
        1   -1    0    0  501    0  0.00000000000E+00  0.00000000000E+00 -0.69143977900E+03  0.69143977902E+03  0.50400001928E-02 0. -1.
    10030    2    1    2    0    0  0.00000000000E+00  0.00000000000E+00  0.15693299188E+02  0.13985728572E+04  0.13984848077E+04 0.  0.
        1    1    3    3  502    0 -0.27814016901E+03  0.60799653588E+03  0.21259888184E+03  0.70158394070E+03  0.50400001928E-02 0. -1.
       -1    1    3    3    0  502  0.27814016901E+03 -0.60799653588E+03 -0.19690558265E+03  0.69698891653E+03  0.50400001928E-02 0.  1.
</event>
<event>
 5   0  0.3907093E-04  0.1385278E+04  0.7818609E-02  0.8964544E-01
       -1   -1    0    0    0  501  0.00000000000E+00  0.00000000000E+00  0.48579022883E+03  0.48579022885E+03  0.50400001928E-02 0. -1.
        1   -1    0    0  501    0  0.00000000000E+00  0.00000000000E+00 -0.98756402201E+03  0.98756402203E+03  0.50400001928E-02 0.  1.
    10030    2    1    2    0    0  0.00000000000E+00  0.00000000000E+00 -0.50177379319E+03  0.14733542509E+04  0.13852782425E+04 0.  0.
        4    1    3    3  502    0 -0.30070611199E+03  0.60884172074E+03 -0.10569777385E+03  0.68723070289E+03  0.12699999809E+01 0.  1.
       -4    1    3    3    0  502  0.30070611199E+03 -0.60884172074E+03 -0.39607601934E+03  0.78612354799E+03  0.12699999809E+01 0. -1.
</event>
<event>
 5   0  0.3907270E-04  0.1410340E+04  0.7818609E-02  0.8946368E-01
       -1   -1    0    0    0  501  0.00000000000E+00  0.00000000000E+00  0.58353788961E+03  0.58353788963E+03  0.50400001928E-02 0.  1.
        1   -1    0    0  501    0  0.00000000000E+00  0.00000000000E+00 -0.85215455978E+03  0.85215455979E+03  0.50400001928E-02 0. -1.
    10030    2    1    2    0    0  0.00000000000E+00  0.00000000000E+00 -0.26861667017E+03  0.14356924494E+04  0.14103396378E+04 0.  0.
        3    1    3    3  502    0 -0.34949310029E+03 -0.54070844459E+03 -0.42714851457E+03  0.77263633936E+03  0.10100000352E+00 0.  1.
       -3    1    3    3    0  502  0.34949310029E+03  0.54070844459E+03  0.15853184440E+03  0.66305611006E+03  0.10100000352E+00 0. -1.
</event>
<event>
 5   0  0.6895048E-04  0.1395704E+04  0.7818609E-02  0.8956934E-01
       -2   -1    0    0    0  501  0.00000000000E+00  0.00000000000E+00  0.48912191348E+03  0.48912191349E+03  0.25500000920E-02 0. -1.
        2   -1    0    0  501    0  0.00000000000E+00  0.00000000000E+00 -0.99565604618E+03  0.99565604619E+03  0.25500000920E-02 0.  1.
    10030    2    1    2    0    0  0.00000000000E+00  0.00000000000E+00 -0.50653413270E+03  0.14847779597E+04  0.13957036799E+04 0.  0.
        4    1    3    3  502    0  0.17393262994E+03  0.67476306461E+03 -0.21292842903E+03  0.72862739580E+03  0.12699999809E+01 0. -1.
       -4    1    3    3    0  502 -0.17393262994E+03 -0.67476306461E+03 -0.29360570367E+03  0.75615056387E+03  0.12699999809E+01 0.  1.
</event>
<event>
 5   0  0.3756664E-04  0.1404923E+04  0.7818609E-02  0.8950263E-01
        1   -1    0    0  501    0  0.00000000000E+00  0.00000000000E+00  0.52999943446E+03  0.52999943449E+03  0.50400001928E-02 0.  1.
       -1   -1    0    0    0  501  0.00000000000E+00  0.00000000000E+00 -0.93104270836E+03  0.93104270837E+03  0.50400001928E-02 0. -1.
    10030    2    1    2    0    0  0.00000000000E+00  0.00000000000E+00 -0.40104327389E+03  0.14610421429E+04  0.14049229287E+04 0.  0.
        2    1    3    3  502    0  0.30314163264E+03  0.27532033686E+03  0.39302716888E+03  0.56759712192E+03  0.25500000920E-02 0.  1.
       -2    1    3    3    0  502 -0.30314163264E+03 -0.27532033686E+03 -0.79407044278E+03  0.89344502093E+03  0.25500000920E-02 0. -1.
</event>
<event>
 5   0  0.3907270E-04  0.1383947E+04  0.7818609E-02  0.8965521E-01
       -1   -1    0    0    0  501  0.00000000000E+00  0.00000000000E+00  0.20412477180E+03  0.20412477186E+03  0.50400001928E-02 0.  1.
        1   -1    0    0  501    0  0.00000000000E+00  0.00000000000E+00 -0.23457575008E+04  0.23457575008E+04  0.50400001928E-02 0. -1.
    10030    2    1    2    0    0  0.00000000000E+00  0.00000000000E+00 -0.21416327290E+04  0.25498822727E+04  0.13839468409E+04 0.  0.
        3    1    3    3  502    0 -0.28213990033E+03  0.32075884232E+03 -0.20738013403E+04  0.21173429499E+04  0.10100000352E+00 0. -1.
       -3    1    3    3    0  502  0.28213990033E+03 -0.32075884232E+03 -0.67831388759E+02  0.43253932282E+03  0.10100000352E+00 0.  1.
</event>
<event>
 5   0  0.6959748E-04  0.1400607E+04  0.7818609E-02  0.8953379E-01
       -2   -1    0    0    0  501  0.00000000000E+00  0.00000000000E+00  0.86500409176E+03  0.86500409176E+03  0.25500000920E-02 0. -1.
        2   -1    0    0  501    0  0.00000000000E+00  0.00000000000E+00 -0.56696249721E+03  0.56696249721E+03  0.25500000920E-02 0.  1.
    10030    2    1    2    0    0  0.00000000000E+00  0.00000000000E+00  0.29804159455E+03  0.14319665890E+04  0.14006068399E+04 0.  0.
        5    1    3    3  502    0 -0.23359274320E+03  0.36764153301E+03  0.70963834981E+03  0.83266712676E+03  0.46999998093E+01 0. -1.
       -5    1    3    3    0  502  0.23359274320E+03 -0.36764153301E+03 -0.41159675526E+03  0.59929946221E+03  0.46999998093E+01 0.  1.
</event>
<event>
 5   0  0.3756664E-04  0.1384247E+04  0.7818609E-02  0.8965301E-01
        1   -1    0    0  501    0  0.00000000000E+00  0.00000000000E+00  0.17538974987E+04  0.17538974987E+04  0.50400001928E-02 0. -1.
       -1   -1    0    0    0  501  0.00000000000E+00  0.00000000000E+00 -0.27312613005E+03  0.27312613010E+03  0.50400001928E-02 0.  1.
    10030    2    1    2    0    0  0.00000000000E+00  0.00000000000E+00  0.14807713687E+04  0.20270236288E+04  0.13842474293E+04 0.  0.
        2    1    3    3  502    0  0.39826445067E+03  0.31574563831E+03  0.52412995123E+02  0.51093737664E+03  0.25500000920E-02 0.  1.
       -2    1    3    3    0  502 -0.39826445067E+03 -0.31574563831E+03  0.14283583736E+04  0.15160862522E+04  0.25500000920E-02 0. -1.
</event>
<event>
 5   0  0.3907270E-04  0.1415822E+04  0.7818609E-02  0.8942445E-01
        1   -1    0    0  501    0  0.00000000000E+00  0.00000000000E+00  0.68465681267E+03  0.68465681269E+03  0.50400001928E-02 0.  1.
       -1   -1    0    0    0  501  0.00000000000E+00  0.00000000000E+00 -0.73195521950E+03  0.73195521951E+03  0.50400001928E-02 0. -1.
    10030    2    1    2    0    0  0.00000000000E+00  0.00000000000E+00 -0.47298406828E+02  0.14166120322E+04  0.14158222030E+04 0.  0.
        3    1    3    3  502    0  0.28154391690E+03  0.64938875214E+03 -0.36516738216E+02  0.70873564248E+03  0.10100000352E+00 0.  1.
       -3    1    3    3    0  502 -0.28154391690E+03 -0.64938875214E+03 -0.10781668612E+02  0.70787638972E+03  0.10100000352E+00 0. -1.
</event>
<event>
 5   0  0.3977658E-04  0.1400322E+04  0.7818609E-02  0.8953586E-01
       -1   -1    0    0    0  501  0.00000000000E+00  0.00000000000E+00  0.33562826515E+03  0.33562826519E+03  0.50400001928E-02 0.  1.
        1   -1    0    0  501    0  0.00000000000E+00  0.00000000000E+00 -0.14606196754E+04  0.14606196754E+04  0.50400001928E-02 0. -1.
    10030    2    1    2    0    0  0.00000000000E+00  0.00000000000E+00 -0.11249914102E+04  0.17962479406E+04  0.14003217455E+04 0.  0.
        5    1    3    3  502    0  0.45761341777E+03 -0.26182444439E+03  0.28457607660E+02  0.52800947457E+03  0.46999998093E+01 0.  1.
       -5    1    3    3    0  502 -0.45761341777E+03  0.26182444439E+03 -0.11534490179E+04  0.12682384660E+04  0.46999998093E+01 0. -1.
</event>
<event>
 5   0  0.6870835E-04  0.1402213E+04  0.7818609E-02  0.8952219E-01
       -2   -1    0    0    0  501  0.00000000000E+00  0.00000000000E+00  0.39998017126E+03  0.39998017126E+03  0.25500000920E-02 0.  1.
        2   -1    0    0  501    0  0.00000000000E+00  0.00000000000E+00 -0.12289360567E+04  0.12289360567E+04  0.25500000920E-02 0. -1.
    10030    2    1    2    0    0  0.00000000000E+00  0.00000000000E+00 -0.82895588547E+03  0.16289162280E+04  0.14022126150E+04 0.  0.
        2    1    3    3  502    0  0.34000833690E+02  0.68024303443E+03 -0.22126431654E+03  0.71613165016E+03  0.25500000920E-02 0.  1.
       -2    1    3    3    0  502 -0.34000833690E+02 -0.68024303443E+03 -0.60769156893E+03  0.91278457783E+03  0.25500000920E-02 0. -1.
</event>
<event>
 5   0  0.6870835E-04  0.1389780E+04  0.7818609E-02  0.8961250E-01
        2   -1    0    0  501    0  0.00000000000E+00  0.00000000000E+00  0.60860806096E+03  0.60860806096E+03  0.25500000920E-02 0.  1.
       -2   -1    0    0    0  501  0.00000000000E+00  0.00000000000E+00 -0.79340354818E+03  0.79340354818E+03  0.25500000920E-02 0. -1.
    10030    2    1    2    0    0  0.00000000000E+00  0.00000000000E+00 -0.18479548722E+03  0.14020116091E+04  0.13897795437E+04 0.  0.
        2    1    3    3  502    0 -0.54608414708E+03 -0.23440474888E+03 -0.45573199520E+03  0.74889594300E+03  0.25500000920E-02 0. -1.
       -2    1    3    3    0  502  0.54608414708E+03  0.23440474888E+03  0.27093650798E+03  0.65311566614E+03  0.25500000920E-02 0.  1.
</event>
<event>
 5   0  0.6959748E-04  0.1274901E+04  0.7818609E-02  0.9049710E-01
       -2   -1    0    0    0  501  0.00000000000E+00  0.00000000000E+00  0.30447674034E+03  0.30447674035E+03  0.25500000920E-02 0. -1.
        2   -1    0    0  501    0  0.00000000000E+00  0.00000000000E+00 -0.13345612130E+04  0.13345612130E+04  0.25500000920E-02 0.  1.
    10030    2    1    2    0    0  0.00000000000E+00  0.00000000000E+00 -0.10300844726E+04  0.16390379533E+04  0.12749005419E+04 0.  0.
        5    1    3    3  502    0 -0.25313017141E+03  0.40926888635E+02  0.23522580937E+03  0.34799880069E+03  0.46999998093E+01 0. -1.
       -5    1    3    3    0  502  0.25313017141E+03 -0.40926888635E+02 -0.12653102820E+04  0.12910391526E+04  0.46999998093E+01 0.  1.
</event>
<event>
 5   0  0.6895048E-04  0.1398128E+04  0.7818609E-02  0.8955175E-01
       -2   -1    0    0    0  501  0.00000000000E+00  0.00000000000E+00  0.60403674845E+03  0.60403674846E+03  0.25500000920E-02 0. -1.
        2   -1    0    0  501    0  0.00000000000E+00  0.00000000000E+00 -0.80904052407E+03  0.80904052407E+03  0.25500000920E-02 0.  1.
    10030    2    1    2    0    0  0.00000000000E+00  0.00000000000E+00 -0.20500377561E+03  0.14130772725E+04  0.13981276158E+04 0.  0.
        4    1    3    3  502    0  0.55423144496E+03  0.35689472097E+03  0.13267101520E+03  0.67242066269E+03  0.12699999809E+01 0. -1.
       -4    1    3    3    0  502 -0.55423144496E+03 -0.35689472097E+03 -0.33767479082E+03  0.74065660984E+03  0.12699999809E+01 0.  1.
</event>
<event>
 5   0  0.3784219E-04  0.1395023E+04  0.7818609E-02  0.8957429E-01
       -1   -1    0    0    0  501  0.00000000000E+00  0.00000000000E+00  0.18737092898E+04  0.18737092898E+04  0.50400001928E-02 0. -1.
        1   -1    0    0  501    0  0.00000000000E+00  0.00000000000E+00 -0.25965727492E+03  0.25965727497E+03  0.50400001928E-02 0.  1.
    10030    2    1    2    0    0  0.00000000000E+00  0.00000000000E+00  0.16140520149E+04  0.21333665648E+04  0.13950229364E+04 0.  0.
        1    1    3    3  502    0 -0.40205431854E+03 -0.45500203813E+03  0.13320083853E+04  0.14638718757E+04  0.50400001928E-02 0. -1.
       -1    1    3    3    0  502  0.40205431854E+03  0.45500203813E+03  0.28204362956E+03  0.66949468912E+03  0.50400001928E-02 0.  1.
</event>
<event>
 5   0  0.6895048E-04  0.1401890E+04  0.7818609E-02  0.8952452E-01
        2   -1    0    0  501    0  0.00000000000E+00  0.00000000000E+00  0.72066993356E+03  0.72066993356E+03  0.25500000920E-02 0.  1.
       -2   -1    0    0    0  501  0.00000000000E+00  0.00000000000E+00 -0.68175991191E+03  0.68175991191E+03  0.25500000920E-02 0. -1.
    10030    2    1    2    0    0  0.00000000000E+00  0.00000000000E+00  0.38910021649E+02  0.14024298455E+04  0.14018899678E+04 0.  0.
        4    1    3    3  502    0  0.15766702475E+03  0.35214113970E+03 -0.56597116118E+03  0.68497243824E+03  0.12699999809E+01 0. -1.
       -4    1    3    3    0  502 -0.15766702475E+03 -0.35214113970E+03  0.60488118283E+03  0.71745740724E+03  0.12699999809E+01 0.  1.
</event>
<event>
 5   0  0.3907093E-04  0.1396563E+04  0.7818609E-02  0.8956310E-01
       -1   -1    0    0    0  501  0.00000000000E+00  0.00000000000E+00  0.90754842580E+03  0.90754842581E+03  0.50400001928E-02 0. -1.
        1   -1    0    0  501    0  0.00000000000E+00  0.00000000000E+00 -0.53726837953E+03  0.53726837956E+03  0.50400001928E-02 0.  1.
    10030    2    1    2    0    0  0.00000000000E+00  0.00000000000E+00  0.37028004627E+03  0.14448168054E+04  0.13965630270E+04 0.  0.
        4    1    3    3  502    0 -0.26843819146E+03  0.42152367533E+03 -0.31941396733E+03  0.59310046950E+03  0.12699999809E+01 0.  1.
       -4    1    3    3    0  502  0.26843819146E+03 -0.42152367533E+03  0.68969401359E+03  0.85171633587E+03  0.12699999809E+01 0. -1.
</event>
<event>
 5   0  0.7065539E-04  0.1525085E+04  0.7818609E-02  0.8867941E-01
        2   -1    0    0  501    0  0.00000000000E+00  0.00000000000E+00  0.13506597698E+04  0.13506597698E+04  0.25500000920E-02 0.  1.
       -2   -1    0    0    0  501  0.00000000000E+00  0.00000000000E+00 -0.43050901979E+03  0.43050901980E+03  0.25500000920E-02 0. -1.
    10030    2    1    2    0    0  0.00000000000E+00  0.00000000000E+00  0.92015074999E+03  0.17811687896E+04  0.15250851957E+04 0.  0.
        1    1    3    3  502    0  0.58245651882E+03  0.34018048024E+03  0.44696912901E+02  0.67600012537E+03  0.50400001928E-02 0. -1.
       -1    1    3    3    0  502 -0.58245651882E+03 -0.34018048024E+03  0.87545383709E+03  0.11051686642E+04  0.50400001928E-02 0.  1.
</event>
<event>
 5   0  0.3907270E-04  0.1393497E+04  0.7818609E-02  0.8958539E-01
       -1   -1    0    0    0  501  0.00000000000E+00  0.00000000000E+00  0.85177252935E+03  0.85177252936E+03  0.50400001928E-02 0. -1.
        1   -1    0    0  501    0  0.00000000000E+00  0.00000000000E+00 -0.56993924901E+03  0.56993924904E+03  0.50400001928E-02 0.  1.
    10030    2    1    2    0    0  0.00000000000E+00  0.00000000000E+00  0.28183328034E+03  0.14217117784E+04  0.13934971772E+04 0.  0.
        3    1    3    3  502    0  0.37324411179E+03 -0.16454751049E+02 -0.45910387041E+03  0.59191071949E+03  0.10100000352E+00 0.  1.
       -3    1    3    3    0  502 -0.37324411179E+03  0.16454751049E+02  0.74093715074E+03  0.82980105891E+03  0.10100000352E+00 0. -1.
</event>
<event>
 5   0  0.7296966E-04  0.1392583E+04  0.7818609E-02  0.8959205E-01
       -2   -1    0    0    0  501  0.00000000000E+00  0.00000000000E+00  0.38148993251E+03  0.38148993251E+03  0.25500000920E-02 0.  1.
        2   -1    0    0  501    0  0.00000000000E+00  0.00000000000E+00 -0.12708648788E+04  0.12708648788E+04  0.25500000920E-02 0. -1.
    10030    2    1    2    0    0  0.00000000000E+00  0.00000000000E+00 -0.88937494630E+03  0.16523548113E+04  0.13925834364E+04 0.  0.
        3    1    3    3  502    0  0.20836285390E+03 -0.63897758078E+03 -0.22876759758E+03  0.70995919004E+03  0.10100000352E+00 0. -1.
       -3    1    3    3    0  502 -0.20836285390E+03  0.63897758078E+03 -0.66060734872E+03  0.94239562128E+03  0.10100000352E+00 0.  1.
</event>
<event>
 5   0  0.3977658E-04  0.1402355E+04  0.7818609E-02  0.8952116E-01
        1   -1    0    0  501    0  0.00000000000E+00  0.00000000000E+00  0.10652821669E+04  0.10652821669E+04  0.50400001928E-02 0. -1.
       -1   -1    0    0    0  501  0.00000000000E+00  0.00000000000E+00 -0.46152088263E+03  0.46152088265E+03  0.50400001928E-02 0.  1.
    10030    2    1    2    0    0  0.00000000000E+00  0.00000000000E+00  0.60376128428E+03  0.15268030496E+04  0.14023551133E+04 0.  0.
        5    1    3    3  502    0 -0.18309622129E+03  0.24277774227E+03 -0.38597918670E+03  0.49139320401E+03  0.46999998093E+01 0.  1.
       -5    1    3    3    0  502  0.18309622129E+03 -0.24277774227E+03  0.98974047098E+03  0.10354098456E+04  0.46999998093E+01 0. -1.
</event>
<event>
 5   0  0.7065539E-04  0.1406550E+04  0.7818609E-02  0.8949091E-01
       -2   -1    0    0    0  501  0.00000000000E+00  0.00000000000E+00  0.76470462678E+03  0.76470462678E+03  0.25500000920E-02 0.  1.
        2   -1    0    0  501    0  0.00000000000E+00  0.00000000000E+00 -0.64678028994E+03  0.64678028994E+03  0.25500000920E-02 0. -1.
    10030    2    1    2    0    0  0.00000000000E+00  0.00000000000E+00  0.11792433684E+03  0.14114849167E+04  0.14065502198E+04 0.  0.
        1    1    3    3  502    0 -0.16534982382E+03  0.40145476064E+03  0.61415664570E+03  0.75212690057E+03  0.50400001928E-02 0.  1.
       -1    1    3    3    0  502  0.16534982382E+03 -0.40145476064E+03 -0.49623230886E+03  0.65935801615E+03  0.50400001928E-02 0. -1.
</event>
<event>
 5   0  0.7296966E-04  0.1414388E+04  0.7818609E-02  0.8943469E-01
        2   -1    0    0  501    0  0.00000000000E+00  0.00000000000E+00  0.83389362186E+03  0.83389362186E+03  0.25500000920E-02 0.  1.
       -2   -1    0    0    0  501  0.00000000000E+00  0.00000000000E+00 -0.59974449105E+03  0.59974449105E+03  0.25500000920E-02 0. -1.
    10030    2    1    2    0    0  0.00000000000E+00  0.00000000000E+00  0.23414913081E+03  0.14336381129E+04  0.14143876496E+04 0.  0.
        3    1    3    3  502    0  0.18273198119E+03 -0.44669306140E+03  0.64102139767E+03  0.80239274082E+03  0.10100000352E+00 0.  1.
       -3    1    3    3    0  502 -0.18273198119E+03  0.44669306140E+03 -0.40687226686E+03  0.63124537209E+03  0.10100000352E+00 0. -1.
</event>
<event>
 5   0  0.3977658E-04  0.1405667E+04  0.7818609E-02  0.8949726E-01
        1   -1    0    0  501    0  0.00000000000E+00  0.00000000000E+00  0.98153001634E+03  0.98153001635E+03  0.50400001928E-02 0.  1.
       -1   -1    0    0    0  501  0.00000000000E+00  0.00000000000E+00 -0.50327050946E+03  0.50327050949E+03  0.50400001928E-02 0. -1.
    10030    2    1    2    0    0  0.00000000000E+00  0.00000000000E+00  0.47825950688E+03  0.14848005258E+04  0.14056672599E+04 0.  0.
        5    1    3    3  502    0 -0.33215735985E+03 -0.41132438768E+03 -0.25001252166E+03  0.58484580411E+03  0.46999998093E+01 0. -1.
       -5    1    3    3    0  502  0.33215735985E+03  0.41132438768E+03  0.72827202854E+03  0.89995472172E+03  0.46999998093E+01 0.  1.
</event>
<event>
 5   0  0.3907093E-04  0.1402845E+04  0.7818609E-02  0.8951762E-01
        1   -1    0    0  501    0  0.00000000000E+00  0.00000000000E+00  0.78574124472E+03  0.78574124473E+03  0.50400001928E-02 0.  1.
       -1   -1    0    0    0  501  0.00000000000E+00  0.00000000000E+00 -0.62615212453E+03  0.62615212455E+03  0.50400001928E-02 0. -1.
    10030    2    1    2    0    0  0.00000000000E+00  0.00000000000E+00  0.15958912018E+03  0.14118933693E+04  0.14028450374E+04 0.  0.
        4    1    3    3  502    0 -0.53092550543E+03  0.41355775591E+02  0.53924724040E+03  0.75787953638E+03  0.12699999809E+01 0.  1.
       -4    1    3    3    0  502  0.53092550543E+03 -0.41355775591E+02 -0.37965812021E+03  0.65401383290E+03  0.12699999809E+01 0. -1.
</event>
<event>
 5   0  0.3756664E-04  0.1413743E+04  0.7818609E-02  0.8943930E-01
       -1   -1    0    0    0  501  0.00000000000E+00  0.00000000000E+00  0.35874127841E+03  0.35874127845E+03  0.50400001928E-02 0.  1.
        1   -1    0    0  501    0  0.00000000000E+00  0.00000000000E+00 -0.13928356438E+04  0.13928356438E+04  0.50400001928E-02 0. -1.
    10030    2    1    2    0    0  0.00000000000E+00  0.00000000000E+00 -0.10340943654E+04  0.17515769223E+04  0.14137434555E+04 0.  0.
        2    1    3    3  502    0 -0.11106475224E+03 -0.26685161126E+03 -0.13162724306E+04  0.13476343247E+04  0.25500000920E-02 0. -1.
       -2    1    3    3    0  502  0.11106475224E+03  0.26685161126E+03  0.28217806520E+03  0.40394259754E+03  0.25500000920E-02 0.  1.
</event>
<event>
 5   0  0.6895048E-04  0.1377351E+04  0.7818609E-02  0.8970378E-01
       -2   -1    0    0    0  501  0.00000000000E+00  0.00000000000E+00  0.23763585735E+03  0.23763585736E+03  0.25500000920E-02 0. -1.
        2   -1    0    0  501    0  0.00000000000E+00  0.00000000000E+00 -0.19958003372E+04  0.19958003372E+04  0.25500000920E-02 0.  1.
    10030    2    1    2    0    0  0.00000000000E+00  0.00000000000E+00 -0.17581644799E+04  0.22334361946E+04  0.13773506805E+04 0.  0.
        4    1    3    3  502    0 -0.32966165116E+03 -0.20409672666E+03 -0.18019961660E+04  0.18432373893E+04  0.12699999809E+01 0.  1.
       -4    1    3    3    0  502  0.32966165116E+03  0.20409672666E+03  0.43831686095E+02  0.39019880533E+03  0.12699999809E+01 0. -1.
</event>
<event>
 5   0  0.7065539E-04  0.1400982E+04  0.7818609E-02  0.8953108E-01
        2   -1    0    0  501    0  0.00000000000E+00  0.00000000000E+00  0.16970313805E+04  0.16970313805E+04  0.25500000920E-02 0. -1.
       -2   -1    0    0    0  501  0.00000000000E+00  0.00000000000E+00 -0.28914490783E+03  0.28914490784E+03  0.25500000920E-02 0.  1.
    10030    2    1    2    0    0  0.00000000000E+00  0.00000000000E+00  0.14078864727E+04  0.19861762883E+04  0.14009824868E+04 0.  0.
        1    1    3    3  502    0 -0.18726895151E+03  0.39024456305E+03  0.14847453519E+04  0.15465539885E+04  0.50400001928E-02 0. -1.
       -1    1    3    3    0  502  0.18726895151E+03 -0.39024456305E+03 -0.76858879259E+02  0.43962229986E+03  0.50400001928E-02 0.  1.
</event>
<event>
 5   0  0.3784219E-04  0.1384815E+04  0.7818609E-02  0.8964884E-01
       -1   -1    0    0    0  501  0.00000000000E+00  0.00000000000E+00  0.51095754709E+03  0.51095754711E+03  0.50400001928E-02 0.  1.
        1   -1    0    0  501    0  0.00000000000E+00  0.00000000000E+00 -0.93829378665E+03  0.93829378666E+03  0.50400001928E-02 0. -1.
    10030    2    1    2    0    0  0.00000000000E+00  0.00000000000E+00 -0.42733623956E+03  0.14492513338E+04  0.13848152103E+04 0.  0.
        1    1    3    3  502    0 -0.62943404711E+03 -0.28753556076E+03 -0.18880617378E+03  0.71729470209E+03  0.50400001928E-02 0.  1.
       -1    1    3    3    0  502  0.62943404711E+03  0.28753556076E+03 -0.23853006578E+03  0.73195663168E+03  0.50400001928E-02 0. -1.
</event>
<event>
 5   0  0.6959748E-04  0.1397446E+04  0.7818609E-02  0.8955669E-01
        2   -1    0    0  501    0  0.00000000000E+00  0.00000000000E+00  0.54497721342E+03  0.54497721342E+03  0.25500000920E-02 0.  1.
       -2   -1    0    0    0  501  0.00000000000E+00  0.00000000000E+00 -0.89584292025E+03  0.89584292025E+03  0.25500000920E-02 0. -1.
    10030    2    1    2    0    0  0.00000000000E+00  0.00000000000E+00 -0.35086570683E+03  0.14408201337E+04  0.13974462113E+04 0.  0.
        5    1    3    3  502    0 -0.41881142344E+03 -0.43248927846E+03  0.19017429962E+03  0.63137812650E+03  0.46999998093E+01 0.  1.
       -5    1    3    3    0  502  0.41881142344E+03  0.43248927846E+03 -0.54104000646E+03  0.80944200717E+03  0.46999998093E+01 0. -1.
</event>
<event>
 5   0  0.3907093E-04  0.1401568E+04  0.7818609E-02  0.8952685E-01
        1   -1    0    0  501    0  0.00000000000E+00  0.00000000000E+00  0.11554999620E+04  0.11554999620E+04  0.50400001928E-02 0. -1.
       -1   -1    0    0    0  501  0.00000000000E+00  0.00000000000E+00 -0.42500913802E+03  0.42500913805E+03  0.50400001928E-02 0.  1.
    10030    2    1    2    0    0  0.00000000000E+00  0.00000000000E+00  0.73049082395E+03  0.15805091000E+04  0.14015677548E+04 0.  0.
        4    1    3    3  502    0  0.48228401843E+03 -0.47296630159E+03  0.57561427870E+03  0.88748431401E+03  0.12699999809E+01 0. -1.
       -4    1    3    3    0  502 -0.48228401843E+03  0.47296630159E+03  0.15487654525E+03  0.69302478602E+03  0.12699999809E+01 0.  1.
</event>
<event>
 5   0  0.3907270E-04  0.1400576E+04  0.7818609E-02  0.8953402E-01
        1   -1    0    0  501    0  0.00000000000E+00  0.00000000000E+00  0.85680271085E+03  0.85680271086E+03  0.50400001928E-02 0. -1.
       -1   -1    0    0    0  501  0.00000000000E+00  0.00000000000E+00 -0.57236453957E+03  0.57236453960E+03  0.50400001928E-02 0.  1.
    10030    2    1    2    0    0  0.00000000000E+00  0.00000000000E+00  0.28443817128E+03  0.14291672505E+04  0.14005762944E+04 0.  0.
        3    1    3    3  502    0 -0.41110826075E+03 -0.53127850307E+03  0.34408732362E+03  0.75476019129E+03  0.10100000352E+00 0. -1.
       -3    1    3    3    0  502  0.41110826075E+03  0.53127850307E+03 -0.59649152345E+02  0.67440705917E+03  0.10100000352E+00 0.  1.
</event>
<event>
 5   0  0.2660250E-04  0.1368430E+04  0.7818609E-02  0.8976993E-01
       -3   -1    0    0    0  501  0.00000000000E+00  0.00000000000E+00  0.69008432592E+03  0.69008433331E+03  0.10100000352E+00 0.  1.
        3   -1    0    0  501    0  0.00000000000E+00  0.00000000000E+00 -0.67839532955E+03  0.67839533707E+03  0.10100000352E+00 0. -1.
    10030    2    1    2    0    0  0.00000000000E+00  0.00000000000E+00  0.11688996369E+02  0.13684796704E+04  0.13684297481E+04 0.  0.
        3    1    3    3  502    0  0.51357273275E+03  0.29208496029E+03  0.35093593010E+03  0.68718746575E+03  0.10100000352E+00 0.  1.
       -3    1    3    3    0  502 -0.51357273275E+03 -0.29208496029E+03 -0.33924693374E+03  0.68129220463E+03  0.10100000352E+00 0. -1.
</event>
<event>
 5   0  0.3756664E-04  0.1394164E+04  0.7818609E-02  0.8958053E-01
        1   -1    0    0  501    0  0.00000000000E+00  0.00000000000E+00  0.49157085322E+03  0.49157085324E+03  0.50400001928E-02 0. -1.
       -1   -1    0    0    0  501  0.00000000000E+00  0.00000000000E+00 -0.98851193011E+03  0.98851193013E+03  0.50400001928E-02 0.  1.
    10030    2    1    2    0    0  0.00000000000E+00  0.00000000000E+00 -0.49694107690E+03  0.14800827834E+04  0.13941644852E+04 0.  0.
        2    1    3    3  502    0  0.38328829052E+03 -0.62877853309E+02 -0.86298676910E+03  0.94636657894E+03  0.25500000920E-02 0.  1.
       -2    1    3    3    0  502 -0.38328829052E+03  0.62877853309E+02  0.36604569220E+03  0.53371620443E+03  0.25500000920E-02 0. -1.
</event>
<event>
 5   0  0.6895048E-04  0.1399620E+04  0.7818609E-02  0.8954094E-01
       -2   -1    0    0    0  501  0.00000000000E+00  0.00000000000E+00  0.26416496257E+03  0.26416496259E+03  0.25500000920E-02 0. -1.
        2   -1    0    0  501    0  0.00000000000E+00  0.00000000000E+00 -0.18538949231E+04  0.18538949231E+04  0.25500000920E-02 0.  1.
    10030    2    1    2    0    0  0.00000000000E+00  0.00000000000E+00 -0.15897299605E+04  0.21180598857E+04  0.13996200670E+04 0.  0.
        4    1    3    3  502    0  0.35664761156E+03  0.51506091079E+03 -0.32294686519E+03  0.70482732019E+03  0.12699999809E+01 0. -1.
       -4    1    3    3    0  502 -0.35664761156E+03 -0.51506091079E+03 -0.12667830953E+04  0.14132325655E+04  0.12699999809E+01 0.  1.
</event>
<event>
 5   0  0.3784219E-04  0.1411988E+04  0.7818609E-02  0.8945187E-01
        1   -1    0    0  501    0  0.00000000000E+00  0.00000000000E+00  0.20287802102E+04  0.20287802102E+04  0.50400001928E-02 0.  1.
       -1   -1    0    0    0  501  0.00000000000E+00  0.00000000000E+00 -0.24567831342E+03  0.24567831347E+03  0.50400001928E-02 0. -1.
    10030    2    1    2    0    0  0.00000000000E+00  0.00000000000E+00  0.17831018967E+04  0.22744585236E+04  0.14119876776E+04 0.  0.
        1    1    3    3  502    0  0.69145722562E+03 -0.11274232157E+03  0.75109171154E+03  0.10271137644E+04  0.50400001928E-02 0. -1.
       -1    1    3    3    0  502 -0.69145722562E+03  0.11274232157E+03  0.10320101852E+04  0.12473447592E+04  0.50400001928E-02 0.  1.
</event>
<event>
 5   0  0.3907270E-04  0.1387964E+04  0.7818609E-02  0.8962577E-01
       -1   -1    0    0    0  501  0.00000000000E+00  0.00000000000E+00  0.66370042098E+03  0.66370042100E+03  0.50400001928E-02 0. -1.
        1   -1    0    0  501    0  0.00000000000E+00  0.00000000000E+00 -0.72564559188E+03  0.72564559190E+03  0.50400001928E-02 0.  1.
    10030    2    1    2    0    0  0.00000000000E+00  0.00000000000E+00 -0.61945170893E+02  0.13893460129E+04  0.13879643869E+04 0.  0.
        3    1    3    3  502    0 -0.27216539267E+03 -0.26173852805E+03  0.55187003181E+03  0.66868647380E+03  0.10100000352E+00 0. -1.
       -3    1    3    3    0  502  0.27216539267E+03  0.26173852805E+03 -0.61381520270E+03  0.72065953910E+03  0.10100000352E+00 0.  1.
</event>
<event>
 5   0  0.6870835E-04  0.1385464E+04  0.7818609E-02  0.8964408E-01
       -2   -1    0    0    0  501  0.00000000000E+00  0.00000000000E+00  0.92841525816E+03  0.92841525816E+03  0.25500000920E-02 0. -1.
        2   -1    0    0  501    0  0.00000000000E+00  0.00000000000E+00 -0.51687794547E+03  0.51687794547E+03  0.25500000920E-02 0.  1.
    10030    2    1    2    0    0  0.00000000000E+00  0.00000000000E+00  0.41153731269E+03  0.14452932036E+04  0.13854636353E+04 0.  0.
        2    1    3    3  502    0  0.44087369763E+03 -0.31157836084E+03 -0.24705804354E+03  0.59370730928E+03  0.25500000920E-02 0.  1.
       -2    1    3    3    0  502 -0.44087369763E+03  0.31157836084E+03  0.65859535624E+03  0.85158589436E+03  0.25500000920E-02 0. -1.
</event>
<event>
 5   0  0.6895048E-04  0.1416329E+04  0.7818609E-02  0.8942083E-01
       -2   -1    0    0    0  501  0.00000000000E+00  0.00000000000E+00  0.81928511156E+03  0.81928511157E+03  0.25500000920E-02 0.  1.
        2   -1    0    0  501    0  0.00000000000E+00  0.00000000000E+00 -0.61211568664E+03  0.61211568664E+03  0.25500000920E-02 0. -1.
    10030    2    1    2    0    0  0.00000000000E+00  0.00000000000E+00  0.20716942493E+03  0.14314007982E+04  0.14163294371E+04 0.  0.
        4    1    3    3  502    0  0.66625902976E+03 -0.23776534419E+03  0.70646460414E+02  0.71093318174E+03  0.12699999809E+01 0.  1.
       -4    1    3    3    0  502 -0.66625902976E+03  0.23776534419E+03  0.13652296451E+03  0.72046761646E+03  0.12699999809E+01 0. -1.
</event>
<event>
 5   0  0.3977658E-04  0.1403004E+04  0.7818609E-02  0.8951647E-01
       -1   -1    0    0    0  501  0.00000000000E+00  0.00000000000E+00  0.55959566026E+03  0.55959566028E+03  0.50400001928E-02 0. -1.
        1   -1    0    0  501    0  0.00000000000E+00  0.00000000000E+00 -0.87939379019E+03  0.87939379021E+03  0.50400001928E-02 0.  1.
    10030    2    1    2    0    0  0.00000000000E+00  0.00000000000E+00 -0.31979812993E+03  0.14389894505E+04  0.14030038470E+04 0.  0.
        5    1    3    3  502    0 -0.54739089499E+03 -0.18990487086E+03 -0.56549390090E+03  0.80963330826E+03  0.46999998093E+01 0.  1.
       -5    1    3    3    0  502  0.54739089499E+03  0.18990487086E+03  0.24569577097E+03  0.62935614223E+03  0.46999998093E+01 0. -1.
</event>
<event>
 5   0  0.6895048E-04  0.1404196E+04  0.7818609E-02  0.8950787E-01
        2   -1    0    0  501    0  0.00000000000E+00  0.00000000000E+00  0.41364426531E+03  0.41364426532E+03  0.25500000920E-02 0.  1.
       -2   -1    0    0    0  501  0.00000000000E+00  0.00000000000E+00 -0.11917045916E+04  0.11917045916E+04  0.25500000920E-02 0. -1.
    10030    2    1    2    0    0  0.00000000000E+00  0.00000000000E+00 -0.77806032628E+03  0.16053488569E+04  0.14041962402E+04 0.  0.
        4    1    3    3  502    0 -0.45627748684E+03  0.34166919353E+03  0.79581707949E+02  0.57555351094E+03  0.12699999809E+01 0.  1.
       -4    1    3    3    0  502  0.45627748684E+03 -0.34166919353E+03 -0.85764203423E+03  0.10297953460E+04  0.12699999809E+01 0. -1.
</event>
<event>
 5   0  0.3756664E-04  0.1407518E+04  0.7818609E-02  0.8948394E-01
        1   -1    0    0  501    0  0.00000000000E+00  0.00000000000E+00  0.16492227789E+04  0.16492227790E+04  0.50400001928E-02 0. -1.
       -1   -1    0    0    0  501  0.00000000000E+00  0.00000000000E+00 -0.30030938519E+03  0.30030938524E+03  0.50400001928E-02 0.  1.
    10030    2    1    2    0    0  0.00000000000E+00  0.00000000000E+00  0.13489133938E+04  0.19495321642E+04  0.14075184956E+04 0.  0.
        2    1    3    3  502    0 -0.35222350767E+03  0.32426425449E+03 -0.39995080651E+02  0.48042513733E+03  0.25500000920E-02 0.  1.
       -2    1    3    3    0  502  0.35222350767E+03 -0.32426425449E+03  0.13889084744E+04  0.14691070269E+04  0.25500000920E-02 0. -1.
</event>
<event>
 5   0  0.6959748E-04  0.1397314E+04  0.7818609E-02  0.8955765E-01
        2   -1    0    0  501    0  0.00000000000E+00  0.00000000000E+00  0.78632131616E+03  0.78632131616E+03  0.25500000920E-02 0. -1.
       -2   -1    0    0    0  501  0.00000000000E+00  0.00000000000E+00 -0.62076575242E+03  0.62076575243E+03  0.25500000920E-02 0.  1.
    10030    2    1    2    0    0  0.00000000000E+00  0.00000000000E+00  0.16555556374E+03  0.14070870686E+04  0.13973136276E+04 0.  0.
        5    1    3    3  502    0  0.25534157031E+03  0.21007222775E+03  0.70252506562E+03  0.77646198634E+03  0.46999998093E+01 0. -1.
       -5    1    3    3    0  502 -0.25534157031E+03 -0.21007222775E+03 -0.53696950189E+03  0.63062508225E+03  0.46999998093E+01 0.  1.
</event>
<event>
 5   0  0.3756664E-04  0.1379610E+04  0.7818609E-02  0.8968711E-01
       -1   -1    0    0    0  501  0.00000000000E+00  0.00000000000E+00  0.55704336565E+03  0.55704336567E+03  0.50400001928E-02 0.  1.
        1   -1    0    0  501    0  0.00000000000E+00  0.00000000000E+00 -0.85420818180E+03  0.85420818181E+03  0.50400001928E-02 0. -1.
    10030    2    1    2    0    0  0.00000000000E+00  0.00000000000E+00 -0.29716481615E+03  0.14112515475E+04  0.13796100907E+04 0.  0.
        2    1    3    3  502    0  0.21923093255E+02  0.35297985981E+03  0.45724703202E+03  0.57805730836E+03  0.25500000920E-02 0.  1.
       -2    1    3    3    0  502 -0.21923093255E+02 -0.35297985981E+03 -0.75441184817E+03  0.83319423913E+03  0.25500000920E-02 0. -1.
</event>
<event>
 5   0  0.7296966E-04  0.1391081E+04  0.7818609E-02  0.8960300E-01
        2   -1    0    0  501    0  0.00000000000E+00  0.00000000000E+00  0.14622612071E+04  0.14622612071E+04  0.25500000920E-02 0.  1.
       -2   -1    0    0    0  501  0.00000000000E+00  0.00000000000E+00 -0.33084130404E+03  0.33084130405E+03  0.25500000920E-02 0. -1.
    10030    2    1    2    0    0  0.00000000000E+00  0.00000000000E+00  0.11314199031E+04  0.17931025112E+04  0.13910807376E+04 0.  0.
        3    1    3    3  502    0  0.62932741508E+02 -0.36017064169E+03 -0.19697377328E+03  0.41530964189E+03  0.10100000352E+00 0.  1.
       -3    1    3    3    0  502 -0.62932741508E+02  0.36017064169E+03  0.13283936764E+04  0.13777928693E+04  0.10100000352E+00 0. -1.
</event>
<event>
 5   0  0.2660250E-04  0.1406788E+04  0.7818609E-02  0.8948919E-01
       -4   -1    0    0    0  501  0.00000000000E+00  0.00000000000E+00  0.95589316748E+03  0.95589401114E+03  0.12699999809E+01 0.  1.
        4   -1    0    0  501    0  0.00000000000E+00  0.00000000000E+00 -0.51759083103E+03  0.51759238911E+03  0.12699999809E+01 0. -1.
    10030    2    1    2    0    0  0.00000000000E+00  0.00000000000E+00  0.43830233645E+03  0.14734864003E+04  0.14067882689E+04 0.  0.
        4    1    3    3  502    0  0.28162952267E+03 -0.30365349321E+03 -0.37634731166E+03  0.55960659741E+03  0.12699999809E+01 0. -1.
       -4    1    3    3    0  502 -0.28162952267E+03  0.30365349321E+03  0.81464964811E+03  0.91387980284E+03  0.12699999809E+01 0.  1.
</event>
<event>
 5   0  0.6870835E-04  0.1433243E+04  0.7818609E-02  0.8930101E-01
        2   -1    0    0  501    0  0.00000000000E+00  0.00000000000E+00  0.89239776685E+03  0.89239776685E+03  0.25500000920E-02 0.  1.
       -2   -1    0    0    0  501  0.00000000000E+00  0.00000000000E+00 -0.57546802342E+03  0.57546802342E+03  0.25500000920E-02 0. -1.
    10030    2    1    2    0    0  0.00000000000E+00  0.00000000000E+00  0.31692974343E+03  0.14678657903E+04  0.14332430066E+04 0.  0.
        2    1    3    3  502    0 -0.21556928234E+03  0.34134806792E+03  0.76484688454E+03  0.86485800901E+03  0.25500000920E-02 0.  1.
       -2    1    3    3    0  502  0.21556928234E+03 -0.34134806792E+03 -0.44791714110E+03  0.60300778127E+03  0.25500000920E-02 0. -1.
</event>
<event>
 5   0  0.2660250E-04  0.1408374E+04  0.7818609E-02  0.8947779E-01
       -3   -1    0    0    0  501  0.00000000000E+00  0.00000000000E+00  0.73013775511E+03  0.73013776209E+03  0.10100000352E+00 0. -1.
        3   -1    0    0  501    0  0.00000000000E+00  0.00000000000E+00 -0.67915839754E+03  0.67915840505E+03  0.10100000352E+00 0.  1.
    10030    2    1    2    0    0  0.00000000000E+00  0.00000000000E+00  0.50979357570E+02  0.14092961671E+04  0.14083738111E+04 0.  0.
        2    1    3    3  502    0 -0.22857766637E+03  0.55933148345E+03  0.38736133232E+03  0.71773829473E+03  0.25500000920E-02 0. -1.
       -2    1    3    3    0  502  0.22857766637E+03 -0.55933148345E+03 -0.33638197475E+03  0.69155787241E+03  0.25500000920E-02 0.  1.
</event>
<event>
 5   0  0.6895048E-04  0.1396370E+04  0.7818609E-02  0.8956451E-01
        2   -1    0    0  501    0  0.00000000000E+00  0.00000000000E+00  0.11416502736E+04  0.11416502736E+04  0.25500000920E-02 0. -1.
       -2   -1    0    0    0  501  0.00000000000E+00  0.00000000000E+00 -0.42698013464E+03  0.42698013465E+03  0.25500000920E-02 0.  1.
    10030    2    1    2    0    0  0.00000000000E+00  0.00000000000E+00  0.71467013892E+03  0.15686304082E+04  0.13963695607E+04 0.  0.
        4    1    3    3  502    0 -0.38642583329E+03 -0.41404033862E+03 -0.10133028273E+03  0.57534664832E+03  0.12699999809E+01 0.  1.
       -4    1    3    3    0  502  0.38642583329E+03  0.41404033862E+03  0.81600042165E+03  0.99328375989E+03  0.12699999809E+01 0. -1.
</event>
<event>
 5   0  0.6959748E-04  0.1391342E+04  0.7818609E-02  0.8960109E-01
       -2   -1    0    0    0  501  0.00000000000E+00  0.00000000000E+00  0.68212823191E+03  0.68212823191E+03  0.25500000920E-02 0.  1.
        2   -1    0    0  501    0  0.00000000000E+00  0.00000000000E+00 -0.70948301420E+03  0.70948301421E+03  0.25500000920E-02 0. -1.
    10030    2    1    2    0    0  0.00000000000E+00  0.00000000000E+00 -0.27354782296E+02  0.13916112461E+04  0.13913423648E+04 0.  0.
        5    1    3    3  502    0 -0.57762818068E+03  0.34722728100E+03  0.15873690782E+03  0.69241649005E+03  0.46999998093E+01 0.  1.
       -5    1    3    3    0  502  0.57762818068E+03 -0.34722728100E+03 -0.18609169012E+03  0.69919475607E+03  0.46999998093E+01 0. -1.
</event>
<event>
 5   0  0.3907093E-04  0.1404005E+04  0.7818609E-02  0.8950924E-01
       -1   -1    0    0    0  501  0.00000000000E+00  0.00000000000E+00  0.14309143448E+04  0.14309143448E+04  0.50400001928E-02 0. -1.
        1   -1    0    0  501    0  0.00000000000E+00  0.00000000000E+00 -0.34440054444E+03  0.34440054447E+03  0.50400001928E-02 0.  1.
    10030    2    1    2    0    0  0.00000000000E+00  0.00000000000E+00  0.10865138003E+04  0.17753148893E+04  0.14040052413E+04 0.  0.
        4    1    3    3  502    0 -0.12103752074E+03  0.55181170195E+03  0.10701910591E+04  0.12101474091E+04  0.12699999809E+01 0. -1.
       -4    1    3    3    0  502  0.12103752074E+03 -0.55181170195E+03  0.16322741215E+02  0.56516748015E+03  0.12699999809E+01 0.  1.
</event>
<event>
 5   0  0.2660250E-04  0.1398033E+04  0.7818609E-02  0.8955244E-01
        4   -1    0    0  501    0  0.00000000000E+00  0.00000000000E+00  0.40709581700E+03  0.40709779798E+03  0.12699999809E+01 0. -1.
       -4   -1    0    0    0  501  0.00000000000E+00  0.00000000000E+00 -0.12002621161E+04  0.12002627880E+04  0.12699999809E+01 0.  1.
    10030    2    1    2    0    0  0.00000000000E+00  0.00000000000E+00 -0.79316629912E+03  0.16073605860E+04  0.13980326446E+04 0.  0.
        3    1    3    3  502    0 -0.10933282186E+03  0.31125752983E+03 -0.11051276509E+04  0.11533178446E+04  0.10100000352E+00 0.  1.
       -3    1    3    3    0  502  0.10933282186E+03 -0.31125752983E+03  0.31196135175E+03  0.45404274137E+03  0.10100000352E+00 0. -1.
</event>
<event>
 5   0  0.6959748E-04  0.1556126E+04  0.7818609E-02  0.8847964E-01
        2   -1    0    0  501    0  0.00000000000E+00  0.00000000000E+00  0.11893507832E+04  0.11893507832E+04  0.25500000920E-02 0. -1.
       -2   -1    0    0    0  501  0.00000000000E+00  0.00000000000E+00 -0.50900187080E+03  0.50900187080E+03  0.25500000920E-02 0.  1.
    10030    2    1    2    0    0  0.00000000000E+00  0.00000000000E+00  0.68034891243E+03  0.16983526540E+04  0.15561256681E+04 0.  0.
        5    1    3    3  502    0  0.13078114016E+03  0.59474126305E+03 -0.18838100422E+03  0.63744048298E+03  0.46999998093E+01 0.  1.
       -5    1    3    3    0  502 -0.13078114016E+03 -0.59474126305E+03  0.86872991666E+03  0.10609121711E+04  0.46999998093E+01 0. -1.
</event>
<event>
 5   0  0.3907270E-04  0.1398380E+04  0.7818609E-02  0.8954992E-01
        1   -1    0    0  501    0  0.00000000000E+00  0.00000000000E+00  0.52788090884E+03  0.52788090886E+03  0.50400001928E-02 0.  1.
       -1   -1    0    0    0  501  0.00000000000E+00  0.00000000000E+00 -0.92609294263E+03  0.92609294265E+03  0.50400001928E-02 0. -1.
    10030    2    1    2    0    0  0.00000000000E+00  0.00000000000E+00 -0.39821203380E+03  0.14539738515E+04  0.13983801833E+04 0.  0.
        3    1    3    3  502    0 -0.23450993521E+02 -0.67849416374E+03 -0.37297387054E+03  0.77460557552E+03  0.10100000352E+00 0. -1.
       -3    1    3    3    0  502  0.23450993521E+02  0.67849416374E+03 -0.25238163264E+02  0.67936827598E+03  0.10100000352E+00 0.  1.
</event>
<event>
 5   0  0.7065539E-04  0.1302502E+04  0.7818609E-02  0.9027583E-01
        2   -1    0    0  501    0  0.00000000000E+00  0.00000000000E+00  0.13214254632E+04  0.13214254632E+04  0.25500000920E-02 0. -1.
       -2   -1    0    0    0  501  0.00000000000E+00  0.00000000000E+00 -0.32096254799E+03  0.32096254800E+03  0.25500000920E-02 0.  1.
    10030    2    1    2    0    0  0.00000000000E+00  0.00000000000E+00  0.10004629152E+04  0.16423880112E+04  0.13025023357E+04 0.  0.
        1    1    3    3  502    0  0.64582178400E+03 -0.68709697647E+02  0.56098357656E+03  0.85820124238E+03  0.50400001928E-02 0. -1.
       -1    1    3    3    0  502 -0.64582178400E+03  0.68709697647E+02  0.43947933861E+03  0.78418676878E+03  0.50400001928E-02 0.  1.
</event>
<event>
 5   0  0.3784219E-04  0.1405255E+04  0.7818609E-02  0.8950023E-01
        1   -1    0    0  501    0  0.00000000000E+00  0.00000000000E+00  0.54155264824E+03  0.54155264826E+03  0.50400001928E-02 0.  1.
       -1   -1    0    0    0  501  0.00000000000E+00  0.00000000000E+00 -0.91161126918E+03  0.91161126920E+03  0.50400001928E-02 0. -1.
    10030    2    1    2    0    0  0.00000000000E+00  0.00000000000E+00 -0.37005862094E+03  0.14531639175E+04  0.14052551327E+04 0.  0.
        1    1    3    3  502    0 -0.56940458098E+03 -0.29119654717E+03 -0.48592802708E+03  0.80320797646E+03  0.50400001928E-02 0. -1.
       -1    1    3    3    0  502  0.56940458098E+03  0.29119654717E+03  0.11586940614E+03  0.64995594099E+03  0.50400001928E-02 0.  1.
</event>
<event>
 5   0  0.7065539E-04  0.1401083E+04  0.7818609E-02  0.8953035E-01
        2   -1    0    0  501    0  0.00000000000E+00  0.00000000000E+00  0.16067753703E+04  0.16067753703E+04  0.25500000920E-02 0.  1.
       -2   -1    0    0    0  501  0.00000000000E+00  0.00000000000E+00 -0.30543060578E+03  0.30543060579E+03  0.25500000920E-02 0. -1.
    10030    2    1    2    0    0  0.00000000000E+00  0.00000000000E+00  0.13013447645E+04  0.19122059761E+04  0.14010829736E+04 0.  0.
        1    1    3    3  502    0  0.57180717569E+03 -0.25998697827E+03  0.10739859498E+04  0.12441874841E+04  0.50400001928E-02 0.  1.
       -1    1    3    3    0  502 -0.57180717569E+03  0.25998697827E+03  0.22735881470E+03  0.66801849203E+03  0.50400001928E-02 0. -1.
</event>
<event>
 5   0  0.7065539E-04  0.1404076E+04  0.7818609E-02  0.8950873E-01
       -2   -1    0    0    0  501  0.00000000000E+00  0.00000000000E+00  0.41370093994E+03  0.41370093995E+03  0.25500000920E-02 0.  1.
        2   -1    0    0  501    0  0.00000000000E+00  0.00000000000E+00 -0.11913377689E+04  0.11913377689E+04  0.25500000920E-02 0. -1.
    10030    2    1    2    0    0  0.00000000000E+00  0.00000000000E+00 -0.77763682896E+03  0.16050387089E+04  0.14040762868E+04 0.  0.
        1    1    3    3  502    0  0.62381124674E+03  0.29469153621E+03 -0.53731059780E+03  0.87446340782E+03  0.50400001928E-02 0.  1.
       -1    1    3    3    0  502 -0.62381124674E+03 -0.29469153621E+03 -0.24032623117E+03  0.73057530104E+03  0.50400001928E-02 0. -1.
</event>
<event>
 5   0  0.6959748E-04  0.1398845E+04  0.7818609E-02  0.8954655E-01
        2   -1    0    0  501    0  0.00000000000E+00  0.00000000000E+00  0.21559284973E+04  0.21559284973E+04  0.25500000920E-02 0.  1.
       -2   -1    0    0    0  501  0.00000000000E+00  0.00000000000E+00 -0.22690530183E+03  0.22690530184E+03  0.25500000920E-02 0. -1.
    10030    2    1    2    0    0  0.00000000000E+00  0.00000000000E+00  0.19290231955E+04  0.23828337992E+04  0.13988446753E+04 0.  0.
        5    1    3    3  502    0  0.13376125302E+03 -0.66688077025E+03  0.12420582058E+04  0.14161047670E+04  0.46999998093E+01 0.  1.
       -5    1    3    3    0  502 -0.13376125302E+03  0.66688077025E+03  0.68696498967E+03  0.96672903214E+03  0.46999998093E+01 0. -1.
</event>
<event>
 5   0  0.7296966E-04  0.1395382E+04  0.7818609E-02  0.8957168E-01
       -2   -1    0    0    0  501  0.00000000000E+00  0.00000000000E+00  0.27394583595E+03  0.27394583596E+03  0.25500000920E-02 0. -1.
        2   -1    0    0  501    0  0.00000000000E+00  0.00000000000E+00 -0.17768947465E+04  0.17768947465E+04  0.25500000920E-02 0.  1.
    10030    2    1    2    0    0  0.00000000000E+00  0.00000000000E+00 -0.15029489105E+04  0.20508405824E+04  0.13953822655E+04 0.  0.
        3    1    3    3  502    0  0.19714600231E+03  0.25720707956E+03  0.15661519575E+03  0.35993104582E+03  0.10100000352E+00 0. -1.
       -3    1    3    3    0  502 -0.19714600231E+03 -0.25720707956E+03 -0.16595641063E+04  0.16909095366E+04  0.10100000352E+00 0.  1.
</event>
<event>
 5   0  0.3756664E-04  0.1412340E+04  0.7818609E-02  0.8944934E-01
        1   -1    0    0  501    0  0.00000000000E+00  0.00000000000E+00  0.10446291147E+04  0.10446291147E+04  0.50400001928E-02 0.  1.
       -1   -1    0    0    0  501  0.00000000000E+00  0.00000000000E+00 -0.47737133426E+03  0.47737133429E+03  0.50400001928E-02 0. -1.
    10030    2    1    2    0    0  0.00000000000E+00  0.00000000000E+00  0.56725778046E+03  0.15220004490E+04  0.14123398944E+04 0.  0.
        2    1    3    3  502    0 -0.40806375652E+03  0.15846158799E+03 -0.31351642138E+03  0.53844094452E+03  0.25500000920E-02 0. -1.
       -2    1    3    3    0  502  0.40806375652E+03 -0.15846158799E+03  0.88077420184E+03  0.98355950450E+03  0.25500000920E-02 0.  1.
</event>
<event>
 5   0  0.3907270E-04  0.1397093E+04  0.7818609E-02  0.8955925E-01
       -1   -1    0    0    0  501  0.00000000000E+00  0.00000000000E+00  0.67100363505E+03  0.67100363507E+03  0.50400001928E-02 0.  1.
        1   -1    0    0  501    0  0.00000000000E+00  0.00000000000E+00 -0.72721995159E+03  0.72721995161E+03  0.50400001928E-02 0. -1.
    10030    2    1    2    0    0  0.00000000000E+00  0.00000000000E+00 -0.56216316534E+02  0.13982235867E+04  0.13970930263E+04 0.  0.
        3    1    3    3  502    0 -0.14945357873E+03 -0.66502545587E+03  0.12489456493E+03  0.69296023818E+03  0.10100000352E+00 0.  1.
       -3    1    3    3    0  502  0.14945357873E+03  0.66502545587E+03 -0.18111088147E+03  0.70526334850E+03  0.10100000352E+00 0. -1.
</event>
<event>
 5   0  0.2660250E-04  0.1401175E+04  0.7818609E-02  0.8952968E-01
       -3   -1    0    0    0  501  0.00000000000E+00  0.00000000000E+00  0.65133240883E+03  0.65133241666E+03  0.10100000352E+00 0. -1.
        3   -1    0    0  501    0  0.00000000000E+00  0.00000000000E+00 -0.75356737104E+03  0.75356737781E+03  0.10100000352E+00 0.  1.
    10030    2    1    2    0    0  0.00000000000E+00  0.00000000000E+00 -0.10223496221E+03  0.14048997945E+04  0.14011750230E+04 0.  0.
        4    1    3    3  502    0  0.50245750099E+03 -0.47722865928E+03  0.52163698605E+02  0.69493409607E+03  0.12699999809E+01 0. -1.
       -4    1    3    3    0  502 -0.50245750099E+03  0.47722865928E+03 -0.15439866081E+03  0.70996569839E+03  0.12699999809E+01 0.  1.
</event>
<event>
 5   0  0.3756664E-04  0.1262556E+04  0.7818609E-02  0.9059797E-01
        1   -1    0    0  501    0  0.00000000000E+00  0.00000000000E+00  0.87947850578E+03  0.87947850580E+03  0.50400001928E-02 0.  1.
       -1   -1    0    0    0  501  0.00000000000E+00  0.00000000000E+00 -0.45312309846E+03  0.45312309849E+03  0.50400001928E-02 0. -1.
    10030    2    1    2    0    0  0.00000000000E+00  0.00000000000E+00  0.42635540732E+03  0.13326016043E+04  0.12625561779E+04 0.  0.
        2    1    3    3  502    0 -0.42549266821E+03  0.32340081439E+03 -0.14143801533E+03  0.55284429059E+03  0.25500000920E-02 0.  1.
       -2    1    3    3    0  502  0.42549266821E+03 -0.32340081439E+03  0.56779342265E+03  0.77975731369E+03  0.25500000920E-02 0. -1.
</event>
<event>
 5   0  0.3784219E-04  0.1370384E+04  0.7818609E-02  0.8975539E-01
       -1   -1    0    0    0  501  0.00000000000E+00  0.00000000000E+00  0.90498794070E+03  0.90498794072E+03  0.50400001928E-02 0.  1.
        1   -1    0    0  501    0  0.00000000000E+00  0.00000000000E+00 -0.51877846223E+03  0.51877846225E+03  0.50400001928E-02 0. -1.
    10030    2    1    2    0    0  0.00000000000E+00  0.00000000000E+00  0.38620947847E+03  0.14237664030E+04  0.13703842560E+04 0.  0.
        1    1    3    3  502    0  0.60626432569E+03 -0.30034534746E+03  0.30560237488E+03  0.74239919983E+03  0.50400001928E-02 0. -1.
       -1    1    3    3    0  502 -0.60626432569E+03  0.30034534746E+03  0.80607103594E+02  0.68136720314E+03  0.50400001928E-02 0.  1.
</event>
<event>
 5   0  0.6895048E-04  0.1400993E+04  0.7818609E-02  0.8953100E-01
        2   -1    0    0  501    0  0.00000000000E+00  0.00000000000E+00  0.87721714480E+03  0.87721714480E+03  0.25500000920E-02 0.  1.
       -2   -1    0    0    0  501  0.00000000000E+00  0.00000000000E+00 -0.55937761267E+03  0.55937761268E+03  0.25500000920E-02 0. -1.
    10030    2    1    2    0    0  0.00000000000E+00  0.00000000000E+00  0.31783953213E+03  0.14365947575E+04  0.14009934079E+04 0.  0.
        4    1    3    3  502    0  0.41330304903E+03  0.25279493601E+03 -0.35987089635E+03  0.60351749349E+03  0.12699999809E+01 0. -1.
       -4    1    3    3    0  502 -0.41330304903E+03 -0.25279493601E+03  0.67771042848E+03  0.83307726399E+03  0.12699999809E+01 0.  1.
</event>
<event>
 5   0  0.3907270E-04  0.1396726E+04  0.7818609E-02  0.8956192E-01
        1   -1    0    0  501    0  0.00000000000E+00  0.00000000000E+00  0.15186119179E+04  0.15186119179E+04  0.50400001928E-02 0. -1.
       -1   -1    0    0    0  501  0.00000000000E+00  0.00000000000E+00 -0.32115572326E+03  0.32115572330E+03  0.50400001928E-02 0.  1.
    10030    2    1    2    0    0  0.00000000000E+00  0.00000000000E+00  0.11974561946E+04  0.18397676412E+04  0.13967260417E+04 0.  0.
        3    1    3    3  502    0  0.29105850770E+03  0.32820763100E+03  0.13144849619E+04  0.13857510704E+04  0.10100000352E+00 0. -1.
       -3    1    3    3    0  502 -0.29105850770E+03 -0.32820763100E+03 -0.11702876727E+03  0.45401657076E+03  0.10100000352E+00 0.  1.
</event>
<event>
 5   0  0.6870835E-04  0.1387215E+04  0.7818609E-02  0.8963126E-01
       -2   -1    0    0    0  501  0.00000000000E+00  0.00000000000E+00  0.62195558574E+03  0.62195558575E+03  0.25500000920E-02 0.  1.
        2   -1    0    0  501    0  0.00000000000E+00  0.00000000000E+00 -0.77351362532E+03  0.77351362532E+03  0.25500000920E-02 0. -1.
    10030    2    1    2    0    0  0.00000000000E+00  0.00000000000E+00 -0.15155803957E+03  0.13954692111E+04  0.13872146480E+04 0.  0.
        2    1    3    3  502    0  0.14793040848E+03 -0.52955319877E+03  0.34956215314E+03  0.65153948076E+03  0.25500000920E-02 0.  1.
       -2    1    3    3    0  502 -0.14793040848E+03  0.52955319877E+03 -0.50112019271E+03  0.74392973030E+03  0.25500000920E-02 0. -1.
</event>
<event>
 5   0  0.3977658E-04  0.1395829E+04  0.7818609E-02  0.8956843E-01
       -1   -1    0    0    0  501  0.00000000000E+00  0.00000000000E+00  0.52060419717E+03  0.52060419719E+03  0.50400001928E-02 0.  1.
        1   -1    0    0  501    0  0.00000000000E+00  0.00000000000E+00 -0.93561445210E+03  0.93561445212E+03  0.50400001928E-02 0. -1.
    10030    2    1    2    0    0  0.00000000000E+00  0.00000000000E+00 -0.41501025494E+03  0.14562186493E+04  0.13958292313E+04 0.  0.
        5    1    3    3  502    0  0.48239909174E+03 -0.43592388579E+02  0.31668040788E+03  0.57872078828E+03  0.46999998093E+01 0.  1.
       -5    1    3    3    0  502 -0.48239909174E+03  0.43592388579E+02 -0.73169066282E+03  0.87749786103E+03  0.46999998093E+01 0. -1.
</event>
<event>
 5   0  0.6895048E-04  0.1405491E+04  0.7818609E-02  0.8949853E-01
        2   -1    0    0  501    0  0.00000000000E+00  0.00000000000E+00  0.80859081914E+03  0.80859081914E+03  0.25500000920E-02 0. -1.
       -2   -1    0    0    0  501  0.00000000000E+00  0.00000000000E+00 -0.61075584402E+03  0.61075584402E+03  0.25500000920E-02 0.  1.
    10030    2    1    2    0    0  0.00000000000E+00  0.00000000000E+00  0.19783497512E+03  0.14193466632E+04  0.14054914702E+04 0.  0.
        4    1    3    3  502    0  0.54631452767E+03 -0.41560384094E+03  0.25094668766E+03  0.73086385100E+03  0.12699999809E+01 0.  1.
       -4    1    3    3    0  502 -0.54631452767E+03  0.41560384094E+03 -0.53111712537E+02  0.68848281217E+03  0.12699999809E+01 0. -1.
</event>
<event>
 5   0  0.7065539E-04  0.1402715E+04  0.7818609E-02  0.8951856E-01
        2   -1    0    0  501    0  0.00000000000E+00  0.00000000000E+00  0.10056813472E+04  0.10056813472E+04  0.25500000920E-02 0. -1.
       -2   -1    0    0    0  501  0.00000000000E+00  0.00000000000E+00 -0.48912325585E+03  0.48912325586E+03  0.25500000920E-02 0.  1.
    10030    2    1    2    0    0  0.00000000000E+00  0.00000000000E+00  0.51655809139E+03  0.14948046031E+04  0.14027147036E+04 0.  0.
        1    1    3    3  502    0  0.93893575356E+02  0.71740327767E+02 -0.47843935973E+03  0.49281527887E+03  0.50400001928E-02 0.  1.
       -1    1    3    3    0  502 -0.93893575356E+02 -0.71740327767E+02  0.99499745112E+03  0.10019893242E+04  0.50400001928E-02 0. -1.
</event>
<event>
 5   0  0.7065539E-04  0.1430116E+04  0.7818609E-02  0.8932303E-01
       -2   -1    0    0    0  501  0.00000000000E+00  0.00000000000E+00  0.34689761873E+03  0.34689761874E+03  0.25500000920E-02 0. -1.
        2   -1    0    0  501    0  0.00000000000E+00  0.00000000000E+00 -0.14739453728E+04  0.14739453728E+04  0.25500000920E-02 0.  1.
    10030    2    1    2    0    0  0.00000000000E+00  0.00000000000E+00 -0.11270477540E+04  0.18208429915E+04  0.14301162749E+04 0.  0.
        1    1    3    3  502    0 -0.29576902187E+03 -0.41599942499E+03 -0.12011143232E+04  0.13050710530E+04  0.50400001928E-02 0.  1.
       -1    1    3    3    0  502  0.29576902187E+03  0.41599942499E+03  0.74066569153E+02  0.51577193854E+03  0.50400001928E-02 0. -1.
</event>
<event>
 5   0  0.3907093E-04  0.1391232E+04  0.7818609E-02  0.8960190E-01
        1   -1    0    0  501    0  0.00000000000E+00  0.00000000000E+00  0.13166019547E+04  0.13166019547E+04  0.50400001928E-02 0. -1.
       -1   -1    0    0    0  501  0.00000000000E+00  0.00000000000E+00 -0.36752290431E+03  0.36752290435E+03  0.50400001928E-02 0.  1.
    10030    2    1    2    0    0  0.00000000000E+00  0.00000000000E+00  0.94907905036E+03  0.16841248590E+04  0.13912316475E+04 0.  0.
        4    1    3    3  502    0  0.30550978079E+03  0.60338824260E+03  0.27760569086E+03  0.73108147970E+03  0.12699999809E+01 0. -1.
       -4    1    3    3    0  502 -0.30550978079E+03 -0.60338824260E+03  0.67147335950E+03  0.95304337933E+03  0.12699999809E+01 0.  1.
</event>
<event>
 5   0  0.6895048E-04  0.1423321E+04  0.7818609E-02  0.8937109E-01
       -2   -1    0    0    0  501  0.00000000000E+00  0.00000000000E+00  0.50594498406E+03  0.50594498407E+03  0.25500000920E-02 0. -1.
        2   -1    0    0  501    0  0.00000000000E+00  0.00000000000E+00 -0.10010192120E+04  0.10010192120E+04  0.25500000920E-02 0.  1.
    10030    2    1    2    0    0  0.00000000000E+00  0.00000000000E+00 -0.49507422789E+03  0.15069641960E+04  0.14233209747E+04 0.  0.
        4    1    3    3  502    0 -0.44067639001E+02 -0.12759711247E+03  0.49226404821E+03  0.51043950276E+03  0.12699999809E+01 0. -1.
       -4    1    3    3    0  502  0.44067639001E+02  0.12759711247E+03 -0.98733827611E+03  0.99652469326E+03  0.12699999809E+01 0.  1.
</event>
<event>
 5   0  0.6895048E-04  0.1417701E+04  0.7818609E-02  0.8941104E-01
       -2   -1    0    0    0  501  0.00000000000E+00  0.00000000000E+00  0.52521837940E+03  0.52521837941E+03  0.25500000920E-02 0.  1.
        2   -1    0    0  501    0  0.00000000000E+00  0.00000000000E+00 -0.95668578271E+03  0.95668578271E+03  0.25500000920E-02 0. -1.
    10030    2    1    2    0    0  0.00000000000E+00  0.00000000000E+00 -0.43146740331E+03  0.14819041621E+04  0.14177008943E+04 0.  0.
        4    1    3    3  502    0 -0.15486237599E+03  0.69170207218E+03 -0.20970797477E+03  0.73919764592E+03  0.12699999809E+01 0. -1.
       -4    1    3    3    0  502  0.15486237599E+03 -0.69170207218E+03 -0.22175942854E+03  0.74270651620E+03  0.12699999809E+01 0.  1.
</event>
<event>
 5   0  0.2660250E-04  0.1392689E+04  0.7818609E-02  0.8959128E-01
        4   -1    0    0  501    0  0.00000000000E+00  0.00000000000E+00  0.37103332731E+03  0.37103550083E+03  0.12699999809E+01 0. -1.
       -4   -1    0    0    0  501  0.00000000000E+00  0.00000000000E+00 -0.13068719107E+04  0.13068725278E+04  0.12699999809E+01 0.  1.
    10030    2    1    2    0    0  0.00000000000E+00  0.00000000000E+00 -0.93583858339E+03  0.16779080286E+04  0.13926885863E+04 0.  0.
        5    1    3    3  502    0 -0.60596842434E+03 -0.25198048159E+03 -0.18747977647E+03  0.68254131815E+03  0.46999998093E+01 0. -1.
       -5    1    3    3    0  502  0.60596842434E+03  0.25198048159E+03 -0.74835880692E+03  0.99536671046E+03  0.46999998093E+01 0.  1.
</event>
<event>
 5   0  0.6895048E-04  0.1397733E+04  0.7818609E-02  0.8955461E-01
        2   -1    0    0  501    0  0.00000000000E+00  0.00000000000E+00  0.15813181379E+04  0.15813181379E+04  0.25500000920E-02 0.  1.
       -2   -1    0    0    0  501  0.00000000000E+00  0.00000000000E+00 -0.30886553628E+03  0.30886553629E+03  0.25500000920E-02 0. -1.
    10030    2    1    2    0    0  0.00000000000E+00  0.00000000000E+00  0.12724526017E+04  0.18901836742E+04  0.13977334148E+04 0.  0.
        4    1    3    3  502    0  0.11233580342E+03 -0.60071328889E+02 -0.29303067301E+03  0.31952540667E+03  0.12699999809E+01 0. -1.
       -4    1    3    3    0  502 -0.11233580342E+03  0.60071328889E+02  0.15654832747E+04  0.15706582676E+04  0.12699999809E+01 0.  1.
</event>
<event>
 5   0  0.3907270E-04  0.1405106E+04  0.7818609E-02  0.8950131E-01
        1   -1    0    0  501    0  0.00000000000E+00  0.00000000000E+00  0.11200994864E+04  0.11200994864E+04  0.50400001928E-02 0. -1.
       -1   -1    0    0    0  501  0.00000000000E+00  0.00000000000E+00 -0.44065766774E+03  0.44065766777E+03  0.50400001928E-02 0.  1.
    10030    2    1    2    0    0  0.00000000000E+00  0.00000000000E+00  0.67944181869E+03  0.15607571542E+04  0.14051055866E+04 0.  0.
        3    1    3    3  502    0 -0.16575127347E+03 -0.44407064959E+03  0.91572874207E+03  0.10311311099E+04  0.10100000352E+00 0. -1.
       -3    1    3    3    0  502  0.16575127347E+03  0.44407064959E+03 -0.23628692338E+03  0.52962604434E+03  0.10100000352E+00 0.  1.
</event>
<event>
 5   0  0.3977658E-04  0.1403776E+04  0.7818609E-02  0.8951090E-01
       -1   -1    0    0    0  501  0.00000000000E+00  0.00000000000E+00  0.51353845185E+03  0.51353845187E+03  0.50400001928E-02 0. -1.
        1   -1    0    0  501    0  0.00000000000E+00  0.00000000000E+00 -0.95931852477E+03  0.95931852478E+03  0.50400001928E-02 0.  1.
    10030    2    1    2    0    0  0.00000000000E+00  0.00000000000E+00 -0.44578007292E+03  0.14728569767E+04  0.14037762643E+04 0.  0.
        5    1    3    3  502    0  0.48131443592E+03  0.47513291715E+03 -0.26012756467E+02  0.67684091830E+03  0.46999998093E+01 0. -1.
       -5    1    3    3    0  502 -0.48131443592E+03 -0.47513291715E+03 -0.41976731646E+03  0.79601605835E+03  0.46999998093E+01 0.  1.
</event>
<event>
 5   0  0.3977658E-04  0.1388672E+04  0.7818609E-02  0.8962060E-01
       -1   -1    0    0    0  501  0.00000000000E+00  0.00000000000E+00  0.47727966183E+03  0.47727966186E+03  0.50400001928E-02 0.  1.
        1   -1    0    0  501    0  0.00000000000E+00  0.00000000000E+00 -0.10101043714E+04  0.10101043714E+04  0.50400001928E-02 0. -1.
    10030    2    1    2    0    0  0.00000000000E+00  0.00000000000E+00 -0.53282470957E+03  0.14873840333E+04  0.13886717003E+04 0.  0.
        5    1    3    3  502    0 -0.27744663158E+03 -0.27039477545E+01 -0.94812701738E+03  0.98790226024E+03  0.46999998093E+01 0. -1.
       -5    1    3    3    0  502  0.27744663158E+03  0.27039477545E+01  0.41530230781E+03  0.49948177302E+03  0.46999998093E+01 0.  1.
</event>
<event>
 5   0  0.3756664E-04  0.1398974E+04  0.7818609E-02  0.8954562E-01
       -1   -1    0    0    0  501  0.00000000000E+00  0.00000000000E+00  0.10435160908E+04  0.10435160908E+04  0.50400001928E-02 0. -1.
        1   -1    0    0  501    0  0.00000000000E+00  0.00000000000E+00 -0.46887809775E+03  0.46887809778E+03  0.50400001928E-02 0.  1.
    10030    2    1    2    0    0  0.00000000000E+00  0.00000000000E+00  0.57463799305E+03  0.15123941886E+04  0.13989736805E+04 0.  0.
        2    1    3    3  502    0  0.13977109336E+03  0.55471807490E+03 -0.14785023592E+03  0.59085344497E+03  0.25500000920E-02 0.  1.
       -2    1    3    3    0  502 -0.13977109336E+03 -0.55471807490E+03  0.72248822897E+03  0.92154074363E+03  0.25500000920E-02 0. -1.
</event>
<event>
 5   0  0.7296966E-04  0.1398424E+04  0.7818609E-02  0.8954960E-01
        2   -1    0    0  501    0  0.00000000000E+00  0.00000000000E+00  0.86561280741E+03  0.86561280742E+03  0.25500000920E-02 0.  1.
       -2   -1    0    0    0  501  0.00000000000E+00  0.00000000000E+00 -0.56479956443E+03  0.56479956444E+03  0.25500000920E-02 0. -1.
    10030    2    1    2    0    0  0.00000000000E+00  0.00000000000E+00  0.30081324298E+03  0.14304123719E+04  0.13984244514E+04 0.  0.
        3    1    3    3  502    0 -0.62626984266E+03  0.30914680747E+03  0.18451701668E+03  0.72237954292E+03  0.10100000352E+00 0.  1.
       -3    1    3    3    0  502  0.62626984266E+03 -0.30914680747E+03  0.11629622630E+03  0.70803282893E+03  0.10100000352E+00 0. -1.
</event>
<event>
 5   0  0.6959748E-04  0.1400320E+04  0.7818609E-02  0.8953587E-01
       -2   -1    0    0    0  501  0.00000000000E+00  0.00000000000E+00  0.12133718750E+04  0.12133718750E+04  0.25500000920E-02 0.  1.
        2   -1    0    0  501    0  0.00000000000E+00  0.00000000000E+00 -0.40401804493E+03  0.40401804494E+03  0.25500000920E-02 0. -1.
    10030    2    1    2    0    0  0.00000000000E+00  0.00000000000E+00  0.80935383005E+03  0.16173899199E+04  0.14003201530E+04 0.  0.
        5    1    3    3  502    0  0.17446720303E+03 -0.59496006161E+02 -0.37546965139E+03  0.41830387136E+03  0.46999998093E+01 0. -1.
       -5    1    3    3    0  502 -0.17446720303E+03  0.59496006161E+02  0.11848234814E+04  0.11990860486E+04  0.46999998093E+01 0.  1.
</event>
<event>
 5   0  0.6870835E-04  0.1303974E+04  0.7818609E-02  0.9026419E-01
        2   -1    0    0  501    0  0.00000000000E+00  0.00000000000E+00  0.10279637634E+04  0.10279637634E+04  0.25500000920E-02 0. -1.
       -2   -1    0    0    0  501  0.00000000000E+00  0.00000000000E+00 -0.41352354731E+03  0.41352354732E+03  0.25500000920E-02 0.  1.
    10030    2    1    2    0    0  0.00000000000E+00  0.00000000000E+00  0.61444021612E+03  0.14414873108E+04  0.13039742666E+04 0.  0.
        2    1    3    3  502    0 -0.41463236235E+03 -0.20667495646E+03  0.81434980357E+03  0.93690988687E+03  0.25500000920E-02 0. -1.
       -2    1    3    3    0  502  0.41463236235E+03  0.20667495646E+03 -0.19990958745E+03  0.50457742389E+03  0.25500000920E-02 0.  1.
</event>
<event>
 5   0  0.3756664E-04  0.1404233E+04  0.7818609E-02  0.8950760E-01
       -1   -1    0    0    0  501  0.00000000000E+00  0.00000000000E+00  0.54759683547E+03  0.54759683549E+03  0.50400001928E-02 0.  1.
        1   -1    0    0  501    0  0.00000000000E+00  0.00000000000E+00 -0.90023880483E+03  0.90023880484E+03  0.50400001928E-02 0. -1.
    10030    2    1    2    0    0  0.00000000000E+00  0.00000000000E+00 -0.35264196936E+03  0.14478356403E+04  0.14042334859E+04 0.  0.
        2    1    3    3  502    0 -0.13554341443E+03  0.31660049475E+03 -0.80716890373E+03  0.87757024199E+03  0.25500000920E-02 0. -1.
       -2    1    3    3    0  502  0.13554341443E+03 -0.31660049475E+03  0.45452693437E+03  0.57026539834E+03  0.25500000920E-02 0.  1.
</event>
<event>
 5   0  0.7065539E-04  0.1383623E+04  0.7818609E-02  0.8965759E-01
       -2   -1    0    0    0  501  0.00000000000E+00  0.00000000000E+00  0.36747884684E+03  0.36747884685E+03  0.25500000920E-02 0. -1.
        2   -1    0    0  501    0  0.00000000000E+00  0.00000000000E+00 -0.13023971002E+04  0.13023971002E+04  0.25500000920E-02 0.  1.
    10030    2    1    2    0    0  0.00000000000E+00  0.00000000000E+00 -0.93491825338E+03  0.16698759471E+04  0.13836233368E+04 0.  0.
        1    1    3    3  502    0 -0.25949533996E+03  0.31025117036E+03  0.20991458598E+03  0.45569480314E+03  0.50400001928E-02 0. -1.
       -1    1    3    3    0  502  0.25949533996E+03 -0.31025117036E+03 -0.11448328394E+04  0.12141811439E+04  0.50400001928E-02 0.  1.
</event>
<event>
 5   0  0.2660250E-04  0.1388428E+04  0.7818609E-02  0.8962237E-01
       -3   -1    0    0    0  501  0.00000000000E+00  0.00000000000E+00  0.15352401798E+04  0.15352401831E+04  0.10100000352E+00 0.  1.
        3   -1    0    0  501    0  0.00000000000E+00  0.00000000000E+00 -0.31391400290E+03  0.31391401915E+03  0.10100000352E+00 0. -1.
    10030    2    1    2    0    0  0.00000000000E+00  0.00000000000E+00  0.12213261769E+04  0.18491542023E+04  0.13884284762E+04 0.  0.
        1    1    3    3  502    0 -0.38264612615E+03  0.33137596573E+03 -0.22069953252E+02  0.50667067350E+03  0.50400001928E-02 0. -1.
       -1    1    3    3    0  502  0.38264612615E+03 -0.33137596573E+03  0.12433961302E+04  0.13424835288E+04  0.50400001928E-02 0.  1.
</event>
<event>
 5   0  0.2660250E-04  0.1349948E+04  0.7818609E-02  0.8990867E-01
       -4   -1    0    0    0  501  0.00000000000E+00  0.00000000000E+00  0.40590157934E+03  0.40590356614E+03  0.12699999809E+01 0. -1.
        4   -1    0    0  501    0  0.00000000000E+00  0.00000000000E+00 -0.11224097659E+04  0.11224104844E+04  0.12699999809E+01 0.  1.
    10030    2    1    2    0    0  0.00000000000E+00  0.00000000000E+00 -0.71650818659E+03  0.15283140506E+04  0.13499480937E+04 0.  0.
        1    1    3    3  502    0 -0.45337725827E+02 -0.52627392318E+03 -0.83397720998E+03  0.98718677989E+03  0.50400001928E-02 0. -1.
       -1    1    3    3    0  502  0.45337725827E+02  0.52627392318E+03  0.11746902338E+03  0.54112727069E+03  0.50400001928E-02 0.  1.
</event>
<event>
 5   0  0.3784219E-04  0.1396089E+04  0.7818609E-02  0.8956654E-01
       -1   -1    0    0    0  501  0.00000000000E+00  0.00000000000E+00  0.13205941425E+04  0.13205941426E+04  0.50400001928E-02 0. -1.
        1   -1    0    0  501    0  0.00000000000E+00  0.00000000000E+00 -0.36897490865E+03  0.36897490869E+03  0.50400001928E-02 0.  1.
    10030    2    1    2    0    0  0.00000000000E+00  0.00000000000E+00  0.95161923389E+03  0.16895690512E+04  0.13960889702E+04 0.  0.
        1    1    3    3  502    0  0.36363210375E+03 -0.33484003556E+03 -0.12066839448E+03  0.50882906535E+03  0.50400001928E-02 0.  1.
       -1    1    3    3    0  502 -0.36363210375E+03  0.33484003556E+03  0.10722876284E+04  0.11807399859E+04  0.50400001928E-02 0. -1.
</event>
<event>
 5   0  0.3907270E-04  0.1403006E+04  0.7818609E-02  0.8951645E-01
       -1   -1    0    0    0  501  0.00000000000E+00  0.00000000000E+00  0.87009912808E+03  0.87009912809E+03  0.50400001928E-02 0. -1.
        1   -1    0    0  501    0  0.00000000000E+00  0.00000000000E+00 -0.56557540081E+03  0.56557540083E+03  0.50400001928E-02 0.  1.
    10030    2    1    2    0    0  0.00000000000E+00  0.00000000000E+00  0.30452372727E+03  0.14356745289E+04  0.14030062910E+04 0.  0.
        3    1    3    3  502    0  0.34694443871E+02 -0.55624707322E+03  0.58820042856E+03  0.81030504457E+03  0.10100000352E+00 0. -1.
       -3    1    3    3    0  502 -0.34694443871E+02  0.55624707322E+03 -0.28367670129E+03  0.62536948435E+03  0.10100000352E+00 0.  1.
</event>
<event>
 5   0  0.3756664E-04  0.1393039E+04  0.7818609E-02  0.8958873E-01
       -1   -1    0    0    0  501  0.00000000000E+00  0.00000000000E+00  0.71358054069E+03  0.71358054071E+03  0.50400001928E-02 0.  1.
        1   -1    0    0  501    0  0.00000000000E+00  0.00000000000E+00 -0.67986591230E+03  0.67986591231E+03  0.50400001928E-02 0. -1.
    10030    2    1    2    0    0  0.00000000000E+00  0.00000000000E+00  0.33714628395E+02  0.13934464530E+04  0.13930385283E+04 0.  0.
        2    1    3    3  502    0  0.42726194352E+03  0.54725665123E+03 -0.38804956400E+02  0.69537647023E+03  0.25500000920E-02 0.  1.
       -2    1    3    3    0  502 -0.42726194352E+03 -0.54725665123E+03  0.72519584795E+02  0.69806998280E+03  0.25500000920E-02 0. -1.
</event>
<event>
 5   0  0.3907270E-04  0.1397782E+04  0.7818609E-02  0.8955425E-01
       -1   -1    0    0    0  501  0.00000000000E+00  0.00000000000E+00  0.45102548410E+03  0.45102548413E+03  0.50400001928E-02 0. -1.
        1   -1    0    0  501    0  0.00000000000E+00  0.00000000000E+00 -0.10829741521E+04  0.10829741521E+04  0.50400001928E-02 0.  1.
    10030    2    1    2    0    0  0.00000000000E+00  0.00000000000E+00 -0.63194866800E+03  0.15339996362E+04  0.13977824455E+04 0.  0.
        3    1    3    3  502    0 -0.62510554693E+03  0.37754756753E+02  0.24530601715E+02  0.62672492138E+03  0.10100000352E+00 0. -1.
       -3    1    3    3    0  502  0.62510554693E+03 -0.37754756753E+02 -0.65647926971E+03  0.90727471486E+03  0.10100000352E+00 0.  1.
</event>
<event>
 5   0  0.3907093E-04  0.1403561E+04  0.7818609E-02  0.8951245E-01
       -1   -1    0    0    0  501  0.00000000000E+00  0.00000000000E+00  0.39335640447E+03  0.39335640450E+03  0.50400001928E-02 0. -1.
        1   -1    0    0  501    0  0.00000000000E+00  0.00000000000E+00 -0.12520347203E+04  0.12520347203E+04  0.50400001928E-02 0.  1.
    10030    2    1    2    0    0  0.00000000000E+00  0.00000000000E+00 -0.85867831584E+03  0.16453911248E+04  0.14035610081E+04 0.  0.
        4    1    3    3  502    0 -0.17987295915E+03 -0.43878527832E+03  0.17709962090E+03  0.50621407579E+03  0.12699999809E+01 0. -1.
       -4    1    3    3    0  502  0.17987295915E+03  0.43878527832E+03 -0.10357779367E+04  0.11391770490E+04  0.12699999809E+01 0.  1.
</event>
<event>
 5   0  0.3756664E-04  0.1392733E+04  0.7818609E-02  0.8959096E-01
       -1   -1    0    0    0  501  0.00000000000E+00  0.00000000000E+00  0.92179436759E+03  0.92179436761E+03  0.50400001928E-02 0. -1.
        1   -1    0    0  501    0  0.00000000000E+00  0.00000000000E+00 -0.52606753593E+03  0.52606753596E+03  0.50400001928E-02 0.  1.
    10030    2    1    2    0    0  0.00000000000E+00  0.00000000000E+00  0.39572683166E+03  0.14478619036E+04  0.13927326974E+04 0.  0.
        2    1    3    3  502    0  0.55427663329E+03 -0.25719722201E+03 -0.14935294440E+03  0.62903044380E+03  0.25500000920E-02 0. -1.
       -2    1    3    3    0  502 -0.55427663329E+03  0.25719722201E+03  0.54507977606E+03  0.81883145976E+03  0.25500000920E-02 0.  1.
</event>
<event>
 5   0  0.6870835E-04  0.1399366E+04  0.7818609E-02  0.8954278E-01
       -2   -1    0    0    0  501  0.00000000000E+00  0.00000000000E+00  0.27983549387E+03  0.27983549388E+03  0.25500000920E-02 0. -1.
        2   -1    0    0  501    0  0.00000000000E+00  0.00000000000E+00 -0.17494426095E+04  0.17494426095E+04  0.25500000920E-02 0.  1.
    10030    2    1    2    0    0  0.00000000000E+00  0.00000000000E+00 -0.14696071156E+04  0.20292781034E+04  0.13993657658E+04 0.  0.
        2    1    3    3  502    0 -0.30741195174E+02  0.33598726661E+03  0.15407944823E+03  0.37090826464E+03  0.25500000920E-02 0. -1.
       -2    1    3    3    0  502  0.30741195174E+02 -0.33598726661E+03 -0.16236865638E+04  0.16583698387E+04  0.25500000920E-02 0.  1.
</event>
<event>
 5   0  0.3756664E-04  0.1386009E+04  0.7818609E-02  0.8964009E-01
        1   -1    0    0  501    0  0.00000000000E+00  0.00000000000E+00  0.63765173375E+03  0.63765173377E+03  0.50400001928E-02 0. -1.
       -1   -1    0    0    0  501  0.00000000000E+00  0.00000000000E+00 -0.75316219705E+03  0.75316219707E+03  0.50400001928E-02 0.  1.
    10030    2    1    2    0    0  0.00000000000E+00  0.00000000000E+00 -0.11551046330E+03  0.13908139308E+04  0.13860089188E+04 0.  0.
        2    1    3    3  502    0  0.65965744528E+03 -0.14083134266E+03 -0.21728363162E+03  0.70865618516E+03  0.25500000920E-02 0.  1.
       -2    1    3    3    0  502 -0.65965744528E+03  0.14083134266E+03  0.10177316832E+03  0.68215774568E+03  0.25500000920E-02 0. -1.
</event>
<event>
 5   0  0.3977658E-04  0.1409871E+04  0.7818609E-02  0.8946704E-01
       -1   -1    0    0    0  501  0.00000000000E+00  0.00000000000E+00  0.33009040561E+03  0.33009040565E+03  0.50400001928E-02 0.  1.
        1   -1    0    0  501    0  0.00000000000E+00  0.00000000000E+00 -0.15054488676E+04  0.15054488676E+04  0.50400001928E-02 0. -1.
    10030    2    1    2    0    0  0.00000000000E+00  0.00000000000E+00 -0.11753584620E+04  0.18355392732E+04  0.14098712386E+04 0.  0.
        5    1    3    3  502    0 -0.55424511801E+03 -0.29751230857E+03 -0.10018676017E+04  0.11829885908E+04  0.46999998093E+01 0. -1.
       -5    1    3    3    0  502  0.55424511801E+03  0.29751230857E+03 -0.17349086028E+03  0.65255068247E+03  0.46999998093E+01 0.  1.
</event>
<event>
 5   0  0.2660250E-04  0.1376931E+04  0.7818609E-02  0.8970688E-01
       -3   -1    0    0    0  501  0.00000000000E+00  0.00000000000E+00  0.11326518020E+04  0.11326518065E+04  0.10100000352E+00 0.  1.
        3   -1    0    0  501    0  0.00000000000E+00  0.00000000000E+00 -0.41847373841E+03  0.41847375060E+03  0.10100000352E+00 0. -1.
    10030    2    1    2    0    0  0.00000000000E+00  0.00000000000E+00  0.71417806361E+03  0.15511255571E+04  0.13769314389E+04 0.  0.
        2    1    3    3  502    0  0.17696126532E+03 -0.19695020059E+03  0.10730032923E+04  0.11051881000E+04  0.25500000920E-02 0.  1.
       -2    1    3    3    0  502 -0.17696126532E+03  0.19695020059E+03 -0.35882522872E+03  0.44593745717E+03  0.25500000920E-02 0. -1.
</event>
<event>
 5   0  0.7296966E-04  0.1396427E+04  0.7818609E-02  0.8956409E-01
       -2   -1    0    0    0  501  0.00000000000E+00  0.00000000000E+00  0.49623890196E+03  0.49623890196E+03  0.25500000920E-02 0.  1.
        2   -1    0    0  501    0  0.00000000000E+00  0.00000000000E+00 -0.98239462466E+03  0.98239462467E+03  0.25500000920E-02 0. -1.
    10030    2    1    2    0    0  0.00000000000E+00  0.00000000000E+00 -0.48615572271E+03  0.14786335266E+04  0.13964274845E+04 0.  0.
        3    1    3    3  502    0 -0.21470921479E+03  0.51044485783E+03  0.20721962268E+03  0.59126473092E+03  0.10100000352E+00 0.  1.
       -3    1    3    3    0  502  0.21470921479E+03 -0.51044485783E+03 -0.69337534539E+03  0.88736879571E+03  0.10100000352E+00 0. -1.
</event>
<event>
 5   0  0.7296966E-04  0.1400804E+04  0.7818609E-02  0.8953237E-01
        2   -1    0    0  501    0  0.00000000000E+00  0.00000000000E+00  0.67686015206E+03  0.67686015206E+03  0.25500000920E-02 0.  1.
       -2   -1    0    0    0  501  0.00000000000E+00  0.00000000000E+00 -0.72476255219E+03  0.72476255220E+03  0.25500000920E-02 0. -1.
    10030    2    1    2    0    0  0.00000000000E+00  0.00000000000E+00 -0.47902400136E+02  0.14016227043E+04  0.14008038996E+04 0.  0.
        3    1    3    3  502    0 -0.25174536133E+03 -0.43437524336E+03 -0.51260671076E+03  0.71751183203E+03  0.10100000352E+00 0. -1.
       -3    1    3    3    0  502  0.25174536133E+03  0.43437524336E+03  0.46470431062E+03  0.68411087223E+03  0.10100000352E+00 0.  1.
</event>
<event>
 5   0  0.6895048E-04  0.1399263E+04  0.7818609E-02  0.8954352E-01
       -2   -1    0    0    0  501  0.00000000000E+00  0.00000000000E+00  0.13619886596E+04  0.13619886596E+04  0.25500000920E-02 0.  1.
        2   -1    0    0  501    0  0.00000000000E+00  0.00000000000E+00 -0.35938920111E+03  0.35938920112E+03  0.25500000920E-02 0. -1.
    10030    2    1    2    0    0  0.00000000000E+00  0.00000000000E+00  0.10025994585E+04  0.17213778607E+04  0.13992626863E+04 0.  0.
        4    1    3    3  502    0  0.52223856904E+03 -0.19280150380E+03 -0.20017582787E+02  0.55705283356E+03  0.12699999809E+01 0. -1.
       -4    1    3    3    0  502 -0.52223856904E+03  0.19280150380E+03  0.10226170413E+04  0.11643250272E+04  0.12699999809E+01 0.  1.
</event>
<event>
 5   0  0.7296966E-04  0.1402321E+04  0.7818609E-02  0.8952141E-01
       -2   -1    0    0    0  501  0.00000000000E+00  0.00000000000E+00  0.55591759575E+03  0.55591759576E+03  0.25500000920E-02 0. -1.
        2   -1    0    0  501    0  0.00000000000E+00  0.00000000000E+00 -0.88435005517E+03  0.88435005518E+03  0.25500000920E-02 0.  1.
    10030    2    1    2    0    0  0.00000000000E+00  0.00000000000E+00 -0.32843245942E+03  0.14402676509E+04  0.14023205860E+04 0.  0.
        3    1    3    3  502    0 -0.42561686865E+03  0.24383988512E+03  0.35035849286E+03  0.60279241217E+03  0.10100000352E+00 0. -1.
       -3    1    3    3    0  502  0.42561686865E+03 -0.24383988512E+03 -0.67879095228E+03  0.83747523877E+03  0.10100000352E+00 0.  1.
</event>
<event>
 5   0  0.7065539E-04  0.1340882E+04  0.7818609E-02  0.8997759E-01
       -2   -1    0    0    0  501  0.00000000000E+00  0.00000000000E+00  0.46468527940E+03  0.46468527941E+03  0.25500000920E-02 0.  1.
        2   -1    0    0  501    0  0.00000000000E+00  0.00000000000E+00 -0.96730198939E+03  0.96730198940E+03  0.25500000920E-02 0. -1.
    10030    2    1    2    0    0  0.00000000000E+00  0.00000000000E+00 -0.50261670999E+03  0.14319872688E+04  0.13408817923E+04 0.  0.
        1    1    3    3  502    0 -0.41653678398E+03  0.38391523593E+03  0.13166134109E+03  0.58157416513E+03  0.50400001928E-02 0.  1.
       -1    1    3    3    0  502  0.41653678398E+03 -0.38391523593E+03 -0.63427805108E+03  0.85041310367E+03  0.50400001928E-02 0. -1.
</event>
<event>
 5   0  0.7296966E-04  0.1408370E+04  0.7818609E-02  0.8947782E-01
        2   -1    0    0  501    0  0.00000000000E+00  0.00000000000E+00  0.16445931424E+04  0.16445931424E+04  0.25500000920E-02 0. -1.
       -2   -1    0    0    0  501  0.00000000000E+00  0.00000000000E+00 -0.30151936859E+03  0.30151936860E+03  0.25500000920E-02 0.  1.
    10030    2    1    2    0    0  0.00000000000E+00  0.00000000000E+00  0.13430737738E+04  0.19461125110E+04  0.14083702438E+04 0.  0.
        3    1    3    3  502    0 -0.14135225542E+03 -0.57721477701E+02  0.16214450638E+04  0.16286179215E+04  0.10100000352E+00 0. -1.
       -3    1    3    3    0  502  0.14135225542E+03  0.57721477701E+02 -0.27837128997E+03  0.31749458953E+03  0.10100000352E+00 0.  1.
</event>
<event>
 5   0  0.6959748E-04  0.1407739E+04  0.7818609E-02  0.8948236E-01
        2   -1    0    0  501    0  0.00000000000E+00  0.00000000000E+00  0.10826723498E+04  0.10826723498E+04  0.25500000920E-02 0. -1.
       -2   -1    0    0    0  501  0.00000000000E+00  0.00000000000E+00 -0.45760134171E+03  0.45760134172E+03  0.25500000920E-02 0.  1.
    10030    2    1    2    0    0  0.00000000000E+00  0.00000000000E+00  0.62507100811E+03  0.15402736915E+04  0.14077390666E+04 0.  0.
        5    1    3    3  502    0 -0.30595133369E+03  0.44653680711E+03 -0.17971993955E+03  0.57037065612E+03  0.46999998093E+01 0.  1.
       -5    1    3    3    0  502  0.30595133369E+03 -0.44653680711E+03  0.80479094765E+03  0.96990303542E+03  0.46999998093E+01 0. -1.
</event>
<event>
 5   0  0.3907270E-04  0.1400284E+04  0.7818609E-02  0.8953613E-01
        1   -1    0    0  501    0  0.00000000000E+00  0.00000000000E+00  0.72839260686E+03  0.72839260687E+03  0.50400001928E-02 0.  1.
       -1   -1    0    0    0  501  0.00000000000E+00  0.00000000000E+00 -0.67298703573E+03  0.67298703575E+03  0.50400001928E-02 0. -1.
    10030    2    1    2    0    0  0.00000000000E+00  0.00000000000E+00  0.55405571129E+02  0.14013796426E+04  0.14002839446E+04 0.  0.
        3    1    3    3  502    0  0.27612689656E+03  0.32330392206E+03 -0.52899436246E+03  0.67867999436E+03  0.10100000352E+00 0. -1.
       -3    1    3    3    0  502 -0.27612689656E+03 -0.32330392206E+03  0.58439993359E+03  0.72269964827E+03  0.10100000352E+00 0.  1.
</event>
<event>
 5   0  0.3784219E-04  0.1405146E+04  0.7818609E-02  0.8950102E-01
        1   -1    0    0  501    0  0.00000000000E+00  0.00000000000E+00  0.79886801983E+03  0.79886801984E+03  0.50400001928E-02 0. -1.
       -1   -1    0    0    0  501  0.00000000000E+00  0.00000000000E+00 -0.61788492201E+03  0.61788492203E+03  0.50400001928E-02 0.  1.
    10030    2    1    2    0    0  0.00000000000E+00  0.00000000000E+00  0.18098309781E+03  0.14167529419E+04  0.14051455500E+04 0.  0.
        1    1    3    3  502    0  0.48730632624E+03 -0.26752662874E+03  0.52365720477E+03  0.76371121558E+03  0.50400001928E-02 0. -1.
       -1    1    3    3    0  502 -0.48730632624E+03  0.26752662874E+03 -0.34267410695E+03  0.65304172629E+03  0.50400001928E-02 0.  1.
</event>
<event>
 5   0  0.3907270E-04  0.1410984E+04  0.7818609E-02  0.8945906E-01
        1   -1    0    0  501    0  0.00000000000E+00  0.00000000000E+00  0.11853672120E+04  0.11853672120E+04  0.50400001928E-02 0. -1.
       -1   -1    0    0    0  501  0.00000000000E+00  0.00000000000E+00 -0.41988578028E+03  0.41988578031E+03  0.50400001928E-02 0.  1.
    10030    2    1    2    0    0  0.00000000000E+00  0.00000000000E+00  0.76548143175E+03  0.16052529923E+04  0.14109838224E+04 0.  0.
        3    1    3    3  502    0 -0.34473465403E+03  0.35107581546E+03  0.95794364885E+03  0.10769179423E+04  0.10100000352E+00 0. -1.
       -3    1    3    3    0  502  0.34473465403E+03 -0.35107581546E+03 -0.19246221710E+03  0.52833505004E+03  0.10100000352E+00 0.  1.
</event>
<event>
 5   0  0.3784219E-04  0.1483911E+04  0.7818609E-02  0.8895223E-01
        1   -1    0    0  501    0  0.00000000000E+00  0.00000000000E+00  0.61776599469E+03  0.61776599471E+03  0.50400001928E-02 0.  1.
       -1   -1    0    0    0  501  0.00000000000E+00  0.00000000000E+00 -0.89111075457E+03  0.89111075458E+03  0.50400001928E-02 0. -1.
    10030    2    1    2    0    0  0.00000000000E+00  0.00000000000E+00 -0.27334475987E+03  0.15088767493E+04  0.14839109430E+04 0.  0.
        1    1    3    3  502    0 -0.70148322353E+03  0.24148645631E+03 -0.14701704695E+03  0.75631239154E+03  0.50400001928E-02 0. -1.
       -1    1    3    3    0  502  0.70148322353E+03 -0.24148645631E+03 -0.12632771292E+03  0.75256435775E+03  0.50400001928E-02 0.  1.
</event>
<event>
 5   0  0.3907093E-04  0.1401750E+04  0.7818609E-02  0.8952553E-01
        1   -1    0    0  501    0  0.00000000000E+00  0.00000000000E+00  0.12644567828E+04  0.12644567828E+04  0.50400001928E-02 0.  1.
       -1   -1    0    0    0  501  0.00000000000E+00  0.00000000000E+00 -0.38848776876E+03  0.38848776879E+03  0.50400001928E-02 0. -1.
    10030    2    1    2    0    0  0.00000000000E+00  0.00000000000E+00  0.87596901401E+03  0.16529445516E+04  0.14017503262E+04 0.  0.
        4    1    3    3  502    0 -0.27160542671E+03  0.36190882318E+03 -0.19316523126E+03  0.49199788981E+03  0.12699999809E+01 0. -1.
       -4    1    3    3    0  502  0.27160542671E+03 -0.36190882318E+03  0.10691342453E+04  0.11609466617E+04  0.12699999809E+01 0.  1.
</event>
<event>
 5   0  0.6895048E-04  0.1395120E+04  0.7818609E-02  0.8957358E-01
       -2   -1    0    0    0  501  0.00000000000E+00  0.00000000000E+00  0.29651548227E+03  0.29651548228E+03  0.25500000920E-02 0.  1.
        2   -1    0    0  501    0  0.00000000000E+00  0.00000000000E+00 -0.16410282685E+04  0.16410282685E+04  0.25500000920E-02 0. -1.
    10030    2    1    2    0    0  0.00000000000E+00  0.00000000000E+00 -0.13445127862E+04  0.19375437507E+04  0.13951204800E+04 0.  0.
        4    1    3    3  502    0  0.58725676914E+03  0.37629888171E+03 -0.68729872817E+03  0.97921014900E+03  0.12699999809E+01 0.  1.
       -4    1    3    3    0  502 -0.58725676914E+03 -0.37629888171E+03 -0.65721405801E+03  0.95833360174E+03  0.12699999809E+01 0. -1.
</event>
<event>
 5   0  0.6959748E-04  0.1396275E+04  0.7818609E-02  0.8956519E-01
        2   -1    0    0  501    0  0.00000000000E+00  0.00000000000E+00  0.68491582475E+03  0.68491582475E+03  0.25500000920E-02 0. -1.
       -2   -1    0    0    0  501  0.00000000000E+00  0.00000000000E+00 -0.71161452625E+03  0.71161452625E+03  0.25500000920E-02 0.  1.
    10030    2    1    2    0    0  0.00000000000E+00  0.00000000000E+00 -0.26698701501E+02  0.13965303510E+04  0.13962751164E+04 0.  0.
        5    1    3    3  502    0  0.63493311496E+03 -0.28361836011E+03  0.48261629351E+02  0.69708730410E+03  0.46999998093E+01 0. -1.
       -5    1    3    3    0  502 -0.63493311496E+03  0.28361836011E+03 -0.74960330852E+02  0.69944304691E+03  0.46999998093E+01 0.  1.
</event>
<event>
 5   0  0.3907093E-04  0.1270238E+04  0.7818609E-02  0.9053505E-01
       -1   -1    0    0    0  501  0.00000000000E+00  0.00000000000E+00  0.69855607653E+03  0.69855607655E+03  0.50400001928E-02 0.  1.
        1   -1    0    0  501    0  0.00000000000E+00  0.00000000000E+00 -0.57744311640E+03  0.57744311642E+03  0.50400001928E-02 0. -1.
    10030    2    1    2    0    0  0.00000000000E+00  0.00000000000E+00  0.12111296013E+03  0.12759991930E+04  0.12702383994E+04 0.  0.
        4    1    3    3  502    0  0.47778031378E+03 -0.40771609004E+03  0.15515546841E+03  0.64697857043E+03  0.12699999809E+01 0.  1.
       -4    1    3    3    0  502 -0.47778031378E+03  0.40771609004E+03 -0.34042508280E+02  0.62902062254E+03  0.12699999809E+01 0. -1.
</event>
<event>
 5   0  0.7296966E-04  0.1394099E+04  0.7818609E-02  0.8958101E-01
        2   -1    0    0  501    0  0.00000000000E+00  0.00000000000E+00  0.60916146242E+03  0.60916146243E+03  0.25500000920E-02 0. -1.
       -2   -1    0    0    0  501  0.00000000000E+00  0.00000000000E+00 -0.79761806976E+03  0.79761806977E+03  0.25500000920E-02 0.  1.
    10030    2    1    2    0    0  0.00000000000E+00  0.00000000000E+00 -0.18845660734E+03  0.14067795322E+04  0.13940992645E+04 0.  0.
        3    1    3    3  502    0  0.11425548976E+03 -0.67753161568E+03 -0.21266180247E+03  0.71925548981E+03  0.10100000352E+00 0.  1.
       -3    1    3    3    0  502 -0.11425548976E+03  0.67753161568E+03  0.24205195129E+02  0.68752404239E+03  0.10100000352E+00 0. -1.
</event>
<event>
 5   0  0.7065539E-04  0.1357940E+04  0.7818609E-02  0.8984840E-01
       -2   -1    0    0    0  501  0.00000000000E+00  0.00000000000E+00  0.37475800120E+03  0.37475800121E+03  0.25500000920E-02 0. -1.
        2   -1    0    0  501    0  0.00000000000E+00  0.00000000000E+00 -0.12301273062E+04  0.12301273062E+04  0.25500000920E-02 0.  1.
    10030    2    1    2    0    0  0.00000000000E+00  0.00000000000E+00 -0.85536930500E+03  0.16048853074E+04  0.13579396901E+04 0.  0.
        1    1    3    3  502    0 -0.53562104078E+03 -0.12082547152E+03  0.44334176656E+02  0.55086678347E+03  0.50400001928E-02 0. -1.
       -1    1    3    3    0  502  0.53562104078E+03  0.12082547152E+03 -0.89970348166E+03  0.10540185239E+04  0.50400001928E-02 0.  1.
</event>
<event>
 5   0  0.6870835E-04  0.1400378E+04  0.7818609E-02  0.8953545E-01
       -2   -1    0    0    0  501  0.00000000000E+00  0.00000000000E+00  0.82295639421E+03  0.82295639422E+03  0.25500000920E-02 0. -1.
        2   -1    0    0  501    0  0.00000000000E+00  0.00000000000E+00 -0.59573556591E+03  0.59573556592E+03  0.25500000920E-02 0.  1.
    10030    2    1    2    0    0  0.00000000000E+00  0.00000000000E+00  0.22722082830E+03  0.14186919601E+04  0.14003776537E+04 0.  0.
        2    1    3    3  502    0 -0.65667707999E+03 -0.22559910167E+03  0.20503840577E+03  0.72398928853E+03  0.25500000920E-02 0.  1.
       -2    1    3    3    0  502  0.65667707999E+03  0.22559910167E+03  0.22182422529E+02  0.69470267160E+03  0.25500000920E-02 0. -1.
</event>
<event>
 5   0  0.2660250E-04  0.1393838E+04  0.7818609E-02  0.8958291E-01
        4   -1    0    0  501    0  0.00000000000E+00  0.00000000000E+00  0.67691705965E+03  0.67691825101E+03  0.12699999809E+01 0. -1.
       -4   -1    0    0    0  501  0.00000000000E+00  0.00000000000E+00 -0.71750933433E+03  0.71751045829E+03  0.12699999809E+01 0.  1.
    10030    2    1    2    0    0  0.00000000000E+00  0.00000000000E+00 -0.40592274680E+02  0.13944287093E+04  0.13938377569E+04 0.  0.
        3    1    3    3  502    0  0.53248780083E+02  0.56902241654E+03 -0.41930601843E+03  0.70882966247E+03  0.10100000352E+00 0. -1.
       -3    1    3    3    0  502 -0.53248780083E+02 -0.56902241654E+03  0.37871374375E+03  0.68559904683E+03  0.10100000352E+00 0.  1.
</event>
<event>
 5   0  0.3907093E-04  0.1398439E+04  0.7818609E-02  0.8954949E-01
       -1   -1    0    0    0  501  0.00000000000E+00  0.00000000000E+00  0.19294732159E+03  0.19294732166E+03  0.50400001928E-02 0.  1.
        1   -1    0    0  501    0  0.00000000000E+00  0.00000000000E+00 -0.25338941444E+04  0.25338941444E+04  0.50400001928E-02 0. -1.
    10030    2    1    2    0    0  0.00000000000E+00  0.00000000000E+00 -0.23409468228E+04  0.27268414661E+04  0.13984392564E+04 0.  0.
        4    1    3    3  502    0  0.68757230314E+03  0.78913993168E+02 -0.13647167830E+04  0.15301753498E+04  0.12699999809E+01 0. -1.
       -4    1    3    3    0  502 -0.68757230314E+03 -0.78913993168E+02 -0.97623003984E+03  0.11966661163E+04  0.12699999809E+01 0.  1.
</event>
<event>
 5   0  0.6959748E-04  0.1402946E+04  0.7818609E-02  0.8951689E-01
       -2   -1    0    0    0  501  0.00000000000E+00  0.00000000000E+00  0.45520236128E+03  0.45520236129E+03  0.25500000920E-02 0.  1.
        2   -1    0    0  501    0  0.00000000000E+00  0.00000000000E+00 -0.10809790006E+04  0.10809790006E+04  0.25500000920E-02 0. -1.
    10030    2    1    2    0    0  0.00000000000E+00  0.00000000000E+00 -0.62577663928E+03  0.15361813619E+04  0.14029457489E+04 0.  0.
        5    1    3    3  502    0  0.55633355793E+03 -0.35734175348E+03 -0.56931195145E+03  0.87254704430E+03  0.46999998093E+01 0. -1.
       -5    1    3    3    0  502 -0.55633355793E+03  0.35734175348E+03 -0.56464687827E+02  0.66363431755E+03  0.46999998093E+01 0.  1.
</event>
<event>
 5   0  0.2660250E-04  0.1400405E+04  0.7818609E-02  0.8953525E-01
        4   -1    0    0  501    0  0.00000000000E+00  0.00000000000E+00  0.83378717191E+03  0.83378813912E+03  0.12699999809E+01 0.  1.
       -4   -1    0    0    0  501  0.00000000000E+00  0.00000000000E+00 -0.58801797953E+03  0.58801935100E+03  0.12699999809E+01 0. -1.
    10030    2    1    2    0    0  0.00000000000E+00  0.00000000000E+00  0.24576919238E+03  0.14218074901E+04  0.14004049568E+04 0.  0.
        4    1    3    3  502    0 -0.61816942419E+03 -0.21197756223E+03 -0.13238183408E+03  0.66677918892E+03  0.12699999809E+01 0. -1.
       -4    1    3    3    0  502  0.61816942419E+03  0.21197756223E+03  0.37815102646E+03  0.75502830119E+03  0.12699999809E+01 0.  1.
</event>
<event>
 5   0  0.3977658E-04  0.1398624E+04  0.7818609E-02  0.8954815E-01
       -1   -1    0    0    0  501  0.00000000000E+00  0.00000000000E+00  0.87171356951E+03  0.87171356952E+03  0.50400001928E-02 0. -1.
        1   -1    0    0  501    0  0.00000000000E+00  0.00000000000E+00 -0.56100692942E+03  0.56100692944E+03  0.50400001928E-02 0.  1.
    10030    2    1    2    0    0  0.00000000000E+00  0.00000000000E+00  0.31070664009E+03  0.14327204990E+04  0.13986241139E+04 0.  0.
        5    1    3    3  502    0  0.61264444708E+03 -0.30541235360E+03  0.90236588234E+01  0.68462649721E+03  0.46999998093E+01 0.  1.
       -5    1    3    3    0  502 -0.61264444708E+03  0.30541235360E+03  0.30168298127E+03  0.74809400175E+03  0.46999998093E+01 0. -1.
</event>
<event>
 5   0  0.3907093E-04  0.1393980E+04  0.7818609E-02  0.8958187E-01
        1   -1    0    0  501    0  0.00000000000E+00  0.00000000000E+00  0.61877463553E+03  0.61877463555E+03  0.50400001928E-02 0. -1.
       -1   -1    0    0    0  501  0.00000000000E+00  0.00000000000E+00 -0.78509252888E+03  0.78509252889E+03  0.50400001928E-02 0.  1.
    10030    2    1    2    0    0  0.00000000000E+00  0.00000000000E+00 -0.16631789335E+03  0.14038671644E+04  0.13939804065E+04 0.  0.
        4    1    3    3  502    0  0.30778928307E+03  0.62534215639E+03 -0.80556978737E+02  0.70162532383E+03  0.12699999809E+01 0. -1.
       -4    1    3    3    0  502 -0.30778928307E+03 -0.62534215639E+03 -0.85760914609E+02  0.70224184061E+03  0.12699999809E+01 0.  1.
</event>
<event>
 5   0  0.3907270E-04  0.1325444E+04  0.7818609E-02  0.9009628E-01
        1   -1    0    0  501    0  0.00000000000E+00  0.00000000000E+00  0.10388419519E+04  0.10388419519E+04  0.50400001928E-02 0.  1.
       -1   -1    0    0    0  501  0.00000000000E+00  0.00000000000E+00 -0.42277862788E+03  0.42277862791E+03  0.50400001928E-02 0. -1.
    10030    2    1    2    0    0  0.00000000000E+00  0.00000000000E+00  0.61606332398E+03  0.14616205798E+04  0.13254435862E+04 0.  0.
        3    1    3    3  502    0  0.22995685963E+03  0.16639084010E+02 -0.37712727332E+03  0.44202036932E+03  0.10100000352E+00 0. -1.
       -3    1    3    3    0  502 -0.22995685963E+03 -0.16639084010E+02  0.99319059730E+03  0.10196002105E+04  0.10100000352E+00 0.  1.
</event>
<event>
 5   0  0.2660250E-04  0.1422956E+04  0.7818609E-02  0.8937368E-01
        3   -1    0    0  501    0  0.00000000000E+00  0.00000000000E+00  0.37778973354E+03  0.37778974704E+03  0.10100000352E+00 0. -1.
       -3   -1    0    0    0  501  0.00000000000E+00  0.00000000000E+00 -0.13399007597E+04  0.13399007635E+04  0.10100000352E+00 0.  1.
    10030    2    1    2    0    0  0.00000000000E+00  0.00000000000E+00 -0.96211102619E+03  0.17176905106E+04  0.14229557489E+04 0.  0.
        3    1    3    3  502    0 -0.41297569310E+03 -0.48673988576E+03 -0.10174791549E+03  0.64638787736E+03  0.10100000352E+00 0. -1.
       -3    1    3    3    0  502  0.41297569310E+03  0.48673988576E+03 -0.86036311070E+03  0.10713026332E+04  0.10100000352E+00 0.  1.
</event>
<event>
 5   0  0.3977658E-04  0.1371169E+04  0.7818609E-02  0.8974956E-01
       -1   -1    0    0    0  501  0.00000000000E+00  0.00000000000E+00  0.91824953977E+03  0.91824953979E+03  0.50400001928E-02 0. -1.
        1   -1    0    0  501    0  0.00000000000E+00  0.00000000000E+00 -0.51187188008E+03  0.51187188011E+03  0.50400001928E-02 0.  1.
    10030    2    1    2    0    0  0.00000000000E+00  0.00000000000E+00  0.40637765969E+03  0.14301214199E+04  0.13711690171E+04 0.  0.
        5    1    3    3  502    0  0.26682038861E+03 -0.62887375383E+03  0.14301330046E+03  0.69796146896E+03  0.46999998093E+01 0. -1.
       -5    1    3    3    0  502 -0.26682038861E+03  0.62887375383E+03  0.26336435923E+03  0.73215995093E+03  0.46999998093E+01 0.  1.
</event>
<event>
 5   0  0.3784219E-04  0.1401976E+04  0.7818609E-02  0.8952389E-01
        1   -1    0    0  501    0  0.00000000000E+00  0.00000000000E+00  0.38049799155E+03  0.38049799158E+03  0.50400001928E-02 0. -1.
       -1   -1    0    0    0  501  0.00000000000E+00  0.00000000000E+00 -0.12914245506E+04  0.12914245506E+04  0.50400001928E-02 0.  1.
    10030    2    1    2    0    0  0.00000000000E+00  0.00000000000E+00 -0.91092655909E+03  0.16719225422E+04  0.14019763875E+04 0.  0.
        1    1    3    3  502    0 -0.12203387538E+03 -0.61377940203E+03 -0.83214016322E+03  0.10411890666E+04  0.50400001928E-02 0.  1.
       -1    1    3    3    0  502  0.12203387538E+03  0.61377940203E+03 -0.78786395873E+02  0.63073347564E+03  0.50400001928E-02 0. -1.
</event>
<event>
 5   0  0.2660250E-04  0.1394305E+04  0.7818609E-02  0.8957951E-01
       -3   -1    0    0    0  501  0.00000000000E+00  0.00000000000E+00  0.10253186792E+04  0.10253186842E+04  0.10100000352E+00 0.  1.
        3   -1    0    0  501    0  0.00000000000E+00  0.00000000000E+00 -0.47402013766E+03  0.47402014842E+03  0.10100000352E+00 0. -1.
    10030    2    1    2    0    0  0.00000000000E+00  0.00000000000E+00  0.55129854156E+03  0.14993388326E+04  0.13943051506E+04 0.  0.
        4    1    3    3  502    0 -0.84039926901E+02  0.53068174954E+03 -0.20203750253E+03  0.57402664916E+03  0.12699999809E+01 0. -1.
       -4    1    3    3    0  502  0.84039926901E+02 -0.53068174954E+03  0.75333604409E+03  0.92531218345E+03  0.12699999809E+01 0.  1.
</event>
<event>
 5   0  0.7065539E-04  0.1392050E+04  0.7818609E-02  0.8959593E-01
       -2   -1    0    0    0  501  0.00000000000E+00  0.00000000000E+00  0.45247756188E+03  0.45247756189E+03  0.25500000920E-02 0. -1.
        2   -1    0    0  501    0  0.00000000000E+00  0.00000000000E+00 -0.10706622666E+04  0.10706622666E+04  0.25500000920E-02 0.  1.
    10030    2    1    2    0    0  0.00000000000E+00  0.00000000000E+00 -0.61818470469E+03  0.15231398285E+04  0.13920497864E+04 0.  0.
        1    1    3    3  502    0  0.59981469089E+03  0.16894755750E+02 -0.69499119278E+03  0.91819162174E+03  0.50400001928E-02 0.  1.
       -1    1    3    3    0  502 -0.59981469089E+03 -0.16894755750E+02  0.76806488086E+02  0.60494820672E+03  0.50400001928E-02 0. -1.
</event>
<event>
 5   0  0.3784219E-04  0.1399526E+04  0.7818609E-02  0.8954162E-01
       -1   -1    0    0    0  501  0.00000000000E+00  0.00000000000E+00  0.43311369965E+03  0.43311369968E+03  0.50400001928E-02 0.  1.
        1   -1    0    0  501    0  0.00000000000E+00  0.00000000000E+00 -0.11305766854E+04  0.11305766854E+04  0.50400001928E-02 0. -1.
    10030    2    1    2    0    0  0.00000000000E+00  0.00000000000E+00 -0.69746298575E+03  0.15636903851E+04  0.13995259926E+04 0.  0.
        1    1    3    3  502    0  0.54979646046E+03 -0.30156580433E+03 -0.69572495551E+03  0.93661694199E+03  0.50400001928E-02 0. -1.
       -1    1    3    3    0  502 -0.54979646046E+03  0.30156580433E+03 -0.17380302481E+01  0.62707344311E+03  0.50400001928E-02 0.  1.
</event>
<event>
 5   0  0.6895048E-04  0.1401966E+04  0.7818609E-02  0.8952397E-01
        2   -1    0    0  501    0  0.00000000000E+00  0.00000000000E+00  0.53134831616E+03  0.53134831617E+03  0.25500000920E-02 0.  1.
       -2   -1    0    0    0  501  0.00000000000E+00  0.00000000000E+00 -0.92477427189E+03  0.92477427190E+03  0.25500000920E-02 0. -1.
    10030    2    1    2    0    0  0.00000000000E+00  0.00000000000E+00 -0.39342595573E+03  0.14561225881E+04  0.14019661226E+04 0.  0.
        4    1    3    3  502    0  0.36257133750E+03 -0.48817050279E+03  0.16548006851E+03  0.63020130161E+03  0.12699999809E+01 0.  1.
       -4    1    3    3    0  502 -0.36257133750E+03  0.48817050279E+03 -0.55890602425E+03  0.82592128645E+03  0.12699999809E+01 0. -1.
</event>
<event>
 5   0  0.6959748E-04  0.1406460E+04  0.7818609E-02  0.8949156E-01
        2   -1    0    0  501    0  0.00000000000E+00  0.00000000000E+00  0.65204189789E+03  0.65204189790E+03  0.25500000920E-02 0. -1.
       -2   -1    0    0    0  501  0.00000000000E+00  0.00000000000E+00 -0.75843608313E+03  0.75843608313E+03  0.25500000920E-02 0.  1.
    10030    2    1    2    0    0  0.00000000000E+00  0.00000000000E+00 -0.10639418524E+03  0.14104779810E+04  0.14064595310E+04 0.  0.
        5    1    3    3  502    0  0.48481688209E+03  0.40902245069E+03  0.25125427858E+03  0.68227382834E+03  0.46999998093E+01 0. -1.
       -5    1    3    3    0  502 -0.48481688209E+03 -0.40902245069E+03 -0.35764846382E+03  0.72820415269E+03  0.46999998093E+01 0.  1.
</event>
<event>
 5   0  0.3756664E-04  0.1394089E+04  0.7818609E-02  0.8958108E-01
        1   -1    0    0  501    0  0.00000000000E+00  0.00000000000E+00  0.59843183035E+03  0.59843183037E+03  0.50400001928E-02 0. -1.
       -1   -1    0    0    0  501  0.00000000000E+00  0.00000000000E+00 -0.81190748921E+03  0.81190748923E+03  0.50400001928E-02 0.  1.
    10030    2    1    2    0    0  0.00000000000E+00  0.00000000000E+00 -0.21347565886E+03  0.14103393196E+04  0.13940893585E+04 0.  0.
        2    1    3    3  502    0 -0.62902147841E+03 -0.26207231511E+03  0.41673795694E+02  0.68270537123E+03  0.25500000920E-02 0. -1.
       -2    1    3    3    0  502  0.62902147841E+03  0.26207231511E+03 -0.25514945455E+03  0.72763394837E+03  0.25500000920E-02 0.  1.
</event>
<event>
 5   0  0.3784219E-04  0.1402023E+04  0.7818609E-02  0.8952356E-01
        1   -1    0    0  501    0  0.00000000000E+00  0.00000000000E+00  0.45051412678E+03  0.45051412681E+03  0.50400001928E-02 0. -1.
       -1   -1    0    0    0  501  0.00000000000E+00  0.00000000000E+00 -0.10907914570E+04  0.10907914570E+04  0.50400001928E-02 0.  1.
    10030    2    1    2    0    0  0.00000000000E+00  0.00000000000E+00 -0.64027733022E+03  0.15413055838E+04  0.14020227684E+04 0.  0.
        1    1    3    3  502    0 -0.40531968572E+03  0.30352820682E+03 -0.85306954827E+03  0.99203884711E+03  0.50400001928E-02 0.  1.
       -1    1    3    3    0  502  0.40531968572E+03 -0.30352820682E+03  0.21279221805E+03  0.54926673671E+03  0.50400001928E-02 0. -1.
</event>
<event>
 5   0  0.6870835E-04  0.1395371E+04  0.7818609E-02  0.8957176E-01
       -2   -1    0    0    0  501  0.00000000000E+00  0.00000000000E+00  0.60010237843E+03  0.60010237844E+03  0.25500000920E-02 0. -1.
        2   -1    0    0  501    0  0.00000000000E+00  0.00000000000E+00 -0.81113643440E+03  0.81113643441E+03  0.25500000920E-02 0.  1.
    10030    2    1    2    0    0  0.00000000000E+00  0.00000000000E+00 -0.21103405597E+03  0.14112388128E+04  0.13953707802E+04 0.  0.
        2    1    3    3  502    0 -0.60050502860E+03  0.13829754208E+03  0.22536145646E+03  0.65614044654E+03  0.25500000920E-02 0. -1.
       -2    1    3    3    0  502  0.60050502860E+03 -0.13829754208E+03 -0.43639551243E+03  0.75509836631E+03  0.25500000920E-02 0.  1.
</event>
<event>
 5   0  0.3907270E-04  0.1402072E+04  0.7818609E-02  0.8952320E-01
        1   -1    0    0  501    0  0.00000000000E+00  0.00000000000E+00  0.12493792224E+04  0.12493792224E+04  0.50400001928E-02 0. -1.
       -1   -1    0    0    0  501  0.00000000000E+00  0.00000000000E+00 -0.39335668143E+03  0.39335668146E+03  0.50400001928E-02 0.  1.
    10030    2    1    2    0    0  0.00000000000E+00  0.00000000000E+00  0.85602254096E+03  0.16427359039E+04  0.14020722732E+04 0.  0.
        3    1    3    3  502    0  0.25114933349E+03 -0.50639881221E+03 -0.57814607195E+02  0.56820619824E+03  0.10100000352E+00 0.  1.
       -3    1    3    3    0  502 -0.25114933349E+03  0.50639881221E+03  0.91383714815E+03  0.10745297056E+04  0.10100000352E+00 0. -1.
</event>
<event>
 5   0  0.3907270E-04  0.1400275E+04  0.7818609E-02  0.8953619E-01
       -1   -1    0    0    0  501  0.00000000000E+00  0.00000000000E+00  0.26337028738E+03  0.26337028743E+03  0.50400001928E-02 0.  1.
        1   -1    0    0  501    0  0.00000000000E+00  0.00000000000E+00 -0.18612301946E+04  0.18612301947E+04  0.50400001928E-02 0. -1.
    10030    2    1    2    0    0  0.00000000000E+00  0.00000000000E+00 -0.15978599073E+04  0.21246004821E+04  0.14002753034E+04 0.  0.
        3    1    3    3  502    0 -0.12728735596E+03 -0.35939730407E+03 -0.16898992389E+04  0.17323763855E+04  0.10100000352E+00 0. -1.
       -3    1    3    3    0  502  0.12728735596E+03  0.35939730407E+03  0.92039331652E+02  0.39222409657E+03  0.10100000352E+00 0.  1.
</event>
<event>
 5   0  0.6870835E-04  0.1352161E+04  0.7818609E-02  0.8989194E-01
        2   -1    0    0  501    0  0.00000000000E+00  0.00000000000E+00  0.67682590669E+03  0.67682590670E+03  0.25500000920E-02 0. -1.
       -2   -1    0    0    0  501  0.00000000000E+00  0.00000000000E+00 -0.67533592294E+03  0.67533592294E+03  0.25500000920E-02 0.  1.
    10030    2    1    2    0    0  0.00000000000E+00  0.00000000000E+00  0.14899837558E+01  0.13521618296E+04  0.13521610087E+04 0.  0.
        2    1    3    3  502    0  0.22296710846E+03  0.29168995011E+03 -0.56695905183E+03  0.67545534635E+03  0.25500000920E-02 0.  1.
       -2    1    3    3    0  502 -0.22296710846E+03 -0.29168995011E+03  0.56844903559E+03  0.67670648329E+03  0.25500000920E-02 0. -1.
</event>
<event>
 5   0  0.3907270E-04  0.1401292E+04  0.7818609E-02  0.8952884E-01
        1   -1    0    0  501    0  0.00000000000E+00  0.00000000000E+00  0.19888504938E+04  0.19888504938E+04  0.50400001928E-02 0. -1.
       -1   -1    0    0    0  501  0.00000000000E+00  0.00000000000E+00 -0.24682853452E+03  0.24682853457E+03  0.50400001928E-02 0.  1.
    10030    2    1    2    0    0  0.00000000000E+00  0.00000000000E+00  0.17420219592E+04  0.22356790283E+04  0.14012923361E+04 0.  0.
        3    1    3    3  502    0  0.57464109129E+03  0.10876128422E+02  0.15103317553E+04  0.16159927894E+04  0.10100000352E+00 0. -1.
       -3    1    3    3    0  502 -0.57464109129E+03 -0.10876128422E+02  0.23169020392E+03  0.61968623897E+03  0.10100000352E+00 0.  1.
</event>
<event>
 5   0  0.7296966E-04  0.1383143E+04  0.7818609E-02  0.8966112E-01
       -2   -1    0    0    0  501  0.00000000000E+00  0.00000000000E+00  0.41324016454E+03  0.41324016454E+03  0.25500000920E-02 0.  1.
        2   -1    0    0  501    0  0.00000000000E+00  0.00000000000E+00 -0.11573681788E+04  0.11573681789E+04  0.25500000920E-02 0. -1.
    10030    2    1    2    0    0  0.00000000000E+00  0.00000000000E+00 -0.74412801431E+03  0.15706083434E+04  0.13831428222E+04 0.  0.
        3    1    3    3  502    0  0.41424559056E+03  0.55089973405E+03 -0.43610944244E+03  0.81564782980E+03  0.10100000352E+00 0.  1.
       -3    1    3    3    0  502 -0.41424559056E+03 -0.55089973405E+03 -0.30801857188E+03  0.75496051360E+03  0.10100000352E+00 0. -1.
</event>
<event>
 5   0  0.7296966E-04  0.1396164E+04  0.7818609E-02  0.8956600E-01
       -2   -1    0    0    0  501  0.00000000000E+00  0.00000000000E+00  0.40877370714E+03  0.40877370715E+03  0.25500000920E-02 0.  1.
        2   -1    0    0  501    0  0.00000000000E+00  0.00000000000E+00 -0.11921473456E+04  0.11921473456E+04  0.25500000920E-02 0. -1.
    10030    2    1    2    0    0  0.00000000000E+00  0.00000000000E+00 -0.78337363843E+03  0.16009210527E+04  0.13961640160E+04 0.  0.
        3    1    3    3  502    0 -0.54365182043E+03  0.24104945248E+02  0.10967914833E+03  0.55512870221E+03  0.10100000352E+00 0.  1.
       -3    1    3    3    0  502  0.54365182043E+03 -0.24104945248E+02 -0.89305278677E+03  0.10457923505E+04  0.10100000352E+00 0. -1.
</event>
<event>
 5   0  0.6870835E-04  0.1395451E+04  0.7818609E-02  0.8957118E-01
        2   -1    0    0  501    0  0.00000000000E+00  0.00000000000E+00  0.52616098987E+03  0.52616098988E+03  0.25500000920E-02 0. -1.
       -2   -1    0    0    0  501  0.00000000000E+00  0.00000000000E+00 -0.92523129229E+03  0.92523129230E+03  0.25500000920E-02 0.  1.
    10030    2    1    2    0    0  0.00000000000E+00  0.00000000000E+00 -0.39907030242E+03  0.14513922822E+04  0.13954506263E+04 0.  0.
        2    1    3    3  502    0  0.68850642140E+03  0.97396919962E+02 -0.25922355380E+03  0.74210787840E+03  0.25500000920E-02 0. -1.
       -2    1    3    3    0  502 -0.68850642140E+03 -0.97396919962E+02 -0.13984674862E+03  0.70928440377E+03  0.25500000920E-02 0.  1.
</event>
<event>
 5   0  0.3907093E-04  0.1405266E+04  0.7818609E-02  0.8950015E-01
        1   -1    0    0  501    0  0.00000000000E+00  0.00000000000E+00  0.36539359127E+03  0.36539359130E+03  0.50400001928E-02 0.  1.
       -1   -1    0    0    0  501  0.00000000000E+00  0.00000000000E+00 -0.13511277301E+04  0.13511277302E+04  0.50400001928E-02 0. -1.
    10030    2    1    2    0    0  0.00000000000E+00  0.00000000000E+00 -0.98573413888E+03  0.17165213215E+04  0.14052663998E+04 0.  0.
        4    1    3    3  502    0 -0.12018994645E+03  0.46869053728E+03 -0.11151992670E+04  0.12156428180E+04  0.12699999809E+01 0. -1.
       -4    1    3    3    0  502  0.12018994645E+03 -0.46869053728E+03  0.12946512808E+03  0.50087850349E+03  0.12699999809E+01 0.  1.
</event>
<event>
 5   0  0.7065539E-04  0.1426501E+04  0.7818609E-02  0.8934856E-01
        2   -1    0    0  501    0  0.00000000000E+00  0.00000000000E+00  0.11411694472E+04  0.11411694472E+04  0.25500000920E-02 0. -1.
       -2   -1    0    0    0  501  0.00000000000E+00  0.00000000000E+00 -0.44579378055E+03  0.44579378055E+03  0.25500000920E-02 0.  1.
    10030    2    1    2    0    0  0.00000000000E+00  0.00000000000E+00  0.69537566665E+03  0.15869632278E+04  0.14265009529E+04 0.  0.
        1    1    3    3  502    0  0.51647431405E+03  0.19714198507E+02 -0.19912155200E+03  0.55388063624E+03  0.50400001928E-02 0.  1.
       -1    1    3    3    0  502 -0.51647431405E+03 -0.19714198507E+02  0.89449721866E+03  0.10330825915E+04  0.50400001928E-02 0. -1.
</event>
<event>
 5   0  0.6870835E-04  0.1397565E+04  0.7818609E-02  0.8955583E-01
        2   -1    0    0  501    0  0.00000000000E+00  0.00000000000E+00  0.70402889472E+03  0.70402889472E+03  0.25500000920E-02 0.  1.
       -2   -1    0    0    0  501  0.00000000000E+00  0.00000000000E+00 -0.69357556902E+03  0.69357556902E+03  0.25500000920E-02 0. -1.
    10030    2    1    2    0    0  0.00000000000E+00  0.00000000000E+00  0.10453325703E+02  0.13976044637E+04  0.13975653706E+04 0.  0.
        2    1    3    3  502    0 -0.55613959299E+03  0.33855901377E+03 -0.24852004262E+03  0.69690434372E+03  0.25500000920E-02 0. -1.
       -2    1    3    3    0  502  0.55613959299E+03 -0.33855901377E+03  0.25897336832E+03  0.70070012003E+03  0.25500000920E-02 0.  1.
</event>
<event>
 5   0  0.6895048E-04  0.1394955E+04  0.7818609E-02  0.8957478E-01
        2   -1    0    0  501    0  0.00000000000E+00  0.00000000000E+00  0.91439865977E+03  0.91439865977E+03  0.25500000920E-02 0.  1.
       -2   -1    0    0    0  501  0.00000000000E+00  0.00000000000E+00 -0.53201647413E+03  0.53201647414E+03  0.25500000920E-02 0. -1.
    10030    2    1    2    0    0  0.00000000000E+00  0.00000000000E+00  0.38238218564E+03  0.14464151339E+04  0.13949554128E+04 0.  0.
        4    1    3    3  502    0  0.51111036435E+02 -0.63731441426E+03  0.48020549726E+03  0.79961298962E+03  0.12699999809E+01 0.  1.
       -4    1    3    3    0  502 -0.51111036435E+02  0.63731441426E+03 -0.97823311621E+02  0.64680214429E+03  0.12699999809E+01 0. -1.
</event>
<event>
 5   0  0.7296966E-04  0.1401061E+04  0.7818609E-02  0.8953051E-01
       -2   -1    0    0    0  501  0.00000000000E+00  0.00000000000E+00  0.44449235182E+03  0.44449235183E+03  0.25500000920E-02 0. -1.
        2   -1    0    0  501    0  0.00000000000E+00  0.00000000000E+00 -0.11040526940E+04  0.11040526940E+04  0.25500000920E-02 0.  1.
    10030    2    1    2    0    0  0.00000000000E+00  0.00000000000E+00 -0.65956034213E+03  0.15485450458E+04  0.14010609958E+04 0.  0.
        3    1    3    3  502    0 -0.18971419734E+03  0.53247811079E+03 -0.78712335573E+03  0.96906532416E+03  0.10100000352E+00 0.  1.
       -3    1    3    3    0  502  0.18971419734E+03 -0.53247811079E+03  0.12756301360E+03  0.57947972163E+03  0.10100000352E+00 0. -1.
</event>
<event>
 5   0  0.3756664E-04  0.1422155E+04  0.7818609E-02  0.8937936E-01
        1   -1    0    0  501    0  0.00000000000E+00  0.00000000000E+00  0.83841971316E+03  0.83841971318E+03  0.50400001928E-02 0. -1.
       -1   -1    0    0    0  501  0.00000000000E+00  0.00000000000E+00 -0.60307618153E+03  0.60307618155E+03  0.50400001928E-02 0.  1.
    10030    2    1    2    0    0  0.00000000000E+00  0.00000000000E+00  0.23534353164E+03  0.14414958947E+04  0.14221546458E+04 0.  0.
        2    1    3    3  502    0  0.28732874375E+03  0.39950280240E+03  0.63794647809E+03  0.80568976971E+03  0.25500000920E-02 0. -1.
       -2    1    3    3    0  502 -0.28732874375E+03 -0.39950280240E+03 -0.40260294645E+03  0.63580612501E+03  0.25500000920E-02 0.  1.
</event>
<event>
 5   0  0.7065539E-04  0.1413962E+04  0.7818609E-02  0.8943774E-01
       -2   -1    0    0    0  501  0.00000000000E+00  0.00000000000E+00  0.32683924621E+03  0.32683924622E+03  0.25500000920E-02 0.  1.
        2   -1    0    0  501    0  0.00000000000E+00  0.00000000000E+00 -0.15292593925E+04  0.15292593925E+04  0.25500000920E-02 0. -1.
    10030    2    1    2    0    0  0.00000000000E+00  0.00000000000E+00 -0.12024201463E+04  0.18560986387E+04  0.14139617917E+04 0.  0.
        1    1    3    3  502    0  0.70158911420E+03 -0.92141179559E+01 -0.48745320677E+03  0.85435520362E+03  0.50400001928E-02 0. -1.
       -1    1    3    3    0  502 -0.70158911420E+03  0.92141179559E+01 -0.71496693955E+03  0.10017434351E+04  0.50400001928E-02 0.  1.
</event>
<event>
 5   0  0.6895048E-04  0.1425471E+04  0.7818609E-02  0.8935585E-01
       -2   -1    0    0    0  501  0.00000000000E+00  0.00000000000E+00  0.63797106919E+03  0.63797106920E+03  0.25500000920E-02 0. -1.
        2   -1    0    0  501    0  0.00000000000E+00  0.00000000000E+00 -0.79626116103E+03  0.79626116104E+03  0.25500000920E-02 0.  1.
    10030    2    1    2    0    0  0.00000000000E+00  0.00000000000E+00 -0.15829009184E+03  0.14342322302E+04  0.14254705669E+04 0.  0.
        4    1    3    3  502    0 -0.59030913327E+03 -0.16512138017E+03  0.28676600773E+03  0.67673207335E+03  0.12699999809E+01 0.  1.
       -4    1    3    3    0  502  0.59030913327E+03  0.16512138017E+03 -0.44505609957E+03  0.75750015688E+03  0.12699999809E+01 0. -1.
</event>
<event>
 5   0  0.3784219E-04  0.1396848E+04  0.7818609E-02  0.8956103E-01
       -1   -1    0    0    0  501  0.00000000000E+00  0.00000000000E+00  0.52091092530E+03  0.52091092533E+03  0.50400001928E-02 0.  1.
        1   -1    0    0  501    0  0.00000000000E+00  0.00000000000E+00 -0.93642951186E+03  0.93642951187E+03  0.50400001928E-02 0. -1.
    10030    2    1    2    0    0  0.00000000000E+00  0.00000000000E+00 -0.41551858656E+03  0.14573404372E+04  0.13968484006E+04 0.  0.
        1    1    3    3  502    0 -0.64041849081E+03 -0.35980961715E+02  0.80551865087E+02  0.64646660855E+03  0.50400001928E-02 0.  1.
       -1    1    3    3    0  502  0.64041849081E+03  0.35980961715E+02 -0.49607045164E+03  0.81087382865E+03  0.50400001928E-02 0. -1.
</event>
<event>
 5   0  0.3756664E-04  0.1398913E+04  0.7818609E-02  0.8954606E-01
        1   -1    0    0  501    0  0.00000000000E+00  0.00000000000E+00  0.70134996302E+03  0.70134996304E+03  0.50400001928E-02 0. -1.
       -1   -1    0    0    0  501  0.00000000000E+00  0.00000000000E+00 -0.69756845926E+03  0.69756845928E+03  0.50400001928E-02 0.  1.
    10030    2    1    2    0    0  0.00000000000E+00  0.00000000000E+00  0.37815037601E+01  0.13989184223E+04  0.13989133113E+04 0.  0.
        2    1    3    3  502    0  0.37420654739E+03 -0.36127512359E+03 -0.46575329660E+03  0.69819509332E+03  0.25500000920E-02 0.  1.
       -2    1    3    3    0  502 -0.37420654739E+03  0.36127512359E+03  0.46953480036E+03  0.70072332899E+03  0.25500000920E-02 0. -1.
</event>
<event>
 5   0  0.3977658E-04  0.1374871E+04  0.7818609E-02  0.8972212E-01
        1   -1    0    0  501    0  0.00000000000E+00  0.00000000000E+00  0.11257851781E+04  0.11257851781E+04  0.50400001928E-02 0. -1.
       -1   -1    0    0    0  501  0.00000000000E+00  0.00000000000E+00 -0.41976684261E+03  0.41976684264E+03  0.50400001928E-02 0.  1.
    10030    2    1    2    0    0  0.00000000000E+00  0.00000000000E+00  0.70601833545E+03  0.15455520207E+04  0.13748705971E+04 0.  0.
        5    1    3    3  502    0 -0.52935551606E+03  0.35023869736E+03  0.56310219030E+02  0.63724197780E+03  0.46999998093E+01 0.  1.
       -5    1    3    3    0  502  0.52935551606E+03 -0.35023869736E+03  0.64970811642E+03  0.90831004291E+03  0.46999998093E+01 0. -1.
</event>
<event>
 5   0  0.2660250E-04  0.1404384E+04  0.7818609E-02  0.8950651E-01
       -3   -1    0    0    0  501  0.00000000000E+00  0.00000000000E+00  0.32970442715E+03  0.32970444262E+03  0.10100000352E+00 0. -1.
        3   -1    0    0  501    0  0.00000000000E+00  0.00000000000E+00 -0.14955021711E+04  0.14955021745E+04  0.10100000352E+00 0.  1.
    10030    2    1    2    0    0  0.00000000000E+00  0.00000000000E+00 -0.11657977439E+04  0.18252066171E+04  0.14043841409E+04 0.  0.
        2    1    3    3  502    0 -0.59476230634E+03 -0.87565455517E+01 -0.10678871534E+04  0.12223754949E+04  0.25500000920E-02 0.  1.
       -2    1    3    3    0  502  0.59476230634E+03  0.87565455517E+01 -0.97910590501E+02  0.60283112218E+03  0.25500000920E-02 0. -1.
</event>
<event>
 5   0  0.3907270E-04  0.1396240E+04  0.7818609E-02  0.8956545E-01
       -1   -1    0    0    0  501  0.00000000000E+00  0.00000000000E+00  0.41307181381E+03  0.41307181384E+03  0.50400001928E-02 0. -1.
        1   -1    0    0  501    0  0.00000000000E+00  0.00000000000E+00 -0.11798709350E+04  0.11798709350E+04  0.50400001928E-02 0.  1.
    10030    2    1    2    0    0  0.00000000000E+00  0.00000000000E+00 -0.76679912117E+03  0.15929427488E+04  0.13962398464E+04 0.  0.
        3    1    3    3  502    0 -0.59350337924E+03  0.20904533182E+02  0.35302254393E+02  0.59491975933E+03  0.10100000352E+00 0. -1.
       -3    1    3    3    0  502  0.59350337924E+03 -0.20904533182E+02 -0.80210137556E+03  0.99802298949E+03  0.10100000352E+00 0.  1.
</event>
<event>
 5   0  0.6895048E-04  0.1377112E+04  0.7818609E-02  0.8970555E-01
       -2   -1    0    0    0  501  0.00000000000E+00  0.00000000000E+00  0.32635153714E+03  0.32635153715E+03  0.25500000920E-02 0.  1.
        2   -1    0    0  501    0  0.00000000000E+00  0.00000000000E+00 -0.14527562858E+04  0.14527562858E+04  0.25500000920E-02 0. -1.
    10030    2    1    2    0    0  0.00000000000E+00  0.00000000000E+00 -0.11264047487E+04  0.17791078230E+04  0.13771118284E+04 0.  0.
        4    1    3    3  502    0 -0.48275789418E+03  0.32454506166E+03 -0.10391505980E+04  0.11908905322E+04  0.12699999809E+01 0. -1.
       -4    1    3    3    0  502  0.48275789418E+03 -0.32454506166E+03 -0.87254150668E+02  0.58821729076E+03  0.12699999809E+01 0.  1.
</event>
<event>
 5   0  0.3784219E-04  0.1401024E+04  0.7818609E-02  0.8953078E-01
        1   -1    0    0  501    0  0.00000000000E+00  0.00000000000E+00  0.56739044468E+03  0.56739044470E+03  0.50400001928E-02 0.  1.
       -1   -1    0    0    0  501  0.00000000000E+00  0.00000000000E+00 -0.86486684328E+03  0.86486684329E+03  0.50400001928E-02 0. -1.
    10030    2    1    2    0    0  0.00000000000E+00  0.00000000000E+00 -0.29747639860E+03  0.14322572880E+04  0.14010241723E+04 0.  0.
        1    1    3    3  502    0 -0.50307793913E+03 -0.45324215302E+03  0.34709493658E+02  0.67802699879E+03  0.50400001928E-02 0.  1.
       -1    1    3    3    0  502  0.50307793913E+03  0.45324215302E+03 -0.33218589226E+03  0.75423028920E+03  0.50400001928E-02 0. -1.
</event>
<event>
 5   0  0.6959748E-04  0.1392333E+04  0.7818609E-02  0.8959387E-01
        2   -1    0    0  501    0  0.00000000000E+00  0.00000000000E+00  0.17425636135E+04  0.17425636135E+04  0.25500000920E-02 0.  1.
       -2   -1    0    0    0  501  0.00000000000E+00  0.00000000000E+00 -0.27812337077E+03  0.27812337078E+03  0.25500000920E-02 0. -1.
    10030    2    1    2    0    0  0.00000000000E+00  0.00000000000E+00  0.14644402428E+04  0.20206869843E+04  0.13923328136E+04 0.  0.
        5    1    3    3  502    0 -0.29149162932E+03  0.44284894636E+03  0.77457182838E+02  0.53582111234E+03  0.46999998093E+01 0. -1.
       -5    1    3    3    0  502  0.29149162932E+03 -0.44284894636E+03  0.13869830599E+04  0.14848658720E+04  0.46999998093E+01 0.  1.
</event>
<event>
 5   0  0.6959748E-04  0.1400599E+04  0.7818609E-02  0.8953385E-01
        2   -1    0    0  501    0  0.00000000000E+00  0.00000000000E+00  0.11029429673E+04  0.11029429673E+04  0.25500000920E-02 0. -1.
       -2   -1    0    0    0  501  0.00000000000E+00  0.00000000000E+00 -0.44464646712E+03  0.44464646713E+03  0.25500000920E-02 0.  1.
    10030    2    1    2    0    0  0.00000000000E+00  0.00000000000E+00  0.65829650015E+03  0.15475894344E+04  0.14005994343E+04 0.  0.
        5    1    3    3  502    0  0.10418225443E+03 -0.68041650201E+03  0.18688413254E+03  0.71327997823E+03  0.46999998093E+01 0.  1.
       -5    1    3    3    0  502 -0.10418225443E+03  0.68041650201E+03  0.47141236761E+03  0.83430945619E+03  0.46999998093E+01 0. -1.
</event>
<event>
 5   0  0.6959748E-04  0.1399074E+04  0.7818609E-02  0.8954489E-01
        2   -1    0    0  501    0  0.00000000000E+00  0.00000000000E+00  0.51412086801E+03  0.51412086802E+03  0.25500000920E-02 0.  1.
       -2   -1    0    0    0  501  0.00000000000E+00  0.00000000000E+00 -0.95182248437E+03  0.95182248437E+03  0.25500000920E-02 0. -1.
    10030    2    1    2    0    0  0.00000000000E+00  0.00000000000E+00 -0.43770161636E+03  0.14659433524E+04  0.13990736962E+04 0.  0.
        5    1    3    3  502    0 -0.60416208565E+03  0.33395873159E+03 -0.10035511654E+03  0.69759121236E+03  0.46999998093E+01 0. -1.
       -5    1    3    3    0  502  0.60416208565E+03 -0.33395873159E+03 -0.33734649981E+03  0.76835214003E+03  0.46999998093E+01 0.  1.
</event>
<event>
 5   0  0.6870835E-04  0.1422371E+04  0.7818609E-02  0.8937782E-01
        2   -1    0    0  501    0  0.00000000000E+00  0.00000000000E+00  0.10502801652E+04  0.10502801652E+04  0.25500000920E-02 0. -1.
       -2   -1    0    0    0  501  0.00000000000E+00  0.00000000000E+00 -0.48157146979E+03  0.48157146980E+03  0.25500000920E-02 0.  1.
    10030    2    1    2    0    0  0.00000000000E+00  0.00000000000E+00  0.56870869544E+03  0.15318516350E+04  0.14223712073E+04 0.  0.
        2    1    3    3  502    0 -0.15254457821E+03  0.90553902875E+02 -0.45736093887E+03  0.49055976810E+03  0.25500000920E-02 0.  1.
       -2    1    3    3    0  502  0.15254457821E+03 -0.90553902875E+02  0.10260696343E+04  0.10412918669E+04  0.25500000920E-02 0. -1.
</event>
<event>
 5   0  0.3907093E-04  0.1402213E+04  0.7818609E-02  0.8952218E-01
       -1   -1    0    0    0  501  0.00000000000E+00  0.00000000000E+00  0.77540101324E+03  0.77540101326E+03  0.50400001928E-02 0.  1.
        1   -1    0    0  501    0  0.00000000000E+00  0.00000000000E+00 -0.63393058696E+03  0.63393058698E+03  0.50400001928E-02 0. -1.
    10030    2    1    2    0    0  0.00000000000E+00  0.00000000000E+00  0.14147042628E+03  0.14093316002E+04  0.14022131357E+04 0.  0.
        4    1    3    3  502    0  0.21265378097E+03  0.59939506189E+03  0.36728005261E+03  0.73443333307E+03  0.12699999809E+01 0.  1.
       -4    1    3    3    0  502 -0.21265378097E+03 -0.59939506189E+03 -0.22580962634E+03  0.67489826717E+03  0.12699999809E+01 0. -1.
</event>
<event>
 5   0  0.7065539E-04  0.1392365E+04  0.7818609E-02  0.8959364E-01
       -2   -1    0    0    0  501  0.00000000000E+00  0.00000000000E+00  0.18185765893E+04  0.18185765893E+04  0.25500000920E-02 0.  1.
        2   -1    0    0  501    0  0.00000000000E+00  0.00000000000E+00 -0.26651065863E+03  0.26651065865E+03  0.25500000920E-02 0. -1.
    10030    2    1    2    0    0  0.00000000000E+00  0.00000000000E+00  0.15520659307E+04  0.20850872480E+04  0.13923649588E+04 0.  0.
        1    1    3    3  502    0  0.10866678818E+03 -0.67780791908E+03  0.94962845714E+03  0.11717620290E+04  0.50400001928E-02 0. -1.
       -1    1    3    3    0  502 -0.10866678818E+03  0.67780791908E+03  0.60243747357E+03  0.91332521897E+03  0.50400001928E-02 0.  1.
</event>
<event>
 5   0  0.6959748E-04  0.1393100E+04  0.7818609E-02  0.8958828E-01
       -2   -1    0    0    0  501  0.00000000000E+00  0.00000000000E+00  0.63541372269E+03  0.63541372270E+03  0.25500000920E-02 0.  1.
        2   -1    0    0  501    0  0.00000000000E+00  0.00000000000E+00 -0.76356899974E+03  0.76356899974E+03  0.25500000920E-02 0. -1.
    10030    2    1    2    0    0  0.00000000000E+00  0.00000000000E+00 -0.12815527705E+03  0.13989827224E+04  0.13931004568E+04 0.  0.
        5    1    3    3  502    0 -0.94889173963E+02  0.42813071576E+03  0.47937304866E+03  0.64970799202E+03  0.46999998093E+01 0.  1.
       -5    1    3    3    0  502  0.94889173963E+02 -0.42813071576E+03 -0.60752832570E+03  0.74927473042E+03  0.46999998093E+01 0. -1.
</event>
<event>
 5   0  0.6895048E-04  0.1380969E+04  0.7818609E-02  0.8967710E-01
        2   -1    0    0  501    0  0.00000000000E+00  0.00000000000E+00  0.12325819796E+04  0.12325819796E+04  0.25500000920E-02 0. -1.
       -2   -1    0    0    0  501  0.00000000000E+00  0.00000000000E+00 -0.38680525096E+03  0.38680525097E+03  0.25500000920E-02 0.  1.
    10030    2    1    2    0    0  0.00000000000E+00  0.00000000000E+00  0.84577672862E+03  0.16193872306E+04  0.13809694884E+04 0.  0.
        4    1    3    3  502    0  0.40696879943E+03 -0.29371376330E+03  0.97896975934E+03  0.11001248934E+04  0.12699999809E+01 0. -1.
       -4    1    3    3    0  502 -0.40696879943E+03  0.29371376330E+03 -0.13319303072E+03  0.51926233716E+03  0.12699999809E+01 0.  1.
</event>
<event>
 5   0  0.7296966E-04  0.1307336E+04  0.7818609E-02  0.9023768E-01
       -2   -1    0    0    0  501  0.00000000000E+00  0.00000000000E+00  0.47790326800E+03  0.47790326801E+03  0.25500000920E-02 0. -1.
        2   -1    0    0  501    0  0.00000000000E+00  0.00000000000E+00 -0.89407652819E+03  0.89407652820E+03  0.25500000920E-02 0.  1.
    10030    2    1    2    0    0  0.00000000000E+00  0.00000000000E+00 -0.41617326019E+03  0.13719797962E+04  0.13073363679E+04 0.  0.
        3    1    3    3  502    0  0.21511027133E+03 -0.54593143568E+03 -0.51037194755E+03  0.77768444522E+03  0.10100000352E+00 0.  1.
       -3    1    3    3    0  502 -0.21511027133E+03  0.54593143568E+03  0.94198687361E+02  0.59429535098E+03  0.10100000352E+00 0. -1.
</event>
<event>
 5   0  0.6959748E-04  0.1392245E+04  0.7818609E-02  0.8959451E-01
        2   -1    0    0  501    0  0.00000000000E+00  0.00000000000E+00  0.11185271599E+04  0.11185271599E+04  0.25500000920E-02 0. -1.
       -2   -1    0    0    0  501  0.00000000000E+00  0.00000000000E+00 -0.43323628221E+03  0.43323628222E+03  0.25500000920E-02 0.  1.
    10030    2    1    2    0    0  0.00000000000E+00  0.00000000000E+00  0.68529087769E+03  0.15517634421E+04  0.13922450191E+04 0.  0.
        5    1    3    3  502    0  0.38322492236E+03 -0.48790547861E+03 -0.91996236319E+01  0.62049965371E+03  0.46999998093E+01 0.  1.
       -5    1    3    3    0  502 -0.38322492236E+03  0.48790547861E+03  0.69449050132E+03  0.93126378841E+03  0.46999998093E+01 0. -1.
</event>
<event>
 5   0  0.3907093E-04  0.1370878E+04  0.7818609E-02  0.8975172E-01
        1   -1    0    0  501    0  0.00000000000E+00  0.00000000000E+00  0.10356162350E+04  0.10356162350E+04  0.50400001928E-02 0.  1.
       -1   -1    0    0    0  501  0.00000000000E+00  0.00000000000E+00 -0.45366866383E+03  0.45366866386E+03  0.50400001928E-02 0. -1.
    10030    2    1    2    0    0  0.00000000000E+00  0.00000000000E+00  0.58194757118E+03  0.14892848989E+04  0.13708780159E+04 0.  0.
        4    1    3    3  502    0 -0.32845928005E+03 -0.57056943805E+03  0.49821218578E+03  0.82562217585E+03  0.12699999809E+01 0.  1.
       -4    1    3    3    0  502  0.32845928005E+03  0.57056943805E+03  0.83735385404E+02  0.66366272304E+03  0.12699999809E+01 0. -1.
</event>
<event>
 5   0  0.3907270E-04  0.1403046E+04  0.7818609E-02  0.8951617E-01
        1   -1    0    0  501    0  0.00000000000E+00  0.00000000000E+00  0.92672531506E+03  0.92672531507E+03  0.50400001928E-02 0. -1.
       -1   -1    0    0    0  501  0.00000000000E+00  0.00000000000E+00 -0.53104667734E+03  0.53104667736E+03  0.50400001928E-02 0.  1.
    10030    2    1    2    0    0  0.00000000000E+00  0.00000000000E+00  0.39567863772E+03  0.14577719924E+04  0.14030458287E+04 0.  0.
        3    1    3    3  502    0 -0.39520426664E+03 -0.17653767159E+03  0.77144402634E+03  0.88457778507E+03  0.10100000352E+00 0. -1.
       -3    1    3    3    0  502  0.39520426664E+03  0.17653767159E+03 -0.37576538862E+03  0.57319420736E+03  0.10100000352E+00 0.  1.
</event>
<event>
 5   0  0.3977658E-04  0.1399359E+04  0.7818609E-02  0.8954283E-01
        1   -1    0    0  501    0  0.00000000000E+00  0.00000000000E+00  0.67087015339E+03  0.67087015341E+03  0.50400001928E-02 0.  1.
       -1   -1    0    0    0  501  0.00000000000E+00  0.00000000000E+00 -0.72972558174E+03  0.72972558176E+03  0.50400001928E-02 0. -1.
    10030    2    1    2    0    0  0.00000000000E+00  0.00000000000E+00 -0.58855428352E+02  0.14005957352E+04  0.13993585859E+04 0.  0.
        5    1    3    3  502    0 -0.51579064751E+03 -0.27974496968E+03  0.35200208317E+03  0.68426953510E+03  0.46999998093E+01 0.  1.
       -5    1    3    3    0  502  0.51579064751E+03  0.27974496968E+03 -0.41085751152E+03  0.71632620006E+03  0.46999998093E+01 0. -1.
</event>
<event>
 5   0  0.7065539E-04  0.1398211E+04  0.7818609E-02  0.8955115E-01
        2   -1    0    0  501    0  0.00000000000E+00  0.00000000000E+00  0.10645770738E+04  0.10645770738E+04  0.25500000920E-02 0.  1.
       -2   -1    0    0    0  501  0.00000000000E+00  0.00000000000E+00 -0.45910085685E+03  0.45910085686E+03  0.25500000920E-02 0. -1.
    10030    2    1    2    0    0  0.00000000000E+00  0.00000000000E+00  0.60547621696E+03  0.15236779307E+04  0.13982106376E+04 0.  0.
        1    1    3    3  502    0 -0.55193569094E+03 -0.37885593181E+03  0.52226863109E+03  0.84907558382E+03  0.50400001928E-02 0.  1.
       -1    1    3    3    0  502  0.55193569094E+03  0.37885593181E+03  0.83207585867E+02  0.67460234684E+03  0.50400001928E-02 0. -1.
</event>
<event>
 5   0  0.6959748E-04  0.1379004E+04  0.7818609E-02  0.8969158E-01
        2   -1    0    0  501    0  0.00000000000E+00  0.00000000000E+00  0.96644767019E+03  0.96644767020E+03  0.25500000920E-02 0. -1.
       -2   -1    0    0    0  501  0.00000000000E+00  0.00000000000E+00 -0.49191792895E+03  0.49191792896E+03  0.25500000920E-02 0.  1.
    10030    2    1    2    0    0  0.00000000000E+00  0.00000000000E+00  0.47452974124E+03  0.14583655992E+04  0.13790038961E+04 0.  0.
        5    1    3    3  502    0 -0.31673768666E+03 -0.44296524825E+03  0.68450960518E+03  0.87470935909E+03  0.46999998093E+01 0. -1.
       -5    1    3    3    0  502  0.31673768666E+03  0.44296524825E+03 -0.20997986394E+03  0.58365624006E+03  0.46999998093E+01 0.  1.
</event>
<event>
 5   0  0.3977658E-04  0.1400049E+04  0.7818609E-02  0.8953783E-01
        1   -1    0    0  501    0  0.00000000000E+00  0.00000000000E+00  0.47969476378E+03  0.47969476381E+03  0.50400001928E-02 0.  1.
       -1   -1    0    0    0  501  0.00000000000E+00  0.00000000000E+00 -0.10215540182E+04  0.10215540182E+04  0.50400001928E-02 0. -1.
    10030    2    1    2    0    0  0.00000000000E+00  0.00000000000E+00 -0.54185925445E+03  0.15012487821E+04  0.14000487327E+04 0.  0.
        5    1    3    3  502    0 -0.97041105187E+02  0.65141115340E+03 -0.52526326794E+03  0.84242332441E+03  0.46999998093E+01 0. -1.
       -5    1    3    3    0  502  0.97041105187E+02 -0.65141115340E+03 -0.16595986508E+02  0.65882545764E+03  0.46999998093E+01 0.  1.
</event>
<event>
 5   0  0.3784219E-04  0.1414901E+04  0.7818609E-02  0.8943103E-01
        1   -1    0    0  501    0  0.00000000000E+00  0.00000000000E+00  0.43250170859E+03  0.43250170862E+03  0.50400001928E-02 0. -1.
       -1   -1    0    0    0  501  0.00000000000E+00  0.00000000000E+00 -0.11571884739E+04  0.11571884739E+04  0.50400001928E-02 0.  1.
    10030    2    1    2    0    0  0.00000000000E+00  0.00000000000E+00 -0.72468676532E+03  0.15896901826E+04  0.14149006922E+04 0.  0.
        1    1    3    3  502    0  0.64543378932E+03  0.14124182364E+03 -0.78215749905E+02  0.66532077429E+03  0.50400001928E-02 0. -1.
       -1    1    3    3    0  502 -0.64543378932E+03 -0.14124182364E+03 -0.64647101542E+03  0.92436940826E+03  0.50400001928E-02 0.  1.
</event>
<event>
 5   0  0.6870835E-04  0.1419558E+04  0.7818609E-02  0.8939782E-01
        2   -1    0    0  501    0  0.00000000000E+00  0.00000000000E+00  0.15183014651E+04  0.15183014651E+04  0.25500000920E-02 0.  1.
       -2   -1    0    0    0  501  0.00000000000E+00  0.00000000000E+00 -0.33180904357E+03  0.33180904358E+03  0.25500000920E-02 0. -1.
    10030    2    1    2    0    0  0.00000000000E+00  0.00000000000E+00  0.11864924215E+04  0.18501105087E+04  0.14195578988E+04 0.  0.
        2    1    3    3  502    0  0.11782021739E+03 -0.69103646300E+03  0.73821845992E+03  0.10180272547E+04  0.25500000920E-02 0.  1.
       -2    1    3    3    0  502 -0.11782021739E+03  0.69103646300E+03  0.44827396158E+03  0.83208325392E+03  0.25500000920E-02 0. -1.
</event>
<event>
 5   0  0.3784219E-04  0.1354770E+04  0.7818609E-02  0.8987225E-01
        1   -1    0    0  501    0  0.00000000000E+00  0.00000000000E+00  0.14114136739E+04  0.14114136739E+04  0.50400001928E-02 0. -1.
       -1   -1    0    0    0  501  0.00000000000E+00  0.00000000000E+00 -0.32509974614E+03  0.32509974618E+03  0.50400001928E-02 0.  1.
    10030    2    1    2    0    0  0.00000000000E+00  0.00000000000E+00  0.10863139277E+04  0.17365134200E+04  0.13547696883E+04 0.  0.
        1    1    3    3  502    0  0.65810993308E+03  0.12891399728E+03  0.66558332735E+03  0.94484319778E+03  0.50400001928E-02 0. -1.
       -1    1    3    3    0  502 -0.65810993308E+03 -0.12891399728E+03  0.42073060037E+03  0.79167022227E+03  0.50400001928E-02 0.  1.
</event>
<event>
 5   0  0.6895048E-04  0.1407220E+04  0.7818609E-02  0.8948609E-01
       -2   -1    0    0    0  501  0.00000000000E+00  0.00000000000E+00  0.74016829523E+03  0.74016829524E+03  0.25500000920E-02 0. -1.
        2   -1    0    0  501    0  0.00000000000E+00  0.00000000000E+00 -0.66885706350E+03  0.66885706351E+03  0.25500000920E-02 0.  1.
    10030    2    1    2    0    0  0.00000000000E+00  0.00000000000E+00  0.71311231729E+02  0.14090253587E+04  0.14072196594E+04 0.  0.
        4    1    3    3  502    0 -0.43587074780E+03 -0.48168139023E+03 -0.23499644583E+03  0.69081489050E+03  0.12699999809E+01 0.  1.
       -4    1    3    3    0  502  0.43587074780E+03  0.48168139023E+03  0.30630767756E+03  0.71821046825E+03  0.12699999809E+01 0. -1.
</event>
<event>
 5   0  0.7065539E-04  0.1397884E+04  0.7818609E-02  0.8955351E-01
       -2   -1    0    0    0  501  0.00000000000E+00  0.00000000000E+00  0.66385828403E+03  0.66385828403E+03  0.25500000920E-02 0. -1.
        2   -1    0    0  501    0  0.00000000000E+00  0.00000000000E+00 -0.73588029560E+03  0.73588029560E+03  0.25500000920E-02 0.  1.
    10030    2    1    2    0    0  0.00000000000E+00  0.00000000000E+00 -0.72022011568E+02  0.13997385796E+04  0.13978844449E+04 0.  0.
        1    1    3    3  502    0  0.21011384853E+03  0.64859642329E+03  0.11812523254E+03  0.69193837893E+03  0.50400001928E-02 0. -1.
       -1    1    3    3    0  502 -0.21011384853E+03 -0.64859642329E+03 -0.19014724411E+03  0.70780020071E+03  0.50400001928E-02 0.  1.
</event>
<event>
 5   0  0.2660250E-04  0.1408959E+04  0.7818609E-02  0.8947359E-01
        4   -1    0    0  501    0  0.00000000000E+00  0.00000000000E+00  0.92121915487E+03  0.92122003028E+03  0.12699999809E+01 0. -1.
       -4   -1    0    0    0  501  0.00000000000E+00  0.00000000000E+00 -0.53873120980E+03  0.53873270675E+03  0.12699999809E+01 0.  1.
    10030    2    1    2    0    0  0.00000000000E+00  0.00000000000E+00  0.38248794506E+03  0.14599527370E+04  0.14089588235E+04 0.  0.
        2    1    3    3  502    0 -0.61415435159E+03 -0.34274862916E+03  0.23306626746E+03  0.74093324625E+03  0.25500000920E-02 0.  1.
       -2    1    3    3    0  502  0.61415435159E+03  0.34274862916E+03  0.14942167760E+03  0.71901949077E+03  0.25500000920E-02 0. -1.
</event>
<event>
 5   0  0.3784219E-04  0.1408037E+04  0.7818609E-02  0.8948021E-01
        1   -1    0    0  501    0  0.00000000000E+00  0.00000000000E+00  0.57848068788E+03  0.57848068790E+03  0.50400001928E-02 0. -1.
       -1   -1    0    0    0  501  0.00000000000E+00  0.00000000000E+00 -0.85679990578E+03  0.85679990579E+03  0.50400001928E-02 0.  1.
    10030    2    1    2    0    0  0.00000000000E+00  0.00000000000E+00 -0.27831921790E+03  0.14352805937E+04  0.14080372138E+04 0.  0.
        1    1    3    3  502    0 -0.13218299296E+03  0.10815547854E+03  0.55704290172E+03  0.58263774813E+03  0.50400001928E-02 0. -1.
       -1    1    3    3    0  502  0.13218299296E+03 -0.10815547854E+03 -0.83536211962E+03  0.85264284556E+03  0.50400001928E-02 0.  1.
</event>
<event>
 5   0  0.3977658E-04  0.1390880E+04  0.7818609E-02  0.8960447E-01
       -1   -1    0    0    0  501  0.00000000000E+00  0.00000000000E+00  0.88372335819E+03  0.88372335821E+03  0.50400001928E-02 0.  1.
        1   -1    0    0  501    0  0.00000000000E+00  0.00000000000E+00 -0.54727142928E+03  0.54727142930E+03  0.50400001928E-02 0. -1.
    10030    2    1    2    0    0  0.00000000000E+00  0.00000000000E+00  0.33645192891E+03  0.14309947875E+04  0.13908796430E+04 0.  0.
        5    1    3    3  502    0  0.44543378500E+03 -0.22210517905E+03 -0.33144848771E+03  0.59801518157E+03  0.46999998093E+01 0. -1.
       -5    1    3    3    0  502 -0.44543378500E+03  0.22210517905E+03  0.66790041663E+03  0.83297960594E+03  0.46999998093E+01 0.  1.
</event>
<event>
 5   0  0.6895048E-04  0.1370713E+04  0.7818609E-02  0.8975295E-01
        2   -1    0    0  501    0  0.00000000000E+00  0.00000000000E+00  0.96876246620E+03  0.96876246620E+03  0.25500000920E-02 0.  1.
       -2   -1    0    0    0  501  0.00000000000E+00  0.00000000000E+00 -0.48485928837E+03  0.48485928837E+03  0.25500000920E-02 0. -1.
    10030    2    1    2    0    0  0.00000000000E+00  0.00000000000E+00  0.48390317783E+03  0.14536217546E+04  0.13707129239E+04 0.  0.
        4    1    3    3  502    0 -0.27143662993E+03  0.47522000320E+03 -0.19555505031E+03  0.58116717570E+03  0.12699999809E+01 0. -1.
       -4    1    3    3    0  502  0.27143662993E+03 -0.47522000320E+03  0.67945822814E+03  0.87245457887E+03  0.12699999809E+01 0.  1.
</event>
<event>
 5   0  0.3907093E-04  0.1395080E+04  0.7818609E-02  0.8957387E-01
        1   -1    0    0  501    0  0.00000000000E+00  0.00000000000E+00  0.20987376919E+04  0.20987376919E+04  0.50400001928E-02 0. -1.
       -1   -1    0    0    0  501  0.00000000000E+00  0.00000000000E+00 -0.23183565018E+03  0.23183565023E+03  0.50400001928E-02 0.  1.
    10030    2    1    2    0    0  0.00000000000E+00  0.00000000000E+00  0.18669020417E+04  0.23305733421E+04  0.13950802377E+04 0.  0.
        4    1    3    3  502    0 -0.32883418643E+03 -0.57732168596E+02 -0.89687929914E+02  0.34570285380E+03  0.12699999809E+01 0.  1.
       -4    1    3    3    0  502  0.32883418643E+03  0.57732168596E+02  0.19565899716E+04  0.19848704883E+04  0.12699999809E+01 0. -1.
</event>
<event>
 5   0  0.6895048E-04  0.1350343E+04  0.7818609E-02  0.8990569E-01
       -2   -1    0    0    0  501  0.00000000000E+00  0.00000000000E+00  0.42160747993E+03  0.42160747994E+03  0.25500000920E-02 0.  1.
        2   -1    0    0  501    0  0.00000000000E+00  0.00000000000E+00 -0.10812343190E+04  0.10812343190E+04  0.25500000920E-02 0. -1.
    10030    2    1    2    0    0  0.00000000000E+00  0.00000000000E+00 -0.65962683910E+03  0.15028417990E+04  0.13503428846E+04 0.  0.
        4    1    3    3  502    0  0.41721450695E+03  0.35000935798E+03  0.11435771417E+03  0.55646544832E+03  0.12699999809E+01 0.  1.
       -4    1    3    3    0  502 -0.41721450695E+03 -0.35000935798E+03 -0.77398455326E+03  0.94637635065E+03  0.12699999809E+01 0. -1.
</event>
<event>
 5   0  0.3756664E-04  0.1369371E+04  0.7818609E-02  0.8976292E-01
        1   -1    0    0  501    0  0.00000000000E+00  0.00000000000E+00  0.13064690255E+04  0.13064690255E+04  0.50400001928E-02 0.  1.
       -1   -1    0    0    0  501  0.00000000000E+00  0.00000000000E+00 -0.35882551258E+03  0.35882551262E+03  0.50400001928E-02 0. -1.
    10030    2    1    2    0    0  0.00000000000E+00  0.00000000000E+00  0.94764351292E+03  0.16652945381E+04  0.13693712686E+04 0.  0.
        2    1    3    3  502    0 -0.18188587096E+03 -0.47652131819E+03 -0.81657683512E+02  0.51654914000E+03  0.25500000920E-02 0. -1.
       -2    1    3    3    0  502  0.18188587096E+03  0.47652131819E+03  0.10293011964E+04  0.11487453981E+04  0.25500000920E-02 0.  1.
</event>
<event>
 5   0  0.7065539E-04  0.1375805E+04  0.7818609E-02  0.8971521E-01
        2   -1    0    0  501    0  0.00000000000E+00  0.00000000000E+00  0.11421137230E+04  0.11421137230E+04  0.25500000920E-02 0. -1.
       -2   -1    0    0    0  501  0.00000000000E+00  0.00000000000E+00 -0.41432828005E+03  0.41432828006E+03  0.25500000920E-02 0.  1.
    10030    2    1    2    0    0  0.00000000000E+00  0.00000000000E+00  0.72778544295E+03  0.15564420031E+04  0.13758052398E+04 0.  0.
        1    1    3    3  502    0 -0.14204791634E+03  0.51574380564E+03 -0.12537219904E+03  0.54944287411E+03  0.50400001928E-02 0.  1.
       -1    1    3    3    0  502  0.14204791634E+03 -0.51574380564E+03  0.85315764199E+03  0.10069991289E+04  0.50400001928E-02 0. -1.
</event>
<event>
 5   0  0.3784219E-04  0.1405708E+04  0.7818609E-02  0.8949697E-01
       -1   -1    0    0    0  501  0.00000000000E+00  0.00000000000E+00  0.36193326511E+03  0.36193326514E+03  0.50400001928E-02 0.  1.
        1   -1    0    0  501    0  0.00000000000E+00  0.00000000000E+00 -0.13649027090E+04  0.13649027091E+04  0.50400001928E-02 0. -1.
    10030    2    1    2    0    0  0.00000000000E+00  0.00000000000E+00 -0.10029694439E+04  0.17268359742E+04  0.14057079271E+04 0.  0.
        1    1    3    3  502    0  0.14484828737E+02 -0.69208080288E+03 -0.35194675773E+03  0.77656433621E+03  0.50400001928E-02 0.  1.
       -1    1    3    3    0  502 -0.14484828737E+02  0.69208080288E+03 -0.65102268621E+03  0.95027163799E+03  0.50400001928E-02 0. -1.
</event>
<event>
 5   0  0.3784219E-04  0.1433186E+04  0.7818609E-02  0.8930141E-01
        1   -1    0    0  501    0  0.00000000000E+00  0.00000000000E+00  0.10615754471E+04  0.10615754472E+04  0.50400001928E-02 0.  1.
       -1   -1    0    0    0  501  0.00000000000E+00  0.00000000000E+00 -0.48372054125E+03  0.48372054127E+03  0.50400001928E-02 0. -1.
    10030    2    1    2    0    0  0.00000000000E+00  0.00000000000E+00  0.57785490590E+03  0.15452959884E+04  0.14331864497E+04 0.  0.
        1    1    3    3  502    0  0.51303029331E+03 -0.25578860383E+03 -0.17468121986E+03  0.59928408982E+03  0.50400001928E-02 0. -1.
       -1    1    3    3    0  502 -0.51303029331E+03  0.25578860383E+03  0.75253612576E+03  0.94601189861E+03  0.50400001928E-02 0.  1.
</event>
<event>
 5   0  0.3907270E-04  0.1406024E+04  0.7818609E-02  0.8949470E-01
       -1   -1    0    0    0  501  0.00000000000E+00  0.00000000000E+00  0.56604110838E+03  0.56604110841E+03  0.50400001928E-02 0.  1.
        1   -1    0    0  501    0  0.00000000000E+00  0.00000000000E+00 -0.87312719995E+03  0.87312719996E+03  0.50400001928E-02 0. -1.
    10030    2    1    2    0    0  0.00000000000E+00  0.00000000000E+00 -0.30708609157E+03  0.14391683084E+04  0.14060240226E+04 0.  0.
        3    1    3    3  502    0  0.21712976150E+03  0.66852792236E+03 -0.14096677157E+03  0.71690066062E+03  0.10100000352E+00 0.  1.
       -3    1    3    3    0  502 -0.21712976150E+03 -0.66852792236E+03 -0.16611931999E+03  0.72226764775E+03  0.10100000352E+00 0. -1.
</event>
<event>
 5   0  0.7296966E-04  0.1406626E+04  0.7818609E-02  0.8949036E-01
       -2   -1    0    0    0  501  0.00000000000E+00  0.00000000000E+00  0.24472397891E+03  0.24472397893E+03  0.25500000920E-02 0. -1.
        2   -1    0    0  501    0  0.00000000000E+00  0.00000000000E+00 -0.20212527284E+04  0.20212527284E+04  0.25500000920E-02 0.  1.
    10030    2    1    2    0    0  0.00000000000E+00  0.00000000000E+00 -0.17765287495E+04  0.22659767073E+04  0.14066257641E+04 0.  0.
        3    1    3    3  502    0 -0.10752843931E+03  0.33912921527E+03  0.89078181568E+02  0.36675049086E+03  0.10100000352E+00 0. -1.
       -3    1    3    3    0  502  0.10752843931E+03 -0.33912921527E+03 -0.18656069310E+04  0.18992262164E+04  0.10100000352E+00 0.  1.
</event>
<event>
 5   0  0.6870835E-04  0.1396953E+04  0.7818609E-02  0.8956027E-01
        2   -1    0    0  501    0  0.00000000000E+00  0.00000000000E+00  0.14732087998E+04  0.14732087998E+04  0.25500000920E-02 0. -1.
       -2   -1    0    0    0  501  0.00000000000E+00  0.00000000000E+00 -0.33116119648E+03  0.33116119649E+03  0.25500000920E-02 0.  1.
    10030    2    1    2    0    0  0.00000000000E+00  0.00000000000E+00  0.11420476033E+04  0.18043699963E+04  0.13969532402E+04 0.  0.
        2    1    3    3  502    0  0.14144768149E+03 -0.73532893422E+02  0.14493958222E+04  0.14581367502E+04  0.25500000920E-02 0. -1.
       -2    1    3    3    0  502 -0.14144768149E+03  0.73532893422E+02 -0.30734821888E+03  0.34623324605E+03  0.25500000920E-02 0.  1.
</event>
<event>
 5   0  0.3756664E-04  0.1392646E+04  0.7818609E-02  0.8959159E-01
        1   -1    0    0  501    0  0.00000000000E+00  0.00000000000E+00  0.18210375557E+04  0.18210375557E+04  0.50400001928E-02 0.  1.
       -1   -1    0    0    0  501  0.00000000000E+00  0.00000000000E+00 -0.26625803803E+03  0.26625803808E+03  0.50400001928E-02 0. -1.
    10030    2    1    2    0    0  0.00000000000E+00  0.00000000000E+00  0.15547795176E+04  0.20872955938E+04  0.13926462391E+04 0.  0.
        2    1    3    3  502    0 -0.19537951459E+02  0.40887903150E+03  0.16216563694E+04  0.16725229967E+04  0.25500000920E-02 0.  1.
       -2    1    3    3    0  502  0.19537951459E+02 -0.40887903150E+03 -0.66876851812E+02  0.41477259705E+03  0.25500000920E-02 0. -1.
</event>
<event>
 5   0  0.6895048E-04  0.1401173E+04  0.7818609E-02  0.8952970E-01
       -2   -1    0    0    0  501  0.00000000000E+00  0.00000000000E+00  0.14153089347E+04  0.14153089347E+04  0.25500000920E-02 0. -1.
        2   -1    0    0  501    0  0.00000000000E+00  0.00000000000E+00 -0.34679449937E+03  0.34679449937E+03  0.25500000920E-02 0.  1.
    10030    2    1    2    0    0  0.00000000000E+00  0.00000000000E+00  0.10685144353E+04  0.17621034341E+04  0.14011728708E+04 0.  0.
        4    1    3    3  502    0 -0.49875788179E+03 -0.51382803494E+02 -0.81089662049E+02  0.50791412988E+03  0.12699999809E+01 0.  1.
       -4    1    3    3    0  502  0.49875788179E+03  0.51382803494E+02  0.11496040974E+04  0.12541893042E+04  0.12699999809E+01 0. -1.
</event>
<event>
 5   0  0.6959748E-04  0.1399778E+04  0.7818609E-02  0.8953980E-01
       -2   -1    0    0    0  501  0.00000000000E+00  0.00000000000E+00  0.32902408239E+03  0.32902408240E+03  0.25500000920E-02 0. -1.
        2   -1    0    0  501    0  0.00000000000E+00  0.00000000000E+00 -0.14887796930E+04  0.14887796930E+04  0.25500000920E-02 0.  1.
    10030    2    1    2    0    0  0.00000000000E+00  0.00000000000E+00 -0.11597556106E+04  0.18178037754E+04  0.13997776572E+04 0.  0.
        5    1    3    3  502    0 -0.52392204387E+03 -0.46387810784E+03 -0.59551953713E+03  0.91888128509E+03  0.46999998093E+01 0.  1.
       -5    1    3    3    0  502  0.52392204387E+03  0.46387810784E+03 -0.56423607349E+03  0.89892249033E+03  0.46999998093E+01 0. -1.
</event>
<event>
 5   0  0.3907093E-04  0.1399817E+04  0.7818609E-02  0.8953951E-01
       -1   -1    0    0    0  501  0.00000000000E+00  0.00000000000E+00  0.26462052139E+03  0.26462052144E+03  0.50400001928E-02 0. -1.
        1   -1    0    0  501    0  0.00000000000E+00  0.00000000000E+00 -0.18512247624E+04  0.18512247624E+04  0.50400001928E-02 0.  1.
    10030    2    1    2    0    0  0.00000000000E+00  0.00000000000E+00 -0.15866042410E+04  0.21158452838E+04  0.13998172193E+04 0.  0.
        4    1    3    3  502    0  0.18958032885E+03 -0.64440289347E+03 -0.49604941121E+03  0.83502240776E+03  0.12699999809E+01 0. -1.
       -4    1    3    3    0  502 -0.18958032885E+03  0.64440289347E+03 -0.10905548298E+04  0.12808228761E+04  0.12699999809E+01 0.  1.
</event>
<event>
 5   0  0.7065539E-04  0.1382102E+04  0.7818609E-02  0.8966877E-01
        2   -1    0    0  501    0  0.00000000000E+00  0.00000000000E+00  0.91153465065E+03  0.91153465066E+03  0.25500000920E-02 0. -1.
       -2   -1    0    0    0  501  0.00000000000E+00  0.00000000000E+00 -0.52389843700E+03  0.52389843701E+03  0.25500000920E-02 0.  1.
    10030    2    1    2    0    0  0.00000000000E+00  0.00000000000E+00  0.38763621365E+03  0.14354330877E+04  0.13821021362E+04 0.  0.
        1    1    3    3  502    0 -0.17558244992E+03 -0.39716987533E+03  0.75212830374E+03  0.86848724338E+03  0.50400001928E-02 0. -1.
       -1    1    3    3    0  502  0.17558244992E+03  0.39716987533E+03 -0.36449209009E+03  0.56694584429E+03  0.50400001928E-02 0.  1.
</event>
<event>
 5   0  0.3784219E-04  0.1343496E+04  0.7818609E-02  0.8995766E-01
        1   -1    0    0  501    0  0.00000000000E+00  0.00000000000E+00  0.83058173252E+03  0.83058173254E+03  0.50400001928E-02 0. -1.
       -1   -1    0    0    0  501  0.00000000000E+00  0.00000000000E+00 -0.54328874403E+03  0.54328874405E+03  0.50400001928E-02 0.  1.
    10030    2    1    2    0    0  0.00000000000E+00  0.00000000000E+00  0.28729298849E+03  0.13738704766E+04  0.13434964924E+04 0.  0.
        1    1    3    3  502    0 -0.35197412825E+03  0.48026883897E+03  0.46164600144E+03  0.75343279415E+03  0.50400001928E-02 0. -1.
       -1    1    3    3    0  502  0.35197412825E+03 -0.48026883897E+03 -0.17435301295E+03  0.62043768244E+03  0.50400001928E-02 0.  1.
</event>
<event>
 5   0  0.7065539E-04  0.1404605E+04  0.7818609E-02  0.8950492E-01
       -2   -1    0    0    0  501  0.00000000000E+00  0.00000000000E+00  0.69585483489E+03  0.69585483489E+03  0.25500000920E-02 0.  1.
        2   -1    0    0  501    0  0.00000000000E+00  0.00000000000E+00 -0.70880961407E+03  0.70880961407E+03  0.25500000920E-02 0. -1.
    10030    2    1    2    0    0  0.00000000000E+00  0.00000000000E+00 -0.12954779176E+02  0.14046644490E+04  0.14046047088E+04 0.  0.
        1    1    3    3  502    0  0.40617178732E+03  0.56295736381E+03 -0.11293417254E+03  0.70331404197E+03  0.50400001928E-02 0. -1.
       -1    1    3    3    0  502 -0.40617178732E+03 -0.56295736381E+03  0.99979393361E+02  0.70135040700E+03  0.50400001928E-02 0.  1.
</event>
<event>
 5   0  0.3907093E-04  0.1393225E+04  0.7818609E-02  0.8958737E-01
        1   -1    0    0  501    0  0.00000000000E+00  0.00000000000E+00  0.78751958019E+03  0.78751958021E+03  0.50400001928E-02 0. -1.
       -1   -1    0    0    0  501  0.00000000000E+00  0.00000000000E+00 -0.61619960036E+03  0.61619960038E+03  0.50400001928E-02 0.  1.
    10030    2    1    2    0    0  0.00000000000E+00  0.00000000000E+00  0.17131997983E+03  0.14037191806E+04  0.13932253954E+04 0.  0.
        4    1    3    3  502    0  0.28140991422E+03 -0.43121769963E+03  0.55837119581E+03  0.75955266408E+03  0.12699999809E+01 0. -1.
       -4    1    3    3    0  502 -0.28140991422E+03  0.43121769963E+03 -0.38705121598E+03  0.64416651651E+03  0.12699999809E+01 0.  1.
</event>
<event>
 5   0  0.6870835E-04  0.1398341E+04  0.7818609E-02  0.8955020E-01
        2   -1    0    0  501    0  0.00000000000E+00  0.00000000000E+00  0.13900489718E+04  0.13900489718E+04  0.25500000920E-02 0.  1.
       -2   -1    0    0    0  501  0.00000000000E+00  0.00000000000E+00 -0.35167057248E+03  0.35167057249E+03  0.25500000920E-02 0. -1.
    10030    2    1    2    0    0  0.00000000000E+00  0.00000000000E+00  0.10383783993E+04  0.17417195443E+04  0.13983408993E+04 0.  0.
        2    1    3    3  502    0  0.47580450706E+03  0.40695379635E+03  0.90679303209E+03  0.11019414342E+04  0.25500000920E-02 0.  1.
       -2    1    3    3    0  502 -0.47580450706E+03 -0.40695379635E+03  0.13158536723E+03  0.63977811011E+03  0.25500000920E-02 0. -1.
</event>
<event>
 5   0  0.6870835E-04  0.1398765E+04  0.7818609E-02  0.8954713E-01
       -2   -1    0    0    0  501  0.00000000000E+00  0.00000000000E+00  0.51686443318E+03  0.51686443319E+03  0.25500000920E-02 0. -1.
        2   -1    0    0  501    0  0.00000000000E+00  0.00000000000E+00 -0.94635274324E+03  0.94635274324E+03  0.25500000920E-02 0.  1.
    10030    2    1    2    0    0  0.00000000000E+00  0.00000000000E+00 -0.42948831005E+03  0.14632171764E+04  0.13987652759E+04 0.  0.
        2    1    3    3  502    0 -0.66583053201E+03  0.46592726631E+02  0.37706737311E+01  0.66746939819E+03  0.25500000920E-02 0. -1.
       -2    1    3    3    0  502  0.66583053201E+03 -0.46592726631E+02 -0.43325898378E+03  0.79574777824E+03  0.25500000920E-02 0.  1.
</event>
<event>
 5   0  0.3907093E-04  0.1379607E+04  0.7818609E-02  0.8968713E-01
        1   -1    0    0  501    0  0.00000000000E+00  0.00000000000E+00  0.39672609770E+03  0.39672609773E+03  0.50400001928E-02 0. -1.
       -1   -1    0    0    0  501  0.00000000000E+00  0.00000000000E+00 -0.11993897211E+04  0.11993897211E+04  0.50400001928E-02 0.  1.
    10030    2    1    2    0    0  0.00000000000E+00  0.00000000000E+00 -0.80266362342E+03  0.15961158189E+04  0.13796074858E+04 0.  0.
        4    1    3    3  502    0 -0.25102215918E+03  0.35396193858E+03  0.21903382366E+03  0.48608497937E+03  0.12699999809E+01 0. -1.
       -4    1    3    3    0  502  0.25102215918E+03 -0.35396193858E+03 -0.10216974471E+04  0.11100308395E+04  0.12699999809E+01 0.  1.
</event>
<event>
 5   0  0.3977658E-04  0.1415573E+04  0.7818609E-02  0.8942623E-01
       -1   -1    0    0    0  501  0.00000000000E+00  0.00000000000E+00  0.37348442621E+03  0.37348442625E+03  0.50400001928E-02 0.  1.
        1   -1    0    0  501    0  0.00000000000E+00  0.00000000000E+00 -0.13413182692E+04  0.13413182692E+04  0.50400001928E-02 0. -1.
    10030    2    1    2    0    0  0.00000000000E+00  0.00000000000E+00 -0.96783384301E+03  0.17148026955E+04  0.14155726533E+04 0.  0.
        5    1    3    3  502    0 -0.30958227382E+03 -0.12640098637E+02 -0.12547786685E+04  0.12924753589E+04  0.46999998093E+01 0. -1.
       -5    1    3    3    0  502  0.30958227382E+03  0.12640098637E+02  0.28694482550E+03  0.42232733660E+03  0.46999998093E+01 0.  1.
</event>
<event>
 5   0  0.3756664E-04  0.1395573E+04  0.7818609E-02  0.8957029E-01
       -1   -1    0    0    0  501  0.00000000000E+00  0.00000000000E+00  0.41095274774E+03  0.41095274777E+03  0.50400001928E-02 0.  1.
        1   -1    0    0  501    0  0.00000000000E+00  0.00000000000E+00 -0.11848224707E+04  0.11848224707E+04  0.50400001928E-02 0. -1.
    10030    2    1    2    0    0  0.00000000000E+00  0.00000000000E+00 -0.77386972299E+03  0.15957752185E+04  0.13955730722E+04 0.  0.
        2    1    3    3  502    0  0.44880819137E+03 -0.53103944017E+02 -0.99485871369E+03  0.10926997217E+04  0.25500000920E-02 0. -1.
       -2    1    3    3    0  502 -0.44880819137E+03  0.53103944017E+02  0.22098899070E+03  0.50307549684E+03  0.25500000920E-02 0.  1.
</event>
<event>
 5   0  0.7296966E-04  0.1397337E+04  0.7818609E-02  0.8955749E-01
        2   -1    0    0  501    0  0.00000000000E+00  0.00000000000E+00  0.84859743190E+03  0.84859743190E+03  0.25500000920E-02 0. -1.
       -2   -1    0    0    0  501  0.00000000000E+00  0.00000000000E+00 -0.57522853240E+03  0.57522853240E+03  0.25500000920E-02 0.  1.
    10030    2    1    2    0    0  0.00000000000E+00  0.00000000000E+00  0.27336889950E+03  0.14238259643E+04  0.13973366886E+04 0.  0.
        3    1    3    3  502    0  0.17223623604E+03 -0.63829424033E+03  0.36691593907E+03  0.75611650874E+03  0.10100000352E+00 0. -1.
       -3    1    3    3    0  502 -0.17223623604E+03  0.63829424033E+03 -0.93547039567E+02  0.66770945557E+03  0.10100000352E+00 0.  1.
</event>
<event>
 5   0  0.3756664E-04  0.1419327E+04  0.7818609E-02  0.8939946E-01
        1   -1    0    0  501    0  0.00000000000E+00  0.00000000000E+00  0.22155128010E+04  0.22155128010E+04  0.50400001928E-02 0. -1.
       -1   -1    0    0    0  501  0.00000000000E+00  0.00000000000E+00 -0.22731626424E+03  0.22731626430E+03  0.50400001928E-02 0.  1.
    10030    2    1    2    0    0  0.00000000000E+00  0.00000000000E+00  0.19881965368E+04  0.24428290653E+04  0.14193267325E+04 0.  0.
        2    1    3    3  502    0  0.69412864446E+03  0.12737979531E+03  0.11226867172E+04  0.13260715110E+04  0.25500000920E-02 0. -1.
       -2    1    3    3    0  502 -0.69412864446E+03 -0.12737979531E+03  0.86550981956E+03  0.11167575543E+04  0.25500000920E-02 0.  1.
</event>
<event>
 5   0  0.3784219E-04  0.1329415E+04  0.7818609E-02  0.9006559E-01
       -1   -1    0    0    0  501  0.00000000000E+00  0.00000000000E+00  0.67702625535E+03  0.67702625537E+03  0.50400001928E-02 0.  1.
        1   -1    0    0  501    0  0.00000000000E+00  0.00000000000E+00 -0.65261242271E+03  0.65261242273E+03  0.50400001928E-02 0. -1.
    10030    2    1    2    0    0  0.00000000000E+00  0.00000000000E+00  0.24413832642E+02  0.13296386781E+04  0.13294145249E+04 0.  0.
        1    1    3    3  502    0 -0.13426798104E+03 -0.54516278842E+03  0.36808341978E+03  0.67135367769E+03  0.50400001928E-02 0.  1.
       -1    1    3    3    0  502  0.13426798104E+03  0.54516278842E+03 -0.34366958713E+03  0.65828500040E+03  0.50400001928E-02 0. -1.
</event>
<event>
 5   0  0.7065539E-04  0.1395494E+04  0.7818609E-02  0.8957087E-01
        2   -1    0    0  501    0  0.00000000000E+00  0.00000000000E+00  0.12885957581E+04  0.12885957581E+04  0.25500000920E-02 0.  1.
       -2   -1    0    0    0  501  0.00000000000E+00  0.00000000000E+00 -0.37781490035E+03  0.37781490036E+03  0.25500000920E-02 0. -1.
    10030    2    1    2    0    0  0.00000000000E+00  0.00000000000E+00  0.91078085774E+03  0.16664106585E+04  0.13954937161E+04 0.  0.
        1    1    3    3  502    0  0.42087314376E+03 -0.46810991181E+02  0.11175985591E+04  0.11951368170E+04  0.50400001928E-02 0.  1.
       -1    1    3    3    0  502 -0.42087314376E+03  0.46810991181E+02 -0.20681770134E+03  0.47127384146E+03  0.50400001928E-02 0. -1.
</event>
<event>
 5   0  0.3977658E-04  0.1410749E+04  0.7818609E-02  0.8946075E-01
       -1   -1    0    0    0  501  0.00000000000E+00  0.00000000000E+00  0.15114402852E+04  0.15114402852E+04  0.50400001928E-02 0. -1.
        1   -1    0    0  501    0  0.00000000000E+00  0.00000000000E+00 -0.32919136489E+03  0.32919136492E+03  0.50400001928E-02 0.  1.
    10030    2    1    2    0    0  0.00000000000E+00  0.00000000000E+00  0.11822489203E+04  0.18406316501E+04  0.14107488656E+04 0.  0.
        5    1    3    3  502    0  0.41434564151E+03 -0.56505262919E+03  0.69683264362E+03  0.98821283518E+03  0.46999998093E+01 0.  1.
       -5    1    3    3    0  502 -0.41434564151E+03  0.56505262919E+03  0.48541627668E+03  0.85241881494E+03  0.46999998093E+01 0. -1.
</event>
<event>
 5   0  0.3977658E-04  0.1466046E+04  0.7818609E-02  0.8907351E-01
        1   -1    0    0  501    0  0.00000000000E+00  0.00000000000E+00  0.16702235916E+04  0.16702235916E+04  0.50400001928E-02 0. -1.
       -1   -1    0    0    0  501  0.00000000000E+00  0.00000000000E+00 -0.32170700341E+03  0.32170700345E+03  0.50400001928E-02 0.  1.
    10030    2    1    2    0    0  0.00000000000E+00  0.00000000000E+00  0.13485165882E+04  0.19919305951E+04  0.14660458748E+04 0.  0.
        5    1    3    3  502    0  0.20804865830E+03  0.66698649868E+03  0.37304949761E+03  0.79205003081E+03  0.46999998093E+01 0.  1.
       -5    1    3    3    0  502 -0.20804865830E+03 -0.66698649868E+03  0.97546709059E+03  0.11998805642E+04  0.46999998093E+01 0. -1.
</event>
<event>
 5   0  0.6870835E-04  0.1399027E+04  0.7818609E-02  0.8954524E-01
        2   -1    0    0  501    0  0.00000000000E+00  0.00000000000E+00  0.91454254583E+03  0.91454254584E+03  0.25500000920E-02 0.  1.
       -2   -1    0    0    0  501  0.00000000000E+00  0.00000000000E+00 -0.53504213509E+03  0.53504213509E+03  0.25500000920E-02 0. -1.
    10030    2    1    2    0    0  0.00000000000E+00  0.00000000000E+00  0.37950041074E+03  0.14495846809E+04  0.13990265135E+04 0.  0.
        2    1    3    3  502    0  0.33105709581E+03 -0.60287153327E+03  0.32189705947E+03  0.75938830858E+03  0.25500000920E-02 0.  1.
       -2    1    3    3    0  502 -0.33105709581E+03  0.60287153327E+03  0.57603351275E+02  0.69019637235E+03  0.25500000920E-02 0. -1.
</event>
<event>
 5   0  0.6870835E-04  0.1396691E+04  0.7818609E-02  0.8956217E-01
        2   -1    0    0  501    0  0.00000000000E+00  0.00000000000E+00  0.19507464783E+04  0.19507464783E+04  0.25500000920E-02 0. -1.
       -2   -1    0    0    0  501  0.00000000000E+00  0.00000000000E+00 -0.24999984318E+03  0.24999984319E+03  0.25500000920E-02 0.  1.
    10030    2    1    2    0    0  0.00000000000E+00  0.00000000000E+00  0.17007466351E+04  0.22007463215E+04  0.13966908229E+04 0.  0.
        2    1    3    3  502    0 -0.52062570258E+03 -0.23001613479E+03  0.21279890804E+03  0.60765279537E+03  0.25500000920E-02 0.  1.
       -2    1    3    3    0  502  0.52062570258E+03  0.23001613479E+03  0.14879477270E+04  0.15930935261E+04  0.25500000920E-02 0. -1.
</event>
<event>
 5   0  0.3907270E-04  0.1406022E+04  0.7818609E-02  0.8949471E-01
       -1   -1    0    0    0  501  0.00000000000E+00  0.00000000000E+00  0.75949829364E+03  0.75949829366E+03  0.50400001928E-02 0. -1.
        1   -1    0    0  501    0  0.00000000000E+00  0.00000000000E+00 -0.65072522591E+03  0.65072522593E+03  0.50400001928E-02 0.  1.
    10030    2    1    2    0    0  0.00000000000E+00  0.00000000000E+00  0.10877306773E+03  0.14102235196E+04  0.14060223309E+04 0.  0.
        3    1    3    3  502    0  0.48922090844E+03 -0.21274458617E+03 -0.40483229748E+03  0.66969138824E+03  0.10100000352E+00 0.  1.
       -3    1    3    3    0  502 -0.48922090844E+03  0.21274458617E+03  0.51360536521E+03  0.74053213135E+03  0.10100000352E+00 0. -1.
</event>
<event>
 5   0  0.6959748E-04  0.1405300E+04  0.7818609E-02  0.8949991E-01
        2   -1    0    0  501    0  0.00000000000E+00  0.00000000000E+00  0.11630521360E+04  0.11630521360E+04  0.25500000920E-02 0.  1.
       -2   -1    0    0    0  501  0.00000000000E+00  0.00000000000E+00 -0.42450108211E+03  0.42450108212E+03  0.25500000920E-02 0. -1.
    10030    2    1    2    0    0  0.00000000000E+00  0.00000000000E+00  0.73855105394E+03  0.15875532182E+04  0.14052998119E+04 0.  0.
        5    1    3    3  502    0 -0.13985568121E+02 -0.21367927161E+03  0.11252740134E+04  0.11454772466E+04  0.46999998093E+01 0.  1.
       -5    1    3    3    0  502  0.13985568121E+02  0.21367927161E+03 -0.38672295949E+03  0.44207597155E+03  0.46999998093E+01 0. -1.
</event>
<event>
 5   0  0.3907093E-04  0.1428724E+04  0.7818609E-02  0.8933285E-01
        1   -1    0    0  501    0  0.00000000000E+00  0.00000000000E+00  0.87974112914E+03  0.87974112915E+03  0.50400001928E-02 0. -1.
       -1   -1    0    0    0  501  0.00000000000E+00  0.00000000000E+00 -0.58007213995E+03  0.58007213997E+03  0.50400001928E-02 0.  1.
    10030    2    1    2    0    0  0.00000000000E+00  0.00000000000E+00  0.29966898919E+03  0.14598132691E+04  0.14287243533E+04 0.  0.
        4    1    3    3  502    0 -0.28400315146E+03  0.61780767211E+03  0.37361530353E+03  0.77584413235E+03  0.12699999809E+01 0.  1.
       -4    1    3    3    0  502  0.28400315146E+03 -0.61780767211E+03 -0.73946314344E+02  0.68396913678E+03  0.12699999809E+01 0. -1.
</event>
<event>
 5   0  0.6870835E-04  0.1428597E+04  0.7818609E-02  0.8933375E-01
        2   -1    0    0  501    0  0.00000000000E+00  0.00000000000E+00  0.26118835290E+04  0.26118835290E+04  0.25500000920E-02 0.  1.
       -2   -1    0    0    0  501  0.00000000000E+00  0.00000000000E+00 -0.19534649142E+03  0.19534649143E+03  0.25500000920E-02 0. -1.
    10030    2    1    2    0    0  0.00000000000E+00  0.00000000000E+00  0.24165370376E+04  0.28072300204E+04  0.14285969108E+04 0.  0.
        2    1    3    3  502    0 -0.42520133547E+03  0.82560304428E+02  0.92158155265E+02  0.44283801230E+03  0.25500000920E-02 0. -1.
       -2    1    3    3    0  502  0.42520133547E+03 -0.82560304428E+02  0.23243788823E+04  0.23643920081E+04  0.25500000920E-02 0.  1.
</event>
<event>
 5   0  0.3907270E-04  0.1360517E+04  0.7818609E-02  0.8982905E-01
        1   -1    0    0  501    0  0.00000000000E+00  0.00000000000E+00  0.52112130081E+03  0.52112130083E+03  0.50400001928E-02 0.  1.
       -1   -1    0    0    0  501  0.00000000000E+00  0.00000000000E+00 -0.88799255828E+03  0.88799255829E+03  0.50400001928E-02 0. -1.
    10030    2    1    2    0    0  0.00000000000E+00  0.00000000000E+00 -0.36687125747E+03  0.14091138591E+04  0.13605173091E+04 0.  0.
        3    1    3    3  502    0 -0.46925512015E+03  0.49194408614E+03 -0.15931259231E+03  0.69827635213E+03  0.10100000352E+00 0.  1.
       -3    1    3    3    0  502  0.46925512015E+03 -0.49194408614E+03 -0.20755866516E+03  0.71083750700E+03  0.10100000352E+00 0. -1.
</event>
<event>
 5   0  0.3977658E-04  0.1410500E+04  0.7818609E-02  0.8946253E-01
        1   -1    0    0  501    0  0.00000000000E+00  0.00000000000E+00  0.82122234523E+03  0.82122234525E+03  0.50400001928E-02 0. -1.
       -1   -1    0    0    0  501  0.00000000000E+00  0.00000000000E+00 -0.60565475037E+03  0.60565475039E+03  0.50400001928E-02 0.  1.
    10030    2    1    2    0    0  0.00000000000E+00  0.00000000000E+00  0.21556759487E+03  0.14268770956E+04  0.14104995066E+04 0.  0.
        5    1    3    3  502    0  0.31328042310E+03  0.44518607514E+03  0.56134208893E+03  0.78196054619E+03  0.46999998093E+01 0. -1.
       -5    1    3    3    0  502 -0.31328042310E+03 -0.44518607514E+03 -0.34577449407E+03  0.64491654944E+03  0.46999998093E+01 0.  1.
</event>
<event>
 5   0  0.3756664E-04  0.1397653E+04  0.7818609E-02  0.8955519E-01
        1   -1    0    0  501    0  0.00000000000E+00  0.00000000000E+00  0.16996551170E+03  0.16996551178E+03  0.50400001928E-02 0.  1.
       -1   -1    0    0    0  501  0.00000000000E+00  0.00000000000E+00 -0.28732801550E+04  0.28732801550E+04  0.50400001928E-02 0. -1.
    10030    2    1    2    0    0  0.00000000000E+00  0.00000000000E+00 -0.27033146432E+04  0.30432456667E+04  0.13976530784E+04 0.  0.
        2    1    3    3  502    0 -0.12853534087E+03 -0.38530197023E+03 -0.25898662458E+04  0.26215236244E+04  0.25500000920E-02 0. -1.
       -2    1    3    3    0  502  0.12853534087E+03  0.38530197023E+03 -0.11344839747E+03  0.42172204236E+03  0.25500000920E-02 0.  1.
</event>
<event>
 5   0  0.3977658E-04  0.1379695E+04  0.7818609E-02  0.8968649E-01
        1   -1    0    0  501    0  0.00000000000E+00  0.00000000000E+00  0.11374092515E+04  0.11374092515E+04  0.50400001928E-02 0.  1.
       -1   -1    0    0    0  501  0.00000000000E+00  0.00000000000E+00 -0.41839812418E+03  0.41839812421E+03  0.50400001928E-02 0. -1.
    10030    2    1    2    0    0  0.00000000000E+00  0.00000000000E+00  0.71901112734E+03  0.15558073758E+04  0.13796954697E+04 0.  0.
        5    1    3    3  502    0 -0.65784955357E+03  0.12259103468E+03  0.17056786207E+03  0.69058676681E+03  0.46999998093E+01 0.  1.
       -5    1    3    3    0  502  0.65784955357E+03 -0.12259103468E+03  0.54844326527E+03  0.86522060895E+03  0.46999998093E+01 0. -1.
</event>
<event>
 5   0  0.6870835E-04  0.1389458E+04  0.7818609E-02  0.8961485E-01
        2   -1    0    0  501    0  0.00000000000E+00  0.00000000000E+00  0.51699515268E+03  0.51699515269E+03  0.25500000920E-02 0.  1.
       -2   -1    0    0    0  501  0.00000000000E+00  0.00000000000E+00 -0.93356482185E+03  0.93356482185E+03  0.25500000920E-02 0. -1.
    10030    2    1    2    0    0  0.00000000000E+00  0.00000000000E+00 -0.41656966917E+03  0.14505599745E+04  0.13894581499E+04 0.  0.
        2    1    3    3  502    0  0.58356513396E+02 -0.55748667381E+03  0.22019245371E+03  0.60223051302E+03  0.25500000920E-02 0. -1.
       -2    1    3    3    0  502 -0.58356513396E+02  0.55748667381E+03 -0.63676212288E+03  0.84832946151E+03  0.25500000920E-02 0.  1.
</event>
<event>
 5   0  0.6870835E-04  0.1388735E+04  0.7818609E-02  0.8962013E-01
       -2   -1    0    0    0  501  0.00000000000E+00  0.00000000000E+00  0.35708602561E+03  0.35708602562E+03  0.25500000920E-02 0.  1.
        2   -1    0    0  501    0  0.00000000000E+00  0.00000000000E+00 -0.13502238959E+04  0.13502238959E+04  0.25500000920E-02 0. -1.
    10030    2    1    2    0    0  0.00000000000E+00  0.00000000000E+00 -0.99313787027E+03  0.17073099215E+04  0.13887347978E+04 0.  0.
        2    1    3    3  502    0  0.36982649122E+03  0.58713223514E+03 -0.46522070486E+03  0.83541977436E+03  0.25500000920E-02 0. -1.
       -2    1    3    3    0  502 -0.36982649122E+03 -0.58713223514E+03 -0.52791716542E+03  0.87189014715E+03  0.25500000920E-02 0.  1.
</event>
<event>
 5   0  0.3756664E-04  0.1408320E+04  0.7818609E-02  0.8947818E-01
        1   -1    0    0  501    0  0.00000000000E+00  0.00000000000E+00  0.21018349233E+04  0.21018349233E+04  0.50400001928E-02 0. -1.
       -1   -1    0    0    0  501  0.00000000000E+00  0.00000000000E+00 -0.23590862207E+03  0.23590862212E+03  0.50400001928E-02 0.  1.
    10030    2    1    2    0    0  0.00000000000E+00  0.00000000000E+00  0.18659263013E+04  0.23377435455E+04  0.14083195385E+04 0.  0.
        2    1    3    3  502    0 -0.94168151085E+02 -0.69433969225E+03  0.81717350029E+03  0.10764514752E+04  0.25500000920E-02 0. -1.
       -2    1    3    3    0  502  0.94168151085E+02  0.69433969225E+03  0.10487528010E+04  0.12612920702E+04  0.25500000920E-02 0.  1.
</event>
<event>
 5   0  0.6895048E-04  0.1406363E+04  0.7818609E-02  0.8949225E-01
       -2   -1    0    0    0  501  0.00000000000E+00  0.00000000000E+00  0.62738706635E+03  0.62738706635E+03  0.25500000920E-02 0.  1.
        2   -1    0    0  501    0  0.00000000000E+00  0.00000000000E+00 -0.78813319187E+03  0.78813319188E+03  0.25500000920E-02 0. -1.
    10030    2    1    2    0    0  0.00000000000E+00  0.00000000000E+00 -0.16074612552E+03  0.14155202582E+04  0.14063634966E+04 0.  0.
        4    1    3    3  502    0 -0.61664954722E+03  0.41229254195E+02  0.25723063938E+03  0.66942193737E+03  0.12699999809E+01 0.  1.
       -4    1    3    3    0  502  0.61664954722E+03 -0.41229254195E+02 -0.41797676491E+03  0.74609832086E+03  0.12699999809E+01 0. -1.
</event>
<event>
 5   0  0.2660250E-04  0.1390441E+04  0.7818609E-02  0.8960767E-01
       -3   -1    0    0    0  501  0.00000000000E+00  0.00000000000E+00  0.97547058434E+03  0.97547058957E+03  0.10100000352E+00 0.  1.
        3   -1    0    0  501    0  0.00000000000E+00  0.00000000000E+00 -0.49548548954E+03  0.49548549984E+03  0.10100000352E+00 0. -1.
    10030    2    1    2    0    0  0.00000000000E+00  0.00000000000E+00  0.47998509480E+03  0.14709560894E+04  0.13904409825E+04 0.  0.
        2    1    3    3  502    0 -0.27382360359E+03 -0.35891322086E+03 -0.31933222282E+03  0.55296576253E+03  0.25500000920E-02 0. -1.
       -2    1    3    3    0  502  0.27382360359E+03  0.35891322086E+03  0.79931731762E+03  0.91799032688E+03  0.25500000920E-02 0.  1.
</event>
<event>
 5   0  0.3977658E-04  0.1396623E+04  0.7818609E-02  0.8956267E-01
        1   -1    0    0  501    0  0.00000000000E+00  0.00000000000E+00  0.82543698431E+03  0.82543698433E+03  0.50400001928E-02 0. -1.
       -1   -1    0    0    0  501  0.00000000000E+00  0.00000000000E+00 -0.59076447291E+03  0.59076447293E+03  0.50400001928E-02 0.  1.
    10030    2    1    2    0    0  0.00000000000E+00  0.00000000000E+00  0.23467251140E+03  0.14162014573E+04  0.13966228481E+04 0.  0.
        5    1    3    3  502    0 -0.49318431209E+03 -0.40919649078E+03  0.39861304658E+03  0.75470986787E+03  0.46999998093E+01 0. -1.
       -5    1    3    3    0  502  0.49318431209E+03  0.40919649078E+03 -0.16394053518E+03  0.66149158939E+03  0.46999998093E+01 0.  1.
</event>
<event>
 5   0  0.3907270E-04  0.1410942E+04  0.7818609E-02  0.8945936E-01
        1   -1    0    0  501    0  0.00000000000E+00  0.00000000000E+00  0.15430606838E+04  0.15430606838E+04  0.50400001928E-02 0.  1.
       -1   -1    0    0    0  501  0.00000000000E+00  0.00000000000E+00 -0.32253391896E+03  0.32253391900E+03  0.50400001928E-02 0. -1.
    10030    2    1    2    0    0  0.00000000000E+00  0.00000000000E+00  0.12205267649E+04  0.18655946028E+04  0.14109421102E+04 0.  0.
        3    1    3    3  502    0  0.55116633093E+03 -0.35997019797E+03  0.94561711855E+03  0.11521955619E+04  0.10100000352E+00 0. -1.
       -3    1    3    3    0  502 -0.55116633093E+03  0.35997019797E+03  0.27490964633E+03  0.71339904094E+03  0.10100000352E+00 0.  1.
</event>
<event>
 5   0  0.6870835E-04  0.1405039E+04  0.7818609E-02  0.8950179E-01
        2   -1    0    0  501    0  0.00000000000E+00  0.00000000000E+00  0.41421644774E+03  0.41421644775E+03  0.25500000920E-02 0. -1.
       -2   -1    0    0    0  501  0.00000000000E+00  0.00000000000E+00 -0.11914879518E+04  0.11914879518E+04  0.25500000920E-02 0.  1.
    10030    2    1    2    0    0  0.00000000000E+00  0.00000000000E+00 -0.77727150402E+03  0.16057043995E+04  0.14050393687E+04 0.  0.
        2    1    3    3  502    0 -0.41173257371E+03 -0.56593019968E+03 -0.45846187849E+03  0.83665285346E+03  0.25500000920E-02 0.  1.
       -2    1    3    3    0  502  0.41173257371E+03  0.56593019968E+03 -0.31880962554E+03  0.76905154607E+03  0.25500000920E-02 0. -1.
</event>
<event>
 5   0  0.3784219E-04  0.1394811E+04  0.7818609E-02  0.8957583E-01
        1   -1    0    0  501    0  0.00000000000E+00  0.00000000000E+00  0.30332024256E+03  0.30332024260E+03  0.50400001928E-02 0. -1.
       -1   -1    0    0    0  501  0.00000000000E+00  0.00000000000E+00 -0.16035014002E+04  0.16035014002E+04  0.50400001928E-02 0.  1.
    10030    2    1    2    0    0  0.00000000000E+00  0.00000000000E+00 -0.13001811577E+04  0.19068216428E+04  0.13948110033E+04 0.  0.
        1    1    3    3  502    0  0.32596069933E+01  0.48515855287E+03  0.34795880877E+02  0.48641566568E+03  0.50400001928E-02 0. -1.
       -1    1    3    3    0  502 -0.32596069933E+01 -0.48515855287E+03 -0.13349770385E+04  0.14204059771E+04  0.50400001928E-02 0.  1.
</event>
<event>
 5   0  0.6870835E-04  0.1366000E+04  0.7818609E-02  0.8978804E-01
        2   -1    0    0  501    0  0.00000000000E+00  0.00000000000E+00  0.17721409667E+04  0.17721409667E+04  0.25500000920E-02 0. -1.
       -2   -1    0    0    0  501  0.00000000000E+00  0.00000000000E+00 -0.26323469584E+03  0.26323469585E+03  0.25500000920E-02 0.  1.
    10030    2    1    2    0    0  0.00000000000E+00  0.00000000000E+00  0.15089062709E+04  0.20353756626E+04  0.13659999830E+04 0.  0.
        2    1    3    3  502    0 -0.34374463688E+03 -0.50602944642E+03  0.12070455049E+04  0.13532128535E+04  0.25500000920E-02 0.  1.
       -2    1    3    3    0  502  0.34374463688E+03  0.50602944642E+03  0.30186076601E+03  0.68216280908E+03  0.25500000920E-02 0. -1.
</event>
<event>
 5   0  0.6870835E-04  0.1395063E+04  0.7818609E-02  0.8957400E-01
        2   -1    0    0  501    0  0.00000000000E+00  0.00000000000E+00  0.91703537458E+03  0.91703537458E+03  0.25500000920E-02 0. -1.
       -2   -1    0    0    0  501  0.00000000000E+00  0.00000000000E+00 -0.53056899431E+03  0.53056899431E+03  0.25500000920E-02 0.  1.
    10030    2    1    2    0    0  0.00000000000E+00  0.00000000000E+00  0.38646638027E+03  0.14476043689E+04  0.13950634917E+04 0.  0.
        2    1    3    3  502    0 -0.32532687518E+03  0.14799997341E+02  0.83330658061E+03  0.89468233073E+03  0.25500000920E-02 0. -1.
       -2    1    3    3    0  502  0.32532687518E+03 -0.14799997341E+02 -0.44684020034E+03  0.55292203816E+03  0.25500000920E-02 0.  1.
</event>
<event>
 5   0  0.3907270E-04  0.1433494E+04  0.7818609E-02  0.8929925E-01
       -1   -1    0    0    0  501  0.00000000000E+00  0.00000000000E+00  0.88009118851E+03  0.88009118852E+03  0.50400001928E-02 0. -1.
        1   -1    0    0  501    0  0.00000000000E+00  0.00000000000E+00 -0.58371918673E+03  0.58371918675E+03  0.50400001928E-02 0.  1.
    10030    2    1    2    0    0  0.00000000000E+00  0.00000000000E+00  0.29637200178E+03  0.14638103753E+04  0.14334937919E+04 0.  0.
        3    1    3    3  502    0  0.38117812614E+03 -0.37903610907E+03 -0.33593001480E+03  0.63388809807E+03  0.10100000352E+00 0.  1.
       -3    1    3    3    0  502 -0.38117812614E+03  0.37903610907E+03  0.63230201658E+03  0.82992227721E+03  0.10100000352E+00 0. -1.
</event>
<event>
 5   0  0.3784219E-04  0.1396396E+04  0.7818609E-02  0.8956431E-01
        1   -1    0    0  501    0  0.00000000000E+00  0.00000000000E+00  0.82162748311E+03  0.82162748313E+03  0.50400001928E-02 0.  1.
       -1   -1    0    0    0  501  0.00000000000E+00  0.00000000000E+00 -0.59331099041E+03  0.59331099043E+03  0.50400001928E-02 0. -1.
    10030    2    1    2    0    0  0.00000000000E+00  0.00000000000E+00  0.22831649270E+03  0.14149384736E+04  0.13963962414E+04 0.  0.
        1    1    3    3  502    0  0.48866320212E+03 -0.84882797851E+02 -0.38377701989E+03  0.62712169114E+03  0.50400001928E-02 0. -1.
       -1    1    3    3    0  502 -0.48866320212E+03  0.84882797851E+02  0.61209351259E+03  0.78781678242E+03  0.50400001928E-02 0.  1.
</event>
<event>
 5   0  0.3907270E-04  0.1401449E+04  0.7818609E-02  0.8952770E-01
        1   -1    0    0  501    0  0.00000000000E+00  0.00000000000E+00  0.11312794108E+04  0.11312794108E+04  0.50400001928E-02 0. -1.
       -1   -1    0    0    0  501  0.00000000000E+00  0.00000000000E+00 -0.43403500825E+03  0.43403500828E+03  0.50400001928E-02 0.  1.
    10030    2    1    2    0    0  0.00000000000E+00  0.00000000000E+00  0.69724440257E+03  0.15653144191E+04  0.14014490621E+04 0.  0.
        3    1    3    3  502    0 -0.53953367864E+03  0.23061748051E+03  0.77647011469E+03  0.97323525517E+03  0.10100000352E+00 0. -1.
       -3    1    3    3    0  502  0.53953367864E+03 -0.23061748051E+03 -0.79225712125E+02  0.59207916394E+03  0.10100000352E+00 0.  1.
</event>
<event>
 5   0  0.3977658E-04  0.1375153E+04  0.7818609E-02  0.8972003E-01
       -1   -1    0    0    0  501  0.00000000000E+00  0.00000000000E+00  0.59303441396E+03  0.59303441398E+03  0.50400001928E-02 0.  1.
        1   -1    0    0  501    0  0.00000000000E+00  0.00000000000E+00 -0.79719106163E+03  0.79719106164E+03  0.50400001928E-02 0. -1.
    10030    2    1    2    0    0  0.00000000000E+00  0.00000000000E+00 -0.20415664767E+03  0.13902254756E+04  0.13751534228E+04 0.  0.
        5    1    3    3  502    0  0.21176785267E+03  0.49387052325E+03  0.33155873588E+03  0.63143250035E+03  0.46999998093E+01 0.  1.
       -5    1    3    3    0  502 -0.21176785267E+03 -0.49387052325E+03 -0.53571538355E+03  0.75879297527E+03  0.46999998093E+01 0. -1.
</event>
<event>
 5   0  0.3907093E-04  0.1393569E+04  0.7818609E-02  0.8958487E-01
        1   -1    0    0  501    0  0.00000000000E+00  0.00000000000E+00  0.70550714834E+03  0.70550714836E+03  0.50400001928E-02 0. -1.
       -1   -1    0    0    0  501  0.00000000000E+00  0.00000000000E+00 -0.68817006197E+03  0.68817006199E+03  0.50400001928E-02 0.  1.
    10030    2    1    2    0    0  0.00000000000E+00  0.00000000000E+00  0.17337086371E+02  0.13936772103E+04  0.13935693711E+04 0.  0.
        4    1    3    3  502    0 -0.32502170461E+03  0.13832314050E+03 -0.59199002660E+03  0.68936652381E+03  0.12699999809E+01 0.  1.
       -4    1    3    3    0  502  0.32502170461E+03 -0.13832314050E+03  0.60932711297E+03  0.70431068653E+03  0.12699999809E+01 0. -1.
</event>
<event>
 5   0  0.3907093E-04  0.1389186E+04  0.7818609E-02  0.8961684E-01
       -1   -1    0    0    0  501  0.00000000000E+00  0.00000000000E+00  0.10039466687E+04  0.10039466687E+04  0.50400001928E-02 0.  1.
        1   -1    0    0  501    0  0.00000000000E+00  0.00000000000E+00 -0.48056287873E+03  0.48056287875E+03  0.50400001928E-02 0. -1.
    10030    2    1    2    0    0  0.00000000000E+00  0.00000000000E+00  0.52338379000E+03  0.14845095475E+04  0.13891860944E+04 0.  0.
        4    1    3    3  502    0  0.63505828442E+03  0.13786175020E+03  0.52378235865E+03  0.83465828871E+03  0.12699999809E+01 0. -1.
       -4    1    3    3    0  502 -0.63505828442E+03 -0.13786175020E+03 -0.39856865056E+00  0.64985125878E+03  0.12699999809E+01 0.  1.
</event>
<event>
 5   0  0.7065539E-04  0.1398264E+04  0.7818609E-02  0.8955076E-01
        2   -1    0    0  501    0  0.00000000000E+00  0.00000000000E+00  0.11037069791E+04  0.11037069791E+04  0.25500000920E-02 0.  1.
       -2   -1    0    0    0  501  0.00000000000E+00  0.00000000000E+00 -0.44285796466E+03  0.44285796466E+03  0.25500000920E-02 0. -1.
    10030    2    1    2    0    0  0.00000000000E+00  0.00000000000E+00  0.66084901443E+03  0.15465649438E+04  0.13982638182E+04 0.  0.
        1    1    3    3  502    0 -0.74864272767E+02  0.65595038971E+03  0.76006808367E+02  0.66456949075E+03  0.50400001928E-02 0. -1.
       -1    1    3    3    0  502  0.74864272767E+02 -0.65595038971E+03  0.58484220607E+03  0.88199545300E+03  0.50400001928E-02 0.  1.
</event>
<event>
 5   0  0.7296966E-04  0.1276309E+04  0.7818609E-02  0.9048567E-01
        2   -1    0    0  501    0  0.00000000000E+00  0.00000000000E+00  0.10596757415E+04  0.10596757415E+04  0.25500000920E-02 0. -1.
       -2   -1    0    0    0  501  0.00000000000E+00  0.00000000000E+00 -0.38430709005E+03  0.38430709006E+03  0.25500000920E-02 0.  1.
    10030    2    1    2    0    0  0.00000000000E+00  0.00000000000E+00  0.67536865147E+03  0.14439828316E+04  0.12763085844E+04 0.  0.
        3    1    3    3  502    0 -0.36564537944E+03  0.50961873580E+03  0.20461867655E+03  0.65975496389E+03  0.10100000352E+00 0. -1.
       -3    1    3    3    0  502  0.36564537944E+03 -0.50961873580E+03  0.47074997492E+03  0.78422786769E+03  0.10100000352E+00 0.  1.
</event>
<event>
 5   0  0.3977658E-04  0.1388288E+04  0.7818609E-02  0.8962340E-01
       -1   -1    0    0    0  501  0.00000000000E+00  0.00000000000E+00  0.56326112552E+03  0.56326112554E+03  0.50400001928E-02 0.  1.
        1   -1    0    0  501    0  0.00000000000E+00  0.00000000000E+00 -0.85543984747E+03  0.85543984749E+03  0.50400001928E-02 0. -1.
    10030    2    1    2    0    0  0.00000000000E+00  0.00000000000E+00 -0.29217872195E+03  0.14187009730E+04  0.13882881708E+04 0.  0.
        5    1    3    3  502    0  0.17561420168E+03  0.52474407914E+03 -0.57433682366E+03  0.79754722332E+03  0.46999998093E+01 0. -1.
       -5    1    3    3    0  502 -0.17561420168E+03 -0.52474407914E+03  0.28215810171E+03  0.62115374971E+03  0.46999998093E+01 0.  1.
</event>
<event>
 5   0  0.6870835E-04  0.1401822E+04  0.7818609E-02  0.8952501E-01
        2   -1    0    0  501    0  0.00000000000E+00  0.00000000000E+00  0.94859395395E+03  0.94859395395E+03  0.25500000920E-02 0.  1.
       -2   -1    0    0    0  501  0.00000000000E+00  0.00000000000E+00 -0.51789928338E+03  0.51789928339E+03  0.25500000920E-02 0. -1.
    10030    2    1    2    0    0  0.00000000000E+00  0.00000000000E+00  0.43069467056E+03  0.14664932373E+04  0.14018218560E+04 0.  0.
        2    1    3    3  502    0  0.65854317713E+03 -0.15823444858E+03  0.40411252707E+03  0.78868510282E+03  0.25500000920E-02 0.  1.
       -2    1    3    3    0  502 -0.65854317713E+03  0.15823444858E+03  0.26582143496E+02  0.67780813452E+03  0.25500000920E-02 0. -1.
</event>
<event>
 5   0  0.6895048E-04  0.1364556E+04  0.7818609E-02  0.8979882E-01
        2   -1    0    0  501    0  0.00000000000E+00  0.00000000000E+00  0.62413128681E+03  0.62413128681E+03  0.25500000920E-02 0.  1.
       -2   -1    0    0    0  501  0.00000000000E+00  0.00000000000E+00 -0.74584159638E+03  0.74584159639E+03  0.25500000920E-02 0. -1.
    10030    2    1    2    0    0  0.00000000000E+00  0.00000000000E+00 -0.12171030957E+03  0.13699728832E+04  0.13645557157E+04 0.  0.
        4    1    3    3  502    0  0.24363771220E+03 -0.60780273358E+03 -0.25323518907E+03  0.70207775327E+03  0.12699999809E+01 0. -1.
       -4    1    3    3    0  502 -0.24363771220E+03  0.60780273358E+03  0.13152487949E+03  0.66789512993E+03  0.12699999809E+01 0.  1.
</event>
<event>
 5   0  0.3907093E-04  0.1421864E+04  0.7818609E-02  0.8938142E-01
       -1   -1    0    0    0  501  0.00000000000E+00  0.00000000000E+00  0.42767059656E+03  0.42767059659E+03  0.50400001928E-02 0.  1.
        1   -1    0    0  501    0  0.00000000000E+00  0.00000000000E+00 -0.11818078185E+04  0.11818078185E+04  0.50400001928E-02 0. -1.
    10030    2    1    2    0    0  0.00000000000E+00  0.00000000000E+00 -0.75413722193E+03  0.16094784151E+04  0.14218642056E+04 0.  0.
        4    1    3    3  502    0 -0.69187631721E+03  0.77326883975E+02 -0.21401068635E+03  0.72833678479E+03  0.12699999809E+01 0. -1.
       -4    1    3    3    0  502  0.69187631721E+03 -0.77326883975E+02 -0.54012653559E+03  0.88114163030E+03  0.12699999809E+01 0.  1.
</event>
<event>
 5   0  0.6959748E-04  0.1401027E+04  0.7818609E-02  0.8953076E-01
        2   -1    0    0  501    0  0.00000000000E+00  0.00000000000E+00  0.16542441292E+04  0.16542441292E+04  0.25500000920E-02 0.  1.
       -2   -1    0    0    0  501  0.00000000000E+00  0.00000000000E+00 -0.29664241555E+03  0.29664241556E+03  0.25500000920E-02 0. -1.
    10030    2    1    2    0    0  0.00000000000E+00  0.00000000000E+00  0.13576017137E+04  0.19508865448E+04  0.14010267298E+04 0.  0.
        5    1    3    3  502    0  0.43330409145E+03 -0.48328196265E+03  0.10455863145E+04  0.12306854684E+04  0.46999998093E+01 0. -1.
       -5    1    3    3    0  502 -0.43330409145E+03  0.48328196265E+03  0.31201539918E+03  0.72020107638E+03  0.46999998093E+01 0.  1.
</event>
<event>
 5   0  0.7065539E-04  0.1404277E+04  0.7818609E-02  0.8950728E-01
       -2   -1    0    0    0  501  0.00000000000E+00  0.00000000000E+00  0.41255535455E+03  0.41255535456E+03  0.25500000920E-02 0.  1.
        2   -1    0    0  501    0  0.00000000000E+00  0.00000000000E+00 -0.11949881666E+04  0.11949881666E+04  0.25500000920E-02 0. -1.
    10030    2    1    2    0    0  0.00000000000E+00  0.00000000000E+00 -0.78243281203E+03  0.16075435211E+04  0.14042774181E+04 0.  0.
        1    1    3    3  502    0 -0.40469184999E+02 -0.59797294990E+03  0.27500619636E+02  0.59997140586E+03  0.50400001928E-02 0.  1.
       -1    1    3    3    0  502  0.40469184999E+02  0.59797294990E+03 -0.80993343167E+03  0.10075721153E+04  0.50400001928E-02 0. -1.
</event>
<event>
 5   0  0.3907093E-04  0.1416291E+04  0.7818609E-02  0.8942110E-01
       -1   -1    0    0    0  501  0.00000000000E+00  0.00000000000E+00  0.50563630480E+03  0.50563630482E+03  0.50400001928E-02 0.  1.
        1   -1    0    0  501    0  0.00000000000E+00  0.00000000000E+00 -0.99176029857E+03  0.99176029858E+03  0.50400001928E-02 0. -1.
    10030    2    1    2    0    0  0.00000000000E+00  0.00000000000E+00 -0.48612399377E+03  0.14973966034E+04  0.14162909484E+04 0.  0.
        4    1    3    3  502    0  0.63357747537E+03  0.30696768456E+03 -0.32371154541E+03  0.77488086451E+03  0.12699999809E+01 0. -1.
       -4    1    3    3    0  502 -0.63357747537E+03 -0.30696768456E+03 -0.16241244837E+03  0.72251573889E+03  0.12699999809E+01 0.  1.
</event>
<event>
 5   0  0.2660250E-04  0.1403864E+04  0.7818609E-02  0.8951026E-01
       -3   -1    0    0    0  501  0.00000000000E+00  0.00000000000E+00  0.78101276160E+03  0.78101276813E+03  0.10100000352E+00 0. -1.
        3   -1    0    0  501    0  0.00000000000E+00  0.00000000000E+00 -0.63085891947E+03  0.63085892755E+03  0.10100000352E+00 0.  1.
    10030    2    1    2    0    0  0.00000000000E+00  0.00000000000E+00  0.15015384214E+03  0.14118716957E+04  0.14038644909E+04 0.  0.
        5    1    3    3  502    0  0.52851029878E+03  0.24928757763E+03 -0.31601039703E+03  0.66434335498E+03  0.46999998093E+01 0.  1.
       -5    1    3    3    0  502 -0.52851029878E+03 -0.24928757763E+03  0.46616423916E+03  0.74752834070E+03  0.46999998093E+01 0. -1.
</event>
<event>
 5   0  0.3784219E-04  0.1392906E+04  0.7818609E-02  0.8958970E-01
        1   -1    0    0  501    0  0.00000000000E+00  0.00000000000E+00  0.12883527767E+04  0.12883527767E+04  0.50400001928E-02 0.  1.
       -1   -1    0    0    0  501  0.00000000000E+00  0.00000000000E+00 -0.37648600390E+03  0.37648600393E+03  0.50400001928E-02 0. -1.
    10030    2    1    2    0    0  0.00000000000E+00  0.00000000000E+00  0.91186677277E+03  0.16648387806E+04  0.13929060105E+04 0.  0.
        1    1    3    3  502    0  0.32211926967E+03 -0.31262839494E+03 -0.18051732600E+03  0.48382211837E+03  0.50400001928E-02 0. -1.
       -1    1    3    3    0  502 -0.32211926967E+03  0.31262839494E+03  0.10923840988E+04  0.11810166622E+04  0.50400001928E-02 0.  1.
</event>
<event>
 5   0  0.6895048E-04  0.1399196E+04  0.7818609E-02  0.8954401E-01
        2   -1    0    0  501    0  0.00000000000E+00  0.00000000000E+00  0.18171028147E+04  0.18171028147E+04  0.25500000920E-02 0. -1.
       -2   -1    0    0    0  501  0.00000000000E+00  0.00000000000E+00 -0.26935048035E+03  0.26935048036E+03  0.25500000920E-02 0.  1.
    10030    2    1    2    0    0  0.00000000000E+00  0.00000000000E+00  0.15477523343E+04  0.20864532950E+04  0.13991962207E+04 0.  0.
        4    1    3    3  502    0 -0.21953139532E+03 -0.65278921035E+03  0.95716466217E+03  0.11791919225E+04  0.12699999809E+01 0.  1.
       -4    1    3    3    0  502  0.21953139532E+03  0.65278921035E+03  0.59058767213E+03  0.90726137251E+03  0.12699999809E+01 0. -1.
</event>
<event>
 5   0  0.7296966E-04  0.1390769E+04  0.7818609E-02  0.8960527E-01
       -2   -1    0    0    0  501  0.00000000000E+00  0.00000000000E+00  0.10625707090E+04  0.10625707090E+04  0.25500000920E-02 0.  1.
        2   -1    0    0  501    0  0.00000000000E+00  0.00000000000E+00 -0.45508495099E+03  0.45508495099E+03  0.25500000920E-02 0. -1.
    10030    2    1    2    0    0  0.00000000000E+00  0.00000000000E+00  0.60748575804E+03  0.15176556600E+04  0.13907694835E+04 0.  0.
        3    1    3    3  502    0 -0.37045976546E+03  0.42847731443E+03  0.74394028386E+03  0.93502962677E+03  0.10100000352E+00 0.  1.
       -3    1    3    3    0  502  0.37045976546E+03 -0.42847731443E+03 -0.13645452582E+03  0.58262603325E+03  0.10100000352E+00 0. -1.
</event>
<event>
 5   0  0.6870835E-04  0.1422872E+04  0.7818609E-02  0.8937427E-01
       -2   -1    0    0    0  501  0.00000000000E+00  0.00000000000E+00  0.58333032980E+03  0.58333032981E+03  0.25500000920E-02 0.  1.
        2   -1    0    0  501    0  0.00000000000E+00  0.00000000000E+00 -0.86767464264E+03  0.86767464265E+03  0.25500000920E-02 0. -1.
    10030    2    1    2    0    0  0.00000000000E+00  0.00000000000E+00 -0.28434431284E+03  0.14510049725E+04  0.14228716533E+04 0.  0.
        2    1    3    3  502    0  0.25928794967E+02 -0.49500547541E+03  0.37824969837E+03  0.62351869052E+03  0.25500000920E-02 0.  1.
       -2    1    3    3    0  502 -0.25928794967E+02  0.49500547541E+03 -0.66259401121E+03  0.82748628194E+03  0.25500000920E-02 0. -1.
</event>
<event>
 5   0  0.6870835E-04  0.1405818E+04  0.7818609E-02  0.8949618E-01
        2   -1    0    0  501    0  0.00000000000E+00  0.00000000000E+00  0.18039931552E+04  0.18039931552E+04  0.25500000920E-02 0. -1.
       -2   -1    0    0    0  501  0.00000000000E+00  0.00000000000E+00 -0.27388171858E+03  0.27388171859E+03  0.25500000920E-02 0.  1.
    10030    2    1    2    0    0  0.00000000000E+00  0.00000000000E+00  0.15301114366E+04  0.20778748738E+04  0.14058175496E+04 0.  0.
        2    1    3    3  502    0  0.16634687594E+03 -0.43883161219E+03  0.15385122710E+04  0.16084975831E+04  0.25500000920E-02 0. -1.
       -2    1    3    3    0  502 -0.16634687594E+03  0.43883161219E+03 -0.84008343344E+01  0.46937729068E+03  0.25500000920E-02 0.  1.
</event>
<event>
 5   0  0.6895048E-04  0.1414056E+04  0.7818609E-02  0.8943707E-01
       -2   -1    0    0    0  501  0.00000000000E+00  0.00000000000E+00  0.84664056866E+03  0.84664056866E+03  0.25500000920E-02 0.  1.
        2   -1    0    0  501    0  0.00000000000E+00  0.00000000000E+00 -0.59043759840E+03  0.59043759841E+03  0.25500000920E-02 0. -1.
    10030    2    1    2    0    0  0.00000000000E+00  0.00000000000E+00  0.25620297025E+03  0.14370781671E+04  0.14140557614E+04 0.  0.
        4    1    3    3  502    0  0.34398046645E+02 -0.53995363611E+03 -0.33445008278E+03  0.63607517287E+03  0.12699999809E+01 0. -1.
       -4    1    3    3    0  502 -0.34398046645E+02  0.53995363611E+03  0.59065305303E+03  0.80100299420E+03  0.12699999809E+01 0.  1.
</event>
<event>
 5   0  0.6959748E-04  0.1407147E+04  0.7818609E-02  0.8948662E-01
        2   -1    0    0  501    0  0.00000000000E+00  0.00000000000E+00  0.33691187002E+03  0.33691187003E+03  0.25500000920E-02 0. -1.
       -2   -1    0    0    0  501  0.00000000000E+00  0.00000000000E+00 -0.14692724835E+04  0.14692724835E+04  0.25500000920E-02 0.  1.
    10030    2    1    2    0    0  0.00000000000E+00  0.00000000000E+00 -0.11323606134E+04  0.18061843535E+04  0.14071465311E+04 0.  0.
        5    1    3    3  502    0 -0.58333256086E+03 -0.95305569886E+02 -0.76341735062E+02  0.59599511635E+03  0.46999998093E+01 0. -1.
       -5    1    3    3    0  502  0.58333256086E+03  0.95305569886E+02 -0.10560188784E+04  0.12101892371E+04  0.46999998093E+01 0.  1.
</event>
<event>
 5   0  0.6959748E-04  0.1341837E+04  0.7818609E-02  0.8997031E-01
        2   -1    0    0  501    0  0.00000000000E+00  0.00000000000E+00  0.11633948751E+04  0.11633948751E+04  0.25500000920E-02 0. -1.
       -2   -1    0    0    0  501  0.00000000000E+00  0.00000000000E+00 -0.38691208471E+03  0.38691208472E+03  0.25500000920E-02 0.  1.
    10030    2    1    2    0    0  0.00000000000E+00  0.00000000000E+00  0.77648279036E+03  0.15503069598E+04  0.13418368552E+04 0.  0.
        5    1    3    3  502    0 -0.45975172473E+02 -0.31219461935E+03  0.10722801877E+04  0.11177594051E+04  0.46999998093E+01 0. -1.
       -5    1    3    3    0  502  0.45975172473E+02  0.31219461935E+03 -0.29579739729E+03  0.43254755471E+03  0.46999998093E+01 0.  1.
</event>
<event>
 5   0  0.7296966E-04  0.1389939E+04  0.7818609E-02  0.8961134E-01
       -2   -1    0    0    0  501  0.00000000000E+00  0.00000000000E+00  0.43016174945E+03  0.43016174946E+03  0.25500000920E-02 0.  1.
        2   -1    0    0  501    0  0.00000000000E+00  0.00000000000E+00 -0.11227924389E+04  0.11227924389E+04  0.25500000920E-02 0. -1.
    10030    2    1    2    0    0  0.00000000000E+00  0.00000000000E+00 -0.69263068941E+03  0.15529541883E+04  0.13899386458E+04 0.  0.
        3    1    3    3  502    0 -0.69385534032E+02 -0.39162385855E+03 -0.98306715624E+03  0.10604737822E+04  0.10100000352E+00 0. -1.
       -3    1    3    3    0  502  0.69385534032E+02  0.39162385855E+03  0.29043646683E+03  0.49248040609E+03  0.10100000352E+00 0.  1.
</event>
<event>
 5   0  0.3784219E-04  0.1396239E+04  0.7818609E-02  0.8956545E-01
       -1   -1    0    0    0  501  0.00000000000E+00  0.00000000000E+00  0.43622192550E+03  0.43622192553E+03  0.50400001928E-02 0. -1.
        1   -1    0    0  501    0  0.00000000000E+00  0.00000000000E+00 -0.11172543902E+04  0.11172543902E+04  0.50400001928E-02 0.  1.
    10030    2    1    2    0    0  0.00000000000E+00  0.00000000000E+00 -0.68103246470E+03  0.15534763157E+04  0.13962390360E+04 0.  0.
        1    1    3    3  502    0 -0.17065130031E+03  0.66893227746E+03 -0.22500449822E+03  0.72609867261E+03  0.50400001928E-02 0. -1.
       -1    1    3    3    0  502  0.17065130031E+03 -0.66893227746E+03 -0.45602796648E+03  0.82737764313E+03  0.50400001928E-02 0.  1.
</event>
<event>
 5   0  0.3784219E-04  0.1402220E+04  0.7818609E-02  0.8952213E-01
        1   -1    0    0  501    0  0.00000000000E+00  0.00000000000E+00  0.59741732135E+03  0.59741732137E+03  0.50400001928E-02 0. -1.
       -1   -1    0    0    0  501  0.00000000000E+00  0.00000000000E+00 -0.82280009868E+03  0.82280009869E+03  0.50400001928E-02 0.  1.
    10030    2    1    2    0    0  0.00000000000E+00  0.00000000000E+00 -0.22538277732E+03  0.14202174201E+04  0.14022197131E+04 0.  0.
        1    1    3    3  502    0  0.26260140857E+03  0.43603616040E+02 -0.76962587034E+03  0.81436156309E+03  0.50400001928E-02 0.  1.
       -1    1    3    3    0  502 -0.26260140857E+03 -0.43603616040E+02  0.54424309301E+03  0.60585585698E+03  0.50400001928E-02 0. -1.
</event>
<event>
 5   0  0.6870835E-04  0.1390267E+04  0.7818609E-02  0.8960894E-01
       -2   -1    0    0    0  501  0.00000000000E+00  0.00000000000E+00  0.35282367677E+03  0.35282367678E+03  0.25500000920E-02 0.  1.
        2   -1    0    0  501    0  0.00000000000E+00  0.00000000000E+00 -0.13695533650E+04  0.13695533650E+04  0.25500000920E-02 0. -1.
    10030    2    1    2    0    0  0.00000000000E+00  0.00000000000E+00 -0.10167296883E+04  0.17223770418E+04  0.13902673898E+04 0.  0.
        2    1    3    3  502    0  0.54552488425E+01 -0.49381042157E+03  0.97716065842E+02  0.50341525773E+03  0.25500000920E-02 0.  1.
       -2    1    3    3    0  502 -0.54552488425E+01  0.49381042157E+03 -0.11144457541E+04  0.12189617841E+04  0.25500000920E-02 0. -1.
</event>
<event>
 5   0  0.6895048E-04  0.1417430E+04  0.7818609E-02  0.8941297E-01
       -2   -1    0    0    0  501  0.00000000000E+00  0.00000000000E+00  0.17548935681E+04  0.17548935681E+04  0.25500000920E-02 0. -1.
        2   -1    0    0  501    0  0.00000000000E+00  0.00000000000E+00 -0.28621510292E+03  0.28621510294E+03  0.25500000920E-02 0.  1.
    10030    2    1    2    0    0  0.00000000000E+00  0.00000000000E+00  0.14686784652E+04  0.20411086710E+04  0.14174301298E+04 0.  0.
        4    1    3    3  502    0 -0.22742416697E+03 -0.44594133802E+03  0.14567720220E+04  0.15403803964E+04  0.12699999809E+01 0. -1.
       -4    1    3    3    0  502  0.22742416697E+03  0.44594133802E+03  0.11906443136E+02  0.50072827458E+03  0.12699999809E+01 0.  1.
</event>
<event>
 5   0  0.3977658E-04  0.1421095E+04  0.7818609E-02  0.8938689E-01
       -1   -1    0    0    0  501  0.00000000000E+00  0.00000000000E+00  0.49360103000E+03  0.49360103003E+03  0.50400001928E-02 0. -1.
        1   -1    0    0  501    0  0.00000000000E+00  0.00000000000E+00 -0.10228452400E+04  0.10228452401E+04  0.50400001928E-02 0.  1.
    10030    2    1    2    0    0  0.00000000000E+00  0.00000000000E+00 -0.52924421004E+03  0.15164462701E+04  0.14210945979E+04 0.  0.
        5    1    3    3  502    0  0.57741735418E+02 -0.69509093698E+03 -0.40925161244E+03  0.80869925867E+03  0.46999998093E+01 0.  1.
       -5    1    3    3    0  502 -0.57741735418E+02  0.69509093698E+03 -0.11999259759E+03  0.70774701141E+03  0.46999998093E+01 0. -1.
</event>
<event>
 5   0  0.2660250E-04  0.1397625E+04  0.7818609E-02  0.8955539E-01
       -3   -1    0    0    0  501  0.00000000000E+00  0.00000000000E+00  0.26219685718E+03  0.26219687664E+03  0.10100000352E+00 0. -1.
        3   -1    0    0  501    0  0.00000000000E+00  0.00000000000E+00 -0.18624905517E+04  0.18624905545E+04  0.10100000352E+00 0.  1.
    10030    2    1    2    0    0  0.00000000000E+00  0.00000000000E+00 -0.16002936946E+04  0.21246874311E+04  0.13976254044E+04 0.  0.
        1    1    3    3  502    0  0.39612051671E+03  0.48004771614E+03 -0.31705904396E+03  0.69848672923E+03  0.50400001928E-02 0. -1.
       -1    1    3    3    0  502 -0.39612051671E+03 -0.48004771614E+03 -0.12832346506E+04  0.14262007019E+04  0.50400001928E-02 0.  1.
</event>
<event>
 5   0  0.6895048E-04  0.1420838E+04  0.7818609E-02  0.8938871E-01
        2   -1    0    0  501    0  0.00000000000E+00  0.00000000000E+00  0.83833499581E+03  0.83833499582E+03  0.25500000920E-02 0.  1.
       -2   -1    0    0    0  501  0.00000000000E+00  0.00000000000E+00 -0.60202121752E+03  0.60202121752E+03  0.25500000920E-02 0. -1.
    10030    2    1    2    0    0  0.00000000000E+00  0.00000000000E+00  0.23631377829E+03  0.14403562133E+04  0.14208384213E+04 0.  0.
        4    1    3    3  502    0  0.70441168513E+03  0.37512096578E+02  0.20352088733E+03  0.73418345393E+03  0.12699999809E+01 0.  1.
       -4    1    3    3    0  502 -0.70441168513E+03 -0.37512096578E+02  0.32792890958E+02  0.70617275941E+03  0.12699999809E+01 0. -1.
</event>
<event>
 5   0  0.3977658E-04  0.1396813E+04  0.7818609E-02  0.8956129E-01
       -1   -1    0    0    0  501  0.00000000000E+00  0.00000000000E+00  0.53425969890E+03  0.53425969893E+03  0.50400001928E-02 0. -1.
        1   -1    0    0  501    0  0.00000000000E+00  0.00000000000E+00 -0.91298571841E+03  0.91298571842E+03  0.50400001928E-02 0.  1.
    10030    2    1    2    0    0  0.00000000000E+00  0.00000000000E+00 -0.37872601951E+03  0.14472454174E+04  0.13968127649E+04 0.  0.
        5    1    3    3  502    0  0.64760670828E+03  0.25318275860E+03 -0.25693605474E+03  0.74130572916E+03  0.46999998093E+01 0. -1.
       -5    1    3    3    0  502 -0.64760670828E+03 -0.25318275860E+03 -0.12178996477E+03  0.70593968820E+03  0.46999998093E+01 0.  1.
</event>
<event>
 5   0  0.3907093E-04  0.1397693E+04  0.7818609E-02  0.8955490E-01
        1   -1    0    0  501    0  0.00000000000E+00  0.00000000000E+00  0.11461649471E+04  0.11461649471E+04  0.50400001928E-02 0. -1.
       -1   -1    0    0    0  501  0.00000000000E+00  0.00000000000E+00 -0.42610461232E+03  0.42610461235E+03  0.50400001928E-02 0.  1.
    10030    2    1    2    0    0  0.00000000000E+00  0.00000000000E+00  0.72006033474E+03  0.15722695594E+04  0.13976926278E+04 0.  0.
        4    1    3    3  502    0 -0.39887848251E+03  0.56828171068E+03  0.27048606176E+03  0.74512580751E+03  0.12699999809E+01 0. -1.
       -4    1    3    3    0  502  0.39887848251E+03 -0.56828171068E+03  0.44957427298E+03  0.82714375192E+03  0.12699999809E+01 0.  1.
</event>
<event>
 5   0  0.3784219E-04  0.1405484E+04  0.7818609E-02  0.8949858E-01
        1   -1    0    0  501    0  0.00000000000E+00  0.00000000000E+00  0.12699756636E+04  0.12699756636E+04  0.50400001928E-02 0. -1.
       -1   -1    0    0    0  501  0.00000000000E+00  0.00000000000E+00 -0.38886298067E+03  0.38886298070E+03  0.50400001928E-02 0.  1.
    10030    2    1    2    0    0  0.00000000000E+00  0.00000000000E+00  0.88111268292E+03  0.16588386443E+04  0.14054842894E+04 0.  0.
        1    1    3    3  502    0  0.70247989245E+03  0.39166615653E+01  0.41837551766E+03  0.81763770298E+03  0.50400001928E-02 0. -1.
       -1    1    3    3    0  502 -0.70247989245E+03 -0.39166615653E+01  0.46273716526E+03  0.84120094132E+03  0.50400001928E-02 0.  1.
</event>
<event>
 5   0  0.3784219E-04  0.1393778E+04  0.7818609E-02  0.8958334E-01
        1   -1    0    0  501    0  0.00000000000E+00  0.00000000000E+00  0.59985677897E+03  0.59985677899E+03  0.50400001928E-02 0.  1.
       -1   -1    0    0    0  501  0.00000000000E+00  0.00000000000E+00 -0.80961756713E+03  0.80961756715E+03  0.50400001928E-02 0. -1.
    10030    2    1    2    0    0  0.00000000000E+00  0.00000000000E+00 -0.20976078817E+03  0.14094743461E+04  0.13937784416E+04 0.  0.
        1    1    3    3  502    0 -0.56309809518E+02 -0.11997093843E+03  0.58699593035E+03  0.60177075617E+03  0.50400001928E-02 0.  1.
       -1    1    3    3    0  502  0.56309809518E+02  0.11997093843E+03 -0.79675671851E+03  0.80770358996E+03  0.50400001928E-02 0. -1.
</event>
<event>
 5   0  0.3784219E-04  0.1384362E+04  0.7818609E-02  0.8965217E-01
       -1   -1    0    0    0  501  0.00000000000E+00  0.00000000000E+00  0.42435253671E+03  0.42435253674E+03  0.50400001928E-02 0. -1.
        1   -1    0    0  501    0  0.00000000000E+00  0.00000000000E+00 -0.11290480457E+04  0.11290480457E+04  0.50400001928E-02 0.  1.
    10030    2    1    2    0    0  0.00000000000E+00  0.00000000000E+00 -0.70469550899E+03  0.15534005824E+04  0.13843618057E+04 0.  0.
        1    1    3    3  502    0  0.60503943033E+03  0.11945188877E+03  0.30951225917E+00  0.61671838128E+03  0.50400001928E-02 0. -1.
       -1    1    3    3    0  502 -0.60503943033E+03 -0.11945188877E+03 -0.70500502125E+03  0.93668220117E+03  0.50400001928E-02 0.  1.
</event>
<event>
 5   0  0.2660250E-04  0.1398419E+04  0.7818609E-02  0.8954964E-01
        4   -1    0    0  501    0  0.00000000000E+00  0.00000000000E+00  0.87283701933E+03  0.87283794327E+03  0.12699999809E+01 0. -1.
       -4   -1    0    0    0  501  0.00000000000E+00  0.00000000000E+00 -0.56011819471E+03  0.56011963450E+03  0.12699999809E+01 0.  1.
    10030    2    1    2    0    0  0.00000000000E+00  0.00000000000E+00  0.31271882461E+03  0.14329575778E+04  0.13984185198E+04 0.  0.
        5    1    3    3  502    0  0.20380464354E+02  0.57329692151E+03 -0.25324684556E+03  0.62708913108E+03  0.46999998093E+01 0.  1.
       -5    1    3    3    0  502 -0.20380464354E+02 -0.57329692151E+03  0.56596567017E+03  0.80586844668E+03  0.46999998093E+01 0. -1.
</event>
<event>
 5   0  0.3977658E-04  0.1387128E+04  0.7818609E-02  0.8963189E-01
       -1   -1    0    0    0  501  0.00000000000E+00  0.00000000000E+00  0.72916964498E+03  0.72916964500E+03  0.50400001928E-02 0. -1.
        1   -1    0    0  501    0  0.00000000000E+00  0.00000000000E+00 -0.65969679457E+03  0.65969679459E+03  0.50400001928E-02 0.  1.
    10030    2    1    2    0    0  0.00000000000E+00  0.00000000000E+00  0.69472850411E+02  0.13888664396E+04  0.13871277915E+04 0.  0.
        5    1    3    3  502    0  0.12648018934E+03 -0.34633332246E+03 -0.55342200622E+03  0.66501279349E+03  0.46999998093E+01 0.  1.
       -5    1    3    3    0  502 -0.12648018934E+03  0.34633332246E+03  0.62289485663E+03  0.72385364609E+03  0.46999998093E+01 0. -1.
</event>
<event>
 5   0  0.7296966E-04  0.1390806E+04  0.7818609E-02  0.8960501E-01
       -2   -1    0    0    0  501  0.00000000000E+00  0.00000000000E+00  0.38528454163E+03  0.38528454164E+03  0.25500000920E-02 0. -1.
        2   -1    0    0  501    0  0.00000000000E+00  0.00000000000E+00 -0.12551384838E+04  0.12551384838E+04  0.25500000920E-02 0.  1.
    10030    2    1    2    0    0  0.00000000000E+00  0.00000000000E+00 -0.86985394217E+03  0.16404230254E+04  0.13908061769E+04 0.  0.
        3    1    3    3  502    0  0.12587996717E+02  0.40140476703E+03  0.23468037161E+03  0.46514420525E+03  0.10100000352E+00 0. -1.
       -3    1    3    3    0  502 -0.12587996717E+02 -0.40140476703E+03 -0.11045343138E+04  0.11752788202E+04  0.10100000352E+00 0.  1.
</event>
<event>
 5   0  0.3907270E-04  0.1355828E+04  0.7818609E-02  0.8986428E-01
       -1   -1    0    0    0  501  0.00000000000E+00  0.00000000000E+00  0.84991906180E+03  0.84991906182E+03  0.50400001928E-02 0.  1.
        1   -1    0    0  501    0  0.00000000000E+00  0.00000000000E+00 -0.54071865448E+03  0.54071865451E+03  0.50400001928E-02 0. -1.
    10030    2    1    2    0    0  0.00000000000E+00  0.00000000000E+00  0.30920040732E+03  0.13906377163E+04  0.13558275577E+04 0.  0.
        3    1    3    3  502    0  0.78389348281E+02  0.28381723414E+02  0.84464108196E+03  0.84874553294E+03  0.10100000352E+00 0.  1.
       -3    1    3    3    0  502 -0.78389348281E+02 -0.28381723414E+02 -0.53544067464E+03  0.54189218338E+03  0.10100000352E+00 0. -1.
</event>
<event>
 5   0  0.3756664E-04  0.1409525E+04  0.7818609E-02  0.8946953E-01
        1   -1    0    0  501    0  0.00000000000E+00  0.00000000000E+00  0.67285322087E+03  0.67285322088E+03  0.50400001928E-02 0. -1.
       -1   -1    0    0    0  501  0.00000000000E+00  0.00000000000E+00 -0.73818486345E+03  0.73818486347E+03  0.50400001928E-02 0.  1.
    10030    2    1    2    0    0  0.00000000000E+00  0.00000000000E+00 -0.65331642585E+02  0.14110380844E+04  0.14095248320E+04 0.  0.
        2    1    3    3  502    0 -0.52092364376E+03 -0.18361180625E+03 -0.47087465116E+03  0.72580829090E+03  0.25500000920E-02 0.  1.
       -2    1    3    3    0  502  0.52092364376E+03  0.18361180625E+03  0.40554300857E+03  0.68522979345E+03  0.25500000920E-02 0. -1.
</event>
<event>
 5   0  0.6959748E-04  0.1420633E+04  0.7818609E-02  0.8939017E-01
        2   -1    0    0  501    0  0.00000000000E+00  0.00000000000E+00  0.69984426778E+03  0.69984426778E+03  0.25500000920E-02 0.  1.
       -2   -1    0    0    0  501  0.00000000000E+00  0.00000000000E+00 -0.72094536384E+03  0.72094536385E+03  0.25500000920E-02 0. -1.
    10030    2    1    2    0    0  0.00000000000E+00  0.00000000000E+00 -0.21101096064E+02  0.14207896316E+04  0.14206329298E+04 0.  0.
        5    1    3    3  502    0 -0.56234069464E+03 -0.58602644680E+02  0.41945741555E+03  0.70400848026E+03  0.46999998093E+01 0.  1.
       -5    1    3    3    0  502  0.56234069464E+03  0.58602644680E+02 -0.44055851162E+03  0.71678115138E+03  0.46999998093E+01 0. -1.
</event>
<event>
 5   0  0.7296966E-04  0.1378758E+04  0.7818609E-02  0.8969339E-01
       -2   -1    0    0    0  501  0.00000000000E+00  0.00000000000E+00  0.72229183557E+03  0.72229183558E+03  0.25500000920E-02 0.  1.
        2   -1    0    0  501    0  0.00000000000E+00  0.00000000000E+00 -0.65796629924E+03  0.65796629924E+03  0.25500000920E-02 0. -1.
    10030    2    1    2    0    0  0.00000000000E+00  0.00000000000E+00  0.64325536334E+02  0.13802581348E+04  0.13787584067E+04 0.  0.
        3    1    3    3  502    0  0.55616406220E+02 -0.12296527988E+03 -0.64461254895E+03  0.65858863729E+03  0.10100000352E+00 0. -1.
       -3    1    3    3    0  502 -0.55616406220E+02  0.12296527988E+03  0.70893808529E+03  0.72166949753E+03  0.10100000352E+00 0.  1.
</event>
<event>
 5   0  0.3784219E-04  0.1383489E+04  0.7818609E-02  0.8965857E-01
        1   -1    0    0  501    0  0.00000000000E+00  0.00000000000E+00  0.13627245267E+04  0.13627245267E+04  0.50400001928E-02 0.  1.
       -1   -1    0    0    0  501  0.00000000000E+00  0.00000000000E+00 -0.35114251529E+03  0.35114251532E+03  0.50400001928E-02 0. -1.
    10030    2    1    2    0    0  0.00000000000E+00  0.00000000000E+00  0.10115820114E+04  0.17138670420E+04  0.13834890935E+04 0.  0.
        1    1    3    3  502    0 -0.13403192908E+03  0.44584990467E+03 -0.12801478014E+03  0.48284001436E+03  0.50400001928E-02 0. -1.
       -1    1    3    3    0  502  0.13403192908E+03 -0.44584990467E+03  0.11395967915E+04  0.12310270276E+04  0.50400001928E-02 0.  1.
</event>
<event>
 5   0  0.6895048E-04  0.1400177E+04  0.7818609E-02  0.8953690E-01
        2   -1    0    0  501    0  0.00000000000E+00  0.00000000000E+00  0.99928659505E+03  0.99928659505E+03  0.25500000920E-02 0.  1.
       -2   -1    0    0    0  501  0.00000000000E+00  0.00000000000E+00 -0.49047389647E+03  0.49047389647E+03  0.25500000920E-02 0. -1.
    10030    2    1    2    0    0  0.00000000000E+00  0.00000000000E+00  0.50881269859E+03  0.14897604915E+04  0.14001771173E+04 0.  0.
        4    1    3    3  502    0  0.84757021655E+02 -0.37033869213E+03 -0.37125360509E+03  0.53119238681E+03  0.12699999809E+01 0. -1.
       -4    1    3    3    0  502 -0.84757021655E+02  0.37033869213E+03  0.88006630368E+03  0.95856810472E+03  0.12699999809E+01 0.  1.
</event>
<event>
 5   0  0.7065539E-04  0.1415038E+04  0.7818609E-02  0.8943005E-01
        2   -1    0    0  501    0  0.00000000000E+00  0.00000000000E+00  0.75803492644E+03  0.75803492645E+03  0.25500000920E-02 0. -1.
       -2   -1    0    0    0  501  0.00000000000E+00  0.00000000000E+00 -0.66036942736E+03  0.66036942736E+03  0.25500000920E-02 0.  1.
    10030    2    1    2    0    0  0.00000000000E+00  0.00000000000E+00  0.97665499084E+02  0.14184043538E+04  0.14150379363E+04 0.  0.
        1    1    3    3  502    0 -0.62608194221E+03  0.30936417378E+03 -0.65008120883E+02  0.70136356206E+03  0.50400001928E-02 0.  1.
       -1    1    3    3    0  502  0.62608194221E+03 -0.30936417378E+03  0.16267361997E+03  0.71704079175E+03  0.50400001928E-02 0. -1.
</event>
<event>
 5   0  0.7296966E-04  0.1411479E+04  0.7818609E-02  0.8945551E-01
        2   -1    0    0  501    0  0.00000000000E+00  0.00000000000E+00  0.18829328738E+04  0.18829328738E+04  0.25500000920E-02 0. -1.
       -2   -1    0    0    0  501  0.00000000000E+00  0.00000000000E+00 -0.26451708477E+03  0.26451708478E+03  0.25500000920E-02 0.  1.
    10030    2    1    2    0    0  0.00000000000E+00  0.00000000000E+00  0.16184157890E+04  0.21474499585E+04  0.14114785363E+04 0.  0.
        3    1    3    3  502    0  0.60388692423E+03 -0.35597859513E+03  0.93344109602E+03  0.11673527605E+04  0.10100000352E+00 0.  1.
       -3    1    3    3    0  502 -0.60388692423E+03  0.35597859513E+03  0.68497469296E+03  0.98009719806E+03  0.10100000352E+00 0. -1.
</event>
<event>
 5   0  0.3977658E-04  0.1401445E+04  0.7818609E-02  0.8952773E-01
       -1   -1    0    0    0  501  0.00000000000E+00  0.00000000000E+00  0.46806616070E+03  0.46806616073E+03  0.50400001928E-02 0. -1.
        1   -1    0    0  501    0  0.00000000000E+00  0.00000000000E+00 -0.10490224789E+04  0.10490224789E+04  0.50400001928E-02 0.  1.
    10030    2    1    2    0    0  0.00000000000E+00  0.00000000000E+00 -0.58095631815E+03  0.15170886396E+04  0.14014448604E+04 0.  0.
        5    1    3    3  502    0  0.59092057736E+03 -0.33432352486E+03 -0.10288537764E+03  0.68670724399E+03  0.46999998093E+01 0. -1.
       -5    1    3    3    0  502 -0.59092057736E+03  0.33432352486E+03 -0.47807094051E+03  0.83038139561E+03  0.46999998093E+01 0.  1.
</event>
<event>
 5   0  0.3756664E-04  0.1404155E+04  0.7818609E-02  0.8950817E-01
        1   -1    0    0  501    0  0.00000000000E+00  0.00000000000E+00  0.79258164383E+03  0.79258164384E+03  0.50400001928E-02 0.  1.
       -1   -1    0    0    0  501  0.00000000000E+00  0.00000000000E+00 -0.62190757945E+03  0.62190757947E+03  0.50400001928E-02 0. -1.
    10030    2    1    2    0    0  0.00000000000E+00  0.00000000000E+00  0.17067406438E+03  0.14144892233E+04  0.14041545950E+04 0.  0.
        2    1    3    3  502    0 -0.66272487258E+03  0.13669672291E+03 -0.10318275065E+03  0.68449757547E+03  0.25500000920E-02 0.  1.
       -2    1    3    3    0  502  0.66272487258E+03 -0.13669672291E+03  0.27385681502E+03  0.72999164785E+03  0.25500000920E-02 0. -1.
</event>
<event>
 5   0  0.3784219E-04  0.1395950E+04  0.7818609E-02  0.8956755E-01
       -1   -1    0    0    0  501  0.00000000000E+00  0.00000000000E+00  0.14594591068E+04  0.14594591068E+04  0.50400001928E-02 0. -1.
        1   -1    0    0  501    0  0.00000000000E+00  0.00000000000E+00 -0.33380112422E+03  0.33380112426E+03  0.50400001928E-02 0.  1.
    10030    2    1    2    0    0  0.00000000000E+00  0.00000000000E+00  0.11256579826E+04  0.17932602311E+04  0.13959499857E+04 0.  0.
        1    1    3    3  502    0  0.24686894672E+03  0.43925450547E+03 -0.57629146338E+02  0.50715866941E+03  0.50400001928E-02 0.  1.
       -1    1    3    3    0  502 -0.24686894672E+03 -0.43925450547E+03  0.11832871290E+04  0.12861015617E+04  0.50400001928E-02 0. -1.
</event>
<event>
 5   0  0.6870835E-04  0.1387061E+04  0.7818609E-02  0.8963238E-01
        2   -1    0    0  501    0  0.00000000000E+00  0.00000000000E+00  0.16586272568E+04  0.16586272568E+04  0.25500000920E-02 0. -1.
       -2   -1    0    0    0  501  0.00000000000E+00  0.00000000000E+00 -0.28998954732E+03  0.28998954734E+03  0.25500000920E-02 0.  1.
    10030    2    1    2    0    0  0.00000000000E+00  0.00000000000E+00  0.13686377095E+04  0.19486168042E+04  0.13870610187E+04 0.  0.
        2    1    3    3  502    0  0.62040116624E+03  0.22969542266E+03  0.97674086048E+03  0.11796950041E+04  0.25500000920E-02 0.  1.
       -2    1    3    3    0  502 -0.62040116624E+03 -0.22969542266E+03  0.39189684902E+03  0.76892180002E+03  0.25500000920E-02 0. -1.
</event>
<event>
 5   0  0.6895048E-04  0.1399787E+04  0.7818609E-02  0.8953973E-01
        2   -1    0    0  501    0  0.00000000000E+00  0.00000000000E+00  0.11145116239E+04  0.11145116239E+04  0.25500000920E-02 0.  1.
       -2   -1    0    0    0  501  0.00000000000E+00  0.00000000000E+00 -0.43952037886E+03  0.43952037887E+03  0.25500000920E-02 0. -1.
    10030    2    1    2    0    0  0.00000000000E+00  0.00000000000E+00  0.67499124507E+03  0.15540320028E+04  0.13997865140E+04 0.  0.
        4    1    3    3  502    0  0.56391872373E+03  0.41249508829E+03  0.38316803537E+03  0.79685373881E+03  0.12699999809E+01 0.  1.
       -4    1    3    3    0  502 -0.56391872373E+03 -0.41249508829E+03  0.29182320971E+03  0.75717826399E+03  0.12699999809E+01 0. -1.
</event>
<event>
 5   0  0.3756664E-04  0.1356723E+04  0.7818609E-02  0.8985754E-01
       -1   -1    0    0    0  501  0.00000000000E+00  0.00000000000E+00  0.56256806290E+03  0.56256806292E+03  0.50400001928E-02 0. -1.
        1   -1    0    0  501    0  0.00000000000E+00  0.00000000000E+00 -0.81798863411E+03  0.81798863413E+03  0.50400001928E-02 0.  1.
    10030    2    1    2    0    0  0.00000000000E+00  0.00000000000E+00 -0.25542057122E+03  0.13805566971E+04  0.13567229362E+04 0.  0.
        2    1    3    3  502    0  0.41501922720E+03  0.45980096426E+03  0.15376504132E+03  0.63820182828E+03  0.25500000920E-02 0. -1.
       -2    1    3    3    0  502 -0.41501922720E+03 -0.45980096426E+03 -0.40918561253E+03  0.74235486877E+03  0.25500000920E-02 0.  1.
</event>
<event>
 5   0  0.3977658E-04  0.1396443E+04  0.7818609E-02  0.8956397E-01
       -1   -1    0    0    0  501  0.00000000000E+00  0.00000000000E+00  0.65188659963E+03  0.65188659965E+03  0.50400001928E-02 0.  1.
        1   -1    0    0  501    0  0.00000000000E+00  0.00000000000E+00 -0.74784993733E+03  0.74784993735E+03  0.50400001928E-02 0. -1.
    10030    2    1    2    0    0  0.00000000000E+00  0.00000000000E+00 -0.95963337697E+02  0.13997365370E+04  0.13964431284E+04 0.  0.
        5    1    3    3  502    0 -0.22436434568E+03 -0.53425584749E+03  0.34245281942E+03  0.67310080501E+03  0.46999998093E+01 0.  1.
       -5    1    3    3    0  502  0.22436434568E+03  0.53425584749E+03 -0.43841615711E+03  0.72663573199E+03  0.46999998093E+01 0. -1.
</event>
<event>
 5   0  0.3756664E-04  0.1389102E+04  0.7818609E-02  0.8961745E-01
        1   -1    0    0  501    0  0.00000000000E+00  0.00000000000E+00  0.20856383596E+04  0.20856383596E+04  0.50400001928E-02 0. -1.
       -1   -1    0    0    0  501  0.00000000000E+00  0.00000000000E+00 -0.23129668778E+03  0.23129668783E+03  0.50400001928E-02 0.  1.
    10030    2    1    2    0    0  0.00000000000E+00  0.00000000000E+00  0.18543416718E+04  0.23169350474E+04  0.13891022202E+04 0.  0.
        2    1    3    3  502    0 -0.21240400614E+03 -0.26280050802E+03  0.19392962468E+04  0.19685145419E+04  0.25500000920E-02 0. -1.
       -2    1    3    3    0  502  0.21240400614E+03  0.26280050802E+03 -0.84954574991E+02  0.34842050551E+03  0.25500000920E-02 0.  1.
</event>
<event>
 5   0  0.2660250E-04  0.1396871E+04  0.7818609E-02  0.8956086E-01
        3   -1    0    0  501    0  0.00000000000E+00  0.00000000000E+00  0.33244684861E+03  0.33244686395E+03  0.10100000352E+00 0. -1.
       -3   -1    0    0    0  501  0.00000000000E+00  0.00000000000E+00 -0.14673395308E+04  0.14673395342E+04  0.10100000352E+00 0.  1.
    10030    2    1    2    0    0  0.00000000000E+00  0.00000000000E+00 -0.11348926822E+04  0.17997863982E+04  0.13968713896E+04 0.  0.
        4    1    3    3  502    0 -0.53390882239E+03 -0.41572543029E+01 -0.11475809764E+04  0.12657091387E+04  0.12699999809E+01 0.  1.
       -4    1    3    3    0  502  0.53390882239E+03  0.41572543029E+01  0.12688294298E+02  0.53407725948E+03  0.12699999809E+01 0. -1.
</event>
<event>
 5   0  0.6870835E-04  0.1403977E+04  0.7818609E-02  0.8950945E-01
       -2   -1    0    0    0  501  0.00000000000E+00  0.00000000000E+00  0.51134068808E+03  0.51134068809E+03  0.25500000920E-02 0.  1.
        2   -1    0    0  501    0  0.00000000000E+00  0.00000000000E+00 -0.96371690507E+03  0.96371690508E+03  0.25500000920E-02 0. -1.
    10030    2    1    2    0    0  0.00000000000E+00  0.00000000000E+00 -0.45237621699E+03  0.14750575932E+04  0.14039767311E+04 0.  0.
        2    1    3    3  502    0 -0.44110992539E+03 -0.13100079765E+02 -0.79975615802E+03  0.91343280578E+03  0.25500000920E-02 0. -1.
       -2    1    3    3    0  502  0.44110992539E+03  0.13100079765E+02  0.34737994103E+03  0.56162478739E+03  0.25500000920E-02 0.  1.
</event>
<event>
 5   0  0.7296966E-04  0.1396112E+04  0.7818609E-02  0.8956638E-01
       -2   -1    0    0    0  501  0.00000000000E+00  0.00000000000E+00  0.25564126057E+03  0.25564126059E+03  0.25500000920E-02 0.  1.
        2   -1    0    0  501    0  0.00000000000E+00  0.00000000000E+00 -0.19061159100E+04  0.19061159100E+04  0.25500000920E-02 0. -1.
    10030    2    1    2    0    0  0.00000000000E+00  0.00000000000E+00 -0.16504746494E+04  0.21617571706E+04  0.13961115630E+04 0.  0.
        3    1    3    3  502    0  0.68898191951E+03  0.74969936485E+02 -0.95446522681E+03  0.11795424775E+04  0.10100000352E+00 0. -1.
       -3    1    3    3    0  502 -0.68898191951E+03 -0.74969936485E+02 -0.69600942264E+03  0.98221469313E+03  0.10100000352E+00 0.  1.
</event>
<event>
 5   0  0.6870835E-04  0.1399926E+04  0.7818609E-02  0.8953872E-01
        2   -1    0    0  501    0  0.00000000000E+00  0.00000000000E+00  0.11028743898E+04  0.11028743898E+04  0.25500000920E-02 0.  1.
       -2   -1    0    0    0  501  0.00000000000E+00  0.00000000000E+00 -0.44424678227E+03  0.44424678228E+03  0.25500000920E-02 0. -1.
    10030    2    1    2    0    0  0.00000000000E+00  0.00000000000E+00  0.65862760751E+03  0.15471211721E+04  0.13999262822E+04 0.  0.
        2    1    3    3  502    0 -0.19901848658E+03 -0.54634608531E+03  0.75996021717E+03  0.95689180925E+03  0.25500000920E-02 0.  1.
       -2    1    3    3    0  502  0.19901848658E+03  0.54634608531E+03 -0.10133260966E+03  0.59022936281E+03  0.25500000920E-02 0. -1.
</event>
<event>
 5   0  0.3907270E-04  0.1384503E+04  0.7818609E-02  0.8965113E-01
        1   -1    0    0  501    0  0.00000000000E+00  0.00000000000E+00  0.72280451327E+03  0.72280451329E+03  0.50400001928E-02 0. -1.
       -1   -1    0    0    0  501  0.00000000000E+00  0.00000000000E+00 -0.66298996080E+03  0.66298996082E+03  0.50400001928E-02 0.  1.
    10030    2    1    2    0    0  0.00000000000E+00  0.00000000000E+00  0.59814552475E+02  0.13857944741E+04  0.13845029952E+04 0.  0.
        3    1    3    3  502    0 -0.30148666675E+03  0.12091516813E+02 -0.59370817400E+03  0.66598034586E+03  0.10100000352E+00 0.  1.
       -3    1    3    3    0  502  0.30148666675E+03 -0.12091516813E+02  0.65352272647E+03  0.71981412825E+03  0.10100000352E+00 0. -1.
</event>
<event>
 5   0  0.3977658E-04  0.1403306E+04  0.7818609E-02  0.8951429E-01
       -1   -1    0    0    0  501  0.00000000000E+00  0.00000000000E+00  0.33300109037E+03  0.33300109041E+03  0.50400001928E-02 0. -1.
        1   -1    0    0  501    0  0.00000000000E+00  0.00000000000E+00 -0.14784233906E+04  0.14784233906E+04  0.50400001928E-02 0.  1.
    10030    2    1    2    0    0  0.00000000000E+00  0.00000000000E+00 -0.11454223002E+04  0.18114244810E+04  0.14033055279E+04 0.  0.
        5    1    3    3  502    0  0.38348300996E+03  0.81066044036E+02 -0.13239053914E+04  0.13807166609E+04  0.46999998093E+01 0.  1.
       -5    1    3    3    0  502 -0.38348300996E+03 -0.81066044036E+02  0.17848309118E+03  0.43070782006E+03  0.46999998093E+01 0. -1.
</event>
<event>
 5   0  0.6959748E-04  0.1399343E+04  0.7818609E-02  0.8954294E-01
        2   -1    0    0  501    0  0.00000000000E+00  0.00000000000E+00  0.14452333216E+04  0.14452333216E+04  0.25500000920E-02 0.  1.
       -2   -1    0    0    0  501  0.00000000000E+00  0.00000000000E+00 -0.33872752986E+03  0.33872752987E+03  0.25500000920E-02 0. -1.
    10030    2    1    2    0    0  0.00000000000E+00  0.00000000000E+00  0.11065057917E+04  0.17839608514E+04  0.13993431503E+04 0.  0.
        5    1    3    3  502    0 -0.69380190654E+03  0.76067496390E+02  0.49117810114E+03  0.85347839256E+03  0.46999998093E+01 0. -1.
       -5    1    3    3    0  502  0.69380190654E+03 -0.76067496390E+02  0.61532769057E+03  0.93048245889E+03  0.46999998093E+01 0.  1.
</event>
<event>
 5   0  0.3977658E-04  0.1404089E+04  0.7818609E-02  0.8950864E-01
       -1   -1    0    0    0  501  0.00000000000E+00  0.00000000000E+00  0.59408288858E+03  0.59408288860E+03  0.50400001928E-02 0.  1.
        1   -1    0    0  501    0  0.00000000000E+00  0.00000000000E+00 -0.82962566581E+03  0.82962566583E+03  0.50400001928E-02 0. -1.
    10030    2    1    2    0    0  0.00000000000E+00  0.00000000000E+00 -0.23554277723E+03  0.14237085544E+04  0.14040889032E+04 0.  0.
        5    1    3    3  502    0  0.44383766439E+03 -0.43864118195E+03  0.20835361803E+03  0.65789914043E+03  0.46999998093E+01 0.  1.
       -5    1    3    3    0  502 -0.44383766439E+03  0.43864118195E+03 -0.44389639526E+03  0.76580941399E+03  0.46999998093E+01 0. -1.
</event>
<event>
 5   0  0.3756664E-04  0.1413950E+04  0.7818609E-02  0.8943782E-01
        1   -1    0    0  501    0  0.00000000000E+00  0.00000000000E+00  0.43894328260E+03  0.43894328263E+03  0.50400001928E-02 0. -1.
       -1   -1    0    0    0  501  0.00000000000E+00  0.00000000000E+00 -0.11386752136E+04  0.11386752136E+04  0.50400001928E-02 0.  1.
    10030    2    1    2    0    0  0.00000000000E+00  0.00000000000E+00 -0.69973193099E+03  0.15776184962E+04  0.14139502623E+04 0.  0.
        2    1    3    3  502    0  0.63984524379E+03  0.26856242979E+03 -0.50074491647E+03  0.85572962206E+03  0.25500000920E-02 0.  1.
       -2    1    3    3    0  502 -0.63984524379E+03 -0.26856242979E+03 -0.19898701452E+03  0.72188887417E+03  0.25500000920E-02 0. -1.
</event>
<event>
 5   0  0.6959748E-04  0.1401562E+04  0.7818609E-02  0.8952688E-01
       -2   -1    0    0    0  501  0.00000000000E+00  0.00000000000E+00  0.46893527809E+03  0.46893527810E+03  0.25500000920E-02 0.  1.
        2   -1    0    0  501    0  0.00000000000E+00  0.00000000000E+00 -0.10472536856E+04  0.10472536856E+04  0.25500000920E-02 0. -1.
    10030    2    1    2    0    0  0.00000000000E+00  0.00000000000E+00 -0.57831840755E+03  0.15161889637E+04  0.14015622688E+04 0.  0.
        5    1    3    3  502    0  0.97467750545E+02 -0.15152222430E+03 -0.10217546095E+04  0.10375275991E+04  0.46999998093E+01 0. -1.
       -5    1    3    3    0  502 -0.97467750545E+02  0.15152222430E+03  0.44343620192E+03  0.47866136467E+03  0.46999998093E+01 0.  1.
</event>
<event>
 5   0  0.3784219E-04  0.1393517E+04  0.7818609E-02  0.8958525E-01
       -1   -1    0    0    0  501  0.00000000000E+00  0.00000000000E+00  0.43911019076E+03  0.43911019079E+03  0.50400001928E-02 0.  1.
        1   -1    0    0  501    0  0.00000000000E+00  0.00000000000E+00 -0.11055820443E+04  0.11055820443E+04  0.50400001928E-02 0. -1.
    10030    2    1    2    0    0  0.00000000000E+00  0.00000000000E+00 -0.66647185356E+03  0.15446922351E+04  0.13935169068E+04 0.  0.
        1    1    3    3  502    0  0.49124118197E+03  0.16092952116E+02  0.21419783713E+03  0.53615072081E+03  0.50400001928E-02 0. -1.
       -1    1    3    3    0  502 -0.49124118197E+03 -0.16092952116E+02 -0.88066969069E+03  0.10085415143E+04  0.50400001928E-02 0.  1.
</event>
<event>
 5   0  0.7296966E-04  0.1299423E+04  0.7818609E-02  0.9030023E-01
       -2   -1    0    0    0  501  0.00000000000E+00  0.00000000000E+00  0.40621557479E+03  0.40621557480E+03  0.25500000920E-02 0. -1.
        2   -1    0    0  501    0  0.00000000000E+00  0.00000000000E+00 -0.10391651019E+04  0.10391651019E+04  0.25500000920E-02 0.  1.
    10030    2    1    2    0    0  0.00000000000E+00  0.00000000000E+00 -0.63294952710E+03  0.14453806767E+04  0.12994230245E+04 0.  0.
        3    1    3    3  502    0 -0.34653642583E+03  0.33528389571E+03 -0.80084376188E+03  0.93480132985E+03  0.10100000352E+00 0.  1.
       -3    1    3    3    0  502  0.34653642583E+03 -0.33528389571E+03  0.16789423478E+03  0.51057934685E+03  0.10100000352E+00 0. -1.
</event>
<event>
 5   0  0.6895048E-04  0.1405978E+04  0.7818609E-02  0.8949502E-01
        2   -1    0    0  501    0  0.00000000000E+00  0.00000000000E+00  0.14578076233E+04  0.14578076233E+04  0.25500000920E-02 0. -1.
       -2   -1    0    0    0  501  0.00000000000E+00  0.00000000000E+00 -0.33899793237E+03  0.33899793238E+03  0.25500000920E-02 0.  1.
    10030    2    1    2    0    0  0.00000000000E+00  0.00000000000E+00  0.11188096909E+04  0.17968055557E+04  0.14059783357E+04 0.  0.
        4    1    3    3  502    0 -0.64819485657E+03 -0.35072905716E+02  0.21457529423E+03  0.68368914764E+03  0.12699999809E+01 0.  1.
       -4    1    3    3    0  502  0.64819485657E+03  0.35072905716E+02  0.90423439671E+03  0.11131164081E+04  0.12699999809E+01 0. -1.
</event>
<event>
 5   0  0.7296966E-04  0.1403743E+04  0.7818609E-02  0.8951114E-01
        2   -1    0    0  501    0  0.00000000000E+00  0.00000000000E+00  0.54992085749E+03  0.54992085749E+03  0.25500000920E-02 0.  1.
       -2   -1    0    0    0  501  0.00000000000E+00  0.00000000000E+00 -0.89580801584E+03  0.89580801584E+03  0.25500000920E-02 0. -1.
    10030    2    1    2    0    0  0.00000000000E+00  0.00000000000E+00 -0.34588715835E+03  0.14457288733E+04  0.14037428714E+04 0.  0.
        3    1    3    3  502    0 -0.38102952410E+03 -0.32903364014E+02  0.43318046038E+03  0.57785071693E+03  0.10100000352E+00 0.  1.
       -3    1    3    3    0  502  0.38102952410E+03  0.32903364014E+02 -0.77906761874E+03  0.86787815640E+03  0.10100000352E+00 0. -1.
</event>
<event>
 5   0  0.2660250E-04  0.1429756E+04  0.7818609E-02  0.8932557E-01
       -4   -1    0    0    0  501  0.00000000000E+00  0.00000000000E+00  0.51654156007E+03  0.51654312132E+03  0.12699999809E+01 0. -1.
        4   -1    0    0  501    0  0.00000000000E+00  0.00000000000E+00 -0.98936669340E+03  0.98936750852E+03  0.12699999809E+01 0.  1.
    10030    2    1    2    0    0  0.00000000000E+00  0.00000000000E+00 -0.47282513333E+03  0.15059106298E+04  0.14297563493E+04 0.  0.
        5    1    3    3  502    0  0.26294877735E+03 -0.57837468313E+03 -0.58153833755E+03  0.86131774719E+03  0.46999998093E+01 0.  1.
       -5    1    3    3    0  502 -0.26294877735E+03  0.57837468313E+03  0.10871320422E+03  0.64459288265E+03  0.46999998093E+01 0. -1.
</event>
<event>
 5   0  0.6895048E-04  0.1401425E+04  0.7818609E-02  0.8952788E-01
       -2   -1    0    0    0  501  0.00000000000E+00  0.00000000000E+00  0.51855449954E+03  0.51855449955E+03  0.25500000920E-02 0. -1.
        2   -1    0    0  501    0  0.00000000000E+00  0.00000000000E+00 -0.94685912742E+03  0.94685912742E+03  0.25500000920E-02 0.  1.
    10030    2    1    2    0    0  0.00000000000E+00  0.00000000000E+00 -0.42830462788E+03  0.14654136270E+04  0.14014250761E+04 0.  0.
        4    1    3    3  502    0 -0.31747157728E+03 -0.35252650673E+03 -0.75338562061E+03  0.89031154467E+03  0.12699999809E+01 0.  1.
       -4    1    3    3    0  502  0.31747157728E+03  0.35252650673E+03  0.32508099273E+03  0.57510208230E+03  0.12699999809E+01 0. -1.
</event>
<event>
 5   0  0.3977658E-04  0.1394928E+04  0.7818609E-02  0.8957498E-01
       -1   -1    0    0    0  501  0.00000000000E+00  0.00000000000E+00  0.57378765509E+03  0.57378765511E+03  0.50400001928E-02 0.  1.
        1   -1    0    0  501    0  0.00000000000E+00  0.00000000000E+00 -0.84779774802E+03  0.84779774803E+03  0.50400001928E-02 0. -1.
    10030    2    1    2    0    0  0.00000000000E+00  0.00000000000E+00 -0.27401009293E+03  0.14215854031E+04  0.13949277857E+04 0.  0.
        5    1    3    3  502    0 -0.38666004827E+03  0.56470744332E+03 -0.15061561590E+00  0.68441405754E+03  0.46999998093E+01 0.  1.
       -5    1    3    3    0  502  0.38666004827E+03 -0.56470744332E+03 -0.27385947731E+03  0.73717134560E+03  0.46999998093E+01 0. -1.
</event>
<event>
 5   0  0.2660250E-04  0.1394798E+04  0.7818609E-02  0.8957593E-01
        4   -1    0    0  501    0  0.00000000000E+00  0.00000000000E+00  0.25504928756E+03  0.25505244948E+03  0.12699999809E+01 0.  1.
       -4   -1    0    0    0  501  0.00000000000E+00  0.00000000000E+00 -0.19069305362E+04  0.19069309591E+04  0.12699999809E+01 0. -1.
    10030    2    1    2    0    0  0.00000000000E+00  0.00000000000E+00 -0.16518812487E+04  0.21619834086E+04  0.13947976912E+04 0.  0.
        4    1    3    3  502    0 -0.38807305547E+02 -0.24825513422E+01  0.25336750739E+03  0.25633742748E+03  0.12699999809E+01 0.  1.
       -4    1    3    3    0  502  0.38807305547E+02  0.24825513422E+01 -0.19052487561E+04  0.19056459811E+04  0.12699999809E+01 0. -1.
</event>
<event>
 5   0  0.2660250E-04  0.1402813E+04  0.7818609E-02  0.8951785E-01
       -3   -1    0    0    0  501  0.00000000000E+00  0.00000000000E+00  0.22866241340E+04  0.22866241362E+04  0.10100000352E+00 0.  1.
        3   -1    0    0  501    0  0.00000000000E+00  0.00000000000E+00 -0.21515163803E+03  0.21515166173E+03  0.10100000352E+00 0. -1.
    10030    2    1    2    0    0  0.00000000000E+00  0.00000000000E+00  0.20714724960E+04  0.25017757980E+04  0.14028128320E+04 0.  0.
        5    1    3    3  502    0  0.50334255876E+03 -0.45996482356E+03  0.74254459942E+03  0.10081249637E+04  0.46999998093E+01 0. -1.
       -5    1    3    3    0  502 -0.50334255876E+03  0.45996482356E+03  0.13289278966E+04  0.14936508342E+04  0.46999998093E+01 0.  1.
</event>
<event>
 5   0  0.2660250E-04  0.1388135E+04  0.7818609E-02  0.8962452E-01
       -3   -1    0    0    0  501  0.00000000000E+00  0.00000000000E+00  0.20218159870E+03  0.20218162393E+03  0.10100000352E+00 0. -1.
        3   -1    0    0  501    0  0.00000000000E+00  0.00000000000E+00 -0.23826566379E+04  0.23826566401E+04  0.10100000352E+00 0.  1.
    10030    2    1    2    0    0  0.00000000000E+00  0.00000000000E+00 -0.21804750392E+04  0.25848382640E+04  0.13881345231E+04 0.  0.
        2    1    3    3  502    0  0.62469936334E+03 -0.30167302295E+03 -0.10497201034E+04  0.12582401213E+04  0.25500000920E-02 0. -1.
       -2    1    3    3    0  502 -0.62469936334E+03  0.30167302295E+03 -0.11307549358E+04  0.13265981427E+04  0.25500000920E-02 0.  1.
</event>
<event>
 5   0  0.3756664E-04  0.1366257E+04  0.7818609E-02  0.8978612E-01
        1   -1    0    0  501    0  0.00000000000E+00  0.00000000000E+00  0.54917314855E+03  0.54917314857E+03  0.50400001928E-02 0.  1.
       -1   -1    0    0    0  501  0.00000000000E+00  0.00000000000E+00 -0.84975802369E+03  0.84975802370E+03  0.50400001928E-02 0. -1.
    10030    2    1    2    0    0  0.00000000000E+00  0.00000000000E+00 -0.30058487514E+03  0.13989311723E+04  0.13662566222E+04 0.  0.
        2    1    3    3  502    0  0.20152666490E+03  0.35109192442E+03  0.41312694858E+03  0.57840505851E+03  0.25500000920E-02 0.  1.
       -2    1    3    3    0  502 -0.20152666490E+03 -0.35109192442E+03 -0.71371182372E+03  0.82052611377E+03  0.25500000920E-02 0. -1.
</event>
<event>
 5   0  0.3907270E-04  0.1426743E+04  0.7818609E-02  0.8934685E-01
       -1   -1    0    0    0  501  0.00000000000E+00  0.00000000000E+00  0.11050991706E+04  0.11050991706E+04  0.50400001928E-02 0. -1.
        1   -1    0    0  501    0  0.00000000000E+00  0.00000000000E+00 -0.46050043287E+03  0.46050043290E+03  0.50400001928E-02 0.  1.
    10030    2    1    2    0    0  0.00000000000E+00  0.00000000000E+00  0.64459873776E+03  0.15655996035E+04  0.14267426488E+04 0.  0.
        3    1    3    3  502    0 -0.36472395986E+02  0.38328266132E+02  0.11029432260E+04  0.11042115112E+04  0.10100000352E+00 0. -1.
       -3    1    3    3    0  502  0.36472395986E+02 -0.38328266132E+02 -0.45834448821E+03  0.46138809231E+03  0.10100000352E+00 0.  1.
</event>
<event>
 5   0  0.3977658E-04  0.1395287E+04  0.7818609E-02  0.8957237E-01
        1   -1    0    0  501    0  0.00000000000E+00  0.00000000000E+00  0.23264295690E+04  0.23264295690E+04  0.50400001928E-02 0. -1.
       -1   -1    0    0    0  501  0.00000000000E+00  0.00000000000E+00 -0.20920733764E+03  0.20920733770E+03  0.50400001928E-02 0.  1.
    10030    2    1    2    0    0  0.00000000000E+00  0.00000000000E+00  0.21172222314E+04  0.25356369067E+04  0.13952865461E+04 0.  0.
        5    1    3    3  502    0  0.49412307529E+03  0.15294040721E+03  0.20790375494E+03  0.55748941067E+03  0.46999998093E+01 0.  1.
       -5    1    3    3    0  502 -0.49412307529E+03 -0.15294040721E+03  0.19093184764E+04  0.19781474960E+04  0.46999998093E+01 0. -1.
</event>
<event>
 5   0  0.6959748E-04  0.1399773E+04  0.7818609E-02  0.8953983E-01
       -2   -1    0    0    0  501  0.00000000000E+00  0.00000000000E+00  0.30261805830E+03  0.30261805832E+03  0.25500000920E-02 0. -1.
        2   -1    0    0  501    0  0.00000000000E+00  0.00000000000E+00 -0.16186774789E+04  0.16186774789E+04  0.25500000920E-02 0.  1.
    10030    2    1    2    0    0  0.00000000000E+00  0.00000000000E+00 -0.13160594206E+04  0.19212955372E+04  0.13997728897E+04 0.  0.
        5    1    3    3  502    0 -0.37734082570E+03 -0.15679716049E+03 -0.14379232236E+04  0.14948634503E+04  0.46999998093E+01 0.  1.
       -5    1    3    3    0  502  0.37734082570E+03  0.15679716049E+03  0.12186380295E+03  0.42643208691E+03  0.46999998093E+01 0. -1.
</event>
<event>
 5   0  0.3784219E-04  0.1321077E+04  0.7818609E-02  0.9013016E-01
        1   -1    0    0  501    0  0.00000000000E+00  0.00000000000E+00  0.59473121902E+03  0.59473121904E+03  0.50400001928E-02 0.  1.
       -1   -1    0    0    0  501  0.00000000000E+00  0.00000000000E+00 -0.73362716875E+03  0.73362716877E+03  0.50400001928E-02 0. -1.
    10030    2    1    2    0    0  0.00000000000E+00  0.00000000000E+00 -0.13889594974E+03  0.13283583878E+04  0.13210768038E+04 0.  0.
        1    1    3    3  502    0  0.21218759366E+03  0.17903338364E+03  0.53321732469E+03  0.60116324134E+03  0.50400001928E-02 0.  1.
       -1    1    3    3    0  502 -0.21218759366E+03 -0.17903338364E+03 -0.67211327443E+03  0.72719514647E+03  0.50400001928E-02 0. -1.
</event>
<event>
 5   0  0.3977658E-04  0.1411823E+04  0.7818609E-02  0.8945304E-01
        1   -1    0    0  501    0  0.00000000000E+00  0.00000000000E+00  0.57331360367E+03  0.57331360370E+03  0.50400001928E-02 0.  1.
       -1   -1    0    0    0  501  0.00000000000E+00  0.00000000000E+00 -0.86917749553E+03  0.86917749554E+03  0.50400001928E-02 0. -1.
    10030    2    1    2    0    0  0.00000000000E+00  0.00000000000E+00 -0.29586389185E+03  0.14424910992E+04  0.14118233349E+04 0.  0.
        5    1    3    3  502    0 -0.48548006194E+03 -0.46826641449E+03 -0.36059958224E+03  0.76486500390E+03  0.46999998093E+01 0. -1.
       -5    1    3    3    0  502  0.48548006194E+03  0.46826641449E+03  0.64735690387E+02  0.67762609534E+03  0.46999998093E+01 0.  1.
</event>
<event>
 5   0  0.3907093E-04  0.1550948E+04  0.7818609E-02  0.8851263E-01
        1   -1    0    0  501    0  0.00000000000E+00  0.00000000000E+00  0.86237768705E+03  0.86237768706E+03  0.50400001928E-02 0. -1.
       -1   -1    0    0    0  501  0.00000000000E+00  0.00000000000E+00 -0.69732757904E+03  0.69732757905E+03  0.50400001928E-02 0.  1.
    10030    2    1    2    0    0  0.00000000000E+00  0.00000000000E+00  0.16505010801E+03  0.15597052661E+04  0.15509477680E+04 0.  0.
        4    1    3    3  502    0  0.40726817777E+03  0.35057879943E+03 -0.47972514760E+03  0.72035456088E+03  0.12699999809E+01 0.  1.
       -4    1    3    3    0  502 -0.40726817777E+03 -0.35057879943E+03  0.64477525561E+03  0.83935070524E+03  0.12699999809E+01 0. -1.
</event>
<event>
 5   0  0.3756664E-04  0.1401181E+04  0.7818609E-02  0.8952964E-01
       -1   -1    0    0    0  501  0.00000000000E+00  0.00000000000E+00  0.69396099950E+03  0.69396099952E+03  0.50400001928E-02 0. -1.
        1   -1    0    0  501    0  0.00000000000E+00  0.00000000000E+00 -0.70728380546E+03  0.70728380548E+03  0.50400001928E-02 0.  1.
    10030    2    1    2    0    0  0.00000000000E+00  0.00000000000E+00 -0.13322805966E+02  0.14012448050E+04  0.14011814680E+04 0.  0.
        2    1    3    3  502    0 -0.87605662569E+02 -0.52893023828E+03  0.44434171785E+03  0.69633433874E+03  0.25500000920E-02 0. -1.
       -2    1    3    3    0  502  0.87605662569E+02  0.52893023828E+03 -0.45766452381E+03  0.70491046626E+03  0.25500000920E-02 0.  1.
</event>
<event>
 5   0  0.6870835E-04  0.1417670E+04  0.7818609E-02  0.8941127E-01
       -2   -1    0    0    0  501  0.00000000000E+00  0.00000000000E+00  0.28573981048E+03  0.28573981049E+03  0.25500000920E-02 0.  1.
        2   -1    0    0  501    0  0.00000000000E+00  0.00000000000E+00 -0.17584069672E+04  0.17584069672E+04  0.25500000920E-02 0. -1.
    10030    2    1    2    0    0  0.00000000000E+00  0.00000000000E+00 -0.14726671568E+04  0.20441467777E+04  0.14176697409E+04 0.  0.
        2    1    3    3  502    0  0.46583584222E+03  0.32965235054E+03 -0.13425744065E+04  0.14588282082E+04  0.25500000920E-02 0. -1.
       -2    1    3    3    0  502 -0.46583584222E+03 -0.32965235054E+03 -0.13009275024E+03  0.58531856949E+03  0.25500000920E-02 0.  1.
</event>
<event>
 5   0  0.7296966E-04  0.1389561E+04  0.7818609E-02  0.8961409E-01
        2   -1    0    0  501    0  0.00000000000E+00  0.00000000000E+00  0.91342470561E+03  0.91342470561E+03  0.25500000920E-02 0.  1.
       -2   -1    0    0    0  501  0.00000000000E+00  0.00000000000E+00 -0.52847292408E+03  0.52847292409E+03  0.25500000920E-02 0. -1.
    10030    2    1    2    0    0  0.00000000000E+00  0.00000000000E+00  0.38495178153E+03  0.14418976297E+04  0.13895614058E+04 0.  0.
        3    1    3    3  502    0  0.65482189265E+03  0.10263981169E+03  0.40863293319E+03  0.77865751542E+03  0.10100000352E+00 0.  1.
       -3    1    3    3    0  502 -0.65482189265E+03 -0.10263981169E+03 -0.23681151658E+02  0.66324011428E+03  0.10100000352E+00 0. -1.
</event>
<event>
 5   0  0.6895048E-04  0.1387627E+04  0.7818609E-02  0.8962823E-01
       -2   -1    0    0    0  501  0.00000000000E+00  0.00000000000E+00  0.42859353748E+03  0.42859353749E+03  0.25500000920E-02 0. -1.
        2   -1    0    0  501    0  0.00000000000E+00  0.00000000000E+00 -0.11231562262E+04  0.11231562262E+04  0.25500000920E-02 0.  1.
    10030    2    1    2    0    0  0.00000000000E+00  0.00000000000E+00 -0.69456268875E+03  0.15517497637E+04  0.13876274718E+04 0.  0.
        4    1    3    3  502    0  0.43456405810E+03  0.33683646557E+03 -0.82049974640E+03  0.98768728445E+03  0.12699999809E+01 0.  1.
       -4    1    3    3    0  502 -0.43456405810E+03 -0.33683646557E+03  0.12593705765E+03  0.56406247927E+03  0.12699999809E+01 0. -1.
</event>
<event>
 5   0  0.3907270E-04  0.1308798E+04  0.7818609E-02  0.9022617E-01
        1   -1    0    0  501    0  0.00000000000E+00  0.00000000000E+00  0.16699803119E+04  0.16699803119E+04  0.50400001928E-02 0. -1.
       -1   -1    0    0    0  501  0.00000000000E+00  0.00000000000E+00 -0.25643288088E+03  0.25643288093E+03  0.50400001928E-02 0.  1.
    10030    2    1    2    0    0  0.00000000000E+00  0.00000000000E+00  0.14135474310E+04  0.19264131928E+04  0.13087977116E+04 0.  0.
        3    1    3    3  502    0  0.50194631222E+03 -0.32404313149E+03  0.31379200296E+03  0.67484774782E+03  0.10100000352E+00 0.  1.
       -3    1    3    3    0  502 -0.50194631222E+03  0.32404313149E+03  0.10997554280E+04  0.12515654450E+04  0.10100000352E+00 0. -1.
</event>
<event>
 5   0  0.7065539E-04  0.1442290E+04  0.7818609E-02  0.8923763E-01
       -2   -1    0    0    0  501  0.00000000000E+00  0.00000000000E+00  0.43315339595E+03  0.43315339595E+03  0.25500000920E-02 0. -1.
        2   -1    0    0  501    0  0.00000000000E+00  0.00000000000E+00 -0.12006135733E+04  0.12006135733E+04  0.25500000920E-02 0.  1.
    10030    2    1    2    0    0  0.00000000000E+00  0.00000000000E+00 -0.76746017736E+03  0.16337669693E+04  0.14422896332E+04 0.  0.
        1    1    3    3  502    0 -0.25959289654E+03 -0.40783285513E+03 -0.98987140822E+03  0.11016176807E+04  0.50400001928E-02 0.  1.
       -1    1    3    3    0  502  0.25959289654E+03  0.40783285513E+03  0.22241123086E+03  0.53214928854E+03  0.50400001928E-02 0. -1.
</event>
<event>
 5   0  0.6959748E-04  0.1419576E+04  0.7818609E-02  0.8939769E-01
       -2   -1    0    0    0  501  0.00000000000E+00  0.00000000000E+00  0.75254094477E+03  0.75254094478E+03  0.25500000920E-02 0.  1.
        2   -1    0    0  501    0  0.00000000000E+00  0.00000000000E+00 -0.66946392728E+03  0.66946392728E+03  0.25500000920E-02 0. -1.
    10030    2    1    2    0    0  0.00000000000E+00  0.00000000000E+00  0.83077017493E+02  0.14220048721E+04  0.14195760160E+04 0.  0.
        5    1    3    3  502    0 -0.46260382238E+03  0.51318907023E+03  0.20433305552E+03  0.72051329332E+03  0.46999998093E+01 0.  1.
       -5    1    3    3    0  502  0.46260382238E+03 -0.51318907023E+03 -0.12125603803E+03  0.70149157874E+03  0.46999998093E+01 0. -1.
</event>
<event>
 5   0  0.3907093E-04  0.1396041E+04  0.7818609E-02  0.8956689E-01
       -1   -1    0    0    0  501  0.00000000000E+00  0.00000000000E+00  0.27368427623E+03  0.27368427628E+03  0.50400001928E-02 0. -1.
        1   -1    0    0  501    0  0.00000000000E+00  0.00000000000E+00 -0.17802724301E+04  0.17802724301E+04  0.50400001928E-02 0.  1.
    10030    2    1    2    0    0  0.00000000000E+00  0.00000000000E+00 -0.15065881538E+04  0.20539567064E+04  0.13960409329E+04 0.  0.
        4    1    3    3  502    0 -0.68419651407E+03 -0.33105158525E+02 -0.95074157936E+03  0.11718071450E+04  0.12699999809E+01 0.  1.
       -4    1    3    3    0  502  0.68419651407E+03  0.33105158525E+02 -0.55584657449E+03  0.88214956139E+03  0.12699999809E+01 0. -1.
</event>
<event>
 5   0  0.3756664E-04  0.1405284E+04  0.7818609E-02  0.8950003E-01
       -1   -1    0    0    0  501  0.00000000000E+00  0.00000000000E+00  0.78103515708E+03  0.78103515709E+03  0.50400001928E-02 0.  1.
        1   -1    0    0  501    0  0.00000000000E+00  0.00000000000E+00 -0.63211697635E+03  0.63211697637E+03  0.50400001928E-02 0. -1.
    10030    2    1    2    0    0  0.00000000000E+00  0.00000000000E+00  0.14891818073E+03  0.14131521335E+04  0.14052837179E+04 0.  0.
        2    1    3    3  502    0  0.39417766045E+03  0.86154599498E+02  0.65292509477E+03  0.76753489979E+03  0.25500000920E-02 0.  1.
       -2    1    3    3    0  502 -0.39417766045E+03 -0.86154599498E+02 -0.50400691404E+03  0.64561723367E+03  0.25500000920E-02 0. -1.
</event>
<event>
 5   0  0.3756664E-04  0.1389428E+04  0.7818609E-02  0.8961507E-01
        1   -1    0    0  501    0  0.00000000000E+00  0.00000000000E+00  0.79046140898E+03  0.79046140900E+03  0.50400001928E-02 0. -1.
       -1   -1    0    0    0  501  0.00000000000E+00  0.00000000000E+00 -0.61056411427E+03  0.61056411429E+03  0.50400001928E-02 0.  1.
    10030    2    1    2    0    0  0.00000000000E+00  0.00000000000E+00  0.17989729471E+03  0.14010255233E+04  0.13894277528E+04 0.  0.
        2    1    3    3  502    0  0.98639402456E+02  0.13660977578E+03 -0.58964697076E+03  0.61324995939E+03  0.25500000920E-02 0.  1.
       -2    1    3    3    0  502 -0.98639402456E+02 -0.13660977578E+03  0.76954426547E+03  0.78777556390E+03  0.25500000920E-02 0. -1.
</event>
<event>
 5   0  0.3907270E-04  0.1408854E+04  0.7818609E-02  0.8947435E-01
        1   -1    0    0  501    0  0.00000000000E+00  0.00000000000E+00  0.58066156483E+03  0.58066156485E+03  0.50400001928E-02 0.  1.
       -1   -1    0    0    0  501  0.00000000000E+00  0.00000000000E+00 -0.85457196903E+03  0.85457196905E+03  0.50400001928E-02 0. -1.
    10030    2    1    2    0    0  0.00000000000E+00  0.00000000000E+00 -0.27391040420E+03  0.14352335339E+04  0.14088535720E+04 0.  0.
        3    1    3    3  502    0 -0.19915319746E+03 -0.54519770836E+03  0.26966077127E+03  0.64001521780E+03  0.10100000352E+00 0.  1.
       -3    1    3    3    0  502  0.19915319746E+03  0.54519770836E+03 -0.54357117547E+03  0.79521831610E+03  0.10100000352E+00 0. -1.
</event>
<event>
 5   0  0.3756664E-04  0.1399045E+04  0.7818609E-02  0.8954510E-01
        1   -1    0    0  501    0  0.00000000000E+00  0.00000000000E+00  0.91913148175E+03  0.91913148177E+03  0.50400001928E-02 0.  1.
       -1   -1    0    0    0  501  0.00000000000E+00  0.00000000000E+00 -0.53238465672E+03  0.53238465675E+03  0.50400001928E-02 0. -1.
    10030    2    1    2    0    0  0.00000000000E+00  0.00000000000E+00  0.38674682503E+03  0.14515161385E+04  0.13990446718E+04 0.  0.
        2    1    3    3  502    0  0.58002156510E+03  0.23143801371E+03 -0.13363487973E+03  0.63862888383E+03  0.25500000920E-02 0. -1.
       -2    1    3    3    0  502 -0.58002156510E+03 -0.23143801371E+03  0.52038170476E+03  0.81288725469E+03  0.25500000920E-02 0.  1.
</event>
<event>
 5   0  0.6870835E-04  0.1401812E+04  0.7818609E-02  0.8952508E-01
       -2   -1    0    0    0  501  0.00000000000E+00  0.00000000000E+00  0.34331797763E+03  0.34331797764E+03  0.25500000920E-02 0.  1.
        2   -1    0    0  501    0  0.00000000000E+00  0.00000000000E+00 -0.14309449688E+04  0.14309449688E+04  0.25500000920E-02 0. -1.
    10030    2    1    2    0    0  0.00000000000E+00  0.00000000000E+00 -0.10876269911E+04  0.17742629464E+04  0.14018118744E+04 0.  0.
        2    1    3    3  502    0 -0.19321378917E+03  0.55070921589E+03 -0.52540608527E+02  0.58598013989E+03  0.25500000920E-02 0.  1.
       -2    1    3    3    0  502  0.19321378917E+03 -0.55070921589E+03 -0.10350863826E+04  0.11882828065E+04  0.25500000920E-02 0. -1.
</event>
<event>
 5   0  0.6870835E-04  0.1386291E+04  0.7818609E-02  0.8963802E-01
       -2   -1    0    0    0  501  0.00000000000E+00  0.00000000000E+00  0.26208429210E+03  0.26208429211E+03  0.25500000920E-02 0.  1.
        2   -1    0    0  501    0  0.00000000000E+00  0.00000000000E+00 -0.18331909674E+04  0.18331909674E+04  0.25500000920E-02 0. -1.
    10030    2    1    2    0    0  0.00000000000E+00  0.00000000000E+00 -0.15711066753E+04  0.20952752595E+04  0.13862908165E+04 0.  0.
        2    1    3    3  502    0 -0.10772280307E+03 -0.53109103417E+03 -0.13232953515E+03  0.55782882209E+03  0.25500000920E-02 0.  1.
       -2    1    3    3    0  502  0.10772280307E+03  0.53109103417E+03 -0.14387771402E+04  0.15374464374E+04  0.25500000920E-02 0. -1.
</event>
<event>
 5   0  0.7296966E-04  0.1403524E+04  0.7818609E-02  0.8951272E-01
        2   -1    0    0  501    0  0.00000000000E+00  0.00000000000E+00  0.55251580805E+03  0.55251580805E+03  0.25500000920E-02 0. -1.
       -2   -1    0    0    0  501  0.00000000000E+00  0.00000000000E+00 -0.89132255901E+03  0.89132255901E+03  0.25500000920E-02 0.  1.
    10030    2    1    2    0    0  0.00000000000E+00  0.00000000000E+00 -0.33880675096E+03  0.14438383671E+04  0.14035238565E+04 0.  0.
        3    1    3    3  502    0  0.45581577833E+03 -0.16392588000E+03  0.35295139739E+03  0.59934498999E+03  0.10100000352E+00 0. -1.
       -3    1    3    3    0  502 -0.45581577833E+03  0.16392588000E+03 -0.69175814835E+03  0.84449337707E+03  0.10100000352E+00 0.  1.
</event>
<event>
 5   0  0.3784219E-04  0.1403131E+04  0.7818609E-02  0.8951556E-01
       -1   -1    0    0    0  501  0.00000000000E+00  0.00000000000E+00  0.80851074321E+03  0.80851074322E+03  0.50400001928E-02 0.  1.
        1   -1    0    0  501    0  0.00000000000E+00  0.00000000000E+00 -0.60876595262E+03  0.60876595264E+03  0.50400001928E-02 0. -1.
    10030    2    1    2    0    0  0.00000000000E+00  0.00000000000E+00  0.19974479058E+03  0.14172766959E+04  0.14031305183E+04 0.  0.
        1    1    3    3  502    0 -0.36492722451E+02  0.60558678761E+03 -0.25599585608E+03  0.65848383008E+03  0.50400001928E-02 0. -1.
       -1    1    3    3    0  502  0.36492722451E+02 -0.60558678761E+03  0.45574064666E+03  0.75879286579E+03  0.50400001928E-02 0.  1.
</event>
<event>
 5   0  0.3756664E-04  0.1393578E+04  0.7818609E-02  0.8958480E-01
       -1   -1    0    0    0  501  0.00000000000E+00  0.00000000000E+00  0.62629584058E+03  0.62629584060E+03  0.50400001928E-02 0.  1.
        1   -1    0    0  501    0  0.00000000000E+00  0.00000000000E+00 -0.77521704828E+03  0.77521704830E+03  0.50400001928E-02 0. -1.
    10030    2    1    2    0    0  0.00000000000E+00  0.00000000000E+00 -0.14892120770E+03  0.14015128889E+04  0.13935784340E+04 0.  0.
        2    1    3    3  502    0  0.16014790203E+03 -0.61918296554E+03 -0.35258591902E+03  0.73030933558E+03  0.25500000920E-02 0. -1.
       -2    1    3    3    0  502 -0.16014790203E+03  0.61918296554E+03  0.20366471132E+03  0.67120355331E+03  0.25500000920E-02 0.  1.
</event>
<event>
 5   0  0.3756664E-04  0.1397228E+04  0.7818609E-02  0.8955827E-01
        1   -1    0    0  501    0  0.00000000000E+00  0.00000000000E+00  0.62397600906E+03  0.62397600908E+03  0.50400001928E-02 0. -1.
       -1   -1    0    0    0  501  0.00000000000E+00  0.00000000000E+00 -0.78218028327E+03  0.78218028328E+03  0.50400001928E-02 0.  1.
    10030    2    1    2    0    0  0.00000000000E+00  0.00000000000E+00 -0.15820427420E+03  0.14061562924E+04  0.13972283014E+04 0.  0.
        2    1    3    3  502    0  0.39465744038E+03 -0.40619229752E+01 -0.65923215550E+03  0.76834759667E+03  0.25500000920E-02 0.  1.
       -2    1    3    3    0  502 -0.39465744038E+03  0.40619229752E+01  0.50102788129E+03  0.63780869570E+03  0.25500000920E-02 0. -1.
</event>
<event>
 5   0  0.7296966E-04  0.1252900E+04  0.7818609E-02  0.9067773E-01
        2   -1    0    0  501    0  0.00000000000E+00  0.00000000000E+00  0.70814130681E+03  0.70814130682E+03  0.25500000920E-02 0. -1.
       -2   -1    0    0    0  501  0.00000000000E+00  0.00000000000E+00 -0.55418238103E+03  0.55418238103E+03  0.25500000920E-02 0.  1.
    10030    2    1    2    0    0  0.00000000000E+00  0.00000000000E+00  0.15395892578E+03  0.12623236878E+04  0.12528997334E+04 0.  0.
        3    1    3    3  502    0  0.57087433343E+03 -0.22468555284E+03  0.20465406437E+03  0.64673363798E+03  0.10100000352E+00 0. -1.
       -3    1    3    3    0  502 -0.57087433343E+03  0.22468555284E+03 -0.50695138586E+02  0.61559004987E+03  0.10100000352E+00 0.  1.
</event>
<event>
 5   0  0.6870835E-04  0.1404693E+04  0.7818609E-02  0.8950428E-01
       -2   -1    0    0    0  501  0.00000000000E+00  0.00000000000E+00  0.98506823292E+03  0.98506823292E+03  0.25500000920E-02 0. -1.
        2   -1    0    0  501    0  0.00000000000E+00  0.00000000000E+00 -0.50076809948E+03  0.50076809949E+03  0.25500000920E-02 0.  1.
    10030    2    1    2    0    0  0.00000000000E+00  0.00000000000E+00  0.48430013344E+03  0.14858363324E+04  0.14046932005E+04 0.  0.
        2    1    3    3  502    0  0.10420556879E+03 -0.63190795380E+03 -0.62817358301E+02  0.64351572099E+03  0.25500000920E-02 0.  1.
       -2    1    3    3    0  502 -0.10420556879E+03  0.63190795380E+03  0.54711749174E+03  0.84232061142E+03  0.25500000920E-02 0. -1.
</event>
<event>
 5   0  0.6870835E-04  0.1427052E+04  0.7818609E-02  0.8934467E-01
       -2   -1    0    0    0  501  0.00000000000E+00  0.00000000000E+00  0.52893269335E+03  0.52893269335E+03  0.25500000920E-02 0. -1.
        2   -1    0    0  501    0  0.00000000000E+00  0.00000000000E+00 -0.96254063591E+03  0.96254063592E+03  0.25500000920E-02 0.  1.
    10030    2    1    2    0    0  0.00000000000E+00  0.00000000000E+00 -0.43360794257E+03  0.14914733293E+04  0.14270518015E+04 0.  0.
        2    1    3    3  502    0  0.29833849304E+03  0.28299933687E+03 -0.82624404196E+03  0.92291586722E+03  0.25500000920E-02 0.  1.
       -2    1    3    3    0  502 -0.29833849304E+03 -0.28299933687E+03  0.39263609939E+03  0.56855746204E+03  0.25500000920E-02 0. -1.
</event>
<event>
 5   0  0.3907093E-04  0.1420758E+04  0.7818609E-02  0.8938928E-01
       -1   -1    0    0    0  501  0.00000000000E+00  0.00000000000E+00  0.61668577179E+03  0.61668577181E+03  0.50400001928E-02 0.  1.
        1   -1    0    0  501    0  0.00000000000E+00  0.00000000000E+00 -0.81830759973E+03  0.81830759975E+03  0.50400001928E-02 0. -1.
    10030    2    1    2    0    0  0.00000000000E+00  0.00000000000E+00 -0.20162182794E+03  0.14349933716E+04  0.14207584647E+04 0.  0.
        4    1    3    3  502    0 -0.19914392767E+03  0.65457458062E+03  0.92181681251E+02  0.69038051883E+03  0.12699999809E+01 0.  1.
       -4    1    3    3    0  502  0.19914392767E+03 -0.65457458062E+03 -0.29380350919E+03  0.74461285272E+03  0.12699999809E+01 0. -1.
</event>
<event>
 5   0  0.3977658E-04  0.1401981E+04  0.7818609E-02  0.8952386E-01
        1   -1    0    0  501    0  0.00000000000E+00  0.00000000000E+00  0.22045455878E+04  0.22045455878E+04  0.50400001928E-02 0.  1.
       -1   -1    0    0    0  501  0.00000000000E+00  0.00000000000E+00 -0.22289759067E+03  0.22289759073E+03  0.50400001928E-02 0. -1.
    10030    2    1    2    0    0  0.00000000000E+00  0.00000000000E+00  0.19816479971E+04  0.24274431785E+04  0.14019813125E+04 0.  0.
        5    1    3    3  502    0 -0.19782513347E+03 -0.23133358634E+03  0.20841220400E+04  0.21062375885E+04  0.46999998093E+01 0.  1.
       -5    1    3    3    0  502  0.19782513347E+03  0.23133358634E+03 -0.10247404288E+03  0.32120559003E+03  0.46999998093E+01 0. -1.
</event>
<event>
 5   0  0.7065539E-04  0.1439444E+04  0.7818609E-02  0.8925752E-01
       -2   -1    0    0    0  501  0.00000000000E+00  0.00000000000E+00  0.83115981219E+03  0.83115981219E+03  0.25500000920E-02 0. -1.
        2   -1    0    0  501    0  0.00000000000E+00  0.00000000000E+00 -0.62322526704E+03  0.62322526705E+03  0.25500000920E-02 0.  1.
    10030    2    1    2    0    0  0.00000000000E+00  0.00000000000E+00  0.20793454514E+03  0.14543850792E+04  0.14394440537E+04 0.  0.
        1    1    3    3  502    0 -0.17569042452E+03  0.69544671285E+03  0.44307449790E+02  0.71866292921E+03  0.50400001928E-02 0.  1.
       -1    1    3    3    0  502  0.17569042452E+03 -0.69544671285E+03  0.16362709535E+03  0.73572215003E+03  0.50400001928E-02 0. -1.
</event>
<event>
 5   0  0.7296966E-04  0.1395098E+04  0.7818609E-02  0.8957375E-01
       -2   -1    0    0    0  501  0.00000000000E+00  0.00000000000E+00  0.26369942025E+03  0.26369942027E+03  0.25500000920E-02 0.  1.
        2   -1    0    0  501    0  0.00000000000E+00  0.00000000000E+00 -0.18451863370E+04  0.18451863370E+04  0.25500000920E-02 0. -1.
    10030    2    1    2    0    0  0.00000000000E+00  0.00000000000E+00 -0.15814869168E+04  0.21088857573E+04  0.13950979426E+04 0.  0.
        3    1    3    3  502    0 -0.11610531764E+03  0.12355588077E+03  0.23207735601E+03  0.28741330837E+03  0.10100000352E+00 0.  1.
       -3    1    3    3    0  502  0.11610531764E+03 -0.12355588077E+03 -0.18135642728E+04  0.18214724489E+04  0.10100000352E+00 0. -1.
</event>
<event>
 5   0  0.2660250E-04  0.1392825E+04  0.7818609E-02  0.8959029E-01
       -4   -1    0    0    0  501  0.00000000000E+00  0.00000000000E+00  0.40358317533E+03  0.40358517355E+03  0.12699999809E+01 0.  1.
        4   -1    0    0  501    0  0.00000000000E+00  0.00000000000E+00 -0.12017056514E+04  0.12017063225E+04  0.12699999809E+01 0. -1.
    10030    2    1    2    0    0  0.00000000000E+00  0.00000000000E+00 -0.79812247609E+03  0.16052914961E+04  0.13928249353E+04 0.  0.
        5    1    3    3  502    0  0.21420411620E+03 -0.26892591373E+03  0.29893090725E+03  0.45561642615E+03  0.46999998093E+01 0.  1.
       -5    1    3    3    0  502 -0.21420411620E+03  0.26892591373E+03 -0.10970533833E+04  0.11496750699E+04  0.46999998093E+01 0. -1.
</event>
<event>
 5   0  0.7296966E-04  0.1410963E+04  0.7818609E-02  0.8945921E-01
        2   -1    0    0  501    0  0.00000000000E+00  0.00000000000E+00  0.12205484701E+04  0.12205484701E+04  0.25500000920E-02 0.  1.
       -2   -1    0    0    0  501  0.00000000000E+00  0.00000000000E+00 -0.40777118674E+03  0.40777118675E+03  0.25500000920E-02 0. -1.
    10030    2    1    2    0    0  0.00000000000E+00  0.00000000000E+00  0.81277728338E+03  0.16283196569E+04  0.14109634980E+04 0.  0.
        3    1    3    3  502    0  0.17112586972E+03  0.14019729630E+03  0.11794846755E+04  0.12000514385E+04  0.10100000352E+00 0.  1.
       -3    1    3    3    0  502 -0.17112586972E+03 -0.14019729630E+03 -0.36670739214E+03  0.42826821832E+03  0.10100000352E+00 0. -1.
</event>
<event>
 5   0  0.6870835E-04  0.1397980E+04  0.7818609E-02  0.8955282E-01
        2   -1    0    0  501    0  0.00000000000E+00  0.00000000000E+00  0.71382457586E+03  0.71382457587E+03  0.25500000920E-02 0. -1.
       -2   -1    0    0    0  501  0.00000000000E+00  0.00000000000E+00 -0.68446348053E+03  0.68446348053E+03  0.25500000920E-02 0.  1.
    10030    2    1    2    0    0  0.00000000000E+00  0.00000000000E+00  0.29361095331E+02  0.13982880564E+04  0.13979797619E+04 0.  0.
        2    1    3    3  502    0  0.36966126613E+02  0.44620874347E+03  0.55156527177E+03  0.71041747325E+03  0.25500000920E-02 0. -1.
       -2    1    3    3    0  502 -0.36966126613E+02 -0.44620874347E+03 -0.52220417644E+03  0.68787058315E+03  0.25500000920E-02 0.  1.
</event>
<event>
 5   0  0.6959748E-04  0.1403212E+04  0.7818609E-02  0.8951497E-01
        2   -1    0    0  501    0  0.00000000000E+00  0.00000000000E+00  0.14753791166E+04  0.14753791166E+04  0.25500000920E-02 0.  1.
       -2   -1    0    0    0  501  0.00000000000E+00  0.00000000000E+00 -0.33364357048E+03  0.33364357049E+03  0.25500000920E-02 0. -1.
    10030    2    1    2    0    0  0.00000000000E+00  0.00000000000E+00  0.11417355461E+04  0.18090226871E+04  0.14032116823E+04 0.  0.
        5    1    3    3  502    0  0.49863618141E+03  0.37197829751E+03  0.98905974289E+03  0.11684464730E+04  0.46999998093E+01 0.  1.
       -5    1    3    3    0  502 -0.49863618141E+03 -0.37197829751E+03  0.15267580326E+03  0.64057621414E+03  0.46999998093E+01 0. -1.
</event>
<event>
 5   0  0.3907270E-04  0.1400020E+04  0.7818609E-02  0.8953804E-01
       -1   -1    0    0    0  501  0.00000000000E+00  0.00000000000E+00  0.61257007105E+03  0.61257007107E+03  0.50400001928E-02 0.  1.
        1   -1    0    0  501    0  0.00000000000E+00  0.00000000000E+00 -0.79993153139E+03  0.79993153140E+03  0.50400001928E-02 0. -1.
    10030    2    1    2    0    0  0.00000000000E+00  0.00000000000E+00 -0.18736146034E+03  0.14125016025E+04  0.14000201642E+04 0.  0.
        3    1    3    3  502    0 -0.35383599089E+03 -0.57408014629E+03 -0.28309412952E+03  0.73137556644E+03  0.10100000352E+00 0.  1.
       -3    1    3    3    0  502  0.35383599089E+03  0.57408014629E+03  0.95732669186E+02  0.68112603604E+03  0.10100000352E+00 0. -1.
</event>
<event>
 5   0  0.3977658E-04  0.1404444E+04  0.7818609E-02  0.8950608E-01
       -1   -1    0    0    0  501  0.00000000000E+00  0.00000000000E+00  0.37003561979E+03  0.37003561982E+03  0.50400001928E-02 0.  1.
        1   -1    0    0  501    0  0.00000000000E+00  0.00000000000E+00 -0.13326175516E+04  0.13326175516E+04  0.50400001928E-02 0. -1.
    10030    2    1    2    0    0  0.00000000000E+00  0.00000000000E+00 -0.96258193184E+03  0.17026531715E+04  0.14044443196E+04 0.  0.
        5    1    3    3  502    0  0.54484192589E+03 -0.39382533499E+03 -0.23538541064E+03  0.71230576315E+03  0.46999998093E+01 0.  1.
       -5    1    3    3    0  502 -0.54484192589E+03  0.39382533499E+03 -0.72719652120E+03  0.99034740830E+03  0.46999998093E+01 0. -1.
</event>
<event>
 5   0  0.7065539E-04  0.1403646E+04  0.7818609E-02  0.8951183E-01
        2   -1    0    0  501    0  0.00000000000E+00  0.00000000000E+00  0.13837874480E+04  0.13837874480E+04  0.25500000920E-02 0.  1.
       -2   -1    0    0    0  501  0.00000000000E+00  0.00000000000E+00 -0.35594763106E+03  0.35594763107E+03  0.25500000920E-02 0. -1.
    10030    2    1    2    0    0  0.00000000000E+00  0.00000000000E+00  0.10278398169E+04  0.17397350791E+04  0.14036464854E+04 0.  0.
        1    1    3    3  502    0 -0.53813282199E+03  0.79254993874E+02  0.10636048525E+04  0.11946227733E+04  0.50400001928E-02 0.  1.
       -1    1    3    3    0  502  0.53813282199E+03 -0.79254993874E+02 -0.35765035534E+02  0.54511230582E+03  0.50400001928E-02 0. -1.
</event>
<event>
 5   0  0.3756664E-04  0.1396379E+04  0.7818609E-02  0.8956444E-01
        1   -1    0    0  501    0  0.00000000000E+00  0.00000000000E+00  0.73782569391E+03  0.73782569393E+03  0.50400001928E-02 0. -1.
       -1   -1    0    0    0  501  0.00000000000E+00  0.00000000000E+00 -0.66068254643E+03  0.66068254645E+03  0.50400001928E-02 0.  1.
    10030    2    1    2    0    0  0.00000000000E+00  0.00000000000E+00  0.77143147483E+02  0.13985082404E+04  0.13963789719E+04 0.  0.
        2    1    3    3  502    0 -0.82311010289E+02  0.37085544131E+03 -0.54812002289E+03  0.66689161058E+03  0.25500000920E-02 0.  1.
       -2    1    3    3    0  502  0.82311010289E+02 -0.37085544131E+03  0.62526317037E+03  0.73161662980E+03  0.25500000920E-02 0. -1.
</event>
<event>
 5   0  0.6870835E-04  0.1394313E+04  0.7818609E-02  0.8957946E-01
       -2   -1    0    0    0  501  0.00000000000E+00  0.00000000000E+00  0.29782432453E+03  0.29782432454E+03  0.25500000920E-02 0. -1.
        2   -1    0    0  501    0  0.00000000000E+00  0.00000000000E+00 -0.16319252590E+04  0.16319252590E+04  0.25500000920E-02 0.  1.
    10030    2    1    2    0    0  0.00000000000E+00  0.00000000000E+00 -0.13341009345E+04  0.19297495836E+04  0.13943127884E+04 0.  0.
        2    1    3    3  502    0  0.20086621260E+03 -0.42081348827E+03 -0.13843331776E+04  0.14607565073E+04  0.25500000920E-02 0.  1.
       -2    1    3    3    0  502 -0.20086621260E+03  0.42081348827E+03  0.50232243081E+02  0.46899307620E+03  0.25500000920E-02 0. -1.
</event>
<event>
 5   0  0.3784219E-04  0.1395280E+04  0.7818609E-02  0.8957242E-01
        1   -1    0    0  501    0  0.00000000000E+00  0.00000000000E+00  0.10284396633E+04  0.10284396633E+04  0.50400001928E-02 0.  1.
       -1   -1    0    0    0  501  0.00000000000E+00  0.00000000000E+00 -0.47324263668E+03  0.47324263671E+03  0.50400001928E-02 0. -1.
    10030    2    1    2    0    0  0.00000000000E+00  0.00000000000E+00  0.55519702665E+03  0.15016823000E+04  0.13952798973E+04 0.  0.
        1    1    3    3  502    0  0.23746698364E+03  0.51212993574E+03 -0.16358078419E+03  0.58772979538E+03  0.50400001928E-02 0. -1.
       -1    1    3    3    0  502 -0.23746698364E+03 -0.51212993574E+03  0.71877781084E+03  0.91395250466E+03  0.50400001928E-02 0.  1.
</event>
<event>
 5   0  0.6895048E-04  0.1412120E+04  0.7818609E-02  0.8945092E-01
       -2   -1    0    0    0  501  0.00000000000E+00  0.00000000000E+00  0.45384744021E+03  0.45384744022E+03  0.25500000920E-02 0.  1.
        2   -1    0    0  501    0  0.00000000000E+00  0.00000000000E+00 -0.10984323248E+04  0.10984323248E+04  0.25500000920E-02 0. -1.
    10030    2    1    2    0    0  0.00000000000E+00  0.00000000000E+00 -0.64458488459E+03  0.15522797650E+04  0.14121199650E+04 0.  0.
        4    1    3    3  502    0  0.62557834167E+02 -0.20470010318E+03 -0.10619067692E+04  0.10832650711E+04  0.12699999809E+01 0. -1.
       -4    1    3    3    0  502 -0.62557834167E+02  0.20470010318E+03  0.41732188461E+03  0.46901469394E+03  0.12699999809E+01 0.  1.
</event>
<event>
 5   0  0.3907093E-04  0.1385762E+04  0.7818609E-02  0.8964190E-01
       -1   -1    0    0    0  501  0.00000000000E+00  0.00000000000E+00  0.24743046614E+03  0.24743046619E+03  0.50400001928E-02 0.  1.
        1   -1    0    0  501    0  0.00000000000E+00  0.00000000000E+00 -0.19402781869E+04  0.19402781869E+04  0.50400001928E-02 0. -1.
    10030    2    1    2    0    0  0.00000000000E+00  0.00000000000E+00 -0.16928477208E+04  0.21877086531E+04  0.13857617924E+04 0.  0.
        4    1    3    3  502    0  0.33720249498E+03 -0.29703662331E+03 -0.13822058835E+02  0.44958752254E+03  0.12699999809E+01 0.  1.
       -4    1    3    3    0  502 -0.33720249498E+03  0.29703662331E+03 -0.16790256619E+04  0.17381211306E+04  0.12699999809E+01 0. -1.
</event>
<event>
 5   0  0.6959748E-04  0.1401376E+04  0.7818609E-02  0.8952823E-01
        2   -1    0    0  501    0  0.00000000000E+00  0.00000000000E+00  0.14209432578E+04  0.14209432578E+04  0.25500000920E-02 0. -1.
       -2   -1    0    0    0  501  0.00000000000E+00  0.00000000000E+00 -0.34551968330E+03  0.34551968331E+03  0.25500000920E-02 0.  1.
    10030    2    1    2    0    0  0.00000000000E+00  0.00000000000E+00  0.10754235745E+04  0.17664629411E+04  0.14013762727E+04 0.  0.
        5    1    3    3  502    0  0.24118045685E+03  0.51150369967E+03  0.16249806012E+02  0.56576514008E+03  0.46999998093E+01 0.  1.
       -5    1    3    3    0  502 -0.24118045685E+03 -0.51150369967E+03  0.10591737685E+04  0.12006978011E+04  0.46999998093E+01 0. -1.
</event>
<event>
 5   0  0.3756664E-04  0.1402840E+04  0.7818609E-02  0.8951765E-01
       -1   -1    0    0    0  501  0.00000000000E+00  0.00000000000E+00  0.66001246892E+03  0.66001246894E+03  0.50400001928E-02 0.  1.
        1   -1    0    0  501    0  0.00000000000E+00  0.00000000000E+00 -0.74542532044E+03  0.74542532046E+03  0.50400001928E-02 0. -1.
    10030    2    1    2    0    0  0.00000000000E+00  0.00000000000E+00 -0.85412851516E+02  0.14054377894E+04  0.14028399854E+04 0.  0.
        2    1    3    3  502    0  0.28403691522E+03 -0.46384743008E+03  0.40101169555E+03  0.67575275625E+03  0.25500000920E-02 0.  1.
       -2    1    3    3    0  502 -0.28403691522E+03  0.46384743008E+03 -0.48642454707E+03  0.72968503315E+03  0.25500000920E-02 0. -1.
</event>
<event>
 5   0  0.3907270E-04  0.1396965E+04  0.7818609E-02  0.8956018E-01
       -1   -1    0    0    0  501  0.00000000000E+00  0.00000000000E+00  0.63011563271E+03  0.63011563273E+03  0.50400001928E-02 0. -1.
        1   -1    0    0  501    0  0.00000000000E+00  0.00000000000E+00 -0.77426750330E+03  0.77426750332E+03  0.50400001928E-02 0.  1.
    10030    2    1    2    0    0  0.00000000000E+00  0.00000000000E+00 -0.14415187059E+03  0.14043831360E+04  0.13969653650E+04 0.  0.
        3    1    3    3  502    0 -0.16738223479E+03 -0.21002540824E+03  0.57613505474E+03  0.63565642931E+03  0.10100000352E+00 0. -1.
       -3    1    3    3    0  502  0.16738223479E+03  0.21002540824E+03 -0.72028692533E+03  0.76872670673E+03  0.10100000352E+00 0.  1.
</event>
<event>
 5   0  0.7065539E-04  0.1382749E+04  0.7818609E-02  0.8966401E-01
       -2   -1    0    0    0  501  0.00000000000E+00  0.00000000000E+00  0.65085973821E+03  0.65085973821E+03  0.25500000920E-02 0.  1.
        2   -1    0    0  501    0  0.00000000000E+00  0.00000000000E+00 -0.73441141778E+03  0.73441141779E+03  0.25500000920E-02 0. -1.
    10030    2    1    2    0    0  0.00000000000E+00  0.00000000000E+00 -0.83551679573E+02  0.13852711560E+04  0.13827491792E+04 0.  0.
        1    1    3    3  502    0 -0.53054376863E+03 -0.42507934235E+03  0.84269711952E+02  0.68503322701E+03  0.50400001928E-02 0.  1.
       -1    1    3    3    0  502  0.53054376863E+03  0.42507934235E+03 -0.16782139153E+03  0.70023792900E+03  0.50400001928E-02 0. -1.
</event>
<event>
 5   0  0.3907270E-04  0.1395768E+04  0.7818609E-02  0.8956887E-01
        1   -1    0    0  501    0  0.00000000000E+00  0.00000000000E+00  0.29638788468E+03  0.29638788472E+03  0.50400001928E-02 0. -1.
       -1   -1    0    0    0  501  0.00000000000E+00  0.00000000000E+00 -0.16432594559E+04  0.16432594559E+04  0.50400001928E-02 0.  1.
    10030    2    1    2    0    0  0.00000000000E+00  0.00000000000E+00 -0.13468715713E+04  0.19396473407E+04  0.13957681672E+04 0.  0.
        3    1    3    3  502    0 -0.62329256033E+03 -0.74354002387E+02 -0.24959985462E+03  0.67551627002E+03  0.10100000352E+00 0. -1.
       -3    1    3    3    0  502  0.62329256033E+03  0.74354002387E+02 -0.10972717166E+04  0.12641310707E+04  0.10100000352E+00 0.  1.
</event>
<event>
 5   0  0.7065539E-04  0.1407154E+04  0.7818609E-02  0.8948657E-01
       -2   -1    0    0    0  501  0.00000000000E+00  0.00000000000E+00  0.68908799237E+03  0.68908799237E+03  0.25500000920E-02 0.  1.
        2   -1    0    0  501    0  0.00000000000E+00  0.00000000000E+00 -0.71837034181E+03  0.71837034182E+03  0.25500000920E-02 0. -1.
    10030    2    1    2    0    0  0.00000000000E+00  0.00000000000E+00 -0.29282349443E+02  0.14074583342E+04  0.14071536897E+04 0.  0.
        1    1    3    3  502    0 -0.66740051096E+03 -0.15449073366E+03  0.14579787828E+03  0.70039121221E+03  0.50400001928E-02 0.  1.
       -1    1    3    3    0  502  0.66740051096E+03  0.15449073366E+03 -0.17508022772E+03  0.70706712197E+03  0.50400001928E-02 0. -1.
</event>
<event>
 5   0  0.3907270E-04  0.1403972E+04  0.7818609E-02  0.8950948E-01
       -1   -1    0    0    0  501  0.00000000000E+00  0.00000000000E+00  0.48348144990E+03  0.48348144993E+03  0.50400001928E-02 0.  1.
        1   -1    0    0  501    0  0.00000000000E+00  0.00000000000E+00 -0.10192414169E+04  0.10192414169E+04  0.50400001928E-02 0. -1.
    10030    2    1    2    0    0  0.00000000000E+00  0.00000000000E+00 -0.53575996700E+03  0.15027228668E+04  0.14039719628E+04 0.  0.
        3    1    3    3  502    0  0.39563721674E+03  0.28466087181E+01  0.35277454117E+03  0.53008187816E+03  0.10100000352E+00 0.  1.
       -3    1    3    3    0  502 -0.39563721674E+03 -0.28466087181E+01 -0.88853450817E+03  0.97264098868E+03  0.10100000352E+00 0. -1.
</event>
<event>
 5   0  0.3977658E-04  0.1403504E+04  0.7818609E-02  0.8951286E-01
        1   -1    0    0  501    0  0.00000000000E+00  0.00000000000E+00  0.23878036051E+04  0.23878036051E+04  0.50400001928E-02 0.  1.
       -1   -1    0    0    0  501  0.00000000000E+00  0.00000000000E+00 -0.20623799596E+03  0.20623799602E+03  0.50400001928E-02 0. -1.
    10030    2    1    2    0    0  0.00000000000E+00  0.00000000000E+00  0.21815656091E+04  0.25940416011E+04  0.14035039442E+04 0.  0.
        5    1    3    3  502    0 -0.30592978085E+03  0.63152688127E+03  0.10978226558E+04  0.13029412520E+04  0.46999998093E+01 0. -1.
       -5    1    3    3    0  502  0.30592978085E+03 -0.63152688127E+03  0.10837429533E+04  0.12911003490E+04  0.46999998093E+01 0.  1.
</event>
<event>
 5   0  0.6895048E-04  0.1400921E+04  0.7818609E-02  0.8953152E-01
       -2   -1    0    0    0  501  0.00000000000E+00  0.00000000000E+00  0.12093688941E+04  0.12093688941E+04  0.25500000920E-02 0. -1.
        2   -1    0    0  501    0  0.00000000000E+00  0.00000000000E+00 -0.40570336548E+03  0.40570336549E+03  0.25500000920E-02 0.  1.
    10030    2    1    2    0    0  0.00000000000E+00  0.00000000000E+00  0.80366552858E+03  0.16150722595E+04  0.14009211690E+04 0.  0.
        4    1    3    3  502    0 -0.68417473301E+03 -0.60961005737E+02  0.24362502372E+03  0.72881141222E+03  0.12699999809E+01 0. -1.
       -4    1    3    3    0  502  0.68417473301E+03  0.60961005737E+02  0.56004050486E+03  0.88626084732E+03  0.12699999809E+01 0.  1.
</event>
<event>
 5   0  0.6870835E-04  0.1401203E+04  0.7818609E-02  0.8952948E-01
       -2   -1    0    0    0  501  0.00000000000E+00  0.00000000000E+00  0.92311925836E+03  0.92311925836E+03  0.25500000920E-02 0. -1.
        2   -1    0    0  501    0  0.00000000000E+00  0.00000000000E+00 -0.53172133467E+03  0.53172133467E+03  0.25500000920E-02 0.  1.
    10030    2    1    2    0    0  0.00000000000E+00  0.00000000000E+00  0.39139792369E+03  0.14548405930E+04  0.14012026322E+04 0.  0.
        2    1    3    3  502    0  0.67667819204E+03  0.90681634224E+02  0.35896223454E+03  0.77134325705E+03  0.25500000920E-02 0. -1.
       -2    1    3    3    0  502 -0.67667819204E+03 -0.90681634224E+02  0.32435689153E+02  0.68349733599E+03  0.25500000920E-02 0.  1.
</event>
<event>
 5   0  0.3907093E-04  0.1397456E+04  0.7818609E-02  0.8955662E-01
       -1   -1    0    0    0  501  0.00000000000E+00  0.00000000000E+00  0.35049969668E+03  0.35049969672E+03  0.50400001928E-02 0.  1.
        1   -1    0    0  501    0  0.00000000000E+00  0.00000000000E+00 -0.13929276781E+04  0.13929276781E+04  0.50400001928E-02 0. -1.
    10030    2    1    2    0    0  0.00000000000E+00  0.00000000000E+00 -0.10424279814E+04  0.17434273748E+04  0.13974558722E+04 0.  0.
        4    1    3    3  502    0  0.43061035819E+03  0.54800936384E+03 -0.45909074283E+03  0.83456903039E+03  0.12699999809E+01 0.  1.
       -4    1    3    3    0  502 -0.43061035819E+03 -0.54800936384E+03 -0.58333723859E+03  0.90885834444E+03  0.12699999809E+01 0. -1.
</event>
<event>
 5   0  0.2660250E-04  0.1407361E+04  0.7818609E-02  0.8948507E-01
        3   -1    0    0  501    0  0.00000000000E+00  0.00000000000E+00  0.81956503588E+03  0.81956504211E+03  0.10100000352E+00 0.  1.
       -3   -1    0    0    0  501  0.00000000000E+00  0.00000000000E+00 -0.60418202394E+03  0.60418203238E+03  0.10100000352E+00 0. -1.
    10030    2    1    2    0    0  0.00000000000E+00  0.00000000000E+00  0.21538301194E+03  0.14237470745E+04  0.14073613219E+04 0.  0.
        3    1    3    3  502    0 -0.95608053424E+01  0.56884957314E+03  0.52662065204E+03  0.77524871314E+03  0.10100000352E+00 0.  1.
       -3    1    3    3    0  502  0.95608053424E+01 -0.56884957314E+03 -0.31123764010E+03  0.64849836135E+03  0.10100000352E+00 0. -1.
</event>
<event>
 5   0  0.6959748E-04  0.1399651E+04  0.7818609E-02  0.8954072E-01
        2   -1    0    0  501    0  0.00000000000E+00  0.00000000000E+00  0.76177014005E+03  0.76177014006E+03  0.25500000920E-02 0.  1.
       -2   -1    0    0    0  501  0.00000000000E+00  0.00000000000E+00 -0.64291756484E+03  0.64291756485E+03  0.25500000920E-02 0. -1.
    10030    2    1    2    0    0  0.00000000000E+00  0.00000000000E+00  0.11885257521E+03  0.14046877049E+04  0.13996505327E+04 0.  0.
        5    1    3    3  502    0 -0.15345464845E+03 -0.37316613386E+03  0.63326374932E+03  0.75089703608E+03  0.46999998093E+01 0.  1.
       -5    1    3    3    0  502  0.15345464845E+03  0.37316613386E+03 -0.51441117411E+03  0.65379066882E+03  0.46999998093E+01 0. -1.
</event>
<event>
 5   0  0.3784219E-04  0.1403699E+04  0.7818609E-02  0.8951145E-01
        1   -1    0    0  501    0  0.00000000000E+00  0.00000000000E+00  0.91398722342E+03  0.91398722344E+03  0.50400001928E-02 0.  1.
       -1   -1    0    0    0  501  0.00000000000E+00  0.00000000000E+00 -0.53894953779E+03  0.53894953782E+03  0.50400001928E-02 0. -1.
    10030    2    1    2    0    0  0.00000000000E+00  0.00000000000E+00  0.37503768563E+03  0.14529367613E+04  0.14036993861E+04 0.  0.
        1    1    3    3  502    0 -0.13161186595E+03 -0.57894752582E+03  0.57493508960E+03  0.82646976847E+03  0.50400001928E-02 0.  1.
       -1    1    3    3    0  502  0.13161186595E+03  0.57894752582E+03 -0.19989740398E+03  0.62646699279E+03  0.50400001928E-02 0. -1.
</event>
<event>
 5   0  0.6895048E-04  0.1393964E+04  0.7818609E-02  0.8958200E-01
       -2   -1    0    0    0  501  0.00000000000E+00  0.00000000000E+00  0.31424248848E+03  0.31424248849E+03  0.25500000920E-02 0.  1.
        2   -1    0    0  501    0  0.00000000000E+00  0.00000000000E+00 -0.15458881404E+04  0.15458881404E+04  0.25500000920E-02 0. -1.
    10030    2    1    2    0    0  0.00000000000E+00  0.00000000000E+00 -0.12316456520E+04  0.18601306289E+04  0.13939637530E+04 0.  0.
        4    1    3    3  502    0  0.11385260183E+03  0.17012865770E+02 -0.15331130824E+04  0.15374294094E+04  0.12699999809E+01 0. -1.
       -4    1    3    3    0  502 -0.11385260183E+03 -0.17012865770E+02  0.30146743047E+03  0.32270121952E+03  0.12699999809E+01 0.  1.
</event>
<event>
 5   0  0.3756664E-04  0.1396056E+04  0.7818609E-02  0.8956679E-01
        1   -1    0    0  501    0  0.00000000000E+00  0.00000000000E+00  0.57816901219E+03  0.57816901221E+03  0.50400001928E-02 0.  1.
       -1   -1    0    0    0  501  0.00000000000E+00  0.00000000000E+00 -0.84273439010E+03  0.84273439011E+03  0.50400001928E-02 0. -1.
    10030    2    1    2    0    0  0.00000000000E+00  0.00000000000E+00 -0.26456537791E+03  0.14209034023E+04  0.13960557437E+04 0.  0.
        2    1    3    3  502    0  0.20410544996E+03 -0.33181759829E+03  0.45723349300E+03  0.60068662409E+03  0.25500000920E-02 0.  1.
       -2    1    3    3    0  502 -0.20410544996E+03  0.33181759829E+03 -0.72179887091E+03  0.82021677823E+03  0.25500000920E-02 0. -1.
</event>
<event>
 5   0  0.3756664E-04  0.1472089E+04  0.7818609E-02  0.8903229E-01
       -1   -1    0    0    0  501  0.00000000000E+00  0.00000000000E+00  0.55840597445E+03  0.55840597447E+03  0.50400001928E-02 0. -1.
        1   -1    0    0  501    0  0.00000000000E+00  0.00000000000E+00 -0.97019231203E+03  0.97019231204E+03  0.50400001928E-02 0.  1.
    10030    2    1    2    0    0  0.00000000000E+00  0.00000000000E+00 -0.41178633758E+03  0.15285982865E+04  0.14720885618E+04 0.  0.
        2    1    3    3  502    0  0.22277962327E+02  0.69872499954E+03  0.33270366465E+02  0.69987130951E+03  0.25500000920E-02 0. -1.
       -2    1    3    3    0  502 -0.22277962327E+02 -0.69872499954E+03 -0.44505670404E+03  0.82872697700E+03  0.25500000920E-02 0.  1.
</event>
<event>
 5   0  0.6870835E-04  0.1416624E+04  0.7818609E-02  0.8941873E-01
       -2   -1    0    0    0  501  0.00000000000E+00  0.00000000000E+00  0.33762183992E+03  0.33762183993E+03  0.25500000920E-02 0. -1.
        2   -1    0    0  501    0  0.00000000000E+00  0.00000000000E+00 -0.14859986089E+04  0.14859986089E+04  0.25500000920E-02 0.  1.
    10030    2    1    2    0    0  0.00000000000E+00  0.00000000000E+00 -0.11483767689E+04  0.18236204488E+04  0.14166235695E+04 0.  0.
        2    1    3    3  502    0  0.28771523505E+03  0.46530892973E+03  0.49726407361E+01  0.54709887930E+03  0.25500000920E-02 0. -1.
       -2    1    3    3    0  502 -0.28771523505E+03 -0.46530892973E+03 -0.11533494097E+04  0.12765215695E+04  0.25500000920E-02 0.  1.
</event>
<event>
 5   0  0.3977658E-04  0.1462377E+04  0.7818609E-02  0.8909864E-01
       -1   -1    0    0    0  501  0.00000000000E+00  0.00000000000E+00  0.50778911013E+03  0.50778911016E+03  0.50400001928E-02 0. -1.
        1   -1    0    0  501    0  0.00000000000E+00  0.00000000000E+00 -0.10528720643E+04  0.10528720643E+04  0.50400001928E-02 0.  1.
    10030    2    1    2    0    0  0.00000000000E+00  0.00000000000E+00 -0.54508295414E+03  0.15606611744E+04  0.14623774733E+04 0.  0.
        5    1    3    3  502    0 -0.31836368400E+03  0.17874074944E+03  0.40352557526E+03  0.54420462207E+03  0.46999998093E+01 0. -1.
       -5    1    3    3    0  502  0.31836368400E+03 -0.17874074944E+03 -0.94860852941E+03  0.10164565524E+04  0.46999998093E+01 0.  1.
</event>
<event>
 5   0  0.3907093E-04  0.1410773E+04  0.7818609E-02  0.8946057E-01
        1   -1    0    0  501    0  0.00000000000E+00  0.00000000000E+00  0.51954152487E+03  0.51954152489E+03  0.50400001928E-02 0.  1.
       -1   -1    0    0    0  501  0.00000000000E+00  0.00000000000E+00 -0.95770996875E+03  0.95770996876E+03  0.50400001928E-02 0. -1.
    10030    2    1    2    0    0  0.00000000000E+00  0.00000000000E+00 -0.43816844388E+03  0.14772514937E+04  0.14107729762E+04 0.  0.
        4    1    3    3  502    0  0.50745985000E+03 -0.64705113394E+02  0.28946171849E+03  0.58778563306E+03  0.12699999809E+01 0.  1.
       -4    1    3    3    0  502 -0.50745985000E+03  0.64705113394E+02 -0.72763016237E+03  0.88946586059E+03  0.12699999809E+01 0. -1.
</event>
<event>
 5   0  0.3977658E-04  0.1410136E+04  0.7818609E-02  0.8946514E-01
       -1   -1    0    0    0  501  0.00000000000E+00  0.00000000000E+00  0.65137507944E+03  0.65137507946E+03  0.50400001928E-02 0. -1.
        1   -1    0    0  501    0  0.00000000000E+00  0.00000000000E+00 -0.76318721621E+03  0.76318721623E+03  0.50400001928E-02 0.  1.
    10030    2    1    2    0    0  0.00000000000E+00  0.00000000000E+00 -0.11181213677E+03  0.14145622957E+04  0.14101363531E+04 0.  0.
        5    1    3    3  502    0  0.15749189313E+03  0.60859638531E+03  0.26432273529E+03  0.68196910121E+03  0.46999998093E+01 0. -1.
       -5    1    3    3    0  502 -0.15749189313E+03 -0.60859638531E+03 -0.37613487207E+03  0.73259319448E+03  0.46999998093E+01 0.  1.
</event>
<event>
 5   0  0.6870835E-04  0.1406270E+04  0.7818609E-02  0.8949292E-01
       -2   -1    0    0    0  501  0.00000000000E+00  0.00000000000E+00  0.66632796998E+03  0.66632796998E+03  0.25500000920E-02 0. -1.
        2   -1    0    0  501    0  0.00000000000E+00  0.00000000000E+00 -0.74197540584E+03  0.74197540584E+03  0.25500000920E-02 0.  1.
    10030    2    1    2    0    0  0.00000000000E+00  0.00000000000E+00 -0.75647435863E+02  0.14083033758E+04  0.14062701959E+04 0.  0.
        2    1    3    3  502    0  0.41295555352E+03  0.31949315158E+03 -0.50945131999E+03  0.72948530522E+03  0.25500000920E-02 0.  1.
       -2    1    3    3    0  502 -0.41295555352E+03 -0.31949315158E+03  0.43380388413E+03  0.67881807060E+03  0.25500000920E-02 0. -1.
</event>
<event>
 5   0  0.6870835E-04  0.1404136E+04  0.7818609E-02  0.8950830E-01
        2   -1    0    0  501    0  0.00000000000E+00  0.00000000000E+00  0.13550545267E+04  0.13550545267E+04  0.25500000920E-02 0.  1.
       -2   -1    0    0    0  501  0.00000000000E+00  0.00000000000E+00 -0.36374860902E+03  0.36374860903E+03  0.25500000920E-02 0. -1.
    10030    2    1    2    0    0  0.00000000000E+00  0.00000000000E+00  0.99130591766E+03  0.17188031357E+04  0.14041356049E+04 0.  0.
        2    1    3    3  502    0  0.60316585394E+03 -0.32708899570E+03  0.31366522575E+03  0.75444160299E+03  0.25500000920E-02 0.  1.
       -2    1    3    3    0  502 -0.60316585394E+03  0.32708899570E+03  0.67764069191E+03  0.96436153273E+03  0.25500000920E-02 0. -1.
</event>
<event>
 5   0  0.3784219E-04  0.1404272E+04  0.7818609E-02  0.8950732E-01
       -1   -1    0    0    0  501  0.00000000000E+00  0.00000000000E+00  0.34524348312E+03  0.34524348316E+03  0.50400001928E-02 0. -1.
        1   -1    0    0  501    0  0.00000000000E+00  0.00000000000E+00 -0.14279632589E+04  0.14279632589E+04  0.50400001928E-02 0.  1.
    10030    2    1    2    0    0  0.00000000000E+00  0.00000000000E+00 -0.10827197758E+04  0.17732067421E+04  0.14042720667E+04 0.  0.
        1    1    3    3  502    0  0.62027615623E+03  0.12497021947E+03 -0.92568214597E+03  0.11212704853E+04  0.50400001928E-02 0.  1.
       -1    1    3    3    0  502 -0.62027615623E+03 -0.12497021947E+03 -0.15703762984E+03  0.65193625682E+03  0.50400001928E-02 0. -1.
</event>
<event>
 5   0  0.7296966E-04  0.1408422E+04  0.7818609E-02  0.8947745E-01
       -2   -1    0    0    0  501  0.00000000000E+00  0.00000000000E+00  0.10042889934E+04  0.10042889934E+04  0.25500000920E-02 0.  1.
        2   -1    0    0  501    0  0.00000000000E+00  0.00000000000E+00 -0.49379536239E+03  0.49379536240E+03  0.25500000920E-02 0. -1.
    10030    2    1    2    0    0  0.00000000000E+00  0.00000000000E+00  0.51049363096E+03  0.14980843558E+04  0.14084221632E+04 0.  0.
        3    1    3    3  502    0 -0.42693250568E+03  0.19771252191E+03  0.81258068037E+03  0.93896164887E+03  0.10100000352E+00 0.  1.
       -3    1    3    3    0  502  0.42693250568E+03 -0.19771252191E+03 -0.30208704941E+03  0.55912270689E+03  0.10100000352E+00 0. -1.
</event>
<event>
 5   0  0.7296966E-04  0.1377752E+04  0.7818609E-02  0.8970082E-01
        2   -1    0    0  501    0  0.00000000000E+00  0.00000000000E+00  0.37826812095E+03  0.37826812096E+03  0.25500000920E-02 0. -1.
       -2   -1    0    0    0  501  0.00000000000E+00  0.00000000000E+00 -0.12545335270E+04  0.12545335270E+04  0.25500000920E-02 0.  1.
    10030    2    1    2    0    0  0.00000000000E+00  0.00000000000E+00 -0.87626540605E+03  0.16328016480E+04  0.13777518498E+04 0.  0.
        3    1    3    3  502    0 -0.29715652837E+03 -0.40859308603E+03  0.11685257556E+03  0.51856035996E+03  0.10100000352E+00 0. -1.
       -3    1    3    3    0  502  0.29715652837E+03  0.40859308603E+03 -0.99311798161E+03  0.11142412880E+04  0.10100000352E+00 0.  1.
</event>
<event>
 5   0  0.6895048E-04  0.1397459E+04  0.7818609E-02  0.8955660E-01
        2   -1    0    0  501    0  0.00000000000E+00  0.00000000000E+00  0.15230516551E+04  0.15230516551E+04  0.25500000920E-02 0.  1.
       -2   -1    0    0    0  501  0.00000000000E+00  0.00000000000E+00 -0.32055585863E+03  0.32055585864E+03  0.25500000920E-02 0. -1.
    10030    2    1    2    0    0  0.00000000000E+00  0.00000000000E+00  0.12024957965E+04  0.18436075138E+04  0.13974593104E+04 0.  0.
        4    1    3    3  502    0 -0.49138910013E+03  0.31955819848E+03  0.11029833030E+04  0.12490614355E+04  0.12699999809E+01 0.  1.
       -4    1    3    3    0  502  0.49138910013E+03 -0.31955819848E+03  0.99512493447E+02  0.59454607828E+03  0.12699999809E+01 0. -1.
</event>
<event>
 5   0  0.3907093E-04  0.1400091E+04  0.7818609E-02  0.8953752E-01
        1   -1    0    0  501    0  0.00000000000E+00  0.00000000000E+00  0.76536954409E+03  0.76536954411E+03  0.50400001928E-02 0.  1.
       -1   -1    0    0    0  501  0.00000000000E+00  0.00000000000E+00 -0.64029722687E+03  0.64029722689E+03  0.50400001928E-02 0. -1.
    10030    2    1    2    0    0  0.00000000000E+00  0.00000000000E+00  0.12507231722E+03  0.14056667710E+04  0.14000914208E+04 0.  0.
        4    1    3    3  502    0  0.11638524713E+03 -0.10217259259E+03  0.74795353233E+03  0.76381991585E+03  0.12699999809E+01 0.  1.
       -4    1    3    3    0  502 -0.11638524713E+03  0.10217259259E+03 -0.62288121511E+03  0.64184685515E+03  0.12699999809E+01 0. -1.
</event>
<event>
 5   0  0.3907093E-04  0.1383228E+04  0.7818609E-02  0.8966050E-01
        1   -1    0    0  501    0  0.00000000000E+00  0.00000000000E+00  0.59370594764E+03  0.59370594767E+03  0.50400001928E-02 0. -1.
       -1   -1    0    0    0  501  0.00000000000E+00  0.00000000000E+00 -0.80566759229E+03  0.80566759230E+03  0.50400001928E-02 0.  1.
    10030    2    1    2    0    0  0.00000000000E+00  0.00000000000E+00 -0.21196164464E+03  0.13993735400E+04  0.13832275899E+04 0.  0.
        4    1    3    3  502    0  0.35091397402E+03  0.55649988610E+03 -0.32176680253E+03  0.73237164643E+03  0.12699999809E+01 0.  1.
       -4    1    3    3    0  502 -0.35091397402E+03 -0.55649988610E+03  0.10980515789E+03  0.66700189354E+03  0.12699999809E+01 0. -1.
</event>
<event>
 5   0  0.6959748E-04  0.1395068E+04  0.7818609E-02  0.8957397E-01
       -2   -1    0    0    0  501  0.00000000000E+00  0.00000000000E+00  0.41120610395E+03  0.41120610395E+03  0.25500000920E-02 0.  1.
        2   -1    0    0  501    0  0.00000000000E+00  0.00000000000E+00 -0.11832347415E+04  0.11832347415E+04  0.25500000920E-02 0. -1.
    10030    2    1    2    0    0  0.00000000000E+00  0.00000000000E+00 -0.77202863755E+03  0.15944408454E+04  0.13950675225E+04 0.  0.
        5    1    3    3  502    0  0.43930789629E+03  0.51380969512E+03 -0.58244721525E+03  0.89233327804E+03  0.46999998093E+01 0. -1.
       -5    1    3    3    0  502 -0.43930789629E+03 -0.51380969512E+03 -0.18958142229E+03  0.70210756741E+03  0.46999998093E+01 0.  1.
</event>
<event>
 5   0  0.3907093E-04  0.1403339E+04  0.7818609E-02  0.8951405E-01
       -1   -1    0    0    0  501  0.00000000000E+00  0.00000000000E+00  0.28174519535E+03  0.28174519539E+03  0.50400001928E-02 0. -1.
        1   -1    0    0  501    0  0.00000000000E+00  0.00000000000E+00 -0.17474659020E+04  0.17474659020E+04  0.50400001928E-02 0.  1.
    10030    2    1    2    0    0  0.00000000000E+00  0.00000000000E+00 -0.14657207067E+04  0.20292110974E+04  0.14033390495E+04 0.  0.
        4    1    3    3  502    0  0.28995699230E+02 -0.47637299441E+03 -0.14766190693E+04  0.15518303609E+04  0.12699999809E+01 0. -1.
       -4    1    3    3    0  502 -0.28995699230E+02  0.47637299441E+03  0.10898362609E+02  0.47738073651E+03  0.12699999809E+01 0.  1.
</event>
<event>
 5   0  0.7296966E-04  0.1404032E+04  0.7818609E-02  0.8950905E-01
       -2   -1    0    0    0  501  0.00000000000E+00  0.00000000000E+00  0.33306001812E+03  0.33306001813E+03  0.25500000920E-02 0. -1.
        2   -1    0    0  501    0  0.00000000000E+00  0.00000000000E+00 -0.14796917247E+04  0.14796917247E+04  0.25500000920E-02 0.  1.
    10030    2    1    2    0    0  0.00000000000E+00  0.00000000000E+00 -0.11466317065E+04  0.18127517428E+04  0.14040315561E+04 0.  0.
        3    1    3    3  502    0 -0.96634963795E+01 -0.65462289341E+03 -0.90045647787E+03  0.11133042686E+04  0.10100000352E+00 0.  1.
       -3    1    3    3    0  502  0.96634963795E+01  0.65462289341E+03 -0.24617522867E+03  0.69944747419E+03  0.10100000352E+00 0. -1.
</event>
<event>
 5   0  0.7296966E-04  0.1398294E+04  0.7818609E-02  0.8955054E-01
       -2   -1    0    0    0  501  0.00000000000E+00  0.00000000000E+00  0.31238258002E+03  0.31238258003E+03  0.25500000920E-02 0. -1.
        2   -1    0    0  501    0  0.00000000000E+00  0.00000000000E+00 -0.15647695156E+04  0.15647695156E+04  0.25500000920E-02 0.  1.
    10030    2    1    2    0    0  0.00000000000E+00  0.00000000000E+00 -0.12523869355E+04  0.18771520956E+04  0.13982943015E+04 0.  0.
        3    1    3    3  502    0  0.43647626807E+02 -0.30220564109E+03  0.21814075935E+03  0.37525826563E+03  0.10100000352E+00 0. -1.
       -3    1    3    3    0  502 -0.43647626807E+02  0.30220564109E+03 -0.14705276949E+04  0.15018938300E+04  0.10100000352E+00 0.  1.
</event>
<event>
 5   0  0.3907093E-04  0.1409939E+04  0.7818609E-02  0.8946656E-01
        1   -1    0    0  501    0  0.00000000000E+00  0.00000000000E+00  0.11446894876E+04  0.11446894876E+04  0.50400001928E-02 0. -1.
       -1   -1    0    0    0  501  0.00000000000E+00  0.00000000000E+00 -0.43416305600E+03  0.43416305603E+03  0.50400001928E-02 0.  1.
    10030    2    1    2    0    0  0.00000000000E+00  0.00000000000E+00  0.71052643158E+03  0.15788525436E+04  0.14099388442E+04 0.  0.
        4    1    3    3  502    0 -0.65464557249E+03  0.12789337969E+03  0.61077137235E+03  0.90441186654E+03  0.12699999809E+01 0. -1.
       -4    1    3    3    0  502  0.65464557249E+03 -0.12789337969E+03  0.99755059234E+02  0.67444067708E+03  0.12699999809E+01 0.  1.
</event>
<event>
 5   0  0.3907270E-04  0.1332594E+04  0.7818609E-02  0.9004110E-01
       -1   -1    0    0    0  501  0.00000000000E+00  0.00000000000E+00  0.93491461939E+03  0.93491461941E+03  0.50400001928E-02 0.  1.
        1   -1    0    0  501    0  0.00000000000E+00  0.00000000000E+00 -0.47485821438E+03  0.47485821441E+03  0.50400001928E-02 0. -1.
    10030    2    1    2    0    0  0.00000000000E+00  0.00000000000E+00  0.46005640501E+03  0.14097728338E+04  0.13325942920E+04 0.  0.
        3    1    3    3  502    0  0.55465397656E+03 -0.33831328488E+03  0.38642441738E+03  0.75592377459E+03  0.10100000352E+00 0.  1.
       -3    1    3    3    0  502 -0.55465397656E+03  0.33831328488E+03  0.73631987635E+02  0.65384905923E+03  0.10100000352E+00 0. -1.
</event>
<event>
 5   0  0.3907093E-04  0.1406334E+04  0.7818609E-02  0.8949246E-01
       -1   -1    0    0    0  501  0.00000000000E+00  0.00000000000E+00  0.33125835096E+03  0.33125835100E+03  0.50400001928E-02 0. -1.
        1   -1    0    0  501    0  0.00000000000E+00  0.00000000000E+00 -0.14926229023E+04  0.14926229023E+04  0.50400001928E-02 0.  1.
    10030    2    1    2    0    0  0.00000000000E+00  0.00000000000E+00 -0.11613645513E+04  0.18238812533E+04  0.14063339593E+04 0.  0.
        4    1    3    3  502    0 -0.47154874757E+03  0.46660343777E+03 -0.88307308411E+03  0.11044893274E+04  0.12699999809E+01 0. -1.
       -4    1    3    3    0  502  0.47154874757E+03 -0.46660343777E+03 -0.27829146721E+03  0.71939192593E+03  0.12699999809E+01 0.  1.
</event>
<event>
 5   0  0.6959748E-04  0.1403314E+04  0.7818609E-02  0.8951423E-01
        2   -1    0    0  501    0  0.00000000000E+00  0.00000000000E+00  0.47088304183E+03  0.47088304184E+03  0.25500000920E-02 0. -1.
       -2   -1    0    0    0  501  0.00000000000E+00  0.00000000000E+00 -0.10455299907E+04  0.10455299907E+04  0.25500000920E-02 0.  1.
    10030    2    1    2    0    0  0.00000000000E+00  0.00000000000E+00 -0.57464694884E+03  0.15164130325E+04  0.14033137103E+04 0.  0.
        5    1    3    3  502    0  0.51430481945E+03  0.20394615810E+03  0.17895869780E+03  0.58150820134E+03  0.46999998093E+01 0. -1.
       -5    1    3    3    0  502 -0.51430481945E+03 -0.20394615810E+03 -0.75360564664E+03  0.93490483118E+03  0.46999998093E+01 0.  1.
</event>
<event>
 5   0  0.3907093E-04  0.1393855E+04  0.7818609E-02  0.8958279E-01
        1   -1    0    0  501    0  0.00000000000E+00  0.00000000000E+00  0.15963561742E+04  0.15963561742E+04  0.50400001928E-02 0.  1.
       -1   -1    0    0    0  501  0.00000000000E+00  0.00000000000E+00 -0.30426033599E+03  0.30426033603E+03  0.50400001928E-02 0. -1.
    10030    2    1    2    0    0  0.00000000000E+00  0.00000000000E+00  0.12920958382E+04  0.19006165102E+04  0.13938548934E+04 0.  0.
        4    1    3    3  502    0 -0.24286202703E+03  0.50538016540E+03  0.81663710799E+02  0.56662302310E+03  0.12699999809E+01 0. -1.
       -4    1    3    3    0  502  0.24286202703E+03 -0.50538016540E+03  0.12104321274E+04  0.13339934871E+04  0.12699999809E+01 0.  1.
</event>
<event>
 5   0  0.2660250E-04  0.1385778E+04  0.7818609E-02  0.8964178E-01
        3   -1    0    0  501    0  0.00000000000E+00  0.00000000000E+00  0.11037300772E+04  0.11037300819E+04  0.10100000352E+00 0. -1.
       -3   -1    0    0    0  501  0.00000000000E+00  0.00000000000E+00 -0.43497507288E+03  0.43497508460E+03  0.10100000352E+00 0.  1.
    10030    2    1    2    0    0  0.00000000000E+00  0.00000000000E+00  0.66875500437E+03  0.15387051665E+04  0.13857778803E+04 0.  0.
        1    1    3    3  502    0  0.55509740664E+03  0.69772450861E+02  0.78825839437E+03  0.96661917118E+03  0.50400001928E-02 0. -1.
       -1    1    3    3    0  502 -0.55509740664E+03 -0.69772450861E+02 -0.11950339001E+03  0.57208599529E+03  0.50400001928E-02 0.  1.
</event>
<event>
 5   0  0.3756664E-04  0.1398994E+04  0.7818609E-02  0.8954547E-01
        1   -1    0    0  501    0  0.00000000000E+00  0.00000000000E+00  0.10684626611E+04  0.10684626611E+04  0.50400001928E-02 0. -1.
       -1   -1    0    0    0  501  0.00000000000E+00  0.00000000000E+00 -0.45794410249E+03  0.45794410252E+03  0.50400001928E-02 0.  1.
    10030    2    1    2    0    0  0.00000000000E+00  0.00000000000E+00  0.61051855864E+03  0.15264067637E+04  0.13989941736E+04 0.  0.
        2    1    3    3  502    0 -0.59670331199E+03  0.23423850501E+03 -0.19022550666E+00  0.64103241413E+03  0.25500000920E-02 0.  1.
       -2    1    3    3    0  502  0.59670331199E+03 -0.23423850501E+03  0.61070878415E+03  0.88537434953E+03  0.25500000920E-02 0. -1.
</event>
<event>
 5   0  0.3977658E-04  0.1399224E+04  0.7818609E-02  0.8954380E-01
       -1   -1    0    0    0  501  0.00000000000E+00  0.00000000000E+00  0.71980712719E+03  0.71980712721E+03  0.50400001928E-02 0. -1.
        1   -1    0    0  501    0  0.00000000000E+00  0.00000000000E+00 -0.67998368477E+03  0.67998368479E+03  0.50400001928E-02 0.  1.
    10030    2    1    2    0    0  0.00000000000E+00  0.00000000000E+00  0.39823442418E+02  0.13997908120E+04  0.13992242175E+04 0.  0.
        5    1    3    3  502    0 -0.31640494133E+03 -0.94092792229E+02 -0.59716012652E+03  0.68233997916E+03  0.46999998093E+01 0.  1.
       -5    1    3    3    0  502  0.31640494133E+03  0.94092792229E+02  0.63698356894E+03  0.71745083284E+03  0.46999998093E+01 0. -1.
</event>
<event>
 5   0  0.6870835E-04  0.1395094E+04  0.7818609E-02  0.8957378E-01
        2   -1    0    0  501    0  0.00000000000E+00  0.00000000000E+00  0.70127077641E+03  0.70127077642E+03  0.25500000920E-02 0.  1.
       -2   -1    0    0    0  501  0.00000000000E+00  0.00000000000E+00 -0.69384277033E+03  0.69384277034E+03  0.25500000920E-02 0. -1.
    10030    2    1    2    0    0  0.00000000000E+00  0.00000000000E+00  0.74280060803E+01  0.13951135468E+04  0.13950937721E+04 0.  0.
        2    1    3    3  502    0  0.63459619419E+01 -0.68572353076E+03 -0.12401652930E+03  0.69687669743E+03  0.25500000920E-02 0. -1.
       -2    1    3    3    0  502 -0.63459619419E+01  0.68572353076E+03  0.13144453538E+03  0.69823684933E+03  0.25500000920E-02 0.  1.
</event>
<event>
 5   0  0.6895048E-04  0.1400471E+04  0.7818609E-02  0.8953478E-01
        2   -1    0    0  501    0  0.00000000000E+00  0.00000000000E+00  0.14905602688E+04  0.14905602688E+04  0.25500000920E-02 0.  1.
       -2   -1    0    0    0  501  0.00000000000E+00  0.00000000000E+00 -0.32895645251E+03  0.32895645252E+03  0.25500000920E-02 0. -1.
    10030    2    1    2    0    0  0.00000000000E+00  0.00000000000E+00  0.11616038163E+04  0.18195167213E+04  0.14004705185E+04 0.  0.
        4    1    3    3  502    0 -0.24677556566E+03 -0.54120769728E+03  0.10608517712E+04  0.12162286153E+04  0.12699999809E+01 0.  1.
       -4    1    3    3    0  502  0.24677556566E+03  0.54120769728E+03  0.10075204515E+03  0.60328810605E+03  0.12699999809E+01 0. -1.
</event>
<event>
 5   0  0.7296966E-04  0.1401123E+04  0.7818609E-02  0.8953006E-01
        2   -1    0    0  501    0  0.00000000000E+00  0.00000000000E+00  0.20637591783E+04  0.20637591783E+04  0.25500000920E-02 0. -1.
       -2   -1    0    0    0  501  0.00000000000E+00  0.00000000000E+00 -0.23781203111E+03  0.23781203112E+03  0.25500000920E-02 0.  1.
    10030    2    1    2    0    0  0.00000000000E+00  0.00000000000E+00  0.18259471472E+04  0.23015712094E+04  0.14011234948E+04 0.  0.
        3    1    3    3  502    0 -0.68560087191E+03  0.40293920794E+01  0.67651045236E+03  0.96318803663E+03  0.10100000352E+00 0.  1.
       -3    1    3    3    0  502  0.68560087191E+03 -0.40293920794E+01  0.11494366948E+04  0.13383831728E+04  0.10100000352E+00 0. -1.
</event>
<event>
 5   0  0.3907093E-04  0.1395298E+04  0.7818609E-02  0.8957229E-01
        1   -1    0    0  501    0  0.00000000000E+00  0.00000000000E+00  0.16985993818E+04  0.16985993819E+04  0.50400001928E-02 0. -1.
       -1   -1    0    0    0  501  0.00000000000E+00  0.00000000000E+00 -0.28653859963E+03  0.28653859968E+03  0.50400001928E-02 0.  1.
    10030    2    1    2    0    0  0.00000000000E+00  0.00000000000E+00  0.14120607822E+04  0.19851379815E+04  0.13952982309E+04 0.  0.
        4    1    3    3  502    0 -0.43522673040E+03 -0.36848648226E+03  0.13426115631E+03  0.58586027810E+03  0.12699999809E+01 0.  1.
       -4    1    3    3    0  502  0.43522673040E+03  0.36848648226E+03  0.12777996259E+04  0.13992777034E+04  0.12699999809E+01 0. -1.
</event>
<event>
 5   0  0.3907270E-04  0.1401803E+04  0.7818609E-02  0.8952515E-01
       -1   -1    0    0    0  501  0.00000000000E+00  0.00000000000E+00  0.42683668367E+03  0.42683668370E+03  0.50400001928E-02 0.  1.
        1   -1    0    0  501    0  0.00000000000E+00  0.00000000000E+00 -0.11509384654E+04  0.11509384655E+04  0.50400001928E-02 0. -1.
    10030    2    1    2    0    0  0.00000000000E+00  0.00000000000E+00 -0.72410178177E+03  0.15777751492E+04  0.14018027789E+04 0.  0.
        3    1    3    3  502    0 -0.39730188663E+03  0.48951436621E+03 -0.70674640998E+03  0.94708162376E+03  0.10100000352E+00 0. -1.
       -3    1    3    3    0  502  0.39730188663E+03 -0.48951436621E+03 -0.17355371789E+02  0.63069352540E+03  0.10100000352E+00 0.  1.
</event>
<event>
 5   0  0.3977658E-04  0.1403507E+04  0.7818609E-02  0.8951284E-01
        1   -1    0    0  501    0  0.00000000000E+00  0.00000000000E+00  0.15316886612E+04  0.15316886612E+04  0.50400001928E-02 0. -1.
       -1   -1    0    0    0  501  0.00000000000E+00  0.00000000000E+00 -0.32151311012E+03  0.32151311016E+03  0.50400001928E-02 0.  1.
    10030    2    1    2    0    0  0.00000000000E+00  0.00000000000E+00  0.12101755511E+04  0.18532017714E+04  0.14035070149E+04 0.  0.
        5    1    3    3  502    0  0.16778799730E+03  0.55810107291E+03  0.11212410827E+04  0.12636586862E+04  0.46999998093E+01 0. -1.
       -5    1    3    3    0  502 -0.16778799730E+03 -0.55810107291E+03  0.88934468382E+02  0.58954308519E+03  0.46999998093E+01 0.  1.
</event>
<event>
 5   0  0.3977658E-04  0.1398728E+04  0.7818609E-02  0.8954740E-01
       -1   -1    0    0    0  501  0.00000000000E+00  0.00000000000E+00  0.39905925278E+03  0.39905925281E+03  0.50400001928E-02 0. -1.
        1   -1    0    0  501    0  0.00000000000E+00  0.00000000000E+00 -0.12256580850E+04  0.12256580850E+04  0.50400001928E-02 0.  1.
    10030    2    1    2    0    0  0.00000000000E+00  0.00000000000E+00 -0.82659883221E+03  0.16247173378E+04  0.13987282790E+04 0.  0.
        5    1    3    3  502    0  0.17376823677E+02 -0.11388635080E+03 -0.12145419679E+04  0.12200025970E+04  0.46999998093E+01 0.  1.
       -5    1    3    3    0  502 -0.17376823677E+02  0.11388635080E+03  0.38794313569E+03  0.40471474081E+03  0.46999998093E+01 0. -1.
</event>
<event>
 5   0  0.6870835E-04  0.1392754E+04  0.7818609E-02  0.8959080E-01
       -2   -1    0    0    0  501  0.00000000000E+00  0.00000000000E+00  0.24669564457E+03  0.24669564458E+03  0.25500000920E-02 0. -1.
        2   -1    0    0  501    0  0.00000000000E+00  0.00000000000E+00 -0.19657458362E+04  0.19657458362E+04  0.25500000920E-02 0.  1.
    10030    2    1    2    0    0  0.00000000000E+00  0.00000000000E+00 -0.17190501916E+04  0.22124414808E+04  0.13927540144E+04 0.  0.
        2    1    3    3  502    0 -0.17080263766E+03 -0.27350200038E+03  0.12095633155E+03  0.34439413379E+03  0.25500000920E-02 0. -1.
       -2    1    3    3    0  502  0.17080263766E+03  0.27350200038E+03 -0.18400065232E+04  0.18680473470E+04  0.25500000920E-02 0.  1.
</event>
<event>
 5   0  0.6870835E-04  0.1354976E+04  0.7818609E-02  0.8987070E-01
       -2   -1    0    0    0  501  0.00000000000E+00  0.00000000000E+00  0.53682722937E+03  0.53682722938E+03  0.25500000920E-02 0. -1.
        2   -1    0    0  501    0  0.00000000000E+00  0.00000000000E+00 -0.85500541986E+03  0.85500541986E+03  0.25500000920E-02 0.  1.
    10030    2    1    2    0    0  0.00000000000E+00  0.00000000000E+00 -0.31817819049E+03  0.13918326492E+04  0.13549762959E+04 0.  0.
        2    1    3    3  502    0 -0.61758126097E+03  0.99961241876E+02  0.10796596292E+03  0.63486653159E+03  0.25500000920E-02 0. -1.
       -2    1    3    3    0  502  0.61758126097E+03 -0.99961241876E+02 -0.42614415340E+03  0.75696611765E+03  0.25500000920E-02 0.  1.
</event>
<event>
 5   0  0.3907270E-04  0.1403378E+04  0.7818609E-02  0.8951377E-01
       -1   -1    0    0    0  501  0.00000000000E+00  0.00000000000E+00  0.90289448904E+03  0.90289448906E+03  0.50400001928E-02 0.  1.
        1   -1    0    0  501    0  0.00000000000E+00  0.00000000000E+00 -0.54532108570E+03  0.54532108572E+03  0.50400001928E-02 0. -1.
    10030    2    1    2    0    0  0.00000000000E+00  0.00000000000E+00  0.35757340335E+03  0.14482155748E+04  0.14033779292E+04 0.  0.
        3    1    3    3  502    0  0.18013871624E+03 -0.49708145966E+03 -0.29728503683E+03  0.60656272384E+03  0.10100000352E+00 0.  1.
       -3    1    3    3    0  502 -0.18013871624E+03  0.49708145966E+03  0.65485844017E+03  0.84165285094E+03  0.10100000352E+00 0. -1.
</event>
<event>
 5   0  0.3784219E-04  0.1400692E+04  0.7818609E-02  0.8953317E-01
       -1   -1    0    0    0  501  0.00000000000E+00  0.00000000000E+00  0.11162128684E+04  0.11162128684E+04  0.50400001928E-02 0.  1.
        1   -1    0    0  501    0  0.00000000000E+00  0.00000000000E+00 -0.43941874665E+03  0.43941874668E+03  0.50400001928E-02 0. -1.
    10030    2    1    2    0    0  0.00000000000E+00  0.00000000000E+00  0.67679412176E+03  0.15556316151E+04  0.14006924854E+04 0.  0.
        1    1    3    3  502    0  0.46250478683E+02  0.69541720858E+03  0.41486569170E+03  0.81108430077E+03  0.50400001928E-02 0. -1.
       -1    1    3    3    0  502 -0.46250478683E+02 -0.69541720858E+03  0.26192843006E+03  0.74454731433E+03  0.50400001928E-02 0.  1.
</event>
<event>
 5   0  0.7065539E-04  0.1396739E+04  0.7818609E-02  0.8956183E-01
        2   -1    0    0  501    0  0.00000000000E+00  0.00000000000E+00  0.41126164301E+03  0.41126164302E+03  0.25500000920E-02 0. -1.
       -2   -1    0    0    0  501  0.00000000000E+00  0.00000000000E+00 -0.11859110087E+04  0.11859110087E+04  0.25500000920E-02 0.  1.
    10030    2    1    2    0    0  0.00000000000E+00  0.00000000000E+00 -0.77464936570E+03  0.15971726517E+04  0.13967386440E+04 0.  0.
        1    1    3    3  502    0  0.62421790954E+03 -0.30313784562E+03 -0.47721260902E+03  0.84218313108E+03  0.50400001928E-02 0. -1.
       -1    1    3    3    0  502 -0.62421790954E+03  0.30313784562E+03 -0.29743675667E+03  0.75498952064E+03  0.50400001928E-02 0.  1.
</event>
<event>
 5   0  0.6959748E-04  0.1400799E+04  0.7818609E-02  0.8953240E-01
        2   -1    0    0  501    0  0.00000000000E+00  0.00000000000E+00  0.78842976595E+03  0.78842976595E+03  0.25500000920E-02 0. -1.
       -2   -1    0    0    0  501  0.00000000000E+00  0.00000000000E+00 -0.62219817059E+03  0.62219817059E+03  0.25500000920E-02 0.  1.
    10030    2    1    2    0    0  0.00000000000E+00  0.00000000000E+00  0.16623159536E+03  0.14106279365E+04  0.14007991405E+04 0.  0.
        5    1    3    3  502    0  0.39225413738E+03  0.71364397250E+02 -0.49675550632E+03  0.63698061865E+03  0.46999998093E+01 0.  1.
       -5    1    3    3    0  502 -0.39225413738E+03 -0.71364397250E+02  0.66298710168E+03  0.77364731789E+03  0.46999998093E+01 0. -1.
</event>
<event>
 5   0  0.3756664E-04  0.1417807E+04  0.7818609E-02  0.8941029E-01
       -1   -1    0    0    0  501  0.00000000000E+00  0.00000000000E+00  0.41997098813E+03  0.41997098816E+03  0.50400001928E-02 0. -1.
        1   -1    0    0  501    0  0.00000000000E+00  0.00000000000E+00 -0.11966158305E+04  0.11966158305E+04  0.50400001928E-02 0.  1.
    10030    2    1    2    0    0  0.00000000000E+00  0.00000000000E+00 -0.77664484240E+03  0.16165868187E+04  0.14178066621E+04 0.  0.
        2    1    3    3  502    0  0.35413462993E+03  0.14080284688E+03  0.29323566863E+03  0.48085749986E+03  0.25500000920E-02 0. -1.
       -2    1    3    3    0  502 -0.35413462993E+03 -0.14080284688E+03 -0.10698805110E+04  0.11357293189E+04  0.25500000920E-02 0.  1.
</event>
<event>
 5   0  0.3756664E-04  0.1402245E+04  0.7818609E-02  0.8952195E-01
        1   -1    0    0  501    0  0.00000000000E+00  0.00000000000E+00  0.49948882019E+03  0.49948882021E+03  0.50400001928E-02 0. -1.
       -1   -1    0    0    0  501  0.00000000000E+00  0.00000000000E+00 -0.98415125858E+03  0.98415125859E+03  0.50400001928E-02 0.  1.
    10030    2    1    2    0    0  0.00000000000E+00  0.00000000000E+00 -0.48466243839E+03  0.14836400788E+04  0.14022447020E+04 0.  0.
        2    1    3    3  502    0  0.23045750316E+03  0.52792509145E+03 -0.66522829394E+03  0.87996832102E+03  0.25500000920E-02 0.  1.
       -2    1    3    3    0  502 -0.23045750316E+03 -0.52792509145E+03  0.18056585555E+03  0.60367175778E+03  0.25500000920E-02 0. -1.
</event>
<event>
 5   0  0.3907270E-04  0.1398013E+04  0.7818609E-02  0.8955258E-01
        1   -1    0    0  501    0  0.00000000000E+00  0.00000000000E+00  0.99487321351E+03  0.99487321352E+03  0.50400001928E-02 0.  1.
       -1   -1    0    0    0  501  0.00000000000E+00  0.00000000000E+00 -0.49112832194E+03  0.49112832196E+03  0.50400001928E-02 0. -1.
    10030    2    1    2    0    0  0.00000000000E+00  0.00000000000E+00  0.50374489158E+03  0.14860015355E+04  0.13980134648E+04 0.  0.
        3    1    3    3  502    0 -0.27375842155E+03 -0.53845762811E+03  0.62576395720E+03  0.86974756738E+03  0.10100000352E+00 0.  1.
       -3    1    3    3    0  502  0.27375842155E+03  0.53845762811E+03 -0.12201906562E+03  0.61625396811E+03  0.10100000352E+00 0. -1.
</event>
<event>
 5   0  0.7296966E-04  0.1400118E+04  0.7818609E-02  0.8953733E-01
        2   -1    0    0  501    0  0.00000000000E+00  0.00000000000E+00  0.12332076597E+04  0.12332076597E+04  0.25500000920E-02 0. -1.
       -2   -1    0    0    0  501  0.00000000000E+00  0.00000000000E+00 -0.39740487068E+03  0.39740487069E+03  0.25500000920E-02 0.  1.
    10030    2    1    2    0    0  0.00000000000E+00  0.00000000000E+00  0.83580278902E+03  0.16306125304E+04  0.14001181815E+04 0.  0.
        3    1    3    3  502    0  0.37527783010E+03  0.45046159889E+03  0.86341209131E+03  0.10436616077E+04  0.10100000352E+00 0. -1.
       -3    1    3    3    0  502 -0.37527783010E+03 -0.45046159889E+03 -0.27609302295E+02  0.58695092266E+03  0.10100000352E+00 0.  1.
</event>
<event>
 5   0  0.3977658E-04  0.1398398E+04  0.7818609E-02  0.8954979E-01
        1   -1    0    0  501    0  0.00000000000E+00  0.00000000000E+00  0.13071635469E+04  0.13071635469E+04  0.50400001928E-02 0.  1.
       -1   -1    0    0    0  501  0.00000000000E+00  0.00000000000E+00 -0.37399993181E+03  0.37399993184E+03  0.50400001928E-02 0. -1.
    10030    2    1    2    0    0  0.00000000000E+00  0.00000000000E+00  0.93316361506E+03  0.16811634787E+04  0.13983977652E+04 0.  0.
        5    1    3    3  502    0 -0.17147512054E+02 -0.47294082208E+03  0.10853271590E+04  0.11840287963E+04  0.46999998093E+01 0.  1.
       -5    1    3    3    0  502  0.17147512054E+02  0.47294082208E+03 -0.15216354395E+03  0.49713468242E+03  0.46999998093E+01 0. -1.
</event>
<event>
 5   0  0.3756664E-04  0.1407181E+04  0.7818609E-02  0.8948637E-01
        1   -1    0    0  501    0  0.00000000000E+00  0.00000000000E+00  0.99111204362E+03  0.99111204364E+03  0.50400001928E-02 0. -1.
       -1   -1    0    0    0  501  0.00000000000E+00  0.00000000000E+00 -0.49947876575E+03  0.49947876578E+03  0.50400001928E-02 0.  1.
    10030    2    1    2    0    0  0.00000000000E+00  0.00000000000E+00  0.49163327787E+03  0.14905908094E+04  0.14071807564E+04 0.  0.
        2    1    3    3  502    0 -0.49850342339E+03  0.43712620126E+03 -0.36294614578E+01  0.66302198452E+03  0.25500000920E-02 0.  1.
       -2    1    3    3    0  502  0.49850342339E+03 -0.43712620126E+03  0.49526273933E+03  0.82756882489E+03  0.25500000920E-02 0. -1.
</event>
<event>
 5   0  0.7296966E-04  0.1406605E+04  0.7818609E-02  0.8949052E-01
        2   -1    0    0  501    0  0.00000000000E+00  0.00000000000E+00  0.14680840299E+04  0.14680840299E+04  0.25500000920E-02 0. -1.
       -2   -1    0    0    0  501  0.00000000000E+00  0.00000000000E+00 -0.33692493737E+03  0.33692493738E+03  0.25500000920E-02 0.  1.
    10030    2    1    2    0    0  0.00000000000E+00  0.00000000000E+00  0.11311590925E+04  0.18050089673E+04  0.14066045924E+04 0.  0.
        3    1    3    3  502    0  0.61274534436E+03 -0.29480222771E+03  0.79609466133E+03  0.10469631944E+04  0.10100000352E+00 0. -1.
       -3    1    3    3    0  502 -0.61274534436E+03  0.29480222771E+03  0.33506443122E+03  0.75804577287E+03  0.10100000352E+00 0.  1.
</event>
<event>
 5   0  0.6959748E-04  0.1396031E+04  0.7818609E-02  0.8956697E-01
        2   -1    0    0  501    0  0.00000000000E+00  0.00000000000E+00  0.80748936925E+03  0.80748936926E+03  0.25500000920E-02 0.  1.
       -2   -1    0    0    0  501  0.00000000000E+00  0.00000000000E+00 -0.60338333954E+03  0.60338333954E+03  0.25500000920E-02 0. -1.
    10030    2    1    2    0    0  0.00000000000E+00  0.00000000000E+00  0.20410602971E+03  0.14108727088E+04  0.13960309914E+04 0.  0.
        5    1    3    3  502    0  0.58674812117E+02 -0.30629880707E+03  0.73314504666E+03  0.79673423563E+03  0.46999998093E+01 0.  1.
       -5    1    3    3    0  502 -0.58674812117E+02  0.30629880707E+03 -0.52903901694E+03  0.61413847317E+03  0.46999998093E+01 0. -1.
</event>
<event>
 5   0  0.6959748E-04  0.1454223E+04  0.7818609E-02  0.8915478E-01
       -2   -1    0    0    0  501  0.00000000000E+00  0.00000000000E+00  0.62954825840E+03  0.62954825841E+03  0.25500000920E-02 0.  1.
        2   -1    0    0  501    0  0.00000000000E+00  0.00000000000E+00 -0.83979439449E+03  0.83979439449E+03  0.25500000920E-02 0. -1.
    10030    2    1    2    0    0  0.00000000000E+00  0.00000000000E+00 -0.21024613608E+03  0.14693426529E+04  0.14542229519E+04 0.  0.
        5    1    3    3  502    0  0.12950909377E+03 -0.28660236501E+03  0.55725021432E+03  0.63989328200E+03  0.46999998093E+01 0.  1.
       -5    1    3    3    0  502 -0.12950909377E+03  0.28660236501E+03 -0.76749635041E+03  0.82944937090E+03  0.46999998093E+01 0. -1.
</event>
<event>
 5   0  0.6959748E-04  0.1404082E+04  0.7818609E-02  0.8950869E-01
        2   -1    0    0  501    0  0.00000000000E+00  0.00000000000E+00  0.74726716606E+03  0.74726716607E+03  0.25500000920E-02 0.  1.
       -2   -1    0    0    0  501  0.00000000000E+00  0.00000000000E+00 -0.65955197201E+03  0.65955197201E+03  0.25500000920E-02 0. -1.
    10030    2    1    2    0    0  0.00000000000E+00  0.00000000000E+00  0.87715194057E+02  0.14068191381E+04  0.14040819534E+04 0.  0.
        5    1    3    3  502    0 -0.14596112779E+03  0.57282108938E+02  0.72948213241E+03  0.74615826896E+03  0.46999998093E+01 0.  1.
       -5    1    3    3    0  502  0.14596112779E+03 -0.57282108938E+02 -0.64176693835E+03  0.66066086912E+03  0.46999998093E+01 0. -1.
</event>
<event>
 5   0  0.6870835E-04  0.1397128E+04  0.7818609E-02  0.8955900E-01
       -2   -1    0    0    0  501  0.00000000000E+00  0.00000000000E+00  0.13434368463E+04  0.13434368463E+04  0.25500000920E-02 0. -1.
        2   -1    0    0  501    0  0.00000000000E+00  0.00000000000E+00 -0.36324124307E+03  0.36324124308E+03  0.25500000920E-02 0.  1.
    10030    2    1    2    0    0  0.00000000000E+00  0.00000000000E+00  0.98019560322E+03  0.17066780894E+04  0.13971280114E+04 0.  0.
        2    1    3    3  502    0  0.22070299516E+03  0.45546445388E+03  0.10782692884E+04  0.11911432908E+04  0.25500000920E-02 0. -1.
       -2    1    3    3    0  502 -0.22070299516E+03 -0.45546445388E+03 -0.98073685206E+02  0.51553479859E+03  0.25500000920E-02 0.  1.
</event>
<event>
 5   0  0.6895048E-04  0.1409143E+04  0.7818609E-02  0.8947227E-01
       -2   -1    0    0    0  501  0.00000000000E+00  0.00000000000E+00  0.57059430968E+03  0.57059430969E+03  0.25500000920E-02 0.  1.
        2   -1    0    0  501    0  0.00000000000E+00  0.00000000000E+00 -0.87000710832E+03  0.87000710832E+03  0.25500000920E-02 0. -1.
    10030    2    1    2    0    0  0.00000000000E+00  0.00000000000E+00 -0.29941279864E+03  0.14406014180E+04  0.14091431516E+04 0.  0.
        4    1    3    3  502    0 -0.17010917003E+03 -0.61720602726E+03 -0.45044894204E+03  0.78280666330E+03  0.12699999809E+01 0. -1.
       -4    1    3    3    0  502  0.17010917003E+03  0.61720602726E+03  0.15103614341E+03  0.65779475471E+03  0.12699999809E+01 0.  1.
</event>
<event>
 5   0  0.7296966E-04  0.1442197E+04  0.7818609E-02  0.8923828E-01
       -2   -1    0    0    0  501  0.00000000000E+00  0.00000000000E+00  0.25597946093E+03  0.25597946095E+03  0.25500000920E-02 0.  1.
        2   -1    0    0  501    0  0.00000000000E+00  0.00000000000E+00 -0.20313468002E+04  0.20313468002E+04  0.25500000920E-02 0. -1.
    10030    2    1    2    0    0  0.00000000000E+00  0.00000000000E+00 -0.17753673392E+04  0.22873262611E+04  0.14421970169E+04 0.  0.
        3    1    3    3  502    0  0.54643430161E+03 -0.13513678858E+02 -0.16336270850E+04  0.17226463736E+04  0.10100000352E+00 0. -1.
       -3    1    3    3    0  502 -0.54643430161E+03  0.13513678858E+02 -0.14174025426E+03  0.56467988752E+03  0.10100000352E+00 0.  1.
</event>
<event>
 5   0  0.6959748E-04  0.1334324E+04  0.7818609E-02  0.9002780E-01
        2   -1    0    0  501    0  0.00000000000E+00  0.00000000000E+00  0.32709181951E+03  0.32709181952E+03  0.25500000920E-02 0.  1.
       -2   -1    0    0    0  501  0.00000000000E+00  0.00000000000E+00 -0.13607951848E+04  0.13607951848E+04  0.25500000920E-02 0. -1.
    10030    2    1    2    0    0  0.00000000000E+00  0.00000000000E+00 -0.10337033653E+04  0.16878870043E+04  0.13343237583E+04 0.  0.
        5    1    3    3  502    0  0.58724047200E+03 -0.26519480423E+03 -0.73559821542E+03  0.97790923949E+03  0.46999998093E+01 0. -1.
       -5    1    3    3    0  502 -0.58724047200E+03  0.26519480423E+03 -0.29810514984E+03  0.70997776480E+03  0.46999998093E+01 0.  1.
</event>
<event>
 5   0  0.6895048E-04  0.1392561E+04  0.7818609E-02  0.8959221E-01
        2   -1    0    0  501    0  0.00000000000E+00  0.00000000000E+00  0.12148529831E+04  0.12148529831E+04  0.25500000920E-02 0.  1.
       -2   -1    0    0    0  501  0.00000000000E+00  0.00000000000E+00 -0.39906600700E+03  0.39906600701E+03  0.25500000920E-02 0. -1.
    10030    2    1    2    0    0  0.00000000000E+00  0.00000000000E+00  0.81578697612E+03  0.16139189901E+04  0.13925609920E+04 0.  0.
        4    1    3    3  502    0 -0.53415338731E+03  0.27396810151E+03  0.81670587224E+03  0.10136017248E+04  0.12699999809E+01 0.  1.
       -4    1    3    3    0  502  0.53415338731E+03 -0.27396810151E+03 -0.91889612111E+00  0.60031726536E+03  0.12699999809E+01 0. -1.
</event>
<event>
 5   0  0.2660250E-04  0.1403102E+04  0.7818609E-02  0.8951577E-01
        3   -1    0    0  501    0  0.00000000000E+00  0.00000000000E+00  0.17073941417E+04  0.17073941447E+04  0.10100000352E+00 0. -1.
       -3   -1    0    0    0  501  0.00000000000E+00  0.00000000000E+00 -0.28826001644E+03  0.28826003413E+03  0.10100000352E+00 0.  1.
    10030    2    1    2    0    0  0.00000000000E+00  0.00000000000E+00  0.14191341253E+04  0.19956541789E+04  0.14031015416E+04 0.  0.
        2    1    3    3  502    0  0.19033143228E+03  0.64569894497E+03  0.42860900026E+03  0.79803437066E+03  0.25500000920E-02 0.  1.
       -2    1    3    3    0  502 -0.19033143228E+03 -0.64569894497E+03  0.99052512504E+03  0.11976198082E+04  0.25500000920E-02 0. -1.
</event>
<event>
 5   0  0.7065539E-04  0.1381215E+04  0.7818609E-02  0.8967529E-01
        2   -1    0    0  501    0  0.00000000000E+00  0.00000000000E+00  0.90677391588E+03  0.90677391589E+03  0.25500000920E-02 0.  1.
       -2   -1    0    0    0  501  0.00000000000E+00  0.00000000000E+00 -0.52597336081E+03  0.52597336082E+03  0.25500000920E-02 0. -1.
    10030    2    1    2    0    0  0.00000000000E+00  0.00000000000E+00  0.38080055507E+03  0.14327472767E+04  0.13812152968E+04 0.  0.
        1    1    3    3  502    0 -0.33604184439E+02 -0.10471429492E+03 -0.51683205473E+03  0.52840296895E+03  0.50400001928E-02 0. -1.
       -1    1    3    3    0  502  0.33604184439E+02  0.10471429492E+03  0.89763260980E+03  0.90434430776E+03  0.50400001928E-02 0.  1.
</event>
<event>
 5   0  0.3756664E-04  0.1357531E+04  0.7818609E-02  0.8985146E-01
        1   -1    0    0  501    0  0.00000000000E+00  0.00000000000E+00  0.58754960427E+03  0.58754960429E+03  0.50400001928E-02 0.  1.
       -1   -1    0    0    0  501  0.00000000000E+00  0.00000000000E+00 -0.78414303157E+03  0.78414303158E+03  0.50400001928E-02 0. -1.
    10030    2    1    2    0    0  0.00000000000E+00  0.00000000000E+00 -0.19659342730E+03  0.13716926359E+04  0.13575314772E+04 0.  0.
        2    1    3    3  502    0  0.19718870935E+02 -0.67787263046E+03 -0.12728026785E+03  0.69000029245E+03  0.25500000920E-02 0. -1.
       -2    1    3    3    0  502 -0.19718870935E+02  0.67787263046E+03 -0.69313159447E+02  0.68169234342E+03  0.25500000920E-02 0.  1.
</event>
<event>
 5   0  0.7296966E-04  0.1395358E+04  0.7818609E-02  0.8957185E-01
        2   -1    0    0  501    0  0.00000000000E+00  0.00000000000E+00  0.10873017642E+04  0.10873017642E+04  0.25500000920E-02 0.  1.
       -2   -1    0    0    0  501  0.00000000000E+00  0.00000000000E+00 -0.44767338113E+03  0.44767338114E+03  0.25500000920E-02 0. -1.
    10030    2    1    2    0    0  0.00000000000E+00  0.00000000000E+00  0.63962838303E+03  0.15349751453E+04  0.13953581004E+04 0.  0.
        3    1    3    3  502    0  0.47824697466E+03  0.24015831081E+02  0.87798845537E+03  0.10000803302E+04  0.10100000352E+00 0.  1.
       -3    1    3    3    0  502 -0.47824697466E+03 -0.24015831081E+02 -0.23836007234E+03  0.53489481508E+03  0.10100000352E+00 0. -1.
</event>
<event>
 5   0  0.3907093E-04  0.1376168E+04  0.7818609E-02  0.8971252E-01
        1   -1    0    0  501    0  0.00000000000E+00  0.00000000000E+00  0.21524744541E+04  0.21524744541E+04  0.50400001928E-02 0.  1.
       -1   -1    0    0    0  501  0.00000000000E+00  0.00000000000E+00 -0.21996059293E+03  0.21996059299E+03  0.50400001928E-02 0. -1.
    10030    2    1    2    0    0  0.00000000000E+00  0.00000000000E+00  0.19325138612E+04  0.23724350471E+04  0.13761679509E+04 0.  0.
        4    1    3    3  502    0 -0.39456519306E+03 -0.34795057698E+03  0.20166024454E+03  0.56340017991E+03  0.12699999809E+01 0. -1.
       -4    1    3    3    0  502  0.39456519306E+03  0.34795057698E+03  0.17308536166E+04  0.18090348672E+04  0.12699999809E+01 0.  1.
</event>
<event>
 5   0  0.3784219E-04  0.1392852E+04  0.7818609E-02  0.8959009E-01
        1   -1    0    0  501    0  0.00000000000E+00  0.00000000000E+00  0.53022017323E+03  0.53022017325E+03  0.50400001928E-02 0.  1.
       -1   -1    0    0    0  501  0.00000000000E+00  0.00000000000E+00 -0.91473145822E+03  0.91473145823E+03  0.50400001928E-02 0. -1.
    10030    2    1    2    0    0  0.00000000000E+00  0.00000000000E+00 -0.38451128499E+03  0.14449516315E+04  0.13928518547E+04 0.  0.
        1    1    3    3  502    0 -0.62075016175E+03 -0.72361223458E+02  0.12655392326E+03  0.63763845986E+03  0.50400001928E-02 0.  1.
       -1    1    3    3    0  502  0.62075016175E+03  0.72361223458E+02 -0.51106520825E+03  0.80731317163E+03  0.50400001928E-02 0. -1.
</event>
<event>
 5   0  0.3977658E-04  0.1344561E+04  0.7818609E-02  0.8994955E-01
       -1   -1    0    0    0  501  0.00000000000E+00  0.00000000000E+00  0.99197221025E+03  0.99197221026E+03  0.50400001928E-02 0.  1.
        1   -1    0    0  501    0  0.00000000000E+00  0.00000000000E+00 -0.45561896056E+03  0.45561896059E+03  0.50400001928E-02 0. -1.
    10030    2    1    2    0    0  0.00000000000E+00  0.00000000000E+00  0.53635324969E+03  0.14475911708E+04  0.13445614116E+04 0.  0.
        5    1    3    3  502    0  0.23593230023E+03 -0.14198484268E+02  0.94574516929E+03  0.97484442989E+03  0.46999998093E+01 0.  1.
       -5    1    3    3    0  502 -0.23593230023E+03  0.14198484268E+02 -0.40939191961E+03  0.47274674096E+03  0.46999998093E+01 0. -1.
</event>
<event>
 5   0  0.6895048E-04  0.1389072E+04  0.7818609E-02  0.8961767E-01
       -2   -1    0    0    0  501  0.00000000000E+00  0.00000000000E+00  0.23907970499E+03  0.23907970500E+03  0.25500000920E-02 0. -1.
        2   -1    0    0  501    0  0.00000000000E+00  0.00000000000E+00 -0.20176550576E+04  0.20176550576E+04  0.25500000920E-02 0.  1.
    10030    2    1    2    0    0  0.00000000000E+00  0.00000000000E+00 -0.17785753526E+04  0.22567347626E+04  0.13890721737E+04 0.  0.
        4    1    3    3  502    0 -0.44271488367E+03 -0.18446401276E+03 -0.73152790770E+02  0.48515604079E+03  0.12699999809E+01 0. -1.
       -4    1    3    3    0  502  0.44271488367E+03  0.18446401276E+03 -0.17054225618E+04  0.17715787218E+04  0.12699999809E+01 0.  1.
</event>
<event>
 5   0  0.3756664E-04  0.1405631E+04  0.7818609E-02  0.8949752E-01
       -1   -1    0    0    0  501  0.00000000000E+00  0.00000000000E+00  0.92135326887E+03  0.92135326889E+03  0.50400001928E-02 0. -1.
        1   -1    0    0  501    0  0.00000000000E+00  0.00000000000E+00 -0.53611330795E+03  0.53611330797E+03  0.50400001928E-02 0.  1.
    10030    2    1    2    0    0  0.00000000000E+00  0.00000000000E+00  0.38523996093E+03  0.14574665769E+04  0.14056311732E+04 0.  0.
        2    1    3    3  502    0 -0.33327827216E+03  0.17118044502E+03  0.80916745543E+03  0.89170013030E+03  0.25500000920E-02 0. -1.
       -2    1    3    3    0  502  0.33327827216E+03 -0.17118044502E+03 -0.42392749450E+03  0.56576644656E+03  0.25500000920E-02 0.  1.
</event>
<event>
 5   0  0.6870835E-04  0.1402953E+04  0.7818609E-02  0.8951684E-01
        2   -1    0    0  501    0  0.00000000000E+00  0.00000000000E+00  0.52293077466E+03  0.52293077467E+03  0.25500000920E-02 0.  1.
       -2   -1    0    0    0  501  0.00000000000E+00  0.00000000000E+00 -0.94098324753E+03  0.94098324753E+03  0.25500000920E-02 0. -1.
    10030    2    1    2    0    0  0.00000000000E+00  0.00000000000E+00 -0.41805247286E+03  0.14639140222E+04  0.14029527413E+04 0.  0.
        2    1    3    3  502    0  0.41809700369E+03  0.41072814933E+03 -0.61121765644E+03  0.84681151427E+03  0.25500000920E-02 0. -1.
       -2    1    3    3    0  502 -0.41809700369E+03 -0.41072814933E+03  0.19316518358E+03  0.61710250793E+03  0.25500000920E-02 0.  1.
</event>
<event>
 5   0  0.7065539E-04  0.1400181E+04  0.7818609E-02  0.8953688E-01
       -2   -1    0    0    0  501  0.00000000000E+00  0.00000000000E+00  0.49583950140E+03  0.49583950140E+03  0.25500000920E-02 0.  1.
        2   -1    0    0  501    0  0.00000000000E+00  0.00000000000E+00 -0.98847817708E+03  0.98847817709E+03  0.25500000920E-02 0. -1.
    10030    2    1    2    0    0  0.00000000000E+00  0.00000000000E+00 -0.49263867569E+03  0.14843176785E+04  0.14001807404E+04 0.  0.
        1    1    3    3  502    0 -0.15976754907E+03  0.17101527887E+02  0.47602791951E+03  0.50241488052E+03  0.50400001928E-02 0.  1.
       -1    1    3    3    0  502  0.15976754907E+03 -0.17101527887E+02 -0.96866659520E+03  0.98190279797E+03  0.50400001928E-02 0. -1.
</event>
<event>
 5   0  0.6959748E-04  0.1417552E+04  0.7818609E-02  0.8941211E-01
        2   -1    0    0  501    0  0.00000000000E+00  0.00000000000E+00  0.27244356008E+04  0.27244356008E+04  0.25500000920E-02 0.  1.
       -2   -1    0    0    0  501  0.00000000000E+00  0.00000000000E+00 -0.18439177499E+03  0.18439177501E+03  0.25500000920E-02 0. -1.
    10030    2    1    2    0    0  0.00000000000E+00  0.00000000000E+00  0.25400438258E+04  0.29088273758E+04  0.14175521385E+04 0.  0.
        5    1    3    3  502    0 -0.22899805190E+03 -0.54755677018E+03  0.47506330441E+03  0.76024059188E+03  0.46999998093E+01 0. -1.
       -5    1    3    3    0  502  0.22899805190E+03  0.54755677018E+03  0.20649805214E+04  0.21485867840E+04  0.46999998093E+01 0.  1.
</event>
<event>
 5   0  0.3756664E-04  0.1405327E+04  0.7818609E-02  0.8949972E-01
       -1   -1    0    0    0  501  0.00000000000E+00  0.00000000000E+00  0.65324082933E+03  0.65324082934E+03  0.50400001928E-02 0.  1.
        1   -1    0    0  501    0  0.00000000000E+00  0.00000000000E+00 -0.75582548206E+03  0.75582548208E+03  0.50400001928E-02 0. -1.
    10030    2    1    2    0    0  0.00000000000E+00  0.00000000000E+00 -0.10258465274E+03  0.14090663114E+04  0.14053271004E+04 0.  0.
        2    1    3    3  502    0 -0.36518370986E+03 -0.21283605450E+03  0.51151905202E+03  0.66355863993E+03  0.25500000920E-02 0.  1.
       -2    1    3    3    0  502  0.36518370986E+03  0.21283605450E+03 -0.61410370476E+03  0.74550767149E+03  0.25500000920E-02 0. -1.
</event>
<event>
 5   0  0.3907093E-04  0.1391559E+04  0.7818609E-02  0.8959951E-01
        1   -1    0    0  501    0  0.00000000000E+00  0.00000000000E+00  0.68241969309E+03  0.68241969311E+03  0.50400001928E-02 0. -1.
       -1   -1    0    0    0  501  0.00000000000E+00  0.00000000000E+00 -0.70940116564E+03  0.70940116565E+03  0.50400001928E-02 0.  1.
    10030    2    1    2    0    0  0.00000000000E+00  0.00000000000E+00 -0.26981472541E+02  0.13918208588E+04  0.13915593063E+04 0.  0.
        4    1    3    3  502    0  0.62204759827E+03  0.30820595419E+03 -0.60121255340E+02  0.69681439634E+03  0.12699999809E+01 0. -1.
       -4    1    3    3    0  502 -0.62204759827E+03 -0.30820595419E+03  0.33139782799E+02  0.69500646242E+03  0.12699999809E+01 0.  1.
</event>
<event>
 5   0  0.6895048E-04  0.1400774E+04  0.7818609E-02  0.8953259E-01
        2   -1    0    0  501    0  0.00000000000E+00  0.00000000000E+00  0.10892959939E+04  0.10892959939E+04  0.25500000920E-02 0.  1.
       -2   -1    0    0    0  501  0.00000000000E+00  0.00000000000E+00 -0.45032906456E+03  0.45032906457E+03  0.25500000920E-02 0. -1.
    10030    2    1    2    0    0  0.00000000000E+00  0.00000000000E+00  0.63896692930E+03  0.15396250584E+04  0.14007735662E+04 0.  0.
        4    1    3    3  502    0 -0.43605471336E+03  0.48561961976E+03  0.59877778665E+03  0.88572375989E+03  0.12699999809E+01 0.  1.
       -4    1    3    3    0  502  0.43605471336E+03 -0.48561961976E+03  0.40189142642E+02  0.65390129854E+03  0.12699999809E+01 0. -1.
</event>
<event>
 5   0  0.7296966E-04  0.1401340E+04  0.7818609E-02  0.8952849E-01
       -2   -1    0    0    0  501  0.00000000000E+00  0.00000000000E+00  0.53816660181E+03  0.53816660182E+03  0.25500000920E-02 0.  1.
        2   -1    0    0  501    0  0.00000000000E+00  0.00000000000E+00 -0.91224289636E+03  0.91224289636E+03  0.25500000920E-02 0. -1.
    10030    2    1    2    0    0  0.00000000000E+00  0.00000000000E+00 -0.37407629455E+03  0.14504094982E+04  0.14013403007E+04 0.  0.
        3    1    3    3  502    0  0.94721823982E+02  0.41607960936E+03 -0.76223531240E+03  0.87355431825E+03  0.10100000352E+00 0. -1.
       -3    1    3    3    0  502 -0.94721823982E+02 -0.41607960936E+03  0.38815901785E+03  0.57685517993E+03  0.10100000352E+00 0.  1.
</event>
<event>
 5   0  0.3784219E-04  0.1404502E+04  0.7818609E-02  0.8950566E-01
        1   -1    0    0  501    0  0.00000000000E+00  0.00000000000E+00  0.11701179006E+04  0.11701179006E+04  0.50400001928E-02 0.  1.
       -1   -1    0    0    0  501  0.00000000000E+00  0.00000000000E+00 -0.42145886442E+03  0.42145886445E+03  0.50400001928E-02 0. -1.
    10030    2    1    2    0    0  0.00000000000E+00  0.00000000000E+00  0.74865903622E+03  0.15915767651E+04  0.14045021348E+04 0.  0.
        1    1    3    3  502    0 -0.52022573749E+03  0.45040171604E+03  0.53321980968E+03  0.87052851143E+03  0.50400001928E-02 0.  1.
       -1    1    3    3    0  502  0.52022573749E+03 -0.45040171604E+03  0.21543922654E+03  0.72104825367E+03  0.50400001928E-02 0. -1.
</event>
<event>
 5   0  0.3784219E-04  0.1330276E+04  0.7818609E-02  0.9005895E-01
       -1   -1    0    0    0  501  0.00000000000E+00  0.00000000000E+00  0.34026958154E+03  0.34026958158E+03  0.50400001928E-02 0. -1.
        1   -1    0    0  501    0  0.00000000000E+00  0.00000000000E+00 -0.13001703540E+04  0.13001703541E+04  0.50400001928E-02 0.  1.
    10030    2    1    2    0    0  0.00000000000E+00  0.00000000000E+00 -0.95990077251E+03  0.16404399356E+04  0.13302757945E+04 0.  0.
        1    1    3    3  502    0 -0.24306050707E+02  0.26057747187E+03  0.27411023439E+03  0.37898261645E+03  0.50400001928E-02 0. -1.
       -1    1    3    3    0  502  0.24306050707E+02 -0.26057747187E+03 -0.12340110069E+04  0.12614573192E+04  0.50400001928E-02 0.  1.
</event>
<event>
 5   0  0.3756664E-04  0.1402114E+04  0.7818609E-02  0.8952290E-01
       -1   -1    0    0    0  501  0.00000000000E+00  0.00000000000E+00  0.68241261997E+03  0.68241261999E+03  0.50400001928E-02 0.  1.
        1   -1    0    0  501    0  0.00000000000E+00  0.00000000000E+00 -0.72021043961E+03  0.72021043963E+03  0.50400001928E-02 0. -1.
    10030    2    1    2    0    0  0.00000000000E+00  0.00000000000E+00 -0.37797819635E+02  0.14026230596E+04  0.14021136802E+04 0.  0.
        2    1    3    3  502    0  0.22777172615E+03  0.33018189198E+03 -0.59406922508E+03  0.71681119216E+03  0.25500000920E-02 0. -1.
       -2    1    3    3    0  502 -0.22777172615E+03 -0.33018189198E+03  0.55627140544E+03  0.68581186745E+03  0.25500000920E-02 0.  1.
</event>
<event>
 5   0  0.3756664E-04  0.1405485E+04  0.7818609E-02  0.8949857E-01
       -1   -1    0    0    0  501  0.00000000000E+00  0.00000000000E+00  0.58821757519E+03  0.58821757521E+03  0.50400001928E-02 0. -1.
        1   -1    0    0  501    0  0.00000000000E+00  0.00000000000E+00 -0.83956575831E+03  0.83956575832E+03  0.50400001928E-02 0.  1.
    10030    2    1    2    0    0  0.00000000000E+00  0.00000000000E+00 -0.25134818311E+03  0.14277833335E+04  0.14054854458E+04 0.  0.
        2    1    3    3  502    0 -0.86335997017E+02 -0.61316460188E+03 -0.46324494539E+03  0.77331792479E+03  0.25500000920E-02 0.  1.
       -2    1    3    3    0  502  0.86335997017E+02  0.61316460188E+03  0.21189676227E+03  0.65446540874E+03  0.25500000920E-02 0. -1.
</event>
<event>
 5   0  0.6959748E-04  0.1471516E+04  0.7818609E-02  0.8903619E-01
       -2   -1    0    0    0  501  0.00000000000E+00  0.00000000000E+00  0.54542001782E+03  0.54542001783E+03  0.25500000920E-02 0.  1.
        2   -1    0    0  501    0  0.00000000000E+00  0.00000000000E+00 -0.99251875933E+03  0.99251875933E+03  0.25500000920E-02 0. -1.
    10030    2    1    2    0    0  0.00000000000E+00  0.00000000000E+00 -0.44709874151E+03  0.15379387772E+04  0.14715156804E+04 0.  0.
        5    1    3    3  502    0 -0.36557372477E+03 -0.62953091088E+02 -0.88761201667E+03  0.96202100915E+03  0.46999998093E+01 0. -1.
       -5    1    3    3    0  502  0.36557372477E+03  0.62953091088E+02  0.44051327516E+03  0.57591776801E+03  0.46999998093E+01 0.  1.
</event>
<event>
 5   0  0.3977658E-04  0.1400712E+04  0.7818609E-02  0.8953304E-01
        1   -1    0    0  501    0  0.00000000000E+00  0.00000000000E+00  0.58497158080E+03  0.58497158082E+03  0.50400001928E-02 0. -1.
       -1   -1    0    0    0  501  0.00000000000E+00  0.00000000000E+00 -0.83849927539E+03  0.83849927540E+03  0.50400001928E-02 0.  1.
    10030    2    1    2    0    0  0.00000000000E+00  0.00000000000E+00 -0.25352769459E+03  0.14234708562E+04  0.14007116001E+04 0.  0.
        5    1    3    3  502    0 -0.69925440603E+03 -0.24573287837E+02 -0.96013545214E+02  0.70625863654E+03  0.46999998093E+01 0. -1.
       -5    1    3    3    0  502  0.69925440603E+03  0.24573287837E+02 -0.15751414937E+03  0.71721221969E+03  0.46999998093E+01 0.  1.
</event>
<event>
 5   0  0.3907270E-04  0.1424149E+04  0.7818609E-02  0.8936521E-01
       -1   -1    0    0    0  501  0.00000000000E+00  0.00000000000E+00  0.26552685286E+03  0.26552685291E+03  0.50400001928E-02 0. -1.
        1   -1    0    0  501    0  0.00000000000E+00  0.00000000000E+00 -0.19096004299E+04  0.19096004299E+04  0.50400001928E-02 0.  1.
    10030    2    1    2    0    0  0.00000000000E+00  0.00000000000E+00 -0.16440735771E+04  0.21751272828E+04  0.14241491389E+04 0.  0.
        3    1    3    3  502    0 -0.47945219343E+03 -0.30974538480E+02 -0.19335613461E+02  0.48084062221E+03  0.10100000352E+00 0. -1.
       -3    1    3    3    0  502  0.47945219343E+03  0.30974538480E+02 -0.16247379636E+04  0.16942866606E+04  0.10100000352E+00 0.  1.
</event>
<event>
 5   0  0.3907270E-04  0.1391178E+04  0.7818609E-02  0.8960229E-01
       -1   -1    0    0    0  501  0.00000000000E+00  0.00000000000E+00  0.61713944079E+03  0.61713944081E+03  0.50400001928E-02 0.  1.
        1   -1    0    0  501    0  0.00000000000E+00  0.00000000000E+00 -0.78401093386E+03  0.78401093388E+03  0.50400001928E-02 0. -1.
    10030    2    1    2    0    0  0.00000000000E+00  0.00000000000E+00 -0.16687149307E+03  0.14011503747E+04  0.13911780178E+04 0.  0.
        3    1    3    3  502    0  0.69577996031E+00 -0.47772939696E+03 -0.59264692070E+03  0.76122023334E+03  0.10100000352E+00 0. -1.
       -3    1    3    3    0  502 -0.69577996031E+00  0.47772939696E+03  0.42577542763E+03  0.63993014135E+03  0.10100000352E+00 0.  1.
</event>
<event>
 5   0  0.3907093E-04  0.1396160E+04  0.7818609E-02  0.8956603E-01
        1   -1    0    0  501    0  0.00000000000E+00  0.00000000000E+00  0.16137090388E+04  0.16137090389E+04  0.50400001928E-02 0. -1.
       -1   -1    0    0    0  501  0.00000000000E+00  0.00000000000E+00 -0.30198482255E+03  0.30198482259E+03  0.50400001928E-02 0.  1.
    10030    2    1    2    0    0  0.00000000000E+00  0.00000000000E+00  0.13117242163E+04  0.19156938614E+04  0.13961599304E+04 0.  0.
        4    1    3    3  502    0  0.59620731388E+03 -0.32446705370E+03  0.87952967721E+03  0.11109977930E+04  0.12699999809E+01 0. -1.
       -4    1    3    3    0  502 -0.59620731388E+03  0.32446705370E+03  0.43219453908E+03  0.80469606844E+03  0.12699999809E+01 0.  1.
</event>
<event>
 5   0  0.6870835E-04  0.1451441E+04  0.7818609E-02  0.8917402E-01
        2   -1    0    0  501    0  0.00000000000E+00  0.00000000000E+00  0.69312755737E+03  0.69312755738E+03  0.25500000920E-02 0. -1.
       -2   -1    0    0    0  501  0.00000000000E+00  0.00000000000E+00 -0.75984614732E+03  0.75984614732E+03  0.25500000920E-02 0.  1.
    10030    2    1    2    0    0  0.00000000000E+00  0.00000000000E+00 -0.66718589949E+02  0.14529737047E+04  0.14514410826E+04 0.  0.
        2    1    3    3  502    0  0.27341739198E+03 -0.44298067406E+03  0.47282407617E+03  0.70324359566E+03  0.25500000920E-02 0. -1.
       -2    1    3    3    0  502 -0.27341739198E+03  0.44298067406E+03 -0.53954266612E+03  0.74973010904E+03  0.25500000920E-02 0.  1.
</event>
<event>
 5   0  0.7065539E-04  0.1393854E+04  0.7818609E-02  0.8958279E-01
        2   -1    0    0  501    0  0.00000000000E+00  0.00000000000E+00  0.13970710501E+04  0.13970710501E+04  0.25500000920E-02 0.  1.
       -2   -1    0    0    0  501  0.00000000000E+00  0.00000000000E+00 -0.34766131564E+03  0.34766131565E+03  0.25500000920E-02 0. -1.
    10030    2    1    2    0    0  0.00000000000E+00  0.00000000000E+00  0.10494097345E+04  0.17447323658E+04  0.13938544535E+04 0.  0.
        1    1    3    3  502    0 -0.38705928009E+03  0.55921034253E+03  0.71526629418E+03  0.98698377146E+03  0.50400001928E-02 0.  1.
       -1    1    3    3    0  502  0.38705928009E+03 -0.55921034253E+03  0.33414344032E+03  0.75774859435E+03  0.50400001928E-02 0. -1.
</event>
<event>
 5   0  0.3977658E-04  0.1396792E+04  0.7818609E-02  0.8956144E-01
       -1   -1    0    0    0  501  0.00000000000E+00  0.00000000000E+00  0.80227618050E+03  0.80227618052E+03  0.50400001928E-02 0.  1.
        1   -1    0    0  501    0  0.00000000000E+00  0.00000000000E+00 -0.60796600627E+03  0.60796600630E+03  0.50400001928E-02 0. -1.
    10030    2    1    2    0    0  0.00000000000E+00  0.00000000000E+00  0.19431017423E+03  0.14102421868E+04  0.13967915312E+04 0.  0.
        5    1    3    3  502    0  0.35775852091E+03  0.21489006507E+03  0.66251674761E+03  0.78301943157E+03  0.46999998093E+01 0.  1.
       -5    1    3    3    0  502 -0.35775852091E+03 -0.21489006507E+03 -0.46820657338E+03  0.62722275525E+03  0.46999998093E+01 0. -1.
</event>
<event>
 5   0  0.3756664E-04  0.1227715E+04  0.7818609E-02  0.9088938E-01
        1   -1    0    0  501    0  0.00000000000E+00  0.00000000000E+00  0.89811545915E+03  0.89811545916E+03  0.50400001928E-02 0.  1.
       -1   -1    0    0    0  501  0.00000000000E+00  0.00000000000E+00 -0.41956834538E+03  0.41956834541E+03  0.50400001928E-02 0. -1.
    10030    2    1    2    0    0  0.00000000000E+00  0.00000000000E+00  0.47854711377E+03  0.13176838046E+04  0.12277146528E+04 0.  0.
        2    1    3    3  502    0 -0.19830641315E+03  0.29372444394E+02 -0.38344510710E+03  0.43268732839E+03  0.25500000920E-02 0. -1.
       -2    1    3    3    0  502  0.19830641315E+03 -0.29372444394E+02  0.86199222087E+03  0.88499647617E+03  0.25500000920E-02 0.  1.
</event>
<event>
 5   0  0.3907270E-04  0.1378999E+04  0.7818609E-02  0.8969162E-01
        1   -1    0    0  501    0  0.00000000000E+00  0.00000000000E+00  0.97585928683E+03  0.97585928685E+03  0.50400001928E-02 0. -1.
       -1   -1    0    0    0  501  0.00000000000E+00  0.00000000000E+00 -0.48717051853E+03  0.48717051855E+03  0.50400001928E-02 0.  1.
    10030    2    1    2    0    0  0.00000000000E+00  0.00000000000E+00  0.48868876830E+03  0.14630298054E+04  0.13789994558E+04 0.  0.
        3    1    3    3  502    0  0.61542533860E+02  0.56622628265E+03 -0.16793554118E+03  0.59380303370E+03  0.10100000352E+00 0.  1.
       -3    1    3    3    0  502 -0.61542533860E+02 -0.56622628265E+03  0.65662430948E+03  0.86922677170E+03  0.10100000352E+00 0. -1.
</event>
<event>
 5   0  0.6870835E-04  0.1399677E+04  0.7818609E-02  0.8954052E-01
       -2   -1    0    0    0  501  0.00000000000E+00  0.00000000000E+00  0.62718340953E+03  0.62718340954E+03  0.25500000920E-02 0. -1.
        2   -1    0    0  501    0  0.00000000000E+00  0.00000000000E+00 -0.78091008767E+03  0.78091008767E+03  0.25500000920E-02 0.  1.
    10030    2    1    2    0    0  0.00000000000E+00  0.00000000000E+00 -0.15372667814E+03  0.14080934972E+04  0.13996768932E+04 0.  0.
        2    1    3    3  502    0  0.53853769648E+03  0.68598568933E+01 -0.52643302542E+03  0.75312790310E+03  0.25500000920E-02 0.  1.
       -2    1    3    3    0  502 -0.53853769648E+03 -0.68598568933E+01  0.37270634728E+03  0.65496559411E+03  0.25500000920E-02 0. -1.
</event>
<event>
 5   0  0.7065539E-04  0.1474692E+04  0.7818609E-02  0.8901459E-01
        2   -1    0    0  501    0  0.00000000000E+00  0.00000000000E+00  0.67599085662E+03  0.67599085663E+03  0.25500000920E-02 0.  1.
       -2   -1    0    0    0  501  0.00000000000E+00  0.00000000000E+00 -0.80426948518E+03  0.80426948519E+03  0.25500000920E-02 0. -1.
    10030    2    1    2    0    0  0.00000000000E+00  0.00000000000E+00 -0.12827862856E+03  0.14802603418E+04  0.14746915857E+04 0.  0.
        1    1    3    3  502    0  0.12184467651E+03 -0.71562508606E+03  0.65629305399E+02  0.72888448655E+03  0.50400001928E-02 0. -1.
       -1    1    3    3    0  502 -0.12184467651E+03  0.71562508606E+03 -0.19390793396E+03  0.75137585526E+03  0.50400001928E-02 0.  1.
</event>
<event>
 5   0  0.3784219E-04  0.1402890E+04  0.7818609E-02  0.8951729E-01
        1   -1    0    0  501    0  0.00000000000E+00  0.00000000000E+00  0.20590029161E+04  0.20590029162E+04  0.50400001928E-02 0.  1.
       -1   -1    0    0    0  501  0.00000000000E+00  0.00000000000E+00 -0.23896283618E+03  0.23896283624E+03  0.50400001928E-02 0. -1.
    10030    2    1    2    0    0  0.00000000000E+00  0.00000000000E+00  0.18200400800E+04  0.22979657524E+04  0.14028901263E+04 0.  0.
        1    1    3    3  502    0  0.28068216725E+03  0.64269328018E+03  0.93248217390E+03  0.11667733868E+04  0.50400001928E-02 0. -1.
       -1    1    3    3    0  502 -0.28068216725E+03 -0.64269328018E+03  0.88755790607E+03  0.11311923656E+04  0.50400001928E-02 0.  1.
</event>
<event>
 5   0  0.6870835E-04  0.1398763E+04  0.7818609E-02  0.8954715E-01
        2   -1    0    0  501    0  0.00000000000E+00  0.00000000000E+00  0.10046786128E+04  0.10046786128E+04  0.25500000920E-02 0. -1.
       -2   -1    0    0    0  501  0.00000000000E+00  0.00000000000E+00 -0.48685656657E+03  0.48685656658E+03  0.25500000920E-02 0.  1.
    10030    2    1    2    0    0  0.00000000000E+00  0.00000000000E+00  0.51782204626E+03  0.14915351794E+04  0.13987628533E+04 0.  0.
        2    1    3    3  502    0 -0.12134709708E+03  0.66578498925E+03  0.44707912145E+03  0.81109463734E+03  0.25500000920E-02 0. -1.
       -2    1    3    3    0  502  0.12134709708E+03 -0.66578498925E+03  0.70742924810E+02  0.68044054207E+03  0.25500000920E-02 0.  1.
</event>
<event>
 5   0  0.3907093E-04  0.1391141E+04  0.7818609E-02  0.8960256E-01
       -1   -1    0    0    0  501  0.00000000000E+00  0.00000000000E+00  0.77484569923E+03  0.77484569925E+03  0.50400001928E-02 0. -1.
        1   -1    0    0  501    0  0.00000000000E+00  0.00000000000E+00 -0.62440606880E+03  0.62440606882E+03  0.50400001928E-02 0.  1.
    10030    2    1    2    0    0  0.00000000000E+00  0.00000000000E+00  0.15043963044E+03  0.13992517681E+04  0.13911410525E+04 0.  0.
        4    1    3    3  502    0 -0.56981425178E+03  0.21197014317E+03 -0.26468105388E+03  0.66308166640E+03  0.12699999809E+01 0.  1.
       -4    1    3    3    0  502  0.56981425178E+03 -0.21197014317E+03  0.41512068432E+03  0.73617010166E+03  0.12699999809E+01 0. -1.
</event>
<event>
 5   0  0.2660250E-04  0.1404198E+04  0.7818609E-02  0.8950785E-01
        3   -1    0    0  501    0  0.00000000000E+00  0.00000000000E+00  0.93758903105E+03  0.93758903649E+03  0.10100000352E+00 0.  1.
       -3   -1    0    0    0  501  0.00000000000E+00  0.00000000000E+00 -0.52575613644E+03  0.52575614615E+03  0.10100000352E+00 0. -1.
    10030    2    1    2    0    0  0.00000000000E+00  0.00000000000E+00  0.41183289460E+03  0.14633451826E+04  0.14041982732E+04 0.  0.
        3    1    3    3  502    0 -0.40103449732E+03  0.50363173823E+03 -0.86007043581E+02  0.64951583317E+03  0.10100000352E+00 0. -1.
       -3    1    3    3    0  502  0.40103449732E+03 -0.50363173823E+03  0.49783993819E+03  0.81382934946E+03  0.10100000352E+00 0.  1.
</event>
<event>
 5   0  0.3907270E-04  0.1359612E+04  0.7818609E-02  0.8983584E-01
        1   -1    0    0  501    0  0.00000000000E+00  0.00000000000E+00  0.39808036623E+03  0.39808036626E+03  0.50400001928E-02 0.  1.
       -1   -1    0    0    0  501  0.00000000000E+00  0.00000000000E+00 -0.11609114658E+04  0.11609114658E+04  0.50400001928E-02 0. -1.
    10030    2    1    2    0    0  0.00000000000E+00  0.00000000000E+00 -0.76283109960E+03  0.15589918321E+04  0.13596117998E+04 0.  0.
        3    1    3    3  502    0  0.34932447504E+03 -0.43528056789E+03 -0.82645452238E+03  0.99725816588E+03  0.10100000352E+00 0. -1.
       -3    1    3    3    0  502 -0.34932447504E+03  0.43528056789E+03  0.63623422785E+02  0.56173366623E+03  0.10100000352E+00 0.  1.
</event>
<event>
 5   0  0.6959748E-04  0.1418352E+04  0.7818609E-02  0.8940640E-01
       -2   -1    0    0    0  501  0.00000000000E+00  0.00000000000E+00  0.64818371995E+03  0.64818371995E+03  0.25500000920E-02 0. -1.
        2   -1    0    0  501    0  0.00000000000E+00  0.00000000000E+00 -0.77590779906E+03  0.77590779907E+03  0.25500000920E-02 0.  1.
    10030    2    1    2    0    0  0.00000000000E+00  0.00000000000E+00 -0.12772407912E+03  0.14240915190E+04  0.14183522885E+04 0.  0.
        5    1    3    3  502    0  0.50116862909E+03 -0.47514700246E+03  0.97954749449E+02  0.69753271727E+03  0.46999998093E+01 0.  1.
       -5    1    3    3    0  502 -0.50116862909E+03  0.47514700246E+03 -0.22567882857E+03  0.72655880174E+03  0.46999998093E+01 0. -1.
</event>
<event>
 5   0  0.6870835E-04  0.1402713E+04  0.7818609E-02  0.8951857E-01
       -2   -1    0    0    0  501  0.00000000000E+00  0.00000000000E+00  0.22537557353E+03  0.22537557354E+03  0.25500000920E-02 0. -1.
        2   -1    0    0  501    0  0.00000000000E+00  0.00000000000E+00 -0.21825818132E+04  0.21825818132E+04  0.25500000920E-02 0.  1.
    10030    2    1    2    0    0  0.00000000000E+00  0.00000000000E+00 -0.19572062396E+04  0.24079573867E+04  0.14027125549E+04 0.  0.
        2    1    3    3  502    0 -0.53247501423E+03  0.29771927783E+03 -0.15726069636E+04  0.16867895752E+04  0.25500000920E-02 0. -1.
       -2    1    3    3    0  502  0.53247501423E+03 -0.29771927783E+03 -0.38459927604E+03  0.72116781147E+03  0.25500000920E-02 0.  1.
</event>
<event>
 5   0  0.3977658E-04  0.1368233E+04  0.7818609E-02  0.8977140E-01
       -1   -1    0    0    0  501  0.00000000000E+00  0.00000000000E+00  0.21009883334E+03  0.21009883341E+03  0.50400001928E-02 0.  1.
        1   -1    0    0  501    0  0.00000000000E+00  0.00000000000E+00 -0.22275959464E+04  0.22275959464E+04  0.50400001928E-02 0. -1.
    10030    2    1    2    0    0  0.00000000000E+00  0.00000000000E+00 -0.20174971131E+04  0.24376947798E+04  0.13682328889E+04 0.  0.
        5    1    3    3  502    0 -0.54513216266E+03 -0.88044034028E+02 -0.28928380141E+03  0.62340038054E+03  0.46999998093E+01 0.  1.
       -5    1    3    3    0  502  0.54513216266E+03  0.88044034028E+02 -0.17282133117E+04  0.18142943993E+04  0.46999998093E+01 0. -1.
</event>
<event>
 5   0  0.3977658E-04  0.1397870E+04  0.7818609E-02  0.8955362E-01
        1   -1    0    0  501    0  0.00000000000E+00  0.00000000000E+00  0.72709010872E+03  0.72709010873E+03  0.50400001928E-02 0.  1.
       -1   -1    0    0    0  501  0.00000000000E+00  0.00000000000E+00 -0.67187028032E+03  0.67187028034E+03  0.50400001928E-02 0. -1.
    10030    2    1    2    0    0  0.00000000000E+00  0.00000000000E+00  0.55219828395E+02  0.13989603891E+04  0.13978701445E+04 0.  0.
        5    1    3    3  502    0  0.23606994609E+03 -0.28045934885E+03  0.62313845737E+03  0.72298692440E+03  0.46999998093E+01 0.  1.
       -5    1    3    3    0  502 -0.23606994609E+03  0.28045934885E+03 -0.56791862898E+03  0.67597346467E+03  0.46999998093E+01 0. -1.
</event>
<event>
 5   0  0.3756664E-04  0.1394414E+04  0.7818609E-02  0.8957872E-01
       -1   -1    0    0    0  501  0.00000000000E+00  0.00000000000E+00  0.57570751177E+03  0.57570751180E+03  0.50400001928E-02 0. -1.
        1   -1    0    0  501    0  0.00000000000E+00  0.00000000000E+00 -0.84434844988E+03  0.84434844989E+03  0.50400001928E-02 0.  1.
    10030    2    1    2    0    0  0.00000000000E+00  0.00000000000E+00 -0.26864093810E+03  0.14200559617E+04  0.13944142070E+04 0.  0.
        2    1    3    3  502    0  0.15031845924E+03  0.26506461400E+03 -0.77294277191E+03  0.83084018766E+03  0.25500000920E-02 0.  1.
       -2    1    3    3    0  502 -0.15031845924E+03 -0.26506461400E+03  0.50430183380E+03  0.58921577403E+03  0.25500000920E-02 0. -1.
</event>
<event>
 5   0  0.3784219E-04  0.1397342E+04  0.7818609E-02  0.8955744E-01
       -1   -1    0    0    0  501  0.00000000000E+00  0.00000000000E+00  0.86380558540E+03  0.86380558541E+03  0.50400001928E-02 0.  1.
        1   -1    0    0  501    0  0.00000000000E+00  0.00000000000E+00 -0.56510571484E+03  0.56510571486E+03  0.50400001928E-02 0. -1.
    10030    2    1    2    0    0  0.00000000000E+00  0.00000000000E+00  0.29869987056E+03  0.14289113003E+04  0.13973424388E+04 0.  0.
        1    1    3    3  502    0  0.22947900035E+03  0.39529152270E+03 -0.39100601651E+03  0.60149954655E+03  0.50400001928E-02 0. -1.
       -1    1    3    3    0  502 -0.22947900035E+03 -0.39529152270E+03  0.68970588707E+03  0.82741175373E+03  0.50400001928E-02 0.  1.
</event>
<event>
 5   0  0.6870835E-04  0.1391886E+04  0.7818609E-02  0.8959713E-01
        2   -1    0    0  501    0  0.00000000000E+00  0.00000000000E+00  0.14087844974E+04  0.14087844974E+04  0.25500000920E-02 0.  1.
       -2   -1    0    0    0  501  0.00000000000E+00  0.00000000000E+00 -0.34379754661E+03  0.34379754662E+03  0.25500000920E-02 0. -1.
    10030    2    1    2    0    0  0.00000000000E+00  0.00000000000E+00  0.10649869508E+04  0.17525820440E+04  0.13918859924E+04 0.  0.
        2    1    3    3  502    0  0.45270253943E+03 -0.32070819463E+03  0.34390680616E+01  0.55480191285E+03  0.25500000920E-02 0. -1.
       -2    1    3    3    0  502 -0.45270253943E+03  0.32070819463E+03  0.10615478827E+04  0.11977801312E+04  0.25500000920E-02 0.  1.
</event>
<event>
 5   0  0.3784219E-04  0.1453413E+04  0.7818609E-02  0.8916038E-01
       -1   -1    0    0    0  501  0.00000000000E+00  0.00000000000E+00  0.79580344762E+03  0.79580344763E+03  0.50400001928E-02 0. -1.
        1   -1    0    0  501    0  0.00000000000E+00  0.00000000000E+00 -0.66360892778E+03  0.66360892780E+03  0.50400001928E-02 0.  1.
    10030    2    1    2    0    0  0.00000000000E+00  0.00000000000E+00  0.13219451983E+03  0.14594123754E+04  0.14534129112E+04 0.  0.
        1    1    3    3  502    0 -0.32340483873E+03 -0.16715191734E+03 -0.56544393309E+03  0.67250077671E+03  0.50400001928E-02 0.  1.
       -1    1    3    3    0  502  0.32340483873E+03  0.16715191734E+03  0.69763845292E+03  0.78691159872E+03  0.50400001928E-02 0. -1.
</event>
<event>
 5   0  0.6959748E-04  0.1395937E+04  0.7818609E-02  0.8956765E-01
        2   -1    0    0  501    0  0.00000000000E+00  0.00000000000E+00  0.14545520348E+04  0.14545520348E+04  0.25500000920E-02 0.  1.
       -2   -1    0    0    0  501  0.00000000000E+00  0.00000000000E+00 -0.33492091430E+03  0.33492091431E+03  0.25500000920E-02 0. -1.
    10030    2    1    2    0    0  0.00000000000E+00  0.00000000000E+00  0.11196311204E+04  0.17894729491E+04  0.13959368143E+04 0.  0.
        5    1    3    3  502    0 -0.18784196212E+03  0.44233315939E+03 -0.89034495589E+02  0.48876626114E+03  0.46999998093E+01 0. -1.
       -5    1    3    3    0  502  0.18784196212E+03 -0.44233315939E+03  0.12086656160E+04  0.13007066879E+04  0.46999998093E+01 0.  1.
</event>
<event>
 5   0  0.3907270E-04  0.1406478E+04  0.7818609E-02  0.8949142E-01
       -1   -1    0    0    0  501  0.00000000000E+00  0.00000000000E+00  0.33534066325E+03  0.33534066328E+03  0.50400001928E-02 0.  1.
        1   -1    0    0  501    0  0.00000000000E+00  0.00000000000E+00 -0.14747551396E+04  0.14747551396E+04  0.50400001928E-02 0. -1.
    10030    2    1    2    0    0  0.00000000000E+00  0.00000000000E+00 -0.11394144764E+04  0.18100958029E+04  0.14064783919E+04 0.  0.
        3    1    3    3  502    0 -0.41703074059E+03 -0.25169077239E+03 -0.12224973958E+04  0.13159645803E+04  0.10100000352E+00 0. -1.
       -3    1    3    3    0  502  0.41703074059E+03  0.25169077239E+03  0.83082919440E+02  0.49413122266E+03  0.10100000352E+00 0.  1.
</event>
<event>
 5   0  0.3977658E-04  0.1396882E+04  0.7818609E-02  0.8956078E-01
       -1   -1    0    0    0  501  0.00000000000E+00  0.00000000000E+00  0.11002993869E+04  0.11002993870E+04  0.50400001928E-02 0.  1.
        1   -1    0    0  501    0  0.00000000000E+00  0.00000000000E+00 -0.44335207535E+03  0.44335207538E+03  0.50400001928E-02 0. -1.
    10030    2    1    2    0    0  0.00000000000E+00  0.00000000000E+00  0.65694731160E+03  0.15436514623E+04  0.13968822667E+04 0.  0.
        5    1    3    3  502    0  0.37565051828E+03  0.10053421892E+00  0.97913757202E+03  0.10487353322E+04  0.46999998093E+01 0.  1.
       -5    1    3    3    0  502 -0.37565051828E+03 -0.10053421892E+00 -0.32219026042E+03  0.49491613017E+03  0.46999998093E+01 0. -1.
</event>
<event>
 5   0  0.3977658E-04  0.1398556E+04  0.7818609E-02  0.8954864E-01
        1   -1    0    0  501    0  0.00000000000E+00  0.00000000000E+00  0.10660075208E+04  0.10660075208E+04  0.50400001928E-02 0.  1.
       -1   -1    0    0    0  501  0.00000000000E+00  0.00000000000E+00 -0.45871157196E+03  0.45871157199E+03  0.50400001928E-02 0. -1.
    10030    2    1    2    0    0  0.00000000000E+00  0.00000000000E+00  0.60729594882E+03  0.15247190928E+04  0.13985563780E+04 0.  0.
        5    1    3    3  502    0 -0.47604544612E+03 -0.12351716551E+03  0.84557314710E+03  0.97820846144E+03  0.46999998093E+01 0.  1.
       -5    1    3    3    0  502  0.47604544612E+03  0.12351716551E+03 -0.23827719828E+03  0.54651063133E+03  0.46999998093E+01 0. -1.
</event>
<event>
 5   0  0.6870835E-04  0.1401047E+04  0.7818609E-02  0.8953061E-01
       -2   -1    0    0    0  501  0.00000000000E+00  0.00000000000E+00  0.62548358101E+03  0.62548358101E+03  0.25500000920E-02 0.  1.
        2   -1    0    0  501    0  0.00000000000E+00  0.00000000000E+00 -0.78456643711E+03  0.78456643711E+03  0.25500000920E-02 0. -1.
    10030    2    1    2    0    0  0.00000000000E+00  0.00000000000E+00 -0.15908285610E+03  0.14100500181E+04  0.14010473577E+04 0.  0.
        2    1    3    3  502    0  0.21693784334E+02  0.54832007975E+02  0.62298135749E+03  0.62576588367E+03  0.25500000920E-02 0.  1.
       -2    1    3    3    0  502 -0.21693784334E+02 -0.54832007975E+02 -0.78206421359E+03  0.78428413446E+03  0.25500000920E-02 0. -1.
</event>
<event>
 5   0  0.3977658E-04  0.1392928E+04  0.7818609E-02  0.8958954E-01
       -1   -1    0    0    0  501  0.00000000000E+00  0.00000000000E+00  0.69625130057E+03  0.69625130059E+03  0.50400001928E-02 0.  1.
        1   -1    0    0  501    0  0.00000000000E+00  0.00000000000E+00 -0.69667664328E+03  0.69667664329E+03  0.50400001928E-02 0. -1.
    10030    2    1    2    0    0  0.00000000000E+00  0.00000000000E+00 -0.42534270829E+00  0.13929279439E+04  0.13929278789E+04 0.  0.
        5    1    3    3  502    0 -0.55544552239E+03 -0.35450003297E+03  0.22528662356E+03  0.69639511376E+03  0.46999998093E+01 0.  1.
       -5    1    3    3    0  502  0.55544552239E+03  0.35450003297E+03 -0.22571196627E+03  0.69653283012E+03  0.46999998093E+01 0. -1.
</event>
<event>
 5   0  0.3784219E-04  0.1408848E+04  0.7818609E-02  0.8947439E-01
       -1   -1    0    0    0  501  0.00000000000E+00  0.00000000000E+00  0.76763313561E+03  0.76763313563E+03  0.50400001928E-02 0.  1.
        1   -1    0    0  501    0  0.00000000000E+00  0.00000000000E+00 -0.64641955472E+03  0.64641955474E+03  0.50400001928E-02 0. -1.
    10030    2    1    2    0    0  0.00000000000E+00  0.00000000000E+00  0.12121358089E+03  0.14140526904E+04  0.14088478551E+04 0.  0.
        1    1    3    3  502    0  0.51863184302E+03 -0.35759083699E+03  0.37699010424E+03  0.73414694307E+03  0.50400001928E-02 0. -1.
       -1    1    3    3    0  502 -0.51863184302E+03  0.35759083699E+03 -0.25577652335E+03  0.67990574730E+03  0.50400001928E-02 0.  1.
</event>
<event>
 5   0  0.6870835E-04  0.1403428E+04  0.7818609E-02  0.8951341E-01
       -2   -1    0    0    0  501  0.00000000000E+00  0.00000000000E+00  0.86371772421E+03  0.86371772421E+03  0.25500000920E-02 0. -1.
        2   -1    0    0  501    0  0.00000000000E+00  0.00000000000E+00 -0.57009682220E+03  0.57009682221E+03  0.25500000920E-02 0.  1.
    10030    2    1    2    0    0  0.00000000000E+00  0.00000000000E+00  0.29362090201E+03  0.14338145464E+04  0.14034282737E+04 0.  0.
        2    1    3    3  502    0 -0.28390173372E+02 -0.50126204046E+03 -0.35404170757E+03  0.61434124545E+03  0.25500000920E-02 0.  1.
       -2    1    3    3    0  502  0.28390173372E+02  0.50126204046E+03  0.64766260957E+03  0.81947330097E+03  0.25500000920E-02 0. -1.
</event>
<event>
 5   0  0.3756664E-04  0.1434649E+04  0.7818609E-02  0.8929113E-01
        1   -1    0    0  501    0  0.00000000000E+00  0.00000000000E+00  0.90200436881E+03  0.90200436882E+03  0.50400001928E-02 0. -1.
       -1   -1    0    0    0  501  0.00000000000E+00  0.00000000000E+00 -0.57045667750E+03  0.57045667753E+03  0.50400001928E-02 0.  1.
    10030    2    1    2    0    0  0.00000000000E+00  0.00000000000E+00  0.33154769130E+03  0.14724610463E+04  0.14346489680E+04 0.  0.
        2    1    3    3  502    0 -0.16522148468E+03  0.57356553474E+03 -0.24255457821E+03  0.64428897636E+03  0.25500000920E-02 0.  1.
       -2    1    3    3    0  502  0.16522148468E+03 -0.57356553474E+03  0.57410226951E+03  0.82817206999E+03  0.25500000920E-02 0. -1.
</event>
<event>
 5   0  0.3756664E-04  0.1397161E+04  0.7818609E-02  0.8955876E-01
        1   -1    0    0  501    0  0.00000000000E+00  0.00000000000E+00  0.80018448845E+03  0.80018448847E+03  0.50400001928E-02 0.  1.
       -1   -1    0    0    0  501  0.00000000000E+00  0.00000000000E+00 -0.60987748184E+03  0.60987748186E+03  0.50400001928E-02 0. -1.
    10030    2    1    2    0    0  0.00000000000E+00  0.00000000000E+00  0.19030700661E+03  0.14100619703E+04  0.13971606935E+04 0.  0.
        2    1    3    3  502    0  0.20796330031E+03 -0.32278655807E+03  0.68413000905E+03  0.78452136086E+03  0.25500000920E-02 0.  1.
       -2    1    3    3    0  502 -0.20796330031E+03  0.32278655807E+03 -0.49382300244E+03  0.62554060947E+03  0.25500000920E-02 0. -1.
</event>
<event>
 5   0  0.3907093E-04  0.1400943E+04  0.7818609E-02  0.8953136E-01
        1   -1    0    0  501    0  0.00000000000E+00  0.00000000000E+00  0.14097471874E+04  0.14097471874E+04  0.50400001928E-02 0. -1.
       -1   -1    0    0    0  501  0.00000000000E+00  0.00000000000E+00 -0.34804855562E+03  0.34804855565E+03  0.50400001928E-02 0.  1.
    10030    2    1    2    0    0  0.00000000000E+00  0.00000000000E+00  0.10616986318E+04  0.17577957431E+04  0.14009432143E+04 0.  0.
        4    1    3    3  502    0  0.24673455932E+03  0.15286689277E+01 -0.29171574711E+03  0.38207325161E+03  0.12699999809E+01 0.  1.
       -4    1    3    3    0  502 -0.24673455932E+03 -0.15286689277E+01  0.13534143789E+04  0.13757224915E+04  0.12699999809E+01 0. -1.
</event>
<event>
 5   0  0.3907093E-04  0.1397779E+04  0.7818609E-02  0.8955428E-01
       -1   -1    0    0    0  501  0.00000000000E+00  0.00000000000E+00  0.16916607372E+03  0.16916607380E+03  0.50400001928E-02 0. -1.
        1   -1    0    0  501    0  0.00000000000E+00  0.00000000000E+00 -0.28873795346E+04  0.28873795346E+04  0.50400001928E-02 0.  1.
    10030    2    1    2    0    0  0.00000000000E+00  0.00000000000E+00 -0.27182134609E+04  0.30565456084E+04  0.13977791805E+04 0.  0.
        4    1    3    3  502    0 -0.17622330654E+03 -0.36617463303E+03 -0.26024743463E+04  0.26340107919E+04  0.12699999809E+01 0.  1.
       -4    1    3    3    0  502  0.17622330654E+03  0.36617463303E+03 -0.11573911458E+03  0.42253481654E+03  0.12699999809E+01 0. -1.
</event>
<event>
 5   0  0.3977658E-04  0.1394014E+04  0.7818609E-02  0.8958163E-01
        1   -1    0    0  501    0  0.00000000000E+00  0.00000000000E+00  0.10103464209E+04  0.10103464209E+04  0.50400001928E-02 0.  1.
       -1   -1    0    0    0  501  0.00000000000E+00  0.00000000000E+00 -0.48084406380E+03  0.48084406383E+03  0.50400001928E-02 0. -1.
    10030    2    1    2    0    0  0.00000000000E+00  0.00000000000E+00  0.52950235712E+03  0.14911904848E+04  0.13940144604E+04 0.  0.
        5    1    3    3  502    0 -0.32547401172E+03  0.36072262136E+03 -0.26982841218E+03  0.55577297873E+03  0.46999998093E+01 0. -1.
       -5    1    3    3    0  502  0.32547401172E+03 -0.36072262136E+03  0.79933076930E+03  0.93541750604E+03  0.46999998093E+01 0.  1.
</event>
<event>
 5   0  0.3907270E-04  0.1392481E+04  0.7818609E-02  0.8959279E-01
       -1   -1    0    0    0  501  0.00000000000E+00  0.00000000000E+00  0.22821099533E+03  0.22821099539E+03  0.50400001928E-02 0.  1.
        1   -1    0    0  501    0  0.00000000000E+00  0.00000000000E+00 -0.21241336520E+04  0.21241336520E+04  0.50400001928E-02 0. -1.
    10030    2    1    2    0    0  0.00000000000E+00  0.00000000000E+00 -0.18959226567E+04  0.23523446474E+04  0.13924807432E+04 0.  0.
        3    1    3    3  502    0  0.40188551594E+03  0.10310018624E+03 -0.34383846332E+01  0.41491378503E+03  0.10100000352E+00 0.  1.
       -3    1    3    3    0  502 -0.40188551594E+03 -0.10310018624E+03 -0.18924842720E+04  0.19374308624E+04  0.10100000352E+00 0. -1.
</event>
<event>
 5   0  0.6959748E-04  0.1385273E+04  0.7818609E-02  0.8964548E-01
        2   -1    0    0  501    0  0.00000000000E+00  0.00000000000E+00  0.10460025000E+04  0.10460025000E+04  0.25500000920E-02 0. -1.
       -2   -1    0    0    0  501  0.00000000000E+00  0.00000000000E+00 -0.45864641725E+03  0.45864641726E+03  0.25500000920E-02 0.  1.
    10030    2    1    2    0    0  0.00000000000E+00  0.00000000000E+00  0.58735608274E+03  0.15046489172E+04  0.13852729681E+04 0.  0.
        5    1    3    3  502    0  0.54402882497E+03  0.23357871808E+03 -0.96736284070E+02  0.59992197708E+03  0.46999998093E+01 0.  1.
       -5    1    3    3    0  502 -0.54402882497E+03 -0.23357871808E+03  0.68409236681E+03  0.90472694016E+03  0.46999998093E+01 0. -1.
</event>
<event>
 5   0  0.3977658E-04  0.1406490E+04  0.7818609E-02  0.8949134E-01
       -1   -1    0    0    0  501  0.00000000000E+00  0.00000000000E+00  0.17013982628E+04  0.17013982629E+04  0.50400001928E-02 0.  1.
        1   -1    0    0  501    0  0.00000000000E+00  0.00000000000E+00 -0.29067461961E+03  0.29067461965E+03  0.50400001928E-02 0. -1.
    10030    2    1    2    0    0  0.00000000000E+00  0.00000000000E+00  0.14107236432E+04  0.19920728825E+04  0.14064896628E+04 0.  0.
        5    1    3    3  502    0  0.56038870718E+03  0.40684400627E+03  0.87867539660E+03  0.11187716886E+04  0.46999998093E+01 0. -1.
       -5    1    3    3    0  502 -0.56038870718E+03 -0.40684400627E+03  0.53204824664E+03  0.87330119393E+03  0.46999998093E+01 0.  1.
</event>
<event>
 5   0  0.7065539E-04  0.1417901E+04  0.7818609E-02  0.8940962E-01
       -2   -1    0    0    0  501  0.00000000000E+00  0.00000000000E+00  0.80032276605E+03  0.80032276606E+03  0.25500000920E-02 0. -1.
        2   -1    0    0  501    0  0.00000000000E+00  0.00000000000E+00 -0.62801033079E+03  0.62801033080E+03  0.25500000920E-02 0.  1.
    10030    2    1    2    0    0  0.00000000000E+00  0.00000000000E+00  0.17231243526E+03  0.14283330969E+04  0.14179012167E+04 0.  0.
        1    1    3    3  502    0 -0.21550294317E+03 -0.18298193346E+03  0.74108337605E+03  0.79317619529E+03  0.50400001928E-02 0. -1.
       -1    1    3    3    0  502  0.21550294317E+03  0.18298193346E+03 -0.56877094079E+03  0.63515690157E+03  0.50400001928E-02 0.  1.
</event>
<event>
 5   0  0.3907270E-04  0.1406653E+04  0.7818609E-02  0.8949017E-01
        1   -1    0    0  501    0  0.00000000000E+00  0.00000000000E+00  0.71643242101E+03  0.71643242103E+03  0.50400001928E-02 0. -1.
       -1   -1    0    0    0  501  0.00000000000E+00  0.00000000000E+00 -0.69046007716E+03  0.69046007718E+03  0.50400001928E-02 0.  1.
    10030    2    1    2    0    0  0.00000000000E+00  0.00000000000E+00  0.25972343850E+02  0.14068924982E+04  0.14066527428E+04 0.  0.
        3    1    3    3  502    0 -0.25596868969E+03  0.56309241217E+03 -0.32184684318E+03  0.69726496787E+03  0.10100000352E+00 0.  1.
       -3    1    3    3    0  502  0.25596868969E+03 -0.56309241217E+03  0.34781918703E+03  0.70962753034E+03  0.10100000352E+00 0. -1.
</event>
<event>
 5   0  0.3756664E-04  0.1403035E+04  0.7818609E-02  0.8951625E-01
       -1   -1    0    0    0  501  0.00000000000E+00  0.00000000000E+00  0.64408788477E+03  0.64408788479E+03  0.50400001928E-02 0.  1.
        1   -1    0    0  501    0  0.00000000000E+00  0.00000000000E+00 -0.76406778443E+03  0.76406778445E+03  0.50400001928E-02 0. -1.
    10030    2    1    2    0    0  0.00000000000E+00  0.00000000000E+00 -0.11997989967E+03  0.14081556692E+04  0.14030350004E+04 0.  0.
        2    1    3    3  502    0  0.18903087309E+03 -0.35377793110E+03 -0.63762092582E+03  0.75329405982E+03  0.25500000920E-02 0. -1.
       -2    1    3    3    0  502 -0.18903087309E+03  0.35377793110E+03  0.51764102615E+03  0.65486160941E+03  0.25500000920E-02 0.  1.
</event>
<event>
 5   0  0.2660250E-04  0.1349624E+04  0.7818609E-02  0.8991113E-01
       -3   -1    0    0    0  501  0.00000000000E+00  0.00000000000E+00  0.35517331632E+03  0.35517333068E+03  0.10100000352E+00 0. -1.
        3   -1    0    0  501    0  0.00000000000E+00  0.00000000000E+00 -0.12821105823E+04  0.12821105863E+04  0.10100000352E+00 0.  1.
    10030    2    1    2    0    0  0.00000000000E+00  0.00000000000E+00 -0.92693726602E+03  0.16372839170E+04  0.13496243662E+04 0.  0.
        3    1    3    3  502    0 -0.56691527446E+03  0.71438981878E+02 -0.27961321112E+02  0.57208242608E+03  0.10100000352E+00 0. -1.
       -3    1    3    3    0  502  0.56691527446E+03 -0.71438981878E+02 -0.89897594491E+03  0.10652014909E+04  0.10100000352E+00 0.  1.
</event>
<event>
 5   0  0.7065539E-04  0.1407453E+04  0.7818609E-02  0.8948441E-01
        2   -1    0    0  501    0  0.00000000000E+00  0.00000000000E+00  0.14378638399E+04  0.14378638399E+04  0.25500000920E-02 0. -1.
       -2   -1    0    0    0  501  0.00000000000E+00  0.00000000000E+00 -0.34442154346E+03  0.34442154347E+03  0.25500000920E-02 0.  1.
    10030    2    1    2    0    0  0.00000000000E+00  0.00000000000E+00  0.10934422965E+04  0.17822853834E+04  0.14074534210E+04 0.  0.
        1    1    3    3  502    0  0.11514985807E+03 -0.65999017289E+03  0.27399241564E+03  0.72382205132E+03  0.50400001928E-02 0.  1.
       -1    1    3    3    0  502 -0.11514985807E+03  0.65999017289E+03  0.81944988082E+03  0.10584633321E+04  0.50400001928E-02 0. -1.
</event>
<event>
 5   0  0.7296966E-04  0.1394794E+04  0.7818609E-02  0.8957596E-01
        2   -1    0    0  501    0  0.00000000000E+00  0.00000000000E+00  0.94318894779E+03  0.94318894779E+03  0.25500000920E-02 0. -1.
       -2   -1    0    0    0  501  0.00000000000E+00  0.00000000000E+00 -0.51565752411E+03  0.51565752412E+03  0.25500000920E-02 0.  1.
    10030    2    1    2    0    0  0.00000000000E+00  0.00000000000E+00  0.42753142368E+03  0.14588464719E+04  0.13947938595E+04 0.  0.
        3    1    3    3  502    0 -0.10542124999E+03 -0.58958821943E+03 -0.15990039195E+03  0.61991616691E+03  0.10100000352E+00 0.  1.
       -3    1    3    3    0  502  0.10542124999E+03  0.58958821943E+03  0.58743181563E+03  0.83893030501E+03  0.10100000352E+00 0. -1.
</event>
<event>
 5   0  0.7065539E-04  0.1399982E+04  0.7818609E-02  0.8953832E-01
       -2   -1    0    0    0  501  0.00000000000E+00  0.00000000000E+00  0.53972328361E+03  0.53972328362E+03  0.25500000920E-02 0. -1.
        2   -1    0    0  501    0  0.00000000000E+00  0.00000000000E+00 -0.90784915526E+03  0.90784915526E+03  0.25500000920E-02 0.  1.
    10030    2    1    2    0    0  0.00000000000E+00  0.00000000000E+00 -0.36812587165E+03  0.14475724389E+04  0.13999818958E+04 0.  0.
        1    1    3    3  502    0  0.57784853129E+03 -0.38156314343E+03 -0.28995504411E+03  0.75071518245E+03  0.50400001928E-02 0. -1.
       -1    1    3    3    0  502 -0.57784853129E+03  0.38156314343E+03 -0.78170827539E+02  0.69685725643E+03  0.50400001928E-02 0.  1.
</event>
<event>
 5   0  0.7296966E-04  0.1393646E+04  0.7818609E-02  0.8958430E-01
        2   -1    0    0  501    0  0.00000000000E+00  0.00000000000E+00  0.94447139700E+03  0.94447139700E+03  0.25500000920E-02 0. -1.
       -2   -1    0    0    0  501  0.00000000000E+00  0.00000000000E+00 -0.51411038934E+03  0.51411038935E+03  0.25500000920E-02 0.  1.
    10030    2    1    2    0    0  0.00000000000E+00  0.00000000000E+00  0.43036100766E+03  0.14585817863E+04  0.13936463793E+04 0.  0.
        3    1    3    3  502    0  0.24935176847E+03 -0.70152546614E+02  0.89221016247E+03  0.92905148859E+03  0.10100000352E+00 0. -1.
       -3    1    3    3    0  502 -0.24935176847E+03  0.70152546614E+02 -0.46184915482E+03  0.52953029775E+03  0.10100000352E+00 0.  1.
</event>
<event>
 5   0  0.6870835E-04  0.1363166E+04  0.7818609E-02  0.8980921E-01
        2   -1    0    0  501    0  0.00000000000E+00  0.00000000000E+00  0.63411105935E+03  0.63411105936E+03  0.25500000920E-02 0.  1.
       -2   -1    0    0    0  501  0.00000000000E+00  0.00000000000E+00 -0.73260861869E+03  0.73260861869E+03  0.25500000920E-02 0. -1.
    10030    2    1    2    0    0  0.00000000000E+00  0.00000000000E+00 -0.98497559335E+02  0.13667196780E+04  0.13631657673E+04 0.  0.
        2    1    3    3  502    0 -0.56087394281E+03 -0.29169194681E+02 -0.43642236615E+03  0.71126289326E+03  0.25500000920E-02 0. -1.
       -2    1    3    3    0  502  0.56087394281E+03  0.29169194681E+02  0.33792480682E+03  0.65545678478E+03  0.25500000920E-02 0.  1.
</event>
<event>
 5   0  0.7065539E-04  0.1379719E+04  0.7818609E-02  0.8968631E-01
       -2   -1    0    0    0  501  0.00000000000E+00  0.00000000000E+00  0.69553655775E+03  0.69553655775E+03  0.25500000920E-02 0.  1.
        2   -1    0    0  501    0  0.00000000000E+00  0.00000000000E+00 -0.68422912680E+03  0.68422912680E+03  0.25500000920E-02 0. -1.
    10030    2    1    2    0    0  0.00000000000E+00  0.00000000000E+00  0.11307430949E+02  0.13797656846E+04  0.13797193506E+04 0.  0.
        1    1    3    3  502    0 -0.17118176238E+03  0.63932599835E+03 -0.18894327028E+03  0.68828808456E+03  0.50400001928E-02 0.  1.
       -1    1    3    3    0  502  0.17118176238E+03 -0.63932599835E+03  0.20025070123E+03  0.69147760000E+03  0.50400001928E-02 0. -1.
</event>
<event>
 5   0  0.3977658E-04  0.1407274E+04  0.7818609E-02  0.8948570E-01
        1   -1    0    0  501    0  0.00000000000E+00  0.00000000000E+00  0.36362848146E+03  0.36362848149E+03  0.50400001928E-02 0. -1.
       -1   -1    0    0    0  501  0.00000000000E+00  0.00000000000E+00 -0.13615679385E+04  0.13615679385E+04  0.50400001928E-02 0.  1.
    10030    2    1    2    0    0  0.00000000000E+00  0.00000000000E+00 -0.99793945701E+03  0.17251964200E+04  0.14072737927E+04 0.  0.
        5    1    3    3  502    0 -0.43116918647E+03 -0.52435593784E+03 -0.27216978699E+03  0.73140583800E+03  0.46999998093E+01 0. -1.
       -5    1    3    3    0  502  0.43116918647E+03  0.52435593784E+03 -0.72576967002E+03  0.99379058198E+03  0.46999998093E+01 0.  1.
</event>
<event>
 5   0  0.3977658E-04  0.1400911E+04  0.7818609E-02  0.8953159E-01
       -1   -1    0    0    0  501  0.00000000000E+00  0.00000000000E+00  0.57340422885E+03  0.57340422887E+03  0.50400001928E-02 0. -1.
        1   -1    0    0  501    0  0.00000000000E+00  0.00000000000E+00 -0.85565805665E+03  0.85565805667E+03  0.50400001928E-02 0.  1.
    10030    2    1    2    0    0  0.00000000000E+00  0.00000000000E+00 -0.28225382781E+03  0.14290622855E+04  0.14009110581E+04 0.  0.
        5    1    3    3  502    0 -0.74124601421E+00  0.47335200011E+03  0.38553575893E+03  0.61051009563E+03  0.46999998093E+01 0. -1.
       -5    1    3    3    0  502  0.74124601421E+00 -0.47335200011E+03 -0.66778958674E+03  0.81855218991E+03  0.46999998093E+01 0.  1.
</event>
<event>
 5   0  0.6870835E-04  0.1404692E+04  0.7818609E-02  0.8950429E-01
       -2   -1    0    0    0  501  0.00000000000E+00  0.00000000000E+00  0.80080648995E+03  0.80080648995E+03  0.25500000920E-02 0.  1.
        2   -1    0    0  501    0  0.00000000000E+00  0.00000000000E+00 -0.61599109928E+03  0.61599109929E+03  0.25500000920E-02 0. -1.
    10030    2    1    2    0    0  0.00000000000E+00  0.00000000000E+00  0.18481539067E+03  0.14167975892E+04  0.14046916673E+04 0.  0.
        2    1    3    3  502    0  0.39910522345E+03 -0.12147186523E+03 -0.47748325944E+03  0.63405887462E+03  0.25500000920E-02 0. -1.
       -2    1    3    3    0  502 -0.39910522345E+03  0.12147186523E+03  0.66229865011E+03  0.78273871462E+03  0.25500000920E-02 0.  1.
</event>
<event>
 5   0  0.3907270E-04  0.1396526E+04  0.7818609E-02  0.8956337E-01
       -1   -1    0    0    0  501  0.00000000000E+00  0.00000000000E+00  0.39616047575E+03  0.39616047578E+03  0.50400001928E-02 0.  1.
        1   -1    0    0  501    0  0.00000000000E+00  0.00000000000E+00 -0.12307411687E+04  0.12307411687E+04  0.50400001928E-02 0. -1.
    10030    2    1    2    0    0  0.00000000000E+00  0.00000000000E+00 -0.83458069291E+03  0.16269016444E+04  0.13965256989E+04 0.  0.
        3    1    3    3  502    0  0.36982874175E+03  0.19430986105E+03  0.23450797594E+03  0.47908623577E+03  0.10100000352E+00 0.  1.
       -3    1    3    3    0  502 -0.36982874175E+03 -0.19430986105E+03 -0.10690886688E+04  0.11478154087E+04  0.10100000352E+00 0. -1.
</event>
<event>
 5   0  0.3977658E-04  0.1397590E+04  0.7818609E-02  0.8955565E-01
       -1   -1    0    0    0  501  0.00000000000E+00  0.00000000000E+00  0.49886162490E+03  0.49886162492E+03  0.50400001928E-02 0.  1.
        1   -1    0    0  501    0  0.00000000000E+00  0.00000000000E+00 -0.97885763979E+03  0.97885763980E+03  0.50400001928E-02 0. -1.
    10030    2    1    2    0    0  0.00000000000E+00  0.00000000000E+00 -0.47999601489E+03  0.14777192647E+04  0.13975900869E+04 0.  0.
        5    1    3    3  502    0  0.47125318128E+03 -0.40450440025E+03  0.98661000693E+02  0.62885567004E+03  0.46999998093E+01 0.  1.
       -5    1    3    3    0  502 -0.47125318128E+03  0.40450440025E+03 -0.57865701559E+03  0.84886359468E+03  0.46999998093E+01 0. -1.
</event>
<event>
 5   0  0.6959748E-04  0.1393815E+04  0.7818609E-02  0.8958308E-01
        2   -1    0    0  501    0  0.00000000000E+00  0.00000000000E+00  0.86408899631E+03  0.86408899631E+03  0.25500000920E-02 0. -1.
       -2   -1    0    0    0  501  0.00000000000E+00  0.00000000000E+00 -0.56207201546E+03  0.56207201547E+03  0.25500000920E-02 0.  1.
    10030    2    1    2    0    0  0.00000000000E+00  0.00000000000E+00  0.30201698084E+03  0.14261610118E+04  0.13938152585E+04 0.  0.
        5    1    3    3  502    0 -0.24754973498E+03  0.45469643870E+03 -0.32632418051E+03  0.61199614659E+03  0.46999998093E+01 0.  1.
       -5    1    3    3    0  502  0.24754973498E+03 -0.45469643870E+03  0.62834116135E+03  0.81416486519E+03  0.46999998093E+01 0. -1.
</event>
<event>
 5   0  0.7296966E-04  0.1389035E+04  0.7818609E-02  0.8961794E-01
       -2   -1    0    0    0  501  0.00000000000E+00  0.00000000000E+00  0.50453778659E+03  0.50453778660E+03  0.25500000920E-02 0.  1.
        2   -1    0    0  501    0  0.00000000000E+00  0.00000000000E+00 -0.95603235402E+03  0.95603235402E+03  0.25500000920E-02 0. -1.
    10030    2    1    2    0    0  0.00000000000E+00  0.00000000000E+00 -0.45149456743E+03  0.14605701406E+04  0.13890348416E+04 0.  0.
        3    1    3    3  502    0 -0.15721235362E+03 -0.51076799732E+03 -0.69216163978E+03  0.87446407416E+03  0.10100000352E+00 0. -1.
       -3    1    3    3    0  502  0.15721235362E+03  0.51076799732E+03  0.24066707235E+03  0.58610606645E+03  0.10100000352E+00 0.  1.
</event>
<event>
 5   0  0.3977658E-04  0.1440653E+04  0.7818609E-02  0.8924906E-01
       -1   -1    0    0    0  501  0.00000000000E+00  0.00000000000E+00  0.78830980649E+03  0.78830980651E+03  0.50400001928E-02 0.  1.
        1   -1    0    0  501    0  0.00000000000E+00  0.00000000000E+00 -0.65820640321E+03  0.65820640323E+03  0.50400001928E-02 0. -1.
    10030    2    1    2    0    0  0.00000000000E+00  0.00000000000E+00  0.13010340328E+03  0.14465162097E+04  0.14406534106E+04 0.  0.
        5    1    3    3  502    0 -0.28965621130E+03 -0.64780741971E+03  0.18922104289E+03  0.73442621607E+03  0.46999998093E+01 0.  1.
       -5    1    3    3    0  502  0.28965621130E+03  0.64780741971E+03 -0.59117639608E+02  0.71208999367E+03  0.46999998093E+01 0. -1.
</event>
<event>
 5   0  0.6870835E-04  0.1404176E+04  0.7818609E-02  0.8950801E-01
        2   -1    0    0  501    0  0.00000000000E+00  0.00000000000E+00  0.12337338979E+04  0.12337338979E+04  0.25500000920E-02 0. -1.
       -2   -1    0    0    0  501  0.00000000000E+00  0.00000000000E+00 -0.39954130801E+03  0.39954130801E+03  0.25500000920E-02 0.  1.
    10030    2    1    2    0    0  0.00000000000E+00  0.00000000000E+00  0.83419258987E+03  0.16332752059E+04  0.14041761361E+04 0.  0.
        2    1    3    3  502    0 -0.94337254629E+02  0.18839520767E+03 -0.36190133378E+03  0.41876586213E+03  0.25500000920E-02 0.  1.
       -2    1    3    3    0  502  0.94337254629E+02 -0.18839520767E+03  0.11960939237E+04  0.12145093438E+04  0.25500000920E-02 0. -1.
</event>
<event>
 5   0  0.3784219E-04  0.1400014E+04  0.7818609E-02  0.8953808E-01
       -1   -1    0    0    0  501  0.00000000000E+00  0.00000000000E+00  0.92083095869E+03  0.92083095870E+03  0.50400001928E-02 0.  1.
        1   -1    0    0  501    0  0.00000000000E+00  0.00000000000E+00 -0.53213875638E+03  0.53213875640E+03  0.50400001928E-02 0. -1.
    10030    2    1    2    0    0  0.00000000000E+00  0.00000000000E+00  0.38869220231E+03  0.14529697151E+04  0.14000140588E+04 0.  0.
        1    1    3    3  502    0 -0.50278970156E+03 -0.10212540452E+03  0.68857619085E+03  0.85869916320E+03  0.50400001928E-02 0.  1.
       -1    1    3    3    0  502  0.50278970156E+03  0.10212540452E+03 -0.29988398854E+03  0.59427055190E+03  0.50400001928E-02 0. -1.
</event>
<event>
 5   0  0.2660250E-04  0.1403855E+04  0.7818609E-02  0.8951033E-01
       -3   -1    0    0    0  501  0.00000000000E+00  0.00000000000E+00  0.12741622741E+04  0.12741622781E+04  0.10100000352E+00 0.  1.
        3   -1    0    0  501    0  0.00000000000E+00  0.00000000000E+00 -0.38668725868E+03  0.38668727187E+03  0.10100000352E+00 0. -1.
    10030    2    1    2    0    0  0.00000000000E+00  0.00000000000E+00  0.88747501539E+03  0.16608495499E+04  0.14038551651E+04 0.  0.
        4    1    3    3  502    0 -0.14924280892E+03  0.45200609662E+03 -0.16656470387E+03  0.50430976678E+03  0.12699999809E+01 0. -1.
       -4    1    3    3    0  502  0.14924280892E+03 -0.45200609662E+03  0.10540397193E+04  0.11565397832E+04  0.12699999809E+01 0.  1.
</event>
<event>
 5   0  0.7065539E-04  0.1399664E+04  0.7818609E-02  0.8954062E-01
        2   -1    0    0  501    0  0.00000000000E+00  0.00000000000E+00  0.43762471585E+03  0.43762471586E+03  0.25500000920E-02 0.  1.
       -2   -1    0    0    0  501  0.00000000000E+00  0.00000000000E+00 -0.11191434886E+04  0.11191434886E+04  0.25500000920E-02 0. -1.
    10030    2    1    2    0    0  0.00000000000E+00  0.00000000000E+00 -0.68151877275E+03  0.15567682045E+04  0.13996640328E+04 0.  0.
        1    1    3    3  502    0 -0.78393528783E+02 -0.67694076759E+03 -0.16359978714E+03  0.70082753838E+03  0.50400001928E-02 0.  1.
       -1    1    3    3    0  502  0.78393528783E+02  0.67694076759E+03 -0.51791898560E+03  0.85594066608E+03  0.50400001928E-02 0. -1.
</event>
<event>
 5   0  0.3756664E-04  0.1397023E+04  0.7818609E-02  0.8955976E-01
       -1   -1    0    0    0  501  0.00000000000E+00  0.00000000000E+00  0.90200532037E+03  0.90200532039E+03  0.50400001928E-02 0. -1.
        1   -1    0    0  501    0  0.00000000000E+00  0.00000000000E+00 -0.54092641009E+03  0.54092641012E+03  0.50400001928E-02 0.  1.
    10030    2    1    2    0    0  0.00000000000E+00  0.00000000000E+00  0.36107891028E+03  0.14429317305E+04  0.13970232637E+04 0.  0.
        2    1    3    3  502    0  0.37628112661E+03 -0.68367241974E+02 -0.42318291046E+03  0.57039051687E+03  0.25500000920E-02 0.  1.
       -2    1    3    3    0  502 -0.37628112661E+03  0.68367241974E+02  0.78426182074E+03  0.87254121364E+03  0.25500000920E-02 0. -1.
</event>
<event>
 5   0  0.3907270E-04  0.1422742E+04  0.7818609E-02  0.8937519E-01
       -1   -1    0    0    0  501  0.00000000000E+00  0.00000000000E+00  0.35018649399E+03  0.35018649403E+03  0.50400001928E-02 0.  1.
        1   -1    0    0  501    0  0.00000000000E+00  0.00000000000E+00 -0.14450828956E+04  0.14450828956E+04  0.50400001928E-02 0. -1.
    10030    2    1    2    0    0  0.00000000000E+00  0.00000000000E+00 -0.10948964016E+04  0.17952693896E+04  0.14227417373E+04 0.  0.
        3    1    3    3  502    0 -0.51456255372E+03 -0.96410305197E+02 -0.11552022038E+04  0.12682908620E+04  0.10100000352E+00 0.  1.
       -3    1    3    3    0  502  0.51456255372E+03  0.96410305197E+02  0.60305802222E+02  0.52697852766E+03  0.10100000352E+00 0. -1.
</event>
<event>
 5   0  0.3977658E-04  0.1400242E+04  0.7818609E-02  0.8953644E-01
       -1   -1    0    0    0  501  0.00000000000E+00  0.00000000000E+00  0.77216868102E+03  0.77216868104E+03  0.50400001928E-02 0. -1.
        1   -1    0    0  501    0  0.00000000000E+00  0.00000000000E+00 -0.63479554127E+03  0.63479554129E+03  0.50400001928E-02 0.  1.
    10030    2    1    2    0    0  0.00000000000E+00  0.00000000000E+00  0.13737313975E+03  0.14069642223E+04  0.14002417446E+04 0.  0.
        5    1    3    3  502    0 -0.14204534439E+03  0.16188660967E+02 -0.61995637244E+03  0.63624440771E+03  0.46999998093E+01 0.  1.
       -5    1    3    3    0  502  0.14204534439E+03 -0.16188660967E+02  0.75732951219E+03  0.77071981462E+03  0.46999998093E+01 0. -1.
</event>
<event>
 5   0  0.3756664E-04  0.1394086E+04  0.7818609E-02  0.8958111E-01
        1   -1    0    0  501    0  0.00000000000E+00  0.00000000000E+00  0.13264871608E+04  0.13264871608E+04  0.50400001928E-02 0. -1.
       -1   -1    0    0    0  501  0.00000000000E+00  0.00000000000E+00 -0.36628234989E+03  0.36628234992E+03  0.50400001928E-02 0.  1.
    10030    2    1    2    0    0  0.00000000000E+00  0.00000000000E+00  0.96020481087E+03  0.16927695107E+04  0.13940858429E+04 0.  0.
        2    1    3    3  502    0 -0.43801599836E+03 -0.69132635225E+02  0.11331293557E+04  0.12168070812E+04  0.25500000920E-02 0. -1.
       -2    1    3    3    0  502  0.43801599836E+03  0.69132635225E+02 -0.17292454483E+03  0.47596242949E+03  0.25500000920E-02 0.  1.
</event>
<event>
 5   0  0.6895048E-04  0.1392735E+04  0.7818609E-02  0.8959094E-01
        2   -1    0    0  501    0  0.00000000000E+00  0.00000000000E+00  0.12149117672E+04  0.12149117672E+04  0.25500000920E-02 0. -1.
       -2   -1    0    0    0  501  0.00000000000E+00  0.00000000000E+00 -0.39914637062E+03  0.39914637063E+03  0.25500000920E-02 0.  1.
    10030    2    1    2    0    0  0.00000000000E+00  0.00000000000E+00  0.81576539658E+03  0.16140581378E+04  0.13927348958E+04 0.  0.
        4    1    3    3  502    0 -0.28148645914E+03  0.48212022463E+03 -0.74497179415E+02  0.56322817785E+03  0.12699999809E+01 0.  1.
       -4    1    3    3    0  502  0.28148645914E+03 -0.48212022463E+03  0.89026257600E+03  0.10508299600E+04  0.12699999809E+01 0. -1.
</event>
<event>
 5   0  0.3907093E-04  0.1406443E+04  0.7818609E-02  0.8949168E-01
        1   -1    0    0  501    0  0.00000000000E+00  0.00000000000E+00  0.12860076836E+04  0.12860076837E+04  0.50400001928E-02 0.  1.
       -1   -1    0    0    0  501  0.00000000000E+00  0.00000000000E+00 -0.38453939281E+03  0.38453939284E+03  0.50400001928E-02 0. -1.
    10030    2    1    2    0    0  0.00000000000E+00  0.00000000000E+00  0.90146829084E+03  0.16705470765E+04  0.14064431931E+04 0.  0.
        4    1    3    3  502    0  0.25966167183E+03  0.63663382871E+03  0.27539175844E+03  0.74065447355E+03  0.12699999809E+01 0. -1.
       -4    1    3    3    0  502 -0.25966167183E+03 -0.63663382871E+03  0.62607653241E+03  0.92989260294E+03  0.12699999809E+01 0.  1.
</event>
<event>
 5   0  0.3907270E-04  0.1419615E+04  0.7818609E-02  0.8939741E-01
        1   -1    0    0  501    0  0.00000000000E+00  0.00000000000E+00  0.95822260932E+03  0.95822260933E+03  0.50400001928E-02 0.  1.
       -1   -1    0    0    0  501  0.00000000000E+00  0.00000000000E+00 -0.52579306937E+03  0.52579306940E+03  0.50400001928E-02 0. -1.
    10030    2    1    2    0    0  0.00000000000E+00  0.00000000000E+00  0.43242953995E+03  0.14840156787E+04  0.14196151689E+04 0.  0.
        3    1    3    3  502    0  0.46640102922E+02  0.51599087515E+03  0.72341053723E+03  0.88980036976E+03  0.10100000352E+00 0.  1.
       -3    1    3    3    0  502 -0.46640102922E+02 -0.51599087515E+03 -0.29098099729E+03  0.59421530898E+03  0.10100000352E+00 0. -1.
</event>
<event>
 5   0  0.2660250E-04  0.1401871E+04  0.7818609E-02  0.8952465E-01
       -4   -1    0    0    0  501  0.00000000000E+00  0.00000000000E+00  0.75076879402E+03  0.75076986819E+03  0.12699999809E+01 0.  1.
        4   -1    0    0  501    0  0.00000000000E+00  0.00000000000E+00 -0.65440803961E+03  0.65440927194E+03  0.12699999809E+01 0. -1.
    10030    2    1    2    0    0  0.00000000000E+00  0.00000000000E+00  0.96360754419E+02  0.14051791401E+04  0.14018712569E+04 0.  0.
        4    1    3    3  502    0  0.55491251308E+03 -0.42649570079E+03  0.86776589968E+02  0.70523632169E+03  0.12699999809E+01 0.  1.
       -4    1    3    3    0  502 -0.55491251308E+03  0.42649570079E+03  0.95841644507E+01  0.69994281843E+03  0.12699999809E+01 0. -1.
</event>
<event>
 5   0  0.7065539E-04  0.1388136E+04  0.7818609E-02  0.8962452E-01
       -2   -1    0    0    0  501  0.00000000000E+00  0.00000000000E+00  0.37999916126E+03  0.37999916127E+03  0.25500000920E-02 0.  1.
        2   -1    0    0  501    0  0.00000000000E+00  0.00000000000E+00 -0.12677134947E+04  0.12677134947E+04  0.25500000920E-02 0. -1.
    10030    2    1    2    0    0  0.00000000000E+00  0.00000000000E+00 -0.88771433339E+03  0.16477126559E+04  0.13881355333E+04 0.  0.
        1    1    3    3  502    0 -0.67760233943E+03  0.14946080382E+03 -0.42521706644E+03  0.81381387055E+03  0.50400001928E-02 0. -1.
       -1    1    3    3    0  502  0.67760233943E+03 -0.14946080382E+03 -0.46249726696E+03  0.83389878537E+03  0.50400001928E-02 0.  1.
</event>
<event>
 5   0  0.7296966E-04  0.1402745E+04  0.7818609E-02  0.8951834E-01
        2   -1    0    0  501    0  0.00000000000E+00  0.00000000000E+00  0.13177013444E+04  0.13177013444E+04  0.25500000920E-02 0.  1.
       -2   -1    0    0    0  501  0.00000000000E+00  0.00000000000E+00 -0.37331929363E+03  0.37331929364E+03  0.25500000920E-02 0. -1.
    10030    2    1    2    0    0  0.00000000000E+00  0.00000000000E+00  0.94438205076E+03  0.16910206380E+04  0.14027449307E+04 0.  0.
        3    1    3    3  502    0 -0.55061439616E+03 -0.43413270073E+03  0.45216688950E+03  0.83432746644E+03  0.10100000352E+00 0. -1.
       -3    1    3    3    0  502  0.55061439616E+03  0.43413270073E+03  0.49221516126E+03  0.85669317160E+03  0.10100000352E+00 0.  1.
</event>
<event>
 5   0  0.7296966E-04  0.1398728E+04  0.7818609E-02  0.8954740E-01
        2   -1    0    0  501    0  0.00000000000E+00  0.00000000000E+00  0.69150923172E+03  0.69150923173E+03  0.25500000920E-02 0.  1.
       -2   -1    0    0    0  501  0.00000000000E+00  0.00000000000E+00 -0.70730839619E+03  0.70730839620E+03  0.25500000920E-02 0. -1.
    10030    2    1    2    0    0  0.00000000000E+00  0.00000000000E+00 -0.15799164474E+02  0.13988176279E+04  0.13987284020E+04 0.  0.
        3    1    3    3  502    0 -0.71522756532E+02  0.63253682581E+03  0.28175993881E+03  0.69613720920E+03  0.10100000352E+00 0.  1.
       -3    1    3    3    0  502  0.71522756532E+02 -0.63253682581E+03 -0.29755910328E+03  0.70268041873E+03  0.10100000352E+00 0. -1.
</event>
<event>
 5   0  0.3907093E-04  0.1395326E+04  0.7818609E-02  0.8957209E-01
        1   -1    0    0  501    0  0.00000000000E+00  0.00000000000E+00  0.89728823774E+03  0.89728823776E+03  0.50400001928E-02 0. -1.
       -1   -1    0    0    0  501  0.00000000000E+00  0.00000000000E+00 -0.54244985232E+03  0.54244985234E+03  0.50400001928E-02 0.  1.
    10030    2    1    2    0    0  0.00000000000E+00  0.00000000000E+00  0.35483838542E+03  0.14397380901E+04  0.13953263017E+04 0.  0.
        4    1    3    3  502    0  0.41319240038E+03  0.94299685558E+02 -0.39439642683E+03  0.57893915468E+03  0.12699999809E+01 0.  1.
       -4    1    3    3    0  502 -0.41319240038E+03 -0.94299685558E+02  0.74923481225E+03  0.86079893542E+03  0.12699999809E+01 0. -1.
</event>
<event>
 5   0  0.7065539E-04  0.1401076E+04  0.7818609E-02  0.8953040E-01
       -2   -1    0    0    0  501  0.00000000000E+00  0.00000000000E+00  0.25492547194E+03  0.25492547195E+03  0.25500000920E-02 0.  1.
        2   -1    0    0  501    0  0.00000000000E+00  0.00000000000E+00 -0.19250848596E+04  0.19250848596E+04  0.25500000920E-02 0. -1.
    10030    2    1    2    0    0  0.00000000000E+00  0.00000000000E+00 -0.16701593876E+04  0.21800103315E+04  0.14010755388E+04 0.  0.
        1    1    3    3  502    0  0.59523305659E+03 -0.31868381697E+03 -0.54443915126E+03  0.86733831710E+03  0.50400001928E-02 0.  1.
       -1    1    3    3    0  502 -0.59523305659E+03  0.31868381697E+03 -0.11257202364E+04  0.13126720144E+04  0.50400001928E-02 0. -1.
</event>
<event>
 5   0  0.3756664E-04  0.1388672E+04  0.7818609E-02  0.8962059E-01
        1   -1    0    0  501    0  0.00000000000E+00  0.00000000000E+00  0.66256386152E+03  0.66256386154E+03  0.50400001928E-02 0.  1.
       -1   -1    0    0    0  501  0.00000000000E+00  0.00000000000E+00 -0.72763169269E+03  0.72763169270E+03  0.50400001928E-02 0. -1.
    10030    2    1    2    0    0  0.00000000000E+00  0.00000000000E+00 -0.65067831170E+02  0.13901955542E+04  0.13886719758E+04 0.  0.
        2    1    3    3  502    0 -0.64547665504E+03 -0.15829671093E+03  0.16869533492E+03  0.68567928138E+03  0.25500000920E-02 0.  1.
       -2    1    3    3    0  502  0.64547665504E+03  0.15829671093E+03 -0.23376316609E+03  0.70451627285E+03  0.25500000920E-02 0. -1.
</event>
<event>
 5   0  0.3784219E-04  0.1394350E+04  0.7818609E-02  0.8957918E-01
       -1   -1    0    0    0  501  0.00000000000E+00  0.00000000000E+00  0.44910078141E+03  0.44910078144E+03  0.50400001928E-02 0.  1.
        1   -1    0    0  501    0  0.00000000000E+00  0.00000000000E+00 -0.10822807719E+04  0.10822807719E+04  0.50400001928E-02 0. -1.
    10030    2    1    2    0    0  0.00000000000E+00  0.00000000000E+00 -0.63317999049E+03  0.15313815533E+04  0.13943502292E+04 0.  0.
        1    1    3    3  502    0  0.36284996564E+03 -0.33395839548E+03  0.22465495256E+03  0.54190234841E+03  0.50400001928E-02 0.  1.
       -1    1    3    3    0  502 -0.36284996564E+03  0.33395839548E+03 -0.85783494304E+03  0.98947920494E+03  0.50400001928E-02 0. -1.
</event>
<event>
 5   0  0.3977658E-04  0.1409713E+04  0.7818609E-02  0.8946817E-01
       -1   -1    0    0    0  501  0.00000000000E+00  0.00000000000E+00  0.22919941431E+03  0.22919941437E+03  0.50400001928E-02 0. -1.
        1   -1    0    0  501    0  0.00000000000E+00  0.00000000000E+00 -0.21676448372E+04  0.21676448372E+04  0.50400001928E-02 0.  1.
    10030    2    1    2    0    0  0.00000000000E+00  0.00000000000E+00 -0.19384454229E+04  0.23968442515E+04  0.14097133428E+04 0.  0.
        5    1    3    3  502    0 -0.51335960148E+02  0.13666334796E+03  0.20318604093E+03  0.25023770441E+03  0.46999998093E+01 0. -1.
       -5    1    3    3    0  502  0.51335960148E+02 -0.13666334796E+03 -0.21416314638E+04  0.21466065471E+04  0.46999998093E+01 0.  1.
</event>
<event>
 5   0  0.6870835E-04  0.1401447E+04  0.7818609E-02  0.8952772E-01
       -2   -1    0    0    0  501  0.00000000000E+00  0.00000000000E+00  0.62907448738E+03  0.62907448739E+03  0.25500000920E-02 0. -1.
        2   -1    0    0  501    0  0.00000000000E+00  0.00000000000E+00 -0.78053349125E+03  0.78053349126E+03  0.25500000920E-02 0.  1.
    10030    2    1    2    0    0  0.00000000000E+00  0.00000000000E+00 -0.15145900387E+03  0.14096079786E+04  0.14014474031E+04 0.  0.
        2    1    3    3  502    0 -0.35456885634E+03  0.15131155835E+03  0.51282687787E+03  0.64156501483E+03  0.25500000920E-02 0. -1.
       -2    1    3    3    0  502  0.35456885634E+03 -0.15131155835E+03 -0.66428588175E+03  0.76804296382E+03  0.25500000920E-02 0.  1.
</event>
<event>
 5   0  0.7065539E-04  0.1404180E+04  0.7818609E-02  0.8950799E-01
       -2   -1    0    0    0  501  0.00000000000E+00  0.00000000000E+00  0.69673372896E+03  0.69673372896E+03  0.25500000920E-02 0.  1.
        2   -1    0    0  501    0  0.00000000000E+00  0.00000000000E+00 -0.70748711230E+03  0.70748711231E+03  0.25500000920E-02 0. -1.
    10030    2    1    2    0    0  0.00000000000E+00  0.00000000000E+00 -0.10753383344E+02  0.14042208413E+04  0.14041796665E+04 0.  0.
        1    1    3    3  502    0 -0.28257587481E+03 -0.15326577311E+03  0.61881355173E+03  0.69733043392E+03  0.50400001928E-02 0.  1.
       -1    1    3    3    0  502  0.28257587481E+03  0.15326577311E+03 -0.62956693508E+03  0.70689040735E+03  0.50400001928E-02 0. -1.
</event>
<event>
 5   0  0.6959748E-04  0.1404861E+04  0.7818609E-02  0.8950308E-01
       -2   -1    0    0    0  501  0.00000000000E+00  0.00000000000E+00  0.63892438113E+03  0.63892438113E+03  0.25500000920E-02 0. -1.
        2   -1    0    0  501    0  0.00000000000E+00  0.00000000000E+00 -0.77224831146E+03  0.77224831146E+03  0.25500000920E-02 0.  1.
    10030    2    1    2    0    0  0.00000000000E+00  0.00000000000E+00 -0.13332393033E+03  0.14111726926E+04  0.14048605262E+04 0.  0.
        5    1    3    3  502    0  0.27280616826E+03 -0.76541921878E+02  0.57895780191E+03  0.64458986777E+03  0.46999998093E+01 0. -1.
       -5    1    3    3    0  502 -0.27280616826E+03  0.76541921878E+02 -0.71228173224E+03  0.76658282483E+03  0.46999998093E+01 0.  1.
</event>
<event>
 5   0  0.2660250E-04  0.1374700E+04  0.7818609E-02  0.8972338E-01
        3   -1    0    0  501    0  0.00000000000E+00  0.00000000000E+00  0.79987119510E+03  0.79987120148E+03  0.10100000352E+00 0. -1.
       -3   -1    0    0    0  501  0.00000000000E+00  0.00000000000E+00 -0.59065773632E+03  0.59065774495E+03  0.10100000352E+00 0.  1.
    10030    2    1    2    0    0  0.00000000000E+00  0.00000000000E+00  0.20921345879E+03  0.13905289464E+04  0.13747001417E+04 0.  0.
        2    1    3    3  502    0 -0.30220927622E+03  0.48679911175E+03  0.48864437912E+03  0.75304525168E+03  0.25500000920E-02 0. -1.
       -2    1    3    3    0  502  0.30220927622E+03 -0.48679911175E+03 -0.27943092033E+03  0.63748369475E+03  0.25500000920E-02 0.  1.
</event>
<event>
 5   0  0.2660250E-04  0.1392552E+04  0.7818609E-02  0.8959227E-01
       -4   -1    0    0    0  501  0.00000000000E+00  0.00000000000E+00  0.57139945608E+03  0.57140086744E+03  0.12699999809E+01 0. -1.
        4   -1    0    0  501    0  0.00000000000E+00  0.00000000000E+00 -0.84844096177E+03  0.84844191228E+03  0.12699999809E+01 0.  1.
    10030    2    1    2    0    0  0.00000000000E+00  0.00000000000E+00 -0.27704150569E+03  0.14198427797E+04  0.13925521618E+04 0.  0.
        4    1    3    3  502    0  0.47040856267E+03 -0.49230619493E+02 -0.65950507166E+03  0.81157650420E+03  0.12699999809E+01 0.  1.
       -4    1    3    3    0  502 -0.47040856267E+03  0.49230619493E+02  0.38246356597E+03  0.60826627551E+03  0.12699999809E+01 0. -1.
</event>
<event>
 5   0  0.6895048E-04  0.1388511E+04  0.7818609E-02  0.8962177E-01
       -2   -1    0    0    0  501  0.00000000000E+00  0.00000000000E+00  0.67584270257E+03  0.67584270257E+03  0.25500000920E-02 0. -1.
        2   -1    0    0  501    0  0.00000000000E+00  0.00000000000E+00 -0.71316967863E+03  0.71316967864E+03  0.25500000920E-02 0.  1.
    10030    2    1    2    0    0  0.00000000000E+00  0.00000000000E+00 -0.37326976065E+02  0.13890123812E+04  0.13885107461E+04 0.  0.
        4    1    3    3  502    0  0.66285788049E+03 -0.18992545081E+03  0.62215356129E+02  0.69233273073E+03  0.12699999809E+01 0.  1.
       -4    1    3    3    0  502 -0.66285788049E+03  0.18992545081E+03 -0.99542332194E+02  0.69667965048E+03  0.12699999809E+01 0. -1.
</event>
<event>
 5   0  0.7065539E-04  0.1371783E+04  0.7818609E-02  0.8974500E-01
       -2   -1    0    0    0  501  0.00000000000E+00  0.00000000000E+00  0.41123500969E+03  0.41123500970E+03  0.25500000920E-02 0. -1.
        2   -1    0    0  501    0  0.00000000000E+00  0.00000000000E+00 -0.11439868368E+04  0.11439868368E+04  0.25500000920E-02 0.  1.
    10030    2    1    2    0    0  0.00000000000E+00  0.00000000000E+00 -0.73275182707E+03  0.15552218465E+04  0.13717834201E+04 0.  0.
        1    1    3    3  502    0 -0.53876056274E+03  0.47247767553E+02  0.11187786416E+03  0.55227887160E+03  0.50400001928E-02 0. -1.
       -1    1    3    3    0  502  0.53876056274E+03 -0.47247767553E+02 -0.84462969123E+03  0.10029429749E+04  0.50400001928E-02 0.  1.
</event>
<event>
 5   0  0.3907093E-04  0.1399895E+04  0.7818609E-02  0.8953894E-01
        1   -1    0    0  501    0  0.00000000000E+00  0.00000000000E+00  0.91986358315E+03  0.91986358316E+03  0.50400001928E-02 0.  1.
       -1   -1    0    0    0  501  0.00000000000E+00  0.00000000000E+00 -0.53260790244E+03  0.53260790246E+03  0.50400001928E-02 0. -1.
    10030    2    1    2    0    0  0.00000000000E+00  0.00000000000E+00  0.38725568071E+03  0.14524714856E+04  0.13998951583E+04 0.  0.
        4    1    3    3  502    0  0.28671847640E+03  0.22659361385E+03  0.81301815342E+03  0.89137662144E+03  0.12699999809E+01 0.  1.
       -4    1    3    3    0  502 -0.28671847640E+03 -0.22659361385E+03 -0.42576247272E+03  0.56109486419E+03  0.12699999809E+01 0. -1.
</event>
<event>
 5   0  0.3977658E-04  0.1439120E+04  0.7818609E-02  0.8925978E-01
        1   -1    0    0  501    0  0.00000000000E+00  0.00000000000E+00  0.13111917729E+04  0.13111917729E+04  0.50400001928E-02 0.  1.
       -1   -1    0    0    0  501  0.00000000000E+00  0.00000000000E+00 -0.39488243722E+03  0.39488243726E+03  0.50400001928E-02 0. -1.
    10030    2    1    2    0    0  0.00000000000E+00  0.00000000000E+00  0.91630933571E+03  0.17060742102E+04  0.14391200131E+04 0.  0.
        5    1    3    3  502    0 -0.36483727368E+03  0.20227518007E+03  0.11531873393E+04  0.12263297331E+04  0.46999998093E+01 0.  1.
       -5    1    3    3    0  502  0.36483727368E+03 -0.20227518007E+03 -0.23687800358E+03  0.47974447711E+03  0.46999998093E+01 0. -1.
</event>
<event>
 5   0  0.6959748E-04  0.1397930E+04  0.7818609E-02  0.8955318E-01
        2   -1    0    0  501    0  0.00000000000E+00  0.00000000000E+00  0.20045195137E+04  0.20045195137E+04  0.25500000920E-02 0.  1.
       -2   -1    0    0    0  501  0.00000000000E+00  0.00000000000E+00 -0.24372518582E+03  0.24372518583E+03  0.25500000920E-02 0. -1.
    10030    2    1    2    0    0  0.00000000000E+00  0.00000000000E+00  0.17607943279E+04  0.22482446996E+04  0.13979297421E+04 0.  0.
        5    1    3    3  502    0 -0.63163980367E+03  0.22873819683E+03  0.57003992184E+03  0.88105482620E+03  0.46999998093E+01 0. -1.
       -5    1    3    3    0  502  0.63163980367E+03 -0.22873819683E+03  0.11907544061E+04  0.13671898734E+04  0.46999998093E+01 0.  1.
</event>
<event>
 5   0  0.6959748E-04  0.1385883E+04  0.7818609E-02  0.8964101E-01
        2   -1    0    0  501    0  0.00000000000E+00  0.00000000000E+00  0.16804890111E+04  0.16804890111E+04  0.25500000920E-02 0.  1.
       -2   -1    0    0    0  501  0.00000000000E+00  0.00000000000E+00 -0.28573120704E+03  0.28573120705E+03  0.25500000920E-02 0. -1.
    10030    2    1    2    0    0  0.00000000000E+00  0.00000000000E+00  0.13947578040E+04  0.19662202181E+04  0.13858833336E+04 0.  0.
        5    1    3    3  502    0  0.64287469079E+03 -0.23129652994E+03  0.86136631495E+03  0.10994362061E+04  0.46999998093E+01 0.  1.
       -5    1    3    3    0  502 -0.64287469079E+03  0.23129652994E+03  0.53339148906E+03  0.86678401198E+03  0.46999998093E+01 0. -1.
</event>
<event>
 5   0  0.6959748E-04  0.1411435E+04  0.7818609E-02  0.8945583E-01
        2   -1    0    0  501    0  0.00000000000E+00  0.00000000000E+00  0.13824087312E+04  0.13824087312E+04  0.25500000920E-02 0. -1.
       -2   -1    0    0    0  501  0.00000000000E+00  0.00000000000E+00 -0.36026770793E+03  0.36026770794E+03  0.25500000920E-02 0.  1.
    10030    2    1    2    0    0  0.00000000000E+00  0.00000000000E+00  0.10221410233E+04  0.17426764392E+04  0.14114350499E+04 0.  0.
        5    1    3    3  502    0 -0.28657718969E+02  0.57879630614E+03  0.13830387424E+02  0.57968939828E+03  0.46999998093E+01 0.  1.
       -5    1    3    3    0  502  0.28657718969E+02 -0.57879630614E+03  0.10083106359E+04  0.11629870409E+04  0.46999998093E+01 0. -1.
</event>
<event>
 5   0  0.6895048E-04  0.1387553E+04  0.7818609E-02  0.8962878E-01
        2   -1    0    0  501    0  0.00000000000E+00  0.00000000000E+00  0.11353346712E+04  0.11353346712E+04  0.25500000920E-02 0. -1.
       -2   -1    0    0    0  501  0.00000000000E+00  0.00000000000E+00 -0.42395072164E+03  0.42395072165E+03  0.25500000920E-02 0.  1.
    10030    2    1    2    0    0  0.00000000000E+00  0.00000000000E+00  0.71138394955E+03  0.15592853928E+04  0.13875531747E+04 0.  0.
        4    1    3    3  502    0 -0.42508876333E+03  0.52252155035E+03  0.16901443731E+03  0.69447586006E+03  0.12699999809E+01 0.  1.
       -4    1    3    3    0  502  0.42508876333E+03 -0.52252155035E+03  0.54236951224E+03  0.86480953278E+03  0.12699999809E+01 0. -1.
</event>
<event>
 5   0  0.6895048E-04  0.1384972E+04  0.7818609E-02  0.8964769E-01
       -2   -1    0    0    0  501  0.00000000000E+00  0.00000000000E+00  0.30779023394E+03  0.30779023396E+03  0.25500000920E-02 0.  1.
        2   -1    0    0  501    0  0.00000000000E+00  0.00000000000E+00 -0.15579992271E+04  0.15579992271E+04  0.25500000920E-02 0. -1.
    10030    2    1    2    0    0  0.00000000000E+00  0.00000000000E+00 -0.12502089932E+04  0.18657894611E+04  0.13849721248E+04 0.  0.
        4    1    3    3  502    0  0.29504596308E+03  0.62321628747E+03 -0.53900507785E+03  0.87520211845E+03  0.12699999809E+01 0. -1.
       -4    1    3    3    0  502 -0.29504596308E+03 -0.62321628747E+03 -0.71120391531E+03  0.99058734262E+03  0.12699999809E+01 0.  1.
</event>
<event>
 5   0  0.3977658E-04  0.1412487E+04  0.7818609E-02  0.8944829E-01
       -1   -1    0    0    0  501  0.00000000000E+00  0.00000000000E+00  0.42490380113E+03  0.42490380116E+03  0.50400001928E-02 0.  1.
        1   -1    0    0  501    0  0.00000000000E+00  0.00000000000E+00 -0.11738650771E+04  0.11738650771E+04  0.50400001928E-02 0. -1.
    10030    2    1    2    0    0  0.00000000000E+00  0.00000000000E+00 -0.74896127593E+03  0.15987688782E+04  0.14124867904E+04 0.  0.
        5    1    3    3  502    0  0.49673775808E+03 -0.30771664506E+03  0.74464071833E+02  0.58907123672E+03  0.46999998093E+01 0.  1.
       -5    1    3    3    0  502 -0.49673775808E+03  0.30771664506E+03 -0.82342534777E+03  0.10096976415E+04  0.46999998093E+01 0. -1.
</event>
<event>
 5   0  0.7296966E-04  0.1407813E+04  0.7818609E-02  0.8948182E-01
        2   -1    0    0  501    0  0.00000000000E+00  0.00000000000E+00  0.73125732521E+03  0.73125732522E+03  0.25500000920E-02 0.  1.
       -2   -1    0    0    0  501  0.00000000000E+00  0.00000000000E+00 -0.67757896235E+03  0.67757896235E+03  0.25500000920E-02 0. -1.
    10030    2    1    2    0    0  0.00000000000E+00  0.00000000000E+00  0.53678362864E+02  0.14088362876E+04  0.14078133110E+04 0.  0.
        3    1    3    3  502    0 -0.45659895589E+03 -0.78321086312E+02 -0.50351551066E+03  0.68421098994E+03  0.10100000352E+00 0. -1.
       -3    1    3    3    0  502  0.45659895589E+03  0.78321086312E+02  0.55719387352E+03  0.72462529763E+03  0.10100000352E+00 0.  1.
</event>
<event>
 5   0  0.6870835E-04  0.1393157E+04  0.7818609E-02  0.8958787E-01
       -2   -1    0    0    0  501  0.00000000000E+00  0.00000000000E+00  0.31928151359E+03  0.31928151360E+03  0.25500000920E-02 0.  1.
        2   -1    0    0  501    0  0.00000000000E+00  0.00000000000E+00 -0.15197300842E+04  0.15197300842E+04  0.25500000920E-02 0. -1.
    10030    2    1    2    0    0  0.00000000000E+00  0.00000000000E+00 -0.12004485706E+04  0.18390115978E+04  0.13931571649E+04 0.  0.
        2    1    3    3  502    0 -0.91997519879E+02 -0.48350266433E+03  0.50463440142E+02  0.49475744449E+03  0.25500000920E-02 0.  1.
       -2    1    3    3    0  502  0.91997519879E+02  0.48350266433E+03 -0.12509120108E+04  0.13442541533E+04  0.25500000920E-02 0. -1.
</event>
<event>
 5   0  0.3784219E-04  0.1405337E+04  0.7818609E-02  0.8949964E-01
        1   -1    0    0  501    0  0.00000000000E+00  0.00000000000E+00  0.67608643480E+03  0.67608643482E+03  0.50400001928E-02 0.  1.
       -1   -1    0    0    0  501  0.00000000000E+00  0.00000000000E+00 -0.73029582243E+03  0.73029582245E+03  0.50400001928E-02 0. -1.
    10030    2    1    2    0    0  0.00000000000E+00  0.00000000000E+00 -0.54209387634E+02  0.14063822573E+04  0.14053371111E+04 0.  0.
        1    1    3    3  502    0  0.50036324947E+03  0.36357928771E+03  0.30659466761E+03  0.69032859575E+03  0.50400001928E-02 0.  1.
       -1    1    3    3    0  502 -0.50036324947E+03 -0.36357928771E+03 -0.36080405524E+03  0.71605366152E+03  0.50400001928E-02 0. -1.
</event>
<event>
 5   0  0.6959748E-04  0.1400980E+04  0.7818609E-02  0.8953109E-01
       -2   -1    0    0    0  501  0.00000000000E+00  0.00000000000E+00  0.39903247312E+03  0.39903247313E+03  0.25500000920E-02 0. -1.
        2   -1    0    0  501    0  0.00000000000E+00  0.00000000000E+00 -0.12296906059E+04  0.12296906059E+04  0.25500000920E-02 0.  1.
    10030    2    1    2    0    0  0.00000000000E+00  0.00000000000E+00 -0.83065813276E+03  0.16287230790E+04  0.14009803477E+04 0.  0.
        5    1    3    3  502    0 -0.38723417779E+03  0.52294478776E+03 -0.71679497858E+03  0.96811088766E+03  0.46999998093E+01 0.  1.
       -5    1    3    3    0  502  0.38723417779E+03 -0.52294478776E+03 -0.11386315418E+03  0.66061219136E+03  0.46999998093E+01 0. -1.
</event>
<event>
 5   0  0.6870835E-04  0.1401467E+04  0.7818609E-02  0.8952757E-01
        2   -1    0    0  501    0  0.00000000000E+00  0.00000000000E+00  0.13447079043E+04  0.13447079043E+04  0.25500000920E-02 0.  1.
       -2   -1    0    0    0  501  0.00000000000E+00  0.00000000000E+00 -0.36515551904E+03  0.36515551905E+03  0.25500000920E-02 0. -1.
    10030    2    1    2    0    0  0.00000000000E+00  0.00000000000E+00  0.97955238528E+03  0.17098634234E+04  0.14014671067E+04 0.  0.
        2    1    3    3  502    0 -0.10084535989E+03 -0.19578687346E+03  0.13013864546E+04  0.13198897645E+04  0.25500000920E-02 0.  1.
       -2    1    3    3    0  502  0.10084535989E+03  0.19578687346E+03 -0.32183406928E+03  0.38997365883E+03  0.25500000920E-02 0. -1.
</event>
<event>
 5   0  0.3784219E-04  0.1399780E+04  0.7818609E-02  0.8953978E-01
       -1   -1    0    0    0  501  0.00000000000E+00  0.00000000000E+00  0.27406794376E+03  0.27406794380E+03  0.50400001928E-02 0. -1.
        1   -1    0    0  501    0  0.00000000000E+00  0.00000000000E+00 -0.17873151549E+04  0.17873151550E+04  0.50400001928E-02 0.  1.
    10030    2    1    2    0    0  0.00000000000E+00  0.00000000000E+00 -0.15132472112E+04  0.20613830988E+04  0.13997796818E+04 0.  0.
        1    1    3    3  502    0  0.40992888440E+03  0.24588032811E+03 -0.15094723922E+04  0.15833526862E+04  0.50400001928E-02 0.  1.
       -1    1    3    3    0  502 -0.40992888440E+03 -0.24588032811E+03 -0.37748189479E+01  0.47803041253E+03  0.50400001928E-02 0. -1.
</event>
<event>
 5   0  0.6959748E-04  0.1402095E+04  0.7818609E-02  0.8952304E-01
       -2   -1    0    0    0  501  0.00000000000E+00  0.00000000000E+00  0.40300530462E+03  0.40300530462E+03  0.25500000920E-02 0.  1.
        2   -1    0    0  501    0  0.00000000000E+00  0.00000000000E+00 -0.12195062423E+04  0.12195062423E+04  0.25500000920E-02 0. -1.
    10030    2    1    2    0    0  0.00000000000E+00  0.00000000000E+00 -0.81650093766E+03  0.16225115469E+04  0.14020948394E+04 0.  0.
        5    1    3    3  502    0 -0.55255115062E+03  0.24792010509E+03 -0.81684102384E+03  0.10168719196E+04  0.46999998093E+01 0. -1.
       -5    1    3    3    0  502  0.55255115062E+03 -0.24792010509E+03  0.34008617241E+00  0.60563962735E+03  0.46999998093E+01 0.  1.
</event>
<event>
 5   0  0.6959748E-04  0.1401772E+04  0.7818609E-02  0.8952537E-01
       -2   -1    0    0    0  501  0.00000000000E+00  0.00000000000E+00  0.12451407266E+04  0.12451407266E+04  0.25500000920E-02 0. -1.
        2   -1    0    0  501    0  0.00000000000E+00  0.00000000000E+00 -0.39452664965E+03  0.39452664966E+03  0.25500000920E-02 0.  1.
    10030    2    1    2    0    0  0.00000000000E+00  0.00000000000E+00  0.85061407691E+03  0.16396673762E+04  0.14017720203E+04 0.  0.
        5    1    3    3  502    0  0.35916073111E+03  0.60181160418E+03  0.43319469564E+03  0.82392558646E+03  0.46999998093E+01 0. -1.
       -5    1    3    3    0  502 -0.35916073111E+03 -0.60181160418E+03  0.41741938127E+03  0.81574178976E+03  0.46999998093E+01 0.  1.
</event>
<event>
 5   0  0.7296966E-04  0.1397401E+04  0.7818609E-02  0.8955702E-01
       -2   -1    0    0    0  501  0.00000000000E+00  0.00000000000E+00  0.26415232745E+03  0.26415232746E+03  0.25500000920E-02 0. -1.
        2   -1    0    0  501    0  0.00000000000E+00  0.00000000000E+00 -0.18481091245E+04  0.18481091245E+04  0.25500000920E-02 0.  1.
    10030    2    1    2    0    0  0.00000000000E+00  0.00000000000E+00 -0.15839567971E+04  0.21122614520E+04  0.13974009112E+04 0.  0.
        3    1    3    3  502    0 -0.64957876116E+03 -0.25287266924E+03 -0.71972051971E+03  0.10019455027E+04  0.10100000352E+00 0.  1.
       -3    1    3    3    0  502  0.64957876116E+03  0.25287266924E+03 -0.86423627736E+03  0.11103159492E+04  0.10100000352E+00 0. -1.
</event>
<event>
 5   0  0.3756664E-04  0.1391206E+04  0.7818609E-02  0.8960209E-01
       -1   -1    0    0    0  501  0.00000000000E+00  0.00000000000E+00  0.36212966000E+03  0.36212966003E+03  0.50400001928E-02 0.  1.
        1   -1    0    0  501    0  0.00000000000E+00  0.00000000000E+00 -0.13361613052E+04  0.13361613052E+04  0.50400001928E-02 0. -1.
    10030    2    1    2    0    0  0.00000000000E+00  0.00000000000E+00 -0.97403164516E+03  0.16982909652E+04  0.13912061518E+04 0.  0.
        2    1    3    3  502    0 -0.31818809736E+03 -0.59954893738E+03 -0.67279613555E+03  0.95569724999E+03  0.25500000920E-02 0.  1.
       -2    1    3    3    0  502  0.31818809736E+03  0.59954893738E+03 -0.30123550961E+03  0.74259371521E+03  0.25500000920E-02 0. -1.
</event>
<event>
 5   0  0.3977658E-04  0.1401252E+04  0.7818609E-02  0.8952913E-01
       -1   -1    0    0    0  501  0.00000000000E+00  0.00000000000E+00  0.65706073672E+03  0.65706073674E+03  0.50400001928E-02 0.  1.
        1   -1    0    0  501    0  0.00000000000E+00  0.00000000000E+00 -0.74707995609E+03  0.74707995611E+03  0.50400001928E-02 0. -1.
    10030    2    1    2    0    0  0.00000000000E+00  0.00000000000E+00 -0.90019219369E+02  0.14041406928E+04  0.14012521634E+04 0.  0.
        5    1    3    3  502    0 -0.45949699879E+03 -0.45581733588E+03  0.22377434078E+03  0.68483865339E+03  0.46999998093E+01 0.  1.
       -5    1    3    3    0  502  0.45949699879E+03  0.45581733588E+03 -0.31379356015E+03  0.71930203946E+03  0.46999998093E+01 0. -1.
</event>
<event>
 5   0  0.6870835E-04  0.1404130E+04  0.7818609E-02  0.8950835E-01
       -2   -1    0    0    0  501  0.00000000000E+00  0.00000000000E+00  0.11154285661E+04  0.11154285661E+04  0.25500000920E-02 0.  1.
        2   -1    0    0  501    0  0.00000000000E+00  0.00000000000E+00 -0.44188840713E+03  0.44188840714E+03  0.25500000920E-02 0. -1.
    10030    2    1    2    0    0  0.00000000000E+00  0.00000000000E+00  0.67354015893E+03  0.15573169732E+04  0.14041295557E+04 0.  0.
        2    1    3    3  502    0 -0.54406867960E+03 -0.21838519259E+01 -0.15534880996E+03  0.56581688743E+03  0.25500000920E-02 0. -1.
       -2    1    3    3    0  502  0.54406867960E+03  0.21838519259E+01  0.82888896889E+03  0.99150008577E+03  0.25500000920E-02 0.  1.
</event>
<event>
 5   0  0.7065539E-04  0.1394449E+04  0.7818609E-02  0.8957847E-01
       -2   -1    0    0    0  501  0.00000000000E+00  0.00000000000E+00  0.55545893996E+03  0.55545893996E+03  0.25500000920E-02 0. -1.
        2   -1    0    0  501    0  0.00000000000E+00  0.00000000000E+00 -0.87517166033E+03  0.87517166033E+03  0.25500000920E-02 0.  1.
    10030    2    1    2    0    0  0.00000000000E+00  0.00000000000E+00 -0.31971272037E+03  0.14306306003E+04  0.13944488843E+04 0.  0.
        1    1    3    3  502    0  0.55552182174E+03 -0.10328153533E+03 -0.57892819690E+03  0.80896812494E+03  0.50400001928E-02 0.  1.
       -1    1    3    3    0  502 -0.55552182174E+03  0.10328153533E+03  0.25921547653E+03  0.62166247536E+03  0.50400001928E-02 0. -1.
</event>
<event>
 5   0  0.3756664E-04  0.1398054E+04  0.7818609E-02  0.8955229E-01
       -1   -1    0    0    0  501  0.00000000000E+00  0.00000000000E+00  0.59834143770E+03  0.59834143772E+03  0.50400001928E-02 0.  1.
        1   -1    0    0  501    0  0.00000000000E+00  0.00000000000E+00 -0.81665486153E+03  0.81665486154E+03  0.50400001928E-02 0. -1.
    10030    2    1    2    0    0  0.00000000000E+00  0.00000000000E+00 -0.21831342383E+03  0.14149962993E+04  0.13980535669E+04 0.  0.
        2    1    3    3  502    0  0.21267736768E+03  0.18349888012E+03 -0.75701943673E+03  0.80745397969E+03  0.25500000920E-02 0. -1.
       -2    1    3    3    0  502 -0.21267736768E+03 -0.18349888012E+03  0.53870601290E+03  0.60754231957E+03  0.25500000920E-02 0.  1.
</event>
<event>
 5   0  0.3907270E-04  0.1401187E+04  0.7818609E-02  0.8952960E-01
        1   -1    0    0  501    0  0.00000000000E+00  0.00000000000E+00  0.17202007045E+04  0.17202007045E+04  0.50400001928E-02 0. -1.
       -1   -1    0    0    0  501  0.00000000000E+00  0.00000000000E+00 -0.28533353352E+03  0.28533353356E+03  0.50400001928E-02 0.  1.
    10030    2    1    2    0    0  0.00000000000E+00  0.00000000000E+00  0.14348671710E+04  0.20055342381E+04  0.14011865621E+04 0.  0.
        3    1    3    3  502    0 -0.11130459003E+03 -0.68694099949E+03  0.83331047630E+03  0.10856716855E+04  0.10100000352E+00 0. -1.
       -3    1    3    3    0  502  0.11130459003E+03  0.68694099949E+03  0.60155669468E+03  0.91986255259E+03  0.10100000352E+00 0.  1.
</event>
<event>
 5   0  0.6870835E-04  0.1352917E+04  0.7818609E-02  0.8988623E-01
        2   -1    0    0  501    0  0.00000000000E+00  0.00000000000E+00  0.42157697797E+03  0.42157697798E+03  0.25500000920E-02 0. -1.
       -2   -1    0    0    0  501  0.00000000000E+00  0.00000000000E+00 -0.10854383072E+04  0.10854383072E+04  0.25500000920E-02 0.  1.
    10030    2    1    2    0    0  0.00000000000E+00  0.00000000000E+00 -0.66386132928E+03  0.15070152852E+04  0.13529165552E+04 0.  0.
        2    1    3    3  502    0  0.35614293284E+02 -0.37829071051E+03  0.29147946971E+03  0.47888675155E+03  0.25500000920E-02 0. -1.
       -2    1    3    3    0  502 -0.35614293284E+02  0.37829071051E+03 -0.95534079899E+03  0.10281285337E+04  0.25500000920E-02 0.  1.
</event>
<event>
 5   0  0.3784219E-04  0.1402327E+04  0.7818609E-02  0.8952136E-01
        1   -1    0    0  501    0  0.00000000000E+00  0.00000000000E+00  0.62230013993E+03  0.62230013995E+03  0.50400001928E-02 0.  1.
       -1   -1    0    0    0  501  0.00000000000E+00  0.00000000000E+00 -0.79002155754E+03  0.79002155756E+03  0.50400001928E-02 0. -1.
    10030    2    1    2    0    0  0.00000000000E+00  0.00000000000E+00 -0.16772141761E+03  0.14123216975E+04  0.14023273881E+04 0.  0.
        1    1    3    3  502    0 -0.41252159432E+02 -0.33165306122E+03 -0.70464237901E+03  0.77988228342E+03  0.50400001928E-02 0. -1.
       -1    1    3    3    0  502  0.41252159432E+02  0.33165306122E+03  0.53692096140E+03  0.63243941409E+03  0.50400001928E-02 0.  1.
</event>
<event>
 5   0  0.3784219E-04  0.1388599E+04  0.7818609E-02  0.8962113E-01
        1   -1    0    0  501    0  0.00000000000E+00  0.00000000000E+00  0.10018107922E+04  0.10018107923E+04  0.50400001928E-02 0.  1.
       -1   -1    0    0    0  501  0.00000000000E+00  0.00000000000E+00 -0.48118054816E+03  0.48118054819E+03  0.50400001928E-02 0. -1.
    10030    2    1    2    0    0  0.00000000000E+00  0.00000000000E+00  0.52063024408E+03  0.14829913405E+04  0.13885991015E+04 0.  0.
        1    1    3    3  502    0  0.41094049296E+03 -0.23411822480E+03  0.80316714654E+03  0.93207343984E+03  0.50400001928E-02 0.  1.
       -1    1    3    3    0  502 -0.41094049296E+03  0.23411822480E+03 -0.28253690246E+03  0.55091790061E+03  0.50400001928E-02 0. -1.
</event>
<event>
 5   0  0.3756664E-04  0.1396695E+04  0.7818609E-02  0.8956214E-01
        1   -1    0    0  501    0  0.00000000000E+00  0.00000000000E+00  0.13246819776E+04  0.13246819776E+04  0.50400001928E-02 0. -1.
       -1   -1    0    0    0  501  0.00000000000E+00  0.00000000000E+00 -0.36815586091E+03  0.36815586094E+03  0.50400001928E-02 0.  1.
    10030    2    1    2    0    0  0.00000000000E+00  0.00000000000E+00  0.95652611667E+03  0.16928378385E+04  0.13966952909E+04 0.  0.
        2    1    3    3  502    0 -0.32958853377E+03 -0.61482770937E+03  0.43903143048E+03  0.82425136382E+03  0.25500000920E-02 0. -1.
       -2    1    3    3    0  502  0.32958853377E+03  0.61482770937E+03  0.51749468619E+03  0.86858647471E+03  0.25500000920E-02 0.  1.
</event>
<event>
 5   0  0.6895048E-04  0.1405089E+04  0.7818609E-02  0.8950143E-01
       -2   -1    0    0    0  501  0.00000000000E+00  0.00000000000E+00  0.77962485139E+03  0.77962485139E+03  0.25500000920E-02 0. -1.
        2   -1    0    0  501    0  0.00000000000E+00  0.00000000000E+00 -0.63308478433E+03  0.63308478434E+03  0.25500000920E-02 0.  1.
    10030    2    1    2    0    0  0.00000000000E+00  0.00000000000E+00  0.14654006706E+03  0.14127096357E+04  0.14050887956E+04 0.  0.
        4    1    3    3  502    0 -0.27290913805E+03 -0.37960003001E+03  0.60051048400E+03  0.76104535654E+03  0.12699999809E+01 0. -1.
       -4    1    3    3    0  502  0.27290913805E+03  0.37960003001E+03 -0.45397041694E+03  0.65166427919E+03  0.12699999809E+01 0.  1.
</event>
<event>
 5   0  0.6959748E-04  0.1397039E+04  0.7818609E-02  0.8955965E-01
        2   -1    0    0  501    0  0.00000000000E+00  0.00000000000E+00  0.14390607006E+04  0.14390607006E+04  0.25500000920E-02 0.  1.
       -2   -1    0    0    0  501  0.00000000000E+00  0.00000000000E+00 -0.33906093929E+03  0.33906093930E+03  0.25500000920E-02 0. -1.
    10030    2    1    2    0    0  0.00000000000E+00  0.00000000000E+00  0.10999997613E+04  0.17781216399E+04  0.13970386864E+04 0.  0.
        5    1    3    3  502    0 -0.17522954150E+03  0.12717233341E+03  0.13952526508E+04  0.14119597176E+04  0.46999998093E+01 0.  1.
       -5    1    3    3    0  502  0.17522954150E+03 -0.12717233341E+03 -0.29525288948E+03  0.36616192230E+03  0.46999998093E+01 0. -1.
</event>
<event>
 5   0  0.6895048E-04  0.1479273E+04  0.7818609E-02  0.8898355E-01
        2   -1    0    0  501    0  0.00000000000E+00  0.00000000000E+00  0.19258249275E+04  0.19258249275E+04  0.25500000920E-02 0. -1.
       -2   -1    0    0    0  501  0.00000000000E+00  0.00000000000E+00 -0.28406628876E+03  0.28406628877E+03  0.25500000920E-02 0.  1.
    10030    2    1    2    0    0  0.00000000000E+00  0.00000000000E+00  0.16417586387E+04  0.22098912162E+04  0.14792727131E+04 0.  0.
        4    1    3    3  502    0 -0.49306002054E+03  0.45627333004E+03  0.12831859455E+04  0.14483995716E+04  0.12699999809E+01 0. -1.
       -4    1    3    3    0  502  0.49306002054E+03 -0.45627333004E+03  0.35857269324E+03  0.76149164460E+03  0.12699999809E+01 0.  1.
</event>
<event>
 5   0  0.7065539E-04  0.1359884E+04  0.7818609E-02  0.8983380E-01
        2   -1    0    0  501    0  0.00000000000E+00  0.00000000000E+00  0.10793077213E+04  0.10793077213E+04  0.25500000920E-02 0. -1.
       -2   -1    0    0    0  501  0.00000000000E+00  0.00000000000E+00 -0.42834957758E+03  0.42834957759E+03  0.25500000920E-02 0.  1.
    10030    2    1    2    0    0  0.00000000000E+00  0.00000000000E+00  0.65095814373E+03  0.15076572989E+04  0.13598838281E+04 0.  0.
        1    1    3    3  502    0 -0.15502755327E+03  0.63432022262E+03  0.11534274127E+03  0.66309851085E+03  0.50400001928E-02 0.  1.
       -1    1    3    3    0  502  0.15502755327E+03 -0.63432022262E+03  0.53561540246E+03  0.84455878805E+03  0.50400001928E-02 0. -1.
</event>
<event>
 5   0  0.6959748E-04  0.1400137E+04  0.7818609E-02  0.8953719E-01
        2   -1    0    0  501    0  0.00000000000E+00  0.00000000000E+00  0.49959409445E+03  0.49959409446E+03  0.25500000920E-02 0. -1.
       -2   -1    0    0    0  501  0.00000000000E+00  0.00000000000E+00 -0.98098819894E+03  0.98098819894E+03  0.25500000920E-02 0.  1.
    10030    2    1    2    0    0  0.00000000000E+00  0.00000000000E+00 -0.48139410449E+03  0.14805822934E+04  0.14001370089E+04 0.  0.
        5    1    3    3  502    0  0.47739767374E+03 -0.50938615828E+03 -0.18584147557E+03  0.72245549425E+03  0.46999998093E+01 0. -1.
       -5    1    3    3    0  502 -0.47739767374E+03  0.50938615828E+03 -0.29555262891E+03  0.75812679915E+03  0.46999998093E+01 0.  1.
</event>
<event>
 5   0  0.7296966E-04  0.1408782E+04  0.7818609E-02  0.8947486E-01
        2   -1    0    0  501    0  0.00000000000E+00  0.00000000000E+00  0.43619548010E+03  0.43619548011E+03  0.25500000920E-02 0.  1.
       -2   -1    0    0    0  501  0.00000000000E+00  0.00000000000E+00 -0.11374872327E+04  0.11374872327E+04  0.25500000920E-02 0. -1.
    10030    2    1    2    0    0  0.00000000000E+00  0.00000000000E+00 -0.70129175263E+03  0.15736827128E+04  0.14087821543E+04 0.  0.
        3    1    3    3  502    0 -0.97347766447E+02  0.31543077859E+02 -0.11291398406E+04  0.11337673233E+04  0.10100000352E+00 0. -1.
       -3    1    3    3    0  502  0.97347766447E+02 -0.31543077859E+02  0.42784808800E+03  0.43991538959E+03  0.10100000352E+00 0.  1.
</event>
<event>
 5   0  0.6895048E-04  0.1418217E+04  0.7818609E-02  0.8940737E-01
       -2   -1    0    0    0  501  0.00000000000E+00  0.00000000000E+00  0.21587275322E+03  0.21587275324E+03  0.25500000920E-02 0.  1.
        2   -1    0    0  501    0  0.00000000000E+00  0.00000000000E+00 -0.23293115596E+04  0.23293115596E+04  0.25500000920E-02 0. -1.
    10030    2    1    2    0    0  0.00000000000E+00  0.00000000000E+00 -0.21134388063E+04  0.25451843128E+04  0.14182170490E+04 0.  0.
        4    1    3    3  502    0  0.58211598659E+03 -0.26593232022E+03 -0.16047576767E+04  0.17276654291E+04  0.12699999809E+01 0. -1.
       -4    1    3    3    0  502 -0.58211598659E+03  0.26593232022E+03 -0.50868112960E+03  0.81751888375E+03  0.12699999809E+01 0.  1.
</event>
<event>
 5   0  0.3907270E-04  0.1387134E+04  0.7818609E-02  0.8963184E-01
       -1   -1    0    0    0  501  0.00000000000E+00  0.00000000000E+00  0.30668726021E+03  0.30668726025E+03  0.50400001928E-02 0. -1.
        1   -1    0    0  501    0  0.00000000000E+00  0.00000000000E+00 -0.15684887114E+04  0.15684887114E+04  0.50400001928E-02 0.  1.
    10030    2    1    2    0    0  0.00000000000E+00  0.00000000000E+00 -0.12618014512E+04  0.18751759716E+04  0.13871344644E+04 0.  0.
        3    1    3    3  502    0 -0.17711608880E+03  0.64561851271E+03 -0.38591596155E+03  0.77273832081E+03  0.10100000352E+00 0. -1.
       -3    1    3    3    0  502  0.17711608880E+03 -0.64561851271E+03 -0.87588548961E+03  0.11024376508E+04  0.10100000352E+00 0.  1.
</event>
<event>
 5   0  0.3756664E-04  0.1390539E+04  0.7818609E-02  0.8960696E-01
        1   -1    0    0  501    0  0.00000000000E+00  0.00000000000E+00  0.89608568478E+03  0.89608568479E+03  0.50400001928E-02 0. -1.
       -1   -1    0    0    0  501  0.00000000000E+00  0.00000000000E+00 -0.53945693837E+03  0.53945693839E+03  0.50400001928E-02 0.  1.
    10030    2    1    2    0    0  0.00000000000E+00  0.00000000000E+00  0.35662874641E+03  0.14355426232E+04  0.13905389460E+04 0.  0.
        2    1    3    3  502    0  0.38294132051E+03  0.57376130178E+03  0.88590379865E+02  0.69548137415E+03  0.25500000920E-02 0.  1.
       -2    1    3    3    0  502 -0.38294132051E+03 -0.57376130178E+03  0.26803836655E+03  0.74006124903E+03  0.25500000920E-02 0. -1.
</event>
<event>
 5   0  0.3907270E-04  0.1385615E+04  0.7818609E-02  0.8964297E-01
       -1   -1    0    0    0  501  0.00000000000E+00  0.00000000000E+00  0.23925129356E+03  0.23925129362E+03  0.50400001928E-02 0. -1.
        1   -1    0    0  501    0  0.00000000000E+00  0.00000000000E+00 -0.20061852383E+04  0.20061852383E+04  0.50400001928E-02 0.  1.
    10030    2    1    2    0    0  0.00000000000E+00  0.00000000000E+00 -0.17669339448E+04  0.22454365320E+04  0.13856152618E+04 0.  0.
        3    1    3    3  502    0  0.69131121334E+03  0.13196957383E+02 -0.95404954808E+03  0.11782596928E+04  0.10100000352E+00 0. -1.
       -3    1    3    3    0  502 -0.69131121334E+03 -0.13196957383E+02 -0.81288439669E+03  0.10671768391E+04  0.10100000352E+00 0.  1.
</event>
<event>
 5   0  0.6895048E-04  0.1405524E+04  0.7818609E-02  0.8949829E-01
        2   -1    0    0  501    0  0.00000000000E+00  0.00000000000E+00  0.11129824762E+04  0.11129824763E+04  0.25500000920E-02 0. -1.
       -2   -1    0    0    0  501  0.00000000000E+00  0.00000000000E+00 -0.44373990254E+03  0.44373990255E+03  0.25500000920E-02 0.  1.
    10030    2    1    2    0    0  0.00000000000E+00  0.00000000000E+00  0.66924257371E+03  0.15567223788E+04  0.14055244367E+04 0.  0.
        4    1    3    3  502    0  0.99963377711E+02  0.32086090226E+03 -0.34896702861E+03  0.48448322514E+03  0.12699999809E+01 0.  1.
       -4    1    3    3    0  502 -0.99963377711E+02 -0.32086090226E+03  0.10182096023E+04  0.10722391537E+04  0.12699999809E+01 0. -1.
</event>
<event>
 5   0  0.3784219E-04  0.1395440E+04  0.7818609E-02  0.8957126E-01
        1   -1    0    0  501    0  0.00000000000E+00  0.00000000000E+00  0.79134591290E+03  0.79134591291E+03  0.50400001928E-02 0. -1.
       -1   -1    0    0    0  501  0.00000000000E+00  0.00000000000E+00 -0.61517134632E+03  0.61517134634E+03  0.50400001928E-02 0.  1.
    10030    2    1    2    0    0  0.00000000000E+00  0.00000000000E+00  0.17617456657E+03  0.14065172593E+04  0.13954401896E+04 0.  0.
        1    1    3    3  502    0  0.50783411582E+03  0.41519488449E+03 -0.15156267760E+03  0.67324106126E+03  0.50400001928E-02 0.  1.
       -1    1    3    3    0  502 -0.50783411582E+03 -0.41519488449E+03  0.32773724417E+03  0.73327619799E+03  0.50400001928E-02 0. -1.
</event>
<event>
 5   0  0.3977658E-04  0.1394976E+04  0.7818609E-02  0.8957463E-01
        1   -1    0    0  501    0  0.00000000000E+00  0.00000000000E+00  0.48598459870E+03  0.48598459873E+03  0.50400001928E-02 0. -1.
       -1   -1    0    0    0  501  0.00000000000E+00  0.00000000000E+00 -0.10010388418E+04  0.10010388419E+04  0.50400001928E-02 0.  1.
    10030    2    1    2    0    0  0.00000000000E+00  0.00000000000E+00 -0.51505424314E+03  0.14870234406E+04  0.13949759279E+04 0.  0.
        5    1    3    3  502    0  0.11941661294E+03  0.62425973005E+03  0.48666441662E+02  0.63745670484E+03  0.46999998093E+01 0. -1.
       -5    1    3    3    0  502 -0.11941661294E+03 -0.62425973005E+03 -0.56372068480E+03  0.84956673574E+03  0.46999998093E+01 0.  1.
</event>
<event>
 5   0  0.3784219E-04  0.1416635E+04  0.7818609E-02  0.8941865E-01
        1   -1    0    0  501    0  0.00000000000E+00  0.00000000000E+00  0.80744748429E+03  0.80744748431E+03  0.50400001928E-02 0.  1.
       -1   -1    0    0    0  501  0.00000000000E+00  0.00000000000E+00 -0.62135756115E+03  0.62135756117E+03  0.50400001928E-02 0. -1.
    10030    2    1    2    0    0  0.00000000000E+00  0.00000000000E+00  0.18608992314E+03  0.14288050455E+04  0.14166348854E+04 0.  0.
        1    1    3    3  502    0 -0.24468736108E+03 -0.31949359376E+02 -0.57660237791E+03  0.62718654997E+03  0.50400001928E-02 0. -1.
       -1    1    3    3    0  502  0.24468736108E+03  0.31949359376E+02  0.76269230105E+03  0.80161849550E+03  0.50400001928E-02 0.  1.
</event>
<event>
 5   0  0.3756664E-04  0.1403210E+04  0.7818609E-02  0.8951498E-01
        1   -1    0    0  501    0  0.00000000000E+00  0.00000000000E+00  0.10948841947E+04  0.10948841947E+04  0.50400001928E-02 0. -1.
       -1   -1    0    0    0  501  0.00000000000E+00  0.00000000000E+00 -0.44959067989E+03  0.44959067992E+03  0.50400001928E-02 0.  1.
    10030    2    1    2    0    0  0.00000000000E+00  0.00000000000E+00  0.64529351477E+03  0.15444748746E+04  0.14032102188E+04 0.  0.
        2    1    3    3  502    0  0.26229499336E+03  0.42999437704E+02 -0.39202973785E+03  0.47364008545E+03  0.25500000920E-02 0.  1.
       -2    1    3    3    0  502 -0.26229499336E+03 -0.42999437704E+02  0.10373232526E+04  0.10708347891E+04  0.25500000920E-02 0. -1.
</event>
<event>
 5   0  0.6959748E-04  0.1410167E+04  0.7818609E-02  0.8946492E-01
        2   -1    0    0  501    0  0.00000000000E+00  0.00000000000E+00  0.16146129077E+04  0.16146129077E+04  0.25500000920E-02 0.  1.
       -2   -1    0    0    0  501  0.00000000000E+00  0.00000000000E+00 -0.30790209996E+03  0.30790209997E+03  0.25500000920E-02 0. -1.
    10030    2    1    2    0    0  0.00000000000E+00  0.00000000000E+00  0.13067108077E+04  0.19225150077E+04  0.14101669474E+04 0.  0.
        5    1    3    3  502    0 -0.53384789806E+03 -0.84284173633E+02  0.12706617291E+04  0.13808333426E+04  0.46999998093E+01 0.  1.
       -5    1    3    3    0  502  0.53384789806E+03  0.84284173633E+02  0.36049078603E+02  0.54168166505E+03  0.46999998093E+01 0. -1.
</event>
<event>
 5   0  0.6895048E-04  0.1397829E+04  0.7818609E-02  0.8955391E-01
        2   -1    0    0  501    0  0.00000000000E+00  0.00000000000E+00  0.14108402637E+04  0.14108402637E+04  0.25500000920E-02 0. -1.
       -2   -1    0    0    0  501  0.00000000000E+00  0.00000000000E+00 -0.34623455606E+03  0.34623455607E+03  0.25500000920E-02 0.  1.
    10030    2    1    2    0    0  0.00000000000E+00  0.00000000000E+00  0.10646057077E+04  0.17570748198E+04  0.13978292491E+04 0.  0.
        4    1    3    3  502    0 -0.61028469871E+03 -0.34057087072E+03  0.52395461247E+03  0.87347923861E+03  0.12699999809E+01 0.  1.
       -4    1    3    3    0  502  0.61028469871E+03  0.34057087072E+03  0.54065109519E+03  0.88359558118E+03  0.12699999809E+01 0. -1.
</event>
<event>
 5   0  0.3907270E-04  0.1406791E+04  0.7818609E-02  0.8948917E-01
       -1   -1    0    0    0  501  0.00000000000E+00  0.00000000000E+00  0.65186705334E+03  0.65186705336E+03  0.50400001928E-02 0. -1.
        1   -1    0    0  501    0  0.00000000000E+00  0.00000000000E+00 -0.75899718738E+03  0.75899718739E+03  0.50400001928E-02 0.  1.
    10030    2    1    2    0    0  0.00000000000E+00  0.00000000000E+00 -0.10713013404E+03  0.14108642408E+04  0.14067910436E+04 0.  0.
        3    1    3    3  502    0 -0.50917589305E+03 -0.11070942791E+03 -0.52742499746E+03  0.74141338377E+03  0.10100000352E+00 0.  1.
       -3    1    3    3    0  502  0.50917589305E+03  0.11070942791E+03  0.42029486342E+03  0.66945085698E+03  0.10100000352E+00 0. -1.
</event>
<event>
 5   0  0.3756664E-04  0.1379728E+04  0.7818609E-02  0.8968624E-01
        1   -1    0    0  501    0  0.00000000000E+00  0.00000000000E+00  0.86777759926E+03  0.86777759928E+03  0.50400001928E-02 0. -1.
       -1   -1    0    0    0  501  0.00000000000E+00  0.00000000000E+00 -0.54842674691E+03  0.54842674694E+03  0.50400001928E-02 0.  1.
    10030    2    1    2    0    0  0.00000000000E+00  0.00000000000E+00  0.31935085235E+03  0.14162043462E+04  0.13797281556E+04 0.  0.
        2    1    3    3  502    0 -0.57025126733E+03 -0.31351762950E+03 -0.75359949292E+02  0.65510223162E+03  0.25500000920E-02 0.  1.
       -2    1    3    3    0  502  0.57025126733E+03  0.31351762950E+03  0.39471080164E+03  0.76110211460E+03  0.25500000920E-02 0. -1.
</event>
<event>
 5   0  0.6895048E-04  0.1397744E+04  0.7818609E-02  0.8955453E-01
       -2   -1    0    0    0  501  0.00000000000E+00  0.00000000000E+00  0.35332736590E+03  0.35332736591E+03  0.25500000920E-02 0.  1.
        2   -1    0    0  501    0  0.00000000000E+00  0.00000000000E+00 -0.13823499009E+04  0.13823499009E+04  0.25500000920E-02 0. -1.
    10030    2    1    2    0    0  0.00000000000E+00  0.00000000000E+00 -0.10290225350E+04  0.17356772668E+04  0.13977439669E+04 0.  0.
        4    1    3    3  502    0  0.49629354133E+02 -0.68299431548E+03 -0.68780891413E+03  0.97058076585E+03  0.12699999809E+01 0. -1.
       -4    1    3    3    0  502 -0.49629354133E+02  0.68299431548E+03 -0.34121362082E+03  0.76509650091E+03  0.12699999809E+01 0.  1.
</event>
<event>
 5   0  0.3784219E-04  0.1353068E+04  0.7818609E-02  0.8988509E-01
        1   -1    0    0  501    0  0.00000000000E+00  0.00000000000E+00  0.51003544687E+03  0.51003544689E+03  0.50400001928E-02 0. -1.
       -1   -1    0    0    0  501  0.00000000000E+00  0.00000000000E+00 -0.89738523606E+03  0.89738523607E+03  0.50400001928E-02 0.  1.
    10030    2    1    2    0    0  0.00000000000E+00  0.00000000000E+00 -0.38734978919E+03  0.14074206830E+04  0.13530680396E+04 0.  0.
        1    1    3    3  502    0  0.37906425815E+03  0.52598076834E+03  0.73574191203E+01  0.64838230397E+03  0.50400001928E-02 0.  1.
       -1    1    3    3    0  502 -0.37906425815E+03 -0.52598076834E+03 -0.39470720831E+03  0.75903837899E+03  0.50400001928E-02 0. -1.
</event>
<event>
 5   0  0.6895048E-04  0.1398372E+04  0.7818609E-02  0.8954998E-01
        2   -1    0    0  501    0  0.00000000000E+00  0.00000000000E+00  0.20764063844E+04  0.20764063844E+04  0.25500000920E-02 0.  1.
       -2   -1    0    0    0  501  0.00000000000E+00  0.00000000000E+00 -0.23543612665E+03  0.23543612667E+03  0.25500000920E-02 0. -1.
    10030    2    1    2    0    0  0.00000000000E+00  0.00000000000E+00  0.18409702577E+04  0.23118425111E+04  0.13983720199E+04 0.  0.
        4    1    3    3  502    0  0.32827282465E+03 -0.45867008121E+03  0.16035711483E+04  0.16998774460E+04  0.12699999809E+01 0.  1.
       -4    1    3    3    0  502 -0.32827282465E+03  0.45867008121E+03  0.23739910942E+03  0.61196506506E+03  0.12699999809E+01 0. -1.
</event>
<event>
 5   0  0.3907093E-04  0.1387764E+04  0.7818609E-02  0.8962723E-01
        1   -1    0    0  501    0  0.00000000000E+00  0.00000000000E+00  0.16104197760E+04  0.16104197760E+04  0.50400001928E-02 0.  1.
       -1   -1    0    0    0  501  0.00000000000E+00  0.00000000000E+00 -0.29897323611E+03  0.29897323615E+03  0.50400001928E-02 0. -1.
    10030    2    1    2    0    0  0.00000000000E+00  0.00000000000E+00  0.13114465399E+04  0.19093930122E+04  0.13877642624E+04 0.  0.
        4    1    3    3  502    0  0.33770091349E+03  0.15951528918E+03 -0.14888107571E+03  0.40206246040E+03  0.12699999809E+01 0. -1.
       -4    1    3    3    0  502 -0.33770091349E+03 -0.15951528918E+03  0.14603276156E+04  0.15073305518E+04  0.12699999809E+01 0.  1.
</event>
<event>
 5   0  0.3784219E-04  0.1399056E+04  0.7818609E-02  0.8954502E-01
        1   -1    0    0  501    0  0.00000000000E+00  0.00000000000E+00  0.11167460945E+04  0.11167460945E+04  0.50400001928E-02 0.  1.
       -1   -1    0    0    0  501  0.00000000000E+00  0.00000000000E+00 -0.43818330671E+03  0.43818330674E+03  0.50400001928E-02 0. -1.
    10030    2    1    2    0    0  0.00000000000E+00  0.00000000000E+00  0.67856278778E+03  0.15549294012E+04  0.13990561053E+04 0.  0.
        1    1    3    3  502    0  0.15941531783E+03  0.14848275058E+03 -0.39951928768E+03  0.45505607570E+03  0.50400001928E-02 0. -1.
       -1    1    3    3    0  502 -0.15941531783E+03 -0.14848275058E+03  0.10780820755E+04  0.10998733255E+04  0.50400001928E-02 0.  1.
</event>
<event>
 5   0  0.7296966E-04  0.1244083E+04  0.7818609E-02  0.9075122E-01
        2   -1    0    0  501    0  0.00000000000E+00  0.00000000000E+00  0.21744060573E+04  0.21744060573E+04  0.25500000920E-02 0.  1.
       -2   -1    0    0    0  501  0.00000000000E+00  0.00000000000E+00 -0.17795003042E+03  0.17795003044E+03  0.25500000920E-02 0. -1.
    10030    2    1    2    0    0  0.00000000000E+00  0.00000000000E+00  0.19964560268E+04  0.23523560877E+04  0.12440829941E+04 0.  0.
        3    1    3    3  502    0  0.49557850574E+03 -0.37594864256E+03  0.99902276771E+03  0.11768525557E+04  0.10100000352E+00 0. -1.
       -3    1    3    3    0  502 -0.49557850574E+03  0.37594864256E+03  0.99743325913E+03  0.11755035320E+04  0.10100000352E+00 0.  1.
</event>
<event>
 5   0  0.3977658E-04  0.1394975E+04  0.7818609E-02  0.8957464E-01
        1   -1    0    0  501    0  0.00000000000E+00  0.00000000000E+00  0.62976496966E+03  0.62976496968E+03  0.50400001928E-02 0. -1.
       -1   -1    0    0    0  501  0.00000000000E+00  0.00000000000E+00 -0.77249249988E+03  0.77249249989E+03  0.50400001928E-02 0.  1.
    10030    2    1    2    0    0  0.00000000000E+00  0.00000000000E+00 -0.14272753022E+03  0.14022574696E+04  0.13949748611E+04 0.  0.
        5    1    3    3  502    0 -0.65130203992E+03 -0.22365577187E+03 -0.18262299763E+03  0.71245315688E+03  0.46999998093E+01 0.  1.
       -5    1    3    3    0  502  0.65130203992E+03  0.22365577187E+03  0.39895467414E+02  0.68980431269E+03  0.46999998093E+01 0. -1.
</event>
<event>
 5   0  0.7296966E-04  0.1345770E+04  0.7818609E-02  0.8994036E-01
        2   -1    0    0  501    0  0.00000000000E+00  0.00000000000E+00  0.21690492825E+04  0.21690492825E+04  0.25500000920E-02 0. -1.
       -2   -1    0    0    0  501  0.00000000000E+00  0.00000000000E+00 -0.20874310640E+03  0.20874310641E+03  0.25500000920E-02 0.  1.
    10030    2    1    2    0    0  0.00000000000E+00  0.00000000000E+00  0.19603061761E+04  0.23777923889E+04  0.13457697948E+04 0.  0.
        3    1    3    3  502    0  0.37739814351E+03  0.55376203009E+02  0.73295826942E+00  0.38143994287E+03  0.10100000352E+00 0.  1.
       -3    1    3    3    0  502 -0.37739814351E+03 -0.55376203009E+02  0.19595732178E+04  0.19963524460E+04  0.10100000352E+00 0. -1.
</event>
<event>
 5   0  0.6895048E-04  0.1435457E+04  0.7818609E-02  0.8928546E-01
       -2   -1    0    0    0  501  0.00000000000E+00  0.00000000000E+00  0.27119918865E+03  0.27119918866E+03  0.25500000920E-02 0. -1.
        2   -1    0    0  501    0  0.00000000000E+00  0.00000000000E+00 -0.18994669558E+04  0.18994669558E+04  0.25500000920E-02 0.  1.
    10030    2    1    2    0    0  0.00000000000E+00  0.00000000000E+00 -0.16282677671E+04  0.21706661444E+04  0.14354565786E+04 0.  0.
        4    1    3    3  502    0  0.10851657471E+03  0.31773484583E+03 -0.17733854148E+04  0.18048902242E+04  0.12699999809E+01 0.  1.
       -4    1    3    3    0  502 -0.10851657471E+03 -0.31773484583E+03  0.14511764766E+03  0.36577592021E+03  0.12699999809E+01 0. -1.
</event>
<event>
 5   0  0.7296966E-04  0.1392842E+04  0.7818609E-02  0.8959016E-01
        2   -1    0    0  501    0  0.00000000000E+00  0.00000000000E+00  0.13562720018E+04  0.13562720018E+04  0.25500000920E-02 0. -1.
       -2   -1    0    0    0  501  0.00000000000E+00  0.00000000000E+00 -0.35759935584E+03  0.35759935585E+03  0.25500000920E-02 0.  1.
    10030    2    1    2    0    0  0.00000000000E+00  0.00000000000E+00  0.99867264593E+03  0.17138713576E+04  0.13928416912E+04 0.  0.
        3    1    3    3  502    0 -0.21117558119E+03  0.18837138021E+03 -0.28366542108E+03  0.40068065126E+03  0.10100000352E+00 0.  1.
       -3    1    3    3    0  502  0.21117558119E+03 -0.18837138021E+03  0.12823380670E+04  0.13131907064E+04  0.10100000352E+00 0. -1.
</event>
<event>
 5   0  0.7065539E-04  0.1402504E+04  0.7818609E-02  0.8952008E-01
       -2   -1    0    0    0  501  0.00000000000E+00  0.00000000000E+00  0.36341338166E+03  0.36341338167E+03  0.25500000920E-02 0.  1.
        2   -1    0    0  501    0  0.00000000000E+00  0.00000000000E+00 -0.13531548773E+04  0.13531548773E+04  0.25500000920E-02 0. -1.
    10030    2    1    2    0    0  0.00000000000E+00  0.00000000000E+00 -0.98974149565E+03  0.17165682590E+04  0.14025043171E+04 0.  0.
        1    1    3    3  502    0 -0.56022705172E+03  0.15023984569E+03 -0.12498774616E+02  0.58015737529E+03  0.50400001928E-02 0. -1.
       -1    1    3    3    0  502  0.56022705172E+03 -0.15023984569E+03 -0.97724272104E+03  0.11364108837E+04  0.50400001928E-02 0.  1.
</event>
<event>
 5   0  0.3756664E-04  0.1399482E+04  0.7818609E-02  0.8954194E-01
       -1   -1    0    0    0  501  0.00000000000E+00  0.00000000000E+00  0.29098942874E+03  0.29098942879E+03  0.50400001928E-02 0. -1.
        1   -1    0    0  501    0  0.00000000000E+00  0.00000000000E+00 -0.16826640081E+04  0.16826640081E+04  0.50400001928E-02 0.  1.
    10030    2    1    2    0    0  0.00000000000E+00  0.00000000000E+00 -0.13916745794E+04  0.19736534369E+04  0.13994819592E+04 0.  0.
        2    1    3    3  502    0  0.37778809256E+03 -0.38675116510E+03 -0.13223184234E+04  0.14285749261E+04  0.25500000920E-02 0.  1.
       -2    1    3    3    0  502 -0.37778809256E+03  0.38675116510E+03 -0.69356155983E+02  0.54507851083E+03  0.25500000920E-02 0. -1.
</event>
<event>
 5   0  0.3907093E-04  0.1396166E+04  0.7818609E-02  0.8956599E-01
       -1   -1    0    0    0  501  0.00000000000E+00  0.00000000000E+00  0.28903519169E+03  0.28903519173E+03  0.50400001928E-02 0.  1.
        1   -1    0    0  501    0  0.00000000000E+00  0.00000000000E+00 -0.16860215305E+04  0.16860215305E+04  0.50400001928E-02 0. -1.
    10030    2    1    2    0    0  0.00000000000E+00  0.00000000000E+00 -0.13969863388E+04  0.19750567222E+04  0.13961655436E+04 0.  0.
        4    1    3    3  502    0 -0.31978379636E+03  0.46942607160E+03 -0.12439860933E+03  0.58146293091E+03  0.12699999809E+01 0.  1.
       -4    1    3    3    0  502  0.31978379636E+03 -0.46942607160E+03 -0.12725877295E+04  0.13935937913E+04  0.12699999809E+01 0. -1.
</event>
<event>
 5   0  0.6959748E-04  0.1402003E+04  0.7818609E-02  0.8952370E-01
        2   -1    0    0  501    0  0.00000000000E+00  0.00000000000E+00  0.46835775330E+03  0.46835775331E+03  0.25500000920E-02 0.  1.
       -2   -1    0    0    0  501  0.00000000000E+00  0.00000000000E+00 -0.10492044027E+04  0.10492044027E+04  0.25500000920E-02 0. -1.
    10030    2    1    2    0    0  0.00000000000E+00  0.00000000000E+00 -0.58084664943E+03  0.15175621560E+04  0.14020028771E+04 0.  0.
        5    1    3    3  502    0 -0.61413822861E+03  0.15686918911E+03  0.33594637335E+02  0.63476325980E+03  0.46999998093E+01 0.  1.
       -5    1    3    3    0  502  0.61413822861E+03 -0.15686918911E+03 -0.61444128676E+03  0.88279889624E+03  0.46999998093E+01 0. -1.
</event>
<event>
 5   0  0.3784219E-04  0.1399993E+04  0.7818609E-02  0.8953824E-01
       -1   -1    0    0    0  501  0.00000000000E+00  0.00000000000E+00  0.82088610793E+03  0.82088610794E+03  0.50400001928E-02 0. -1.
        1   -1    0    0  501    0  0.00000000000E+00  0.00000000000E+00 -0.59690963511E+03  0.59690963513E+03  0.50400001928E-02 0.  1.
    10030    2    1    2    0    0  0.00000000000E+00  0.00000000000E+00  0.22397647282E+03  0.14177957431E+04  0.13999926102E+04 0.  0.
        1    1    3    3  502    0 -0.56160061103E+03 -0.24453756034E+03 -0.23114334295E+03  0.65469161423E+03  0.50400001928E-02 0.  1.
       -1    1    3    3    0  502  0.56160061103E+03  0.24453756034E+03  0.45511981577E+03  0.76310412884E+03  0.50400001928E-02 0. -1.
</event>
<event>
 5   0  0.3907093E-04  0.1399327E+04  0.7818609E-02  0.8954306E-01
        1   -1    0    0  501    0  0.00000000000E+00  0.00000000000E+00  0.13381873435E+04  0.13381873435E+04  0.50400001928E-02 0.  1.
       -1   -1    0    0    0  501  0.00000000000E+00  0.00000000000E+00 -0.36581491909E+03  0.36581491912E+03  0.50400001928E-02 0. -1.
    10030    2    1    2    0    0  0.00000000000E+00  0.00000000000E+00  0.97237242439E+03  0.17040022626E+04  0.13993268308E+04 0.  0.
        4    1    3    3  502    0 -0.56246974336E+03 -0.13657186927E+02 -0.20261459977E+02  0.56300166128E+03  0.12699999809E+01 0. -1.
       -4    1    3    3    0  502  0.56246974336E+03  0.13657186927E+02  0.99263388437E+03  0.11410006013E+04  0.12699999809E+01 0.  1.
</event>
<event>
 5   0  0.3977658E-04  0.1327715E+04  0.7818609E-02  0.9007871E-01
       -1   -1    0    0    0  501  0.00000000000E+00  0.00000000000E+00  0.13009801601E+04  0.13009801601E+04  0.50400001928E-02 0. -1.
        1   -1    0    0  501    0  0.00000000000E+00  0.00000000000E+00 -0.33874957438E+03  0.33874957442E+03  0.50400001928E-02 0.  1.
    10030    2    1    2    0    0  0.00000000000E+00  0.00000000000E+00  0.96223058575E+03  0.16397297346E+04  0.13277145410E+04 0.  0.
        5    1    3    3  502    0  0.13155894061E+03  0.32805662660E+03  0.11750889883E+04  0.12271043662E+04  0.46999998093E+01 0. -1.
       -5    1    3    3    0  502 -0.13155894061E+03 -0.32805662660E+03 -0.21285840253E+03  0.41262536839E+03  0.46999998093E+01 0.  1.
</event>
<event>
 5   0  0.6895048E-04  0.1399502E+04  0.7818609E-02  0.8954179E-01
       -2   -1    0    0    0  501  0.00000000000E+00  0.00000000000E+00  0.45001912056E+03  0.45001912057E+03  0.25500000920E-02 0.  1.
        2   -1    0    0  501    0  0.00000000000E+00  0.00000000000E+00 -0.10880685048E+04  0.10880685048E+04  0.25500000920E-02 0. -1.
    10030    2    1    2    0    0  0.00000000000E+00  0.00000000000E+00 -0.63804938423E+03  0.15380876254E+04  0.13995022424E+04 0.  0.
        4    1    3    3  502    0  0.39291241545E+03  0.45281653769E+03  0.77580190880E+02  0.60451905011E+03  0.12699999809E+01 0.  1.
       -4    1    3    3    0  502 -0.39291241545E+03 -0.45281653769E+03 -0.71562957511E+03  0.93356857525E+03  0.12699999809E+01 0. -1.
</event>
<event>
 5   0  0.3784219E-04  0.1401773E+04  0.7818609E-02  0.8952536E-01
        1   -1    0    0  501    0  0.00000000000E+00  0.00000000000E+00  0.32802364132E+03  0.32802364136E+03  0.50400001928E-02 0.  1.
       -1   -1    0    0    0  501  0.00000000000E+00  0.00000000000E+00 -0.14975814070E+04  0.14975814070E+04  0.50400001928E-02 0. -1.
    10030    2    1    2    0    0  0.00000000000E+00  0.00000000000E+00 -0.11695577657E+04  0.18256050484E+04  0.14017733146E+04 0.  0.
        1    1    3    3  502    0  0.36968662306E+03  0.46399235593E+03 -0.98728583121E+02  0.60141868842E+03  0.50400001928E-02 0.  1.
       -1    1    3    3    0  502 -0.36968662306E+03 -0.46399235593E+03 -0.10708291826E+04  0.12241863600E+04  0.50400001928E-02 0. -1.
</event>
<event>
 5   0  0.6870835E-04  0.1405311E+04  0.7818609E-02  0.8949983E-01
       -2   -1    0    0    0  501  0.00000000000E+00  0.00000000000E+00  0.55388880681E+03  0.55388880682E+03  0.25500000920E-02 0.  1.
        2   -1    0    0  501    0  0.00000000000E+00  0.00000000000E+00 -0.89137850647E+03  0.89137850647E+03  0.25500000920E-02 0. -1.
    10030    2    1    2    0    0  0.00000000000E+00  0.00000000000E+00 -0.33748969966E+03  0.14452673133E+04  0.14053107519E+04 0.  0.
        2    1    3    3  502    0  0.59017577703E+03  0.37676404442E+03 -0.22929135970E+03  0.73677209543E+03  0.25500000920E-02 0. -1.
       -2    1    3    3    0  502 -0.59017577703E+03 -0.37676404442E+03 -0.10819833996E+03  0.70849521786E+03  0.25500000920E-02 0.  1.
</event>
<event>
 5   0  0.6959748E-04  0.1403317E+04  0.7818609E-02  0.8951421E-01
        2   -1    0    0  501    0  0.00000000000E+00  0.00000000000E+00  0.13766038269E+04  0.13766038269E+04  0.25500000920E-02 0.  1.
       -2   -1    0    0    0  501  0.00000000000E+00  0.00000000000E+00 -0.35763715188E+03  0.35763715188E+03  0.25500000920E-02 0. -1.
    10030    2    1    2    0    0  0.00000000000E+00  0.00000000000E+00  0.10189666750E+04  0.17342409788E+04  0.14033170304E+04 0.  0.
        5    1    3    3  502    0  0.22622188794E+03  0.70075890067E+02 -0.30673105623E+03  0.38754742136E+03  0.46999998093E+01 0. -1.
       -5    1    3    3    0  502 -0.22622188794E+03 -0.70075890067E+02  0.13256977312E+04  0.13466935574E+04  0.46999998093E+01 0.  1.
</event>
<event>
 5   0  0.3907270E-04  0.1359949E+04  0.7818609E-02  0.8983331E-01
       -1   -1    0    0    0  501  0.00000000000E+00  0.00000000000E+00  0.53734834407E+03  0.53734834409E+03  0.50400001928E-02 0. -1.
        1   -1    0    0  501    0  0.00000000000E+00  0.00000000000E+00 -0.86045723397E+03  0.86045723399E+03  0.50400001928E-02 0.  1.
    10030    2    1    2    0    0  0.00000000000E+00  0.00000000000E+00 -0.32310888990E+03  0.13978055781E+04  0.13599489253E+04 0.  0.
        3    1    3    3  502    0  0.48475603751E+03  0.17403464625E+03 -0.61785934017E+03  0.80437966684E+03  0.10100000352E+00 0.  1.
       -3    1    3    3    0  502 -0.48475603751E+03 -0.17403464625E+03  0.29475045027E+03  0.59342591124E+03  0.10100000352E+00 0. -1.
</event>
<event>
 5   0  0.2660250E-04  0.1395932E+04  0.7818609E-02  0.8956769E-01
       -3   -1    0    0    0  501  0.00000000000E+00  0.00000000000E+00  0.36603070121E+03  0.36603071514E+03  0.10100000352E+00 0. -1.
        3   -1    0    0  501    0  0.00000000000E+00  0.00000000000E+00 -0.13309169437E+04  0.13309169475E+04  0.10100000352E+00 0.  1.
    10030    2    1    2    0    0  0.00000000000E+00  0.00000000000E+00 -0.96488624249E+03  0.16969476627E+04  0.13959319141E+04 0.  0.
        3    1    3    3  502    0  0.49767664838E+03 -0.43937465244E+03 -0.22051805667E+03  0.69954296156E+03  0.10100000352E+00 0. -1.
       -3    1    3    3    0  502 -0.49767664838E+03  0.43937465244E+03 -0.74436818581E+03  0.99740470111E+03  0.10100000352E+00 0.  1.
</event>
<event>
 5   0  0.3977658E-04  0.1392464E+04  0.7818609E-02  0.8959291E-01
        1   -1    0    0  501    0  0.00000000000E+00  0.00000000000E+00  0.11036982578E+04  0.11036982578E+04  0.50400001928E-02 0. -1.
       -1   -1    0    0    0  501  0.00000000000E+00  0.00000000000E+00 -0.43919542252E+03  0.43919542255E+03  0.50400001928E-02 0.  1.
    10030    2    1    2    0    0  0.00000000000E+00  0.00000000000E+00  0.66450283525E+03  0.15428936803E+04  0.13924643230E+04 0.  0.
        5    1    3    3  502    0 -0.56600562929E+02  0.45050159100E+03 -0.25255579915E+03  0.51957851082E+03  0.46999998093E+01 0.  1.
       -5    1    3    3    0  502  0.56600562929E+02 -0.45050159100E+03  0.91705863440E+03  0.10233151695E+04  0.46999998093E+01 0. -1.
</event>
<event>
 5   0  0.6870835E-04  0.1401626E+04  0.7818609E-02  0.8952642E-01
        2   -1    0    0  501    0  0.00000000000E+00  0.00000000000E+00  0.13094432765E+04  0.13094432765E+04  0.25500000920E-02 0.  1.
       -2   -1    0    0    0  501  0.00000000000E+00  0.00000000000E+00 -0.37507459017E+03  0.37507459018E+03  0.25500000920E-02 0. -1.
    10030    2    1    2    0    0  0.00000000000E+00  0.00000000000E+00  0.93436868634E+03  0.16845178667E+04  0.14016260561E+04 0.  0.
        2    1    3    3  502    0  0.59982097887E+03 -0.84682784538E+02  0.43664568536E+02  0.60734090529E+03  0.25500000920E-02 0. -1.
       -2    1    3    3    0  502 -0.59982097887E+03  0.84682784538E+02  0.89070411780E+03  0.10771769614E+04  0.25500000920E-02 0.  1.
</event>
<event>
 5   0  0.3907093E-04  0.1248495E+04  0.7818609E-02  0.9071437E-01
        1   -1    0    0  501    0  0.00000000000E+00  0.00000000000E+00  0.22880400302E+03  0.22880400307E+03  0.50400001928E-02 0. -1.
       -1   -1    0    0    0  501  0.00000000000E+00  0.00000000000E+00 -0.17031378860E+04  0.17031378860E+04  0.50400001928E-02 0.  1.
    10030    2    1    2    0    0  0.00000000000E+00  0.00000000000E+00 -0.14743338829E+04  0.19319418890E+04  0.12484947194E+04 0.  0.
        4    1    3    3  502    0 -0.18623717228E+03 -0.37403801815E+02 -0.16573269826E+04  0.16681779488E+04  0.12699999809E+01 0.  1.
       -4    1    3    3    0  502  0.18623717228E+03  0.37403801815E+02  0.18299309967E+03  0.26376394022E+03  0.12699999809E+01 0. -1.
</event>
<event>
 5   0  0.7296966E-04  0.1390095E+04  0.7818609E-02  0.8961019E-01
        2   -1    0    0  501    0  0.00000000000E+00  0.00000000000E+00  0.12099277513E+04  0.12099277513E+04  0.25500000920E-02 0.  1.
       -2   -1    0    0    0  501  0.00000000000E+00  0.00000000000E+00 -0.39927274003E+03  0.39927274004E+03  0.25500000920E-02 0. -1.
    10030    2    1    2    0    0  0.00000000000E+00  0.00000000000E+00  0.81065501126E+03  0.16092004913E+04  0.13900952032E+04 0.  0.
        3    1    3    3  502    0 -0.49022982510E+03  0.35443441470E+03  0.80153451667E+03  0.10041945167E+04  0.10100000352E+00 0.  1.
       -3    1    3    3    0  502  0.49022982510E+03 -0.35443441470E+03  0.91204945943E+01  0.60500597465E+03  0.10100000352E+00 0. -1.
</event>
<event>
 5   0  0.6959748E-04  0.1405514E+04  0.7818609E-02  0.8949837E-01
       -2   -1    0    0    0  501  0.00000000000E+00  0.00000000000E+00  0.52022424545E+03  0.52022424546E+03  0.25500000920E-02 0.  1.
        2   -1    0    0  501    0  0.00000000000E+00  0.00000000000E+00 -0.94933619606E+03  0.94933619607E+03  0.25500000920E-02 0. -1.
    10030    2    1    2    0    0  0.00000000000E+00  0.00000000000E+00 -0.42911195061E+03  0.14695604415E+04  0.14055144343E+04 0.  0.
        5    1    3    3  502    0  0.40268108837E+03 -0.25593265126E+02  0.38702130112E+03  0.55911953254E+03  0.46999998093E+01 0.  1.
       -5    1    3    3    0  502 -0.40268108837E+03  0.25593265126E+02 -0.81613325174E+03  0.91044090898E+03  0.46999998093E+01 0. -1.
</event>
<event>
 5   0  0.6895048E-04  0.1402730E+04  0.7818609E-02  0.8951845E-01
        2   -1    0    0  501    0  0.00000000000E+00  0.00000000000E+00  0.79787136531E+03  0.79787136532E+03  0.25500000920E-02 0. -1.
       -2   -1    0    0    0  501  0.00000000000E+00  0.00000000000E+00 -0.61653120978E+03  0.61653120978E+03  0.25500000920E-02 0.  1.
    10030    2    1    2    0    0  0.00000000000E+00  0.00000000000E+00  0.18134015554E+03  0.14144025751E+04  0.14027296220E+04 0.  0.
        4    1    3    3  502    0 -0.40428110119E+03  0.27341049494E+03  0.59856245548E+03  0.77231802616E+03  0.12699999809E+01 0. -1.
       -4    1    3    3    0  502  0.40428110119E+03 -0.27341049494E+03 -0.41722229995E+03  0.64208454894E+03  0.12699999809E+01 0.  1.
</event>
<event>
 5   0  0.3907093E-04  0.1380984E+04  0.7818609E-02  0.8967700E-01
        1   -1    0    0  501    0  0.00000000000E+00  0.00000000000E+00  0.71269676125E+03  0.71269676127E+03  0.50400001928E-02 0. -1.
       -1   -1    0    0    0  501  0.00000000000E+00  0.00000000000E+00 -0.66897891087E+03  0.66897891089E+03  0.50400001928E-02 0.  1.
    10030    2    1    2    0    0  0.00000000000E+00  0.00000000000E+00  0.43717850373E+02  0.13816756722E+04  0.13809838567E+04 0.  0.
        4    1    3    3  502    0  0.68169138615E+03 -0.98636160662E+02  0.70310988483E+02  0.69237091660E+03  0.12699999809E+01 0.  1.
       -4    1    3    3    0  502 -0.68169138615E+03  0.98636160662E+02 -0.26593138110E+02  0.68930475556E+03  0.12699999809E+01 0. -1.
</event>
<event>
 5   0  0.7065539E-04  0.1396006E+04  0.7818609E-02  0.8956714E-01
       -2   -1    0    0    0  501  0.00000000000E+00  0.00000000000E+00  0.54924871499E+03  0.54924871499E+03  0.25500000920E-02 0. -1.
        2   -1    0    0  501    0  0.00000000000E+00  0.00000000000E+00 -0.88704515250E+03  0.88704515251E+03  0.25500000920E-02 0.  1.
    10030    2    1    2    0    0  0.00000000000E+00  0.00000000000E+00 -0.33779643752E+03  0.14362938675E+04  0.13960063183E+04 0.  0.
        1    1    3    3  502    0  0.23204139084E+02 -0.57554213906E+02  0.54640494989E+03  0.54991752918E+03  0.50400001928E-02 0. -1.
       -1    1    3    3    0  502 -0.23204139084E+02  0.57554213906E+02 -0.88420138741E+03  0.88637633832E+03  0.50400001928E-02 0.  1.
</event>
<event>
 5   0  0.3907093E-04  0.1399661E+04  0.7818609E-02  0.8954064E-01
       -1   -1    0    0    0  501  0.00000000000E+00  0.00000000000E+00  0.40582265707E+03  0.40582265710E+03  0.50400001928E-02 0.  1.
        1   -1    0    0  501    0  0.00000000000E+00  0.00000000000E+00 -0.12068394485E+04  0.12068394485E+04  0.50400001928E-02 0. -1.
    10030    2    1    2    0    0  0.00000000000E+00  0.00000000000E+00 -0.80101679139E+03  0.16126621056E+04  0.13996610899E+04 0.  0.
        4    1    3    3  502    0  0.55805672784E+03  0.35597425487E+03 -0.66227455061E+03  0.93635152315E+03  0.12699999809E+01 0. -1.
       -4    1    3    3    0  502 -0.55805672784E+03 -0.35597425487E+03 -0.13874224078E+03  0.67631058242E+03  0.12699999809E+01 0.  1.
</event>
<event>
 5   0  0.6895048E-04  0.1393157E+04  0.7818609E-02  0.8958787E-01
       -2   -1    0    0    0  501  0.00000000000E+00  0.00000000000E+00  0.11652202229E+04  0.11652202229E+04  0.25500000920E-02 0.  1.
        2   -1    0    0  501    0  0.00000000000E+00  0.00000000000E+00 -0.41642047641E+03  0.41642047642E+03  0.25500000920E-02 0. -1.
    10030    2    1    2    0    0  0.00000000000E+00  0.00000000000E+00  0.74879974645E+03  0.15816406993E+04  0.13931569335E+04 0.  0.
        4    1    3    3  502    0  0.11132923307E+02 -0.35221548498E+03  0.10565588623E+04  0.11137764283E+04  0.12699999809E+01 0.  1.
       -4    1    3    3    0  502 -0.11132923307E+02  0.35221548498E+03 -0.30775911580E+03  0.46786427102E+03  0.12699999809E+01 0. -1.
</event>
<event>
 5   0  0.3784219E-04  0.1379539E+04  0.7818609E-02  0.8968764E-01
        1   -1    0    0  501    0  0.00000000000E+00  0.00000000000E+00  0.11797208939E+04  0.11797208939E+04  0.50400001928E-02 0.  1.
       -1   -1    0    0    0  501  0.00000000000E+00  0.00000000000E+00 -0.40330038758E+03  0.40330038762E+03  0.50400001928E-02 0. -1.
    10030    2    1    2    0    0  0.00000000000E+00  0.00000000000E+00  0.77642050635E+03  0.15830212816E+04  0.13795388995E+04 0.  0.
        1    1    3    3  502    0 -0.49478548227E+03  0.38407421360E+03  0.56711305347E+02  0.62892117725E+03  0.50400001928E-02 0. -1.
       -1    1    3    3    0  502  0.49478548227E+03 -0.38407421360E+03  0.71970920100E+03  0.95410010431E+03  0.50400001928E-02 0.  1.
</event>
<event>
 5   0  0.6959748E-04  0.1397585E+04  0.7818609E-02  0.8955568E-01
       -2   -1    0    0    0  501  0.00000000000E+00  0.00000000000E+00  0.80648889654E+03  0.80648889654E+03  0.25500000920E-02 0. -1.
        2   -1    0    0  501    0  0.00000000000E+00  0.00000000000E+00 -0.60547762953E+03  0.60547762954E+03  0.25500000920E-02 0.  1.
    10030    2    1    2    0    0  0.00000000000E+00  0.00000000000E+00  0.20101126700E+03  0.14119665261E+04  0.13975850390E+04 0.  0.
        5    1    3    3  502    0  0.15551365259E+03  0.21297618216E+03  0.75427001832E+03  0.79905487975E+03  0.46999998093E+01 0. -1.
       -5    1    3    3    0  502 -0.15551365259E+03 -0.21297618216E+03 -0.55325875132E+03  0.61291164634E+03  0.46999998093E+01 0.  1.
</event>
<event>
 5   0  0.6959748E-04  0.1404742E+04  0.7818609E-02  0.8950393E-01
        2   -1    0    0  501    0  0.00000000000E+00  0.00000000000E+00  0.25633384293E+04  0.25633384293E+04  0.25500000920E-02 0.  1.
       -2   -1    0    0    0  501  0.00000000000E+00  0.00000000000E+00 -0.19245418007E+03  0.19245418009E+03  0.25500000920E-02 0. -1.
    10030    2    1    2    0    0  0.00000000000E+00  0.00000000000E+00  0.23708842492E+04  0.27557926094E+04  0.14047422478E+04 0.  0.
        5    1    3    3  502    0  0.17338226658E+03 -0.11193184041E+02 -0.14960000563E+03  0.22932280614E+03  0.46999998093E+01 0. -1.
       -5    1    3    3    0  502 -0.17338226658E+03  0.11193184041E+02  0.25204842548E+04  0.25264698032E+04  0.46999998093E+01 0.  1.
</event>
<event>
 5   0  0.6870835E-04  0.1394924E+04  0.7818609E-02  0.8957501E-01
        2   -1    0    0  501    0  0.00000000000E+00  0.00000000000E+00  0.67617872742E+03  0.67617872743E+03  0.25500000920E-02 0.  1.
       -2   -1    0    0    0  501  0.00000000000E+00  0.00000000000E+00 -0.71941564970E+03  0.71941564971E+03  0.25500000920E-02 0. -1.
    10030    2    1    2    0    0  0.00000000000E+00  0.00000000000E+00 -0.43236922278E+02  0.13955943771E+04  0.13949244546E+04 0.  0.
        2    1    3    3  502    0 -0.83443064547E+02  0.65120690578E+03 -0.25714685476E+03  0.70509409590E+03  0.25500000920E-02 0.  1.
       -2    1    3    3    0  502  0.83443064547E+02 -0.65120690578E+03  0.21390993249E+03  0.69050028123E+03  0.25500000920E-02 0. -1.
</event>
<event>
 5   0  0.6870835E-04  0.1413056E+04  0.7818609E-02  0.8944422E-01
        2   -1    0    0  501    0  0.00000000000E+00  0.00000000000E+00  0.78429321926E+03  0.78429321927E+03  0.25500000920E-02 0. -1.
       -2   -1    0    0    0  501  0.00000000000E+00  0.00000000000E+00 -0.63647379383E+03  0.63647379383E+03  0.25500000920E-02 0.  1.
    10030    2    1    2    0    0  0.00000000000E+00  0.00000000000E+00  0.14781942543E+03  0.14207670131E+04  0.14130563764E+04 0.  0.
        2    1    3    3  502    0 -0.30793093814E+03  0.31359319841E+03  0.63011898893E+03  0.76825262575E+03  0.25500000920E-02 0. -1.
       -2    1    3    3    0  502  0.30793093814E+03 -0.31359319841E+03 -0.48229956350E+03  0.65251438736E+03  0.25500000920E-02 0.  1.
</event>
<event>
 5   0  0.7065539E-04  0.1408364E+04  0.7818609E-02  0.8947787E-01
       -2   -1    0    0    0  501  0.00000000000E+00  0.00000000000E+00  0.92980382656E+03  0.92980382656E+03  0.25500000920E-02 0. -1.
        2   -1    0    0  501    0  0.00000000000E+00  0.00000000000E+00 -0.53330815842E+03  0.53330815842E+03  0.25500000920E-02 0.  1.
    10030    2    1    2    0    0  0.00000000000E+00  0.00000000000E+00  0.39649566814E+03  0.14631119850E+04  0.14083635418E+04 0.  0.
        1    1    3    3  502    0  0.34544495351E+03  0.30484839755E+03  0.75149783556E+03  0.88148383892E+03  0.50400001928E-02 0. -1.
       -1    1    3    3    0  502 -0.34544495351E+03 -0.30484839755E+03 -0.35500216742E+03  0.58162814607E+03  0.50400001928E-02 0.  1.
</event>
<event>
 5   0  0.3907270E-04  0.1405249E+04  0.7818609E-02  0.8950028E-01
        1   -1    0    0  501    0  0.00000000000E+00  0.00000000000E+00  0.15774255142E+04  0.15774255142E+04  0.50400001928E-02 0. -1.
       -1   -1    0    0    0  501  0.00000000000E+00  0.00000000000E+00 -0.31296624033E+03  0.31296624037E+03  0.50400001928E-02 0.  1.
    10030    2    1    2    0    0  0.00000000000E+00  0.00000000000E+00  0.12644592739E+04  0.18903917546E+04  0.14052486365E+04 0.  0.
        3    1    3    3  502    0  0.23305711922E+03  0.61046286644E+03  0.97965604748E+03  0.11775850346E+04  0.10100000352E+00 0. -1.
       -3    1    3    3    0  502 -0.23305711922E+03 -0.61046286644E+03  0.28480322642E+03  0.71280672001E+03  0.10100000352E+00 0.  1.
</event>
<event>
 5   0  0.3907270E-04  0.1399515E+04  0.7818609E-02  0.8954170E-01
        1   -1    0    0  501    0  0.00000000000E+00  0.00000000000E+00  0.14792763831E+04  0.14792763831E+04  0.50400001928E-02 0.  1.
       -1   -1    0    0    0  501  0.00000000000E+00  0.00000000000E+00 -0.33101349622E+03  0.33101349625E+03  0.50400001928E-02 0. -1.
    10030    2    1    2    0    0  0.00000000000E+00  0.00000000000E+00  0.11482628869E+04  0.18102898793E+04  0.13995148409E+04 0.  0.
        3    1    3    3  502    0  0.43024948815E+03 -0.35110990539E+03  0.23411547046E+02  0.55582452127E+03  0.10100000352E+00 0. -1.
       -3    1    3    3    0  502 -0.43024948815E+03  0.35110990539E+03  0.11248513398E+04  0.12544653581E+04  0.10100000352E+00 0.  1.
</event>
<event>
 5   0  0.2660250E-04  0.1395893E+04  0.7818609E-02  0.8956797E-01
        3   -1    0    0  501    0  0.00000000000E+00  0.00000000000E+00  0.30441327696E+03  0.30441329371E+03  0.10100000352E+00 0.  1.
       -3   -1    0    0    0  501  0.00000000000E+00  0.00000000000E+00 -0.16002227424E+04  0.16002227456E+04  0.10100000352E+00 0. -1.
    10030    2    1    2    0    0  0.00000000000E+00  0.00000000000E+00 -0.12958094654E+04  0.19046360393E+04  0.13958926432E+04 0.  0.
        1    1    3    3  502    0  0.28789928708E+01  0.51014360954E+03  0.20043529625E+01  0.51015567076E+03  0.50400001928E-02 0.  1.
       -1    1    3    3    0  502 -0.28789928708E+01 -0.51014360954E+03 -0.12978138184E+04  0.13944803685E+04  0.50400001928E-02 0. -1.
</event>
<event>
 5   0  0.7296966E-04  0.1394749E+04  0.7818609E-02  0.8957628E-01
       -2   -1    0    0    0  501  0.00000000000E+00  0.00000000000E+00  0.29394616393E+03  0.29394616394E+03  0.25500000920E-02 0.  1.
        2   -1    0    0  501    0  0.00000000000E+00  0.00000000000E+00 -0.16544912295E+04  0.16544912295E+04  0.25500000920E-02 0. -1.
    10030    2    1    2    0    0  0.00000000000E+00  0.00000000000E+00 -0.13605450656E+04  0.19484373934E+04  0.13947492250E+04 0.  0.
        3    1    3    3  502    0 -0.48323480639E+03 -0.19966020817E+03 -0.35612958283E+02  0.52406905064E+03  0.10100000352E+00 0.  1.
       -3    1    3    3    0  502  0.48323480639E+03  0.19966020817E+03 -0.13249321073E+04  0.14243683428E+04  0.10100000352E+00 0. -1.
</event>
<event>
 5   0  0.3784219E-04  0.1489864E+04  0.7818609E-02  0.8891222E-01
       -1   -1    0    0    0  501  0.00000000000E+00  0.00000000000E+00  0.73268776711E+03  0.73268776713E+03  0.50400001928E-02 0.  1.
        1   -1    0    0  501    0  0.00000000000E+00  0.00000000000E+00 -0.75738042809E+03  0.75738042810E+03  0.50400001928E-02 0. -1.
    10030    2    1    2    0    0  0.00000000000E+00  0.00000000000E+00 -0.24692660976E+02  0.14900681952E+04  0.14898635840E+04 0.  0.
        1    1    3    3  502    0  0.28352250221E+03  0.46121694730E+03 -0.52409745315E+03  0.75351457993E+03  0.50400001928E-02 0. -1.
       -1    1    3    3    0  502 -0.28352250221E+03 -0.46121694730E+03  0.49940479218E+03  0.73655361530E+03  0.50400001928E-02 0.  1.
</event>
<event>
 5   0  0.6870835E-04  0.1400385E+04  0.7818609E-02  0.8953540E-01
        2   -1    0    0  501    0  0.00000000000E+00  0.00000000000E+00  0.11688146235E+04  0.11688146235E+04  0.25500000920E-02 0.  1.
       -2   -1    0    0    0  501  0.00000000000E+00  0.00000000000E+00 -0.41945903417E+03  0.41945903418E+03  0.25500000920E-02 0. -1.
    10030    2    1    2    0    0  0.00000000000E+00  0.00000000000E+00  0.74935558936E+03  0.15882736577E+04  0.14003854514E+04 0.  0.
        2    1    3    3  502    0  0.22295835411E+03  0.57552309886E+03 -0.34058856183E+00  0.61720124837E+03  0.25500000920E-02 0. -1.
       -2    1    3    3    0  502 -0.22295835411E+03 -0.57552309886E+03  0.74969617792E+03  0.97107240934E+03  0.25500000920E-02 0.  1.
</event>
<event>
 5   0  0.3907093E-04  0.1401857E+04  0.7818609E-02  0.8952475E-01
        1   -1    0    0  501    0  0.00000000000E+00  0.00000000000E+00  0.13986595369E+04  0.13986595370E+04  0.50400001928E-02 0.  1.
       -1   -1    0    0    0  501  0.00000000000E+00  0.00000000000E+00 -0.35126553243E+03  0.35126553247E+03  0.50400001928E-02 0. -1.
    10030    2    1    2    0    0  0.00000000000E+00  0.00000000000E+00  0.10473940045E+04  0.17499250694E+04  0.14018571781E+04 0.  0.
        4    1    3    3  502    0  0.39172536490E+03  0.17723494584E+03 -0.16731755382E+03  0.46136510948E+03  0.12699999809E+01 0. -1.
       -4    1    3    3    0  502 -0.39172536490E+03 -0.17723494584E+03  0.12147115583E+04  0.12885599599E+04  0.12699999809E+01 0.  1.
</event>
<event>
 5   0  0.3784219E-04  0.1386557E+04  0.7818609E-02  0.8963607E-01
        1   -1    0    0  501    0  0.00000000000E+00  0.00000000000E+00  0.55749305037E+03  0.55749305039E+03  0.50400001928E-02 0.  1.
       -1   -1    0    0    0  501  0.00000000000E+00  0.00000000000E+00 -0.86213626892E+03  0.86213626893E+03  0.50400001928E-02 0. -1.
    10030    2    1    2    0    0  0.00000000000E+00  0.00000000000E+00 -0.30464321855E+03  0.14196293193E+04  0.13865568556E+04 0.  0.
        1    1    3    3  502    0  0.14024045371E+03  0.65333206289E+03  0.36813603873E+02  0.66922747307E+03  0.50400001928E-02 0. -1.
       -1    1    3    3    0  502 -0.14024045371E+03 -0.65333206289E+03 -0.34145682242E+03  0.75040184625E+03  0.50400001928E-02 0.  1.
</event>
<event>
 5   0  0.3756664E-04  0.1404227E+04  0.7818609E-02  0.8950765E-01
        1   -1    0    0  501    0  0.00000000000E+00  0.00000000000E+00  0.50837659890E+03  0.50837659892E+03  0.50400001928E-02 0.  1.
       -1   -1    0    0    0  501  0.00000000000E+00  0.00000000000E+00 -0.96968105069E+03  0.96968105070E+03  0.50400001928E-02 0. -1.
    10030    2    1    2    0    0  0.00000000000E+00  0.00000000000E+00 -0.46130445179E+03  0.14780576496E+04  0.14042266976E+04 0.  0.
        2    1    3    3  502    0  0.70826767168E+02  0.60245407125E+03  0.14148394547E+03  0.62288445618E+03  0.25500000920E-02 0.  1.
       -2    1    3    3    0  502 -0.70826767168E+02 -0.60245407125E+03 -0.60278839725E+03  0.85517319345E+03  0.25500000920E-02 0. -1.
</event>
<event>
 5   0  0.3907270E-04  0.1367270E+04  0.7818609E-02  0.8977857E-01
       -1   -1    0    0    0  501  0.00000000000E+00  0.00000000000E+00  0.22861511648E+03  0.22861511654E+03  0.50400001928E-02 0. -1.
        1   -1    0    0  501    0  0.00000000000E+00  0.00000000000E+00 -0.20442963872E+04  0.20442963872E+04  0.50400001928E-02 0.  1.
    10030    2    1    2    0    0  0.00000000000E+00  0.00000000000E+00 -0.18156812707E+04  0.22729115037E+04  0.13672703562E+04 0.  0.
        3    1    3    3  502    0  0.57809932097E+03  0.30806484321E+03 -0.58270235008E+03  0.87672390837E+03  0.10100000352E+00 0.  1.
       -3    1    3    3    0  502 -0.57809932097E+03 -0.30806484321E+03 -0.12329789206E+04  0.13961875954E+04  0.10100000352E+00 0. -1.
</event>
<event>
 5   0  0.6895048E-04  0.1396091E+04  0.7818609E-02  0.8956653E-01
        2   -1    0    0  501    0  0.00000000000E+00  0.00000000000E+00  0.48920760378E+03  0.48920760378E+03  0.25500000920E-02 0.  1.
       -2   -1    0    0    0  501  0.00000000000E+00  0.00000000000E+00 -0.99603364875E+03  0.99603364875E+03  0.25500000920E-02 0. -1.
    10030    2    1    2    0    0  0.00000000000E+00  0.00000000000E+00 -0.50682604497E+03  0.14852412525E+04  0.13960905910E+04 0.  0.
        4    1    3    3  502    0  0.30928597729E+02 -0.30271039207E+03 -0.92176227414E+03  0.97068916887E+03  0.12699999809E+01 0. -1.
       -4    1    3    3    0  502 -0.30928597729E+02  0.30271039207E+03  0.41493622917E+03  0.51455208367E+03  0.12699999809E+01 0.  1.
</event>
<event>
 5   0  0.6895048E-04  0.1392575E+04  0.7818609E-02  0.8959211E-01
        2   -1    0    0  501    0  0.00000000000E+00  0.00000000000E+00  0.15081223345E+04  0.15081223345E+04  0.25500000920E-02 0. -1.
       -2   -1    0    0    0  501  0.00000000000E+00  0.00000000000E+00 -0.32146995792E+03  0.32146995793E+03  0.25500000920E-02 0.  1.
    10030    2    1    2    0    0  0.00000000000E+00  0.00000000000E+00  0.11866523766E+04  0.18295922924E+04  0.13925746277E+04 0.  0.
        4    1    3    3  502    0  0.57211564456E+03  0.30938379359E+03  0.26676920117E+03  0.70299506547E+03  0.12699999809E+01 0. -1.
       -4    1    3    3    0  502 -0.57211564456E+03 -0.30938379359E+03  0.91988317541E+03  0.11265972270E+04  0.12699999809E+01 0.  1.
</event>
<event>
 5   0  0.3756664E-04  0.1394915E+04  0.7818609E-02  0.8957508E-01
        1   -1    0    0  501    0  0.00000000000E+00  0.00000000000E+00  0.10206423609E+04  0.10206423610E+04  0.50400001928E-02 0. -1.
       -1   -1    0    0    0  501  0.00000000000E+00  0.00000000000E+00 -0.47660863854E+03  0.47660863856E+03  0.50400001928E-02 0.  1.
    10030    2    1    2    0    0  0.00000000000E+00  0.00000000000E+00  0.54403372241E+03  0.14972509995E+04  0.13949150026E+04 0.  0.
        2    1    3    3  502    0  0.51929151351E+03  0.32045066979E+03 -0.90542833541E+02  0.61688760118E+03  0.25500000920E-02 0.  1.
       -2    1    3    3    0  502 -0.51929151351E+03 -0.32045066979E+03  0.63457655595E+03  0.88036339834E+03  0.25500000920E-02 0. -1.
</event>
<event>
 5   0  0.6895048E-04  0.1398687E+04  0.7818609E-02  0.8954769E-01
       -2   -1    0    0    0  501  0.00000000000E+00  0.00000000000E+00  0.11381647595E+04  0.11381647595E+04  0.25500000920E-02 0. -1.
        2   -1    0    0  501    0  0.00000000000E+00  0.00000000000E+00 -0.42971056142E+03  0.42971056143E+03  0.25500000920E-02 0.  1.
    10030    2    1    2    0    0  0.00000000000E+00  0.00000000000E+00  0.70845419810E+03  0.15678753210E+04  0.13986871241E+04 0.  0.
        4    1    3    3  502    0 -0.30948981267E+03  0.44547141735E+03  0.84904152499E+03  0.10075226309E+04  0.12699999809E+01 0. -1.
       -4    1    3    3    0  502  0.30948981267E+03 -0.44547141735E+03 -0.14058732688E+03  0.56035269001E+03  0.12699999809E+01 0.  1.
</event>
<event>
 5   0  0.7065539E-04  0.1396757E+04  0.7818609E-02  0.8956169E-01
        2   -1    0    0  501    0  0.00000000000E+00  0.00000000000E+00  0.18354945790E+04  0.18354945790E+04  0.25500000920E-02 0. -1.
       -2   -1    0    0    0  501  0.00000000000E+00  0.00000000000E+00 -0.26572263849E+03  0.26572263850E+03  0.25500000920E-02 0.  1.
    10030    2    1    2    0    0  0.00000000000E+00  0.00000000000E+00  0.15697719405E+04  0.21012172175E+04  0.13967569044E+04 0.  0.
        1    1    3    3  502    0  0.58240259513E+03  0.15639795220E+03  0.25497867725E+03  0.65472683475E+03  0.50400001928E-02 0.  1.
       -1    1    3    3    0  502 -0.58240259513E+03 -0.15639795220E+03  0.13147932632E+04  0.14464903827E+04  0.50400001928E-02 0. -1.
</event>
<event>
 5   0  0.6895048E-04  0.1404500E+04  0.7818609E-02  0.8950567E-01
        2   -1    0    0  501    0  0.00000000000E+00  0.00000000000E+00  0.12500547077E+04  0.12500547077E+04  0.25500000920E-02 0. -1.
       -2   -1    0    0    0  501  0.00000000000E+00  0.00000000000E+00 -0.39450700556E+03  0.39450700557E+03  0.25500000920E-02 0.  1.
    10030    2    1    2    0    0  0.00000000000E+00  0.00000000000E+00  0.85554770217E+03  0.16445617133E+04  0.14045003945E+04 0.  0.
        4    1    3    3  502    0 -0.63447897694E+03  0.26296081310E+03  0.59923217667E+03  0.91147834635E+03  0.12699999809E+01 0. -1.
       -4    1    3    3    0  502  0.63447897694E+03 -0.26296081310E+03  0.25631552550E+03  0.73308336696E+03  0.12699999809E+01 0.  1.
</event>
<event>
 5   0  0.3907270E-04  0.1410347E+04  0.7818609E-02  0.8946363E-01
       -1   -1    0    0    0  501  0.00000000000E+00  0.00000000000E+00  0.50848303393E+03  0.50848303396E+03  0.50400001928E-02 0.  1.
        1   -1    0    0  501    0  0.00000000000E+00  0.00000000000E+00 -0.97794735085E+03  0.97794735086E+03  0.50400001928E-02 0. -1.
    10030    2    1    2    0    0  0.00000000000E+00  0.00000000000E+00 -0.46946431691E+03  0.14864303848E+04  0.14103469587E+04 0.  0.
        3    1    3    3  502    0  0.39006181637E+03 -0.11083150028E+03  0.37331171754E+03  0.55117464627E+03  0.10100000352E+00 0.  1.
       -3    1    3    3    0  502 -0.39006181637E+03  0.11083150028E+03 -0.84277603445E+03  0.93525573855E+03  0.10100000352E+00 0. -1.
</event>
<event>
 5   0  0.6959748E-04  0.1401719E+04  0.7818609E-02  0.8952575E-01
        2   -1    0    0  501    0  0.00000000000E+00  0.00000000000E+00  0.10598489643E+04  0.10598489643E+04  0.25500000920E-02 0. -1.
       -2   -1    0    0    0  501  0.00000000000E+00  0.00000000000E+00 -0.46346621236E+03  0.46346621237E+03  0.25500000920E-02 0.  1.
    10030    2    1    2    0    0  0.00000000000E+00  0.00000000000E+00  0.59638275197E+03  0.15233151767E+04  0.14017192089E+04 0.  0.
        5    1    3    3  502    0  0.35436609878E+03  0.48022018035E+03  0.69748110154E+03  0.91798078988E+03  0.46999998093E+01 0. -1.
       -5    1    3    3    0  502 -0.35436609878E+03 -0.48022018035E+03 -0.10109834957E+03  0.60533438682E+03  0.46999998093E+01 0.  1.
</event>
<event>
 5   0  0.3907270E-04  0.1391326E+04  0.7818609E-02  0.8960121E-01
       -1   -1    0    0    0  501  0.00000000000E+00  0.00000000000E+00  0.84234334204E+03  0.84234334205E+03  0.50400001928E-02 0.  1.
        1   -1    0    0  501    0  0.00000000000E+00  0.00000000000E+00 -0.57452477901E+03  0.57452477903E+03  0.50400001928E-02 0. -1.
    10030    2    1    2    0    0  0.00000000000E+00  0.00000000000E+00  0.26781856303E+03  0.14168681211E+04  0.13913261623E+04 0.  0.
        3    1    3    3  502    0  0.48620042422E+03  0.48403326152E+03  0.16607606133E+02  0.68626151980E+03  0.10100000352E+00 0. -1.
       -3    1    3    3    0  502 -0.48620042422E+03 -0.48403326152E+03  0.25121095690E+03  0.73060660128E+03  0.10100000352E+00 0.  1.
</event>
<event>
 5   0  0.3907270E-04  0.1409378E+04  0.7818609E-02  0.8947058E-01
        1   -1    0    0  501    0  0.00000000000E+00  0.00000000000E+00  0.60544940023E+03  0.60544940025E+03  0.50400001928E-02 0.  1.
       -1   -1    0    0    0  501  0.00000000000E+00  0.00000000000E+00 -0.82019451989E+03  0.82019451991E+03  0.50400001928E-02 0. -1.
    10030    2    1    2    0    0  0.00000000000E+00  0.00000000000E+00 -0.21474511966E+03  0.14256439202E+04  0.14093775650E+04 0.  0.
        3    1    3    3  502    0  0.11398796722E+03 -0.65520418310E+03 -0.34308667699E+03  0.74832763971E+03  0.10100000352E+00 0. -1.
       -3    1    3    3    0  502 -0.11398796722E+03  0.65520418310E+03  0.12834155733E+03  0.67731628045E+03  0.10100000352E+00 0.  1.
</event>
<event>
 5   0  0.7296966E-04  0.1404343E+04  0.7818609E-02  0.8950681E-01
       -2   -1    0    0    0  501  0.00000000000E+00  0.00000000000E+00  0.16403268940E+04  0.16403268940E+04  0.25500000920E-02 0.  1.
        2   -1    0    0  501    0  0.00000000000E+00  0.00000000000E+00 -0.30057729846E+03  0.30057729847E+03  0.25500000920E-02 0. -1.
    10030    2    1    2    0    0  0.00000000000E+00  0.00000000000E+00  0.13397495956E+04  0.19409041925E+04  0.14043433005E+04 0.  0.
        3    1    3    3  502    0  0.95607848752E+02 -0.67382036386E+03  0.43101096032E+03  0.80557135104E+03  0.10100000352E+00 0. -1.
       -3    1    3    3    0  502 -0.95607848752E+02  0.67382036386E+03  0.90873863523E+03  0.11353328414E+04  0.10100000352E+00 0.  1.
</event>
<event>
 5   0  0.3784219E-04  0.1304237E+04  0.7818609E-02  0.9026212E-01
        1   -1    0    0  501    0  0.00000000000E+00  0.00000000000E+00  0.96397199815E+03  0.96397199816E+03  0.50400001928E-02 0. -1.
       -1   -1    0    0    0  501  0.00000000000E+00  0.00000000000E+00 -0.44115226809E+03  0.44115226811E+03  0.50400001928E-02 0.  1.
    10030    2    1    2    0    0  0.00000000000E+00  0.00000000000E+00  0.52281973006E+03  0.14051242663E+04  0.13042368395E+04 0.  0.
        1    1    3    3  502    0  0.61568929549E+03  0.20923502640E+03  0.20856648312E+03  0.68290012649E+03  0.50400001928E-02 0. -1.
       -1    1    3    3    0  502 -0.61568929549E+03 -0.20923502640E+03  0.31425324695E+03  0.72222413979E+03  0.50400001928E-02 0.  1.
</event>
<event>
 5   0  0.3907093E-04  0.1392937E+04  0.7818609E-02  0.8958947E-01
       -1   -1    0    0    0  501  0.00000000000E+00  0.00000000000E+00  0.44789449693E+03  0.44789449695E+03  0.50400001928E-02 0.  1.
        1   -1    0    0  501    0  0.00000000000E+00  0.00000000000E+00 -0.10829962161E+04  0.10829962161E+04  0.50400001928E-02 0. -1.
    10030    2    1    2    0    0  0.00000000000E+00  0.00000000000E+00 -0.63510171919E+03  0.15308907131E+04  0.13929365318E+04 0.  0.
        4    1    3    3  502    0  0.54909783446E+03 -0.39531936994E+03 -0.13602446136E+03  0.69013774208E+03  0.12699999809E+01 0.  1.
       -4    1    3    3    0  502 -0.54909783446E+03  0.39531936994E+03 -0.49907725783E+03  0.84075297100E+03  0.12699999809E+01 0. -1.
</event>
<event>
 5   0  0.3977658E-04  0.1413413E+04  0.7818609E-02  0.8944166E-01
       -1   -1    0    0    0  501  0.00000000000E+00  0.00000000000E+00  0.43366781030E+03  0.43366781033E+03  0.50400001928E-02 0. -1.
        1   -1    0    0  501    0  0.00000000000E+00  0.00000000000E+00 -0.11516514354E+04  0.11516514354E+04  0.50400001928E-02 0.  1.
    10030    2    1    2    0    0  0.00000000000E+00  0.00000000000E+00 -0.71798362510E+03  0.15853192457E+04  0.14134131119E+04 0.  0.
        5    1    3    3  502    0 -0.71702258262E+02 -0.45648414738E+03 -0.95871305839E+03  0.10642705525E+04  0.46999998093E+01 0.  1.
       -5    1    3    3    0  502  0.71702258262E+02  0.45648414738E+03  0.24072943329E+03  0.52104869321E+03  0.46999998093E+01 0. -1.
</event>
<event>
 5   0  0.3907093E-04  0.1354184E+04  0.7818609E-02  0.8987667E-01
       -1   -1    0    0    0  501  0.00000000000E+00  0.00000000000E+00  0.29662894570E+03  0.29662894574E+03  0.50400001928E-02 0.  1.
        1   -1    0    0  501    0  0.00000000000E+00  0.00000000000E+00 -0.15455464159E+04  0.15455464159E+04  0.50400001928E-02 0. -1.
    10030    2    1    2    0    0  0.00000000000E+00  0.00000000000E+00 -0.12489174702E+04  0.18421753617E+04  0.13541843360E+04 0.  0.
        4    1    3    3  502    0 -0.54620939179E+03  0.89788995681E+02 -0.11549031313E+04  0.12807066874E+04  0.12699999809E+01 0. -1.
       -4    1    3    3    0  502  0.54620939179E+03 -0.89788995681E+02 -0.94014338923E+02  0.56146867433E+03  0.12699999809E+01 0.  1.
</event>
<event>
 5   0  0.3784219E-04  0.1403734E+04  0.7818609E-02  0.8951120E-01
        1   -1    0    0  501    0  0.00000000000E+00  0.00000000000E+00  0.54569847896E+03  0.54569847898E+03  0.50400001928E-02 0.  1.
       -1   -1    0    0    0  501  0.00000000000E+00  0.00000000000E+00 -0.90272777436E+03  0.90272777438E+03  0.50400001928E-02 0. -1.
    10030    2    1    2    0    0  0.00000000000E+00  0.00000000000E+00 -0.35702929540E+03  0.14484262534E+04  0.14037338400E+04 0.  0.
        1    1    3    3  502    0  0.73006846899E+02  0.68877662596E+03 -0.29559047745E+03  0.75307169018E+03  0.50400001928E-02 0.  1.
       -1    1    3    3    0  502 -0.73006846899E+02 -0.68877662596E+03 -0.61438817952E+02  0.69535456318E+03  0.50400001928E-02 0. -1.
</event>
<event>
 5   0  0.6895048E-04  0.1287065E+04  0.7818609E-02  0.9039886E-01
        2   -1    0    0  501    0  0.00000000000E+00  0.00000000000E+00  0.28086358315E+04  0.28086358315E+04  0.25500000920E-02 0. -1.
       -2   -1    0    0    0  501  0.00000000000E+00  0.00000000000E+00 -0.14745015009E+03  0.14745015011E+03  0.25500000920E-02 0.  1.
    10030    2    1    2    0    0  0.00000000000E+00  0.00000000000E+00  0.26611856814E+04  0.29560859816E+04  0.12870645282E+04 0.  0.
        4    1    3    3  502    0  0.27747928994E+03 -0.26633246161E+02  0.26627726790E+04  0.26773240445E+04  0.12699999809E+01 0. -1.
       -4    1    3    3    0  502 -0.27747928994E+03  0.26633246161E+02 -0.15869975811E+01  0.27876193716E+03  0.12699999809E+01 0.  1.
</event>
<event>
 5   0  0.3907093E-04  0.1408533E+04  0.7818609E-02  0.8947665E-01
       -1   -1    0    0    0  501  0.00000000000E+00  0.00000000000E+00  0.23309513000E+03  0.23309513006E+03  0.50400001928E-02 0.  1.
        1   -1    0    0  501    0  0.00000000000E+00  0.00000000000E+00 -0.21278487527E+04  0.21278487527E+04  0.50400001928E-02 0. -1.
    10030    2    1    2    0    0  0.00000000000E+00  0.00000000000E+00 -0.18947536227E+04  0.23609438828E+04  0.14085328277E+04 0.  0.
        4    1    3    3  502    0  0.43208149395E+02  0.51528300794E+03 -0.17488011871E+04  0.18236476434E+04  0.12699999809E+01 0. -1.
       -4    1    3    3    0  502 -0.43208149395E+02 -0.51528300794E+03 -0.14595243559E+03  0.53729623933E+03  0.12699999809E+01 0.  1.
</event>
<event>
 5   0  0.3907093E-04  0.1396539E+04  0.7818609E-02  0.8956327E-01
        1   -1    0    0  501    0  0.00000000000E+00  0.00000000000E+00  0.55687552376E+03  0.55687552378E+03  0.50400001928E-02 0.  1.
       -1   -1    0    0    0  501  0.00000000000E+00  0.00000000000E+00 -0.87556459593E+03  0.87556459595E+03  0.50400001928E-02 0. -1.
    10030    2    1    2    0    0  0.00000000000E+00  0.00000000000E+00 -0.31868907218E+03  0.14324401197E+04  0.13965392840E+04 0.  0.
        4    1    3    3  502    0  0.68652738938E+03  0.12521549432E+03 -0.13464003251E+03  0.71072380546E+03  0.12699999809E+01 0.  1.
       -4    1    3    3    0  502 -0.68652738938E+03 -0.12521549432E+03 -0.18404903966E+03  0.72171631427E+03  0.12699999809E+01 0. -1.
</event>
<event>
 5   0  0.3907270E-04  0.1400897E+04  0.7818609E-02  0.8953170E-01
       -1   -1    0    0    0  501  0.00000000000E+00  0.00000000000E+00  0.57912686567E+03  0.57912686569E+03  0.50400001928E-02 0. -1.
        1   -1    0    0  501    0  0.00000000000E+00  0.00000000000E+00 -0.84718554194E+03  0.84718554196E+03  0.50400001928E-02 0.  1.
    10030    2    1    2    0    0  0.00000000000E+00  0.00000000000E+00 -0.26805867628E+03  0.14263124076E+04  0.14008967236E+04 0.  0.
        3    1    3    3  502    0 -0.47552305145E+02  0.42671771884E+03 -0.69749429655E+03  0.81905282932E+03  0.10100000352E+00 0.  1.
       -3    1    3    3    0  502  0.47552305145E+02 -0.42671771884E+03  0.42943562028E+03  0.60725957832E+03  0.10100000352E+00 0. -1.
</event>
<event>
 5   0  0.3907270E-04  0.1405628E+04  0.7818609E-02  0.8949755E-01
       -1   -1    0    0    0  501  0.00000000000E+00  0.00000000000E+00  0.46490132599E+03  0.46490132602E+03  0.50400001928E-02 0.  1.
        1   -1    0    0  501    0  0.00000000000E+00  0.00000000000E+00 -0.10624776869E+04  0.10624776869E+04  0.50400001928E-02 0. -1.
    10030    2    1    2    0    0  0.00000000000E+00  0.00000000000E+00 -0.59757636090E+03  0.15273790129E+04  0.14056276683E+04 0.  0.
        3    1    3    3  502    0  0.11816724388E+03 -0.23060410756E+03 -0.10086789629E+04  0.10414293123E+04  0.10100000352E+00 0. -1.
       -3    1    3    3    0  502 -0.11816724388E+03  0.23060410756E+03  0.41110260205E+03  0.48594970065E+03  0.10100000352E+00 0.  1.
</event>
<event>
 5   0  0.6895048E-04  0.1392705E+04  0.7818609E-02  0.8959116E-01
       -2   -1    0    0    0  501  0.00000000000E+00  0.00000000000E+00  0.34935481295E+03  0.34935481296E+03  0.25500000920E-02 0.  1.
        2   -1    0    0  501    0  0.00000000000E+00  0.00000000000E+00 -0.13880057294E+04  0.13880057294E+04  0.25500000920E-02 0. -1.
    10030    2    1    2    0    0  0.00000000000E+00  0.00000000000E+00 -0.10386509164E+04  0.17373605423E+04  0.13927045372E+04 0.  0.
        4    1    3    3  502    0 -0.39394369169E+02 -0.52430176909E+03 -0.10888900245E+04  0.12091845846E+04  0.12699999809E+01 0. -1.
       -4    1    3    3    0  502  0.39394369169E+02  0.52430176909E+03  0.50239108079E+02  0.52817595769E+03  0.12699999809E+01 0.  1.
</event>
<event>
 5   0  0.3756664E-04  0.1456384E+04  0.7818609E-02  0.8913987E-01
       -1   -1    0    0    0  501  0.00000000000E+00  0.00000000000E+00  0.40739407312E+03  0.40739407315E+03  0.50400001928E-02 0.  1.
        1   -1    0    0  501    0  0.00000000000E+00  0.00000000000E+00 -0.13015983114E+04  0.13015983114E+04  0.50400001928E-02 0. -1.
    10030    2    1    2    0    0  0.00000000000E+00  0.00000000000E+00 -0.89420423826E+03  0.17089923845E+04  0.14563837924E+04 0.  0.
        2    1    3    3  502    0  0.62931606383E+03  0.35483118573E+03 -0.34006992059E+03  0.79849322442E+03  0.25500000920E-02 0.  1.
       -2    1    3    3    0  502 -0.62931606383E+03 -0.35483118573E+03 -0.55413431767E+03  0.91049916012E+03  0.25500000920E-02 0. -1.
</event>
<event>
 5   0  0.3907093E-04  0.1397769E+04  0.7818609E-02  0.8955435E-01
       -1   -1    0    0    0  501  0.00000000000E+00  0.00000000000E+00  0.51139319442E+03  0.51139319445E+03  0.50400001928E-02 0.  1.
        1   -1    0    0  501    0  0.00000000000E+00  0.00000000000E+00 -0.95511534888E+03  0.95511534890E+03  0.50400001928E-02 0. -1.
    10030    2    1    2    0    0  0.00000000000E+00  0.00000000000E+00 -0.44372215446E+03  0.14665085433E+04  0.13977689213E+04 0.  0.
        4    1    3    3  502    0 -0.16277194544E+03 -0.67834361319E+03 -0.17743346163E+03  0.71981178789E+03  0.12699999809E+01 0.  1.
       -4    1    3    3    0  502  0.16277194544E+03  0.67834361319E+03 -0.26628869283E+03  0.74669675545E+03  0.12699999809E+01 0. -1.
</event>
<event>
 5   0  0.6895048E-04  0.1407295E+04  0.7818609E-02  0.8948555E-01
       -2   -1    0    0    0  501  0.00000000000E+00  0.00000000000E+00  0.59365907169E+03  0.59365907169E+03  0.25500000920E-02 0. -1.
        2   -1    0    0  501    0  0.00000000000E+00  0.00000000000E+00 -0.83401336257E+03  0.83401336258E+03  0.25500000920E-02 0.  1.
    10030    2    1    2    0    0  0.00000000000E+00  0.00000000000E+00 -0.24035429089E+03  0.14276724343E+04  0.14072947077E+04 0.  0.
        4    1    3    3  502    0 -0.91217660326E+02  0.52753652882E+03 -0.58340982450E+03  0.79182326754E+03  0.12699999809E+01 0.  1.
       -4    1    3    3    0  502  0.91217660326E+02 -0.52753652882E+03  0.34305553361E+03  0.63584916673E+03  0.12699999809E+01 0. -1.
</event>
<event>
 5   0  0.6959748E-04  0.1402937E+04  0.7818609E-02  0.8951695E-01
        2   -1    0    0  501    0  0.00000000000E+00  0.00000000000E+00  0.10284136712E+04  0.10284136712E+04  0.25500000920E-02 0. -1.
       -2   -1    0    0    0  501  0.00000000000E+00  0.00000000000E+00 -0.47846310117E+03  0.47846310117E+03  0.25500000920E-02 0.  1.
    10030    2    1    2    0    0  0.00000000000E+00  0.00000000000E+00  0.54995057002E+03  0.15068767724E+04  0.14029369115E+04 0.  0.
        5    1    3    3  502    0 -0.16348082137E+03 -0.57015055156E+03 -0.12725324871E+03  0.60664084078E+03  0.46999998093E+01 0.  1.
       -5    1    3    3    0  502  0.16348082137E+03  0.57015055156E+03  0.67720381873E+03  0.90023593157E+03  0.46999998093E+01 0. -1.
</event>
<event>
 5   0  0.3907093E-04  0.1378500E+04  0.7818609E-02  0.8969530E-01
       -1   -1    0    0    0  501  0.00000000000E+00  0.00000000000E+00  0.37565418931E+03  0.37565418935E+03  0.50400001928E-02 0. -1.
        1   -1    0    0  501    0  0.00000000000E+00  0.00000000000E+00 -0.12646355036E+04  0.12646355036E+04  0.50400001928E-02 0.  1.
    10030    2    1    2    0    0  0.00000000000E+00  0.00000000000E+00 -0.88898131431E+03  0.16402896930E+04  0.13785000906E+04 0.  0.
        4    1    3    3  502    0  0.66734789182E+03 -0.64166567450E+02 -0.63485176129E+03  0.92331410084E+03  0.12699999809E+01 0. -1.
       -4    1    3    3    0  502 -0.66734789182E+03  0.64166567450E+02 -0.25412955303E+03  0.71697559214E+03  0.12699999809E+01 0.  1.
</event>
<event>
 5   0  0.6895048E-04  0.1397939E+04  0.7818609E-02  0.8955312E-01
       -2   -1    0    0    0  501  0.00000000000E+00  0.00000000000E+00  0.52976691184E+03  0.52976691184E+03  0.25500000920E-02 0.  1.
        2   -1    0    0  501    0  0.00000000000E+00  0.00000000000E+00 -0.92221352969E+03  0.92221352969E+03  0.25500000920E-02 0. -1.
    10030    2    1    2    0    0  0.00000000000E+00  0.00000000000E+00 -0.39244661785E+03  0.14519804415E+04  0.13979387879E+04 0.  0.
        4    1    3    3  502    0  0.36518915112E+03  0.31418760764E+02 -0.81438313944E+03  0.89306873494E+03  0.12699999809E+01 0. -1.
       -4    1    3    3    0  502 -0.36518915112E+03 -0.31418760764E+02  0.42193652159E+03  0.55891170660E+03  0.12699999809E+01 0.  1.
</event>
<event>
 5   0  0.7296966E-04  0.1397566E+04  0.7818609E-02  0.8955582E-01
       -2   -1    0    0    0  501  0.00000000000E+00  0.00000000000E+00  0.51217968698E+03  0.51217968698E+03  0.25500000920E-02 0. -1.
        2   -1    0    0  501    0  0.00000000000E+00  0.00000000000E+00 -0.95337212011E+03  0.95337212011E+03  0.25500000920E-02 0.  1.
    10030    2    1    2    0    0  0.00000000000E+00  0.00000000000E+00 -0.44119243313E+03  0.14655518071E+04  0.13975662189E+04 0.  0.
        3    1    3    3  502    0 -0.22933744189E+03  0.64273193683E+03 -0.62957807424E+02  0.68532014460E+03  0.10100000352E+00 0. -1.
       -3    1    3    3    0  502  0.22933744189E+03 -0.64273193683E+03 -0.37823462571E+03  0.78023166250E+03  0.10100000352E+00 0.  1.
</event>
<event>
 5   0  0.3977658E-04  0.1401434E+04  0.7818609E-02  0.8952781E-01
       -1   -1    0    0    0  501  0.00000000000E+00  0.00000000000E+00  0.59855203076E+03  0.59855203078E+03  0.50400001928E-02 0.  1.
        1   -1    0    0  501    0  0.00000000000E+00  0.00000000000E+00 -0.82032026488E+03  0.82032026489E+03  0.50400001928E-02 0. -1.
    10030    2    1    2    0    0  0.00000000000E+00  0.00000000000E+00 -0.22176823412E+03  0.14188722957E+04  0.14014340661E+04 0.  0.
        5    1    3    3  502    0  0.24067583216E+03 -0.14952790452E+02 -0.77697154514E+03  0.81354490600E+03  0.46999998093E+01 0. -1.
       -5    1    3    3    0  502 -0.24067583216E+03  0.14952790452E+02  0.55520331102E+03  0.60532738967E+03  0.46999998093E+01 0.  1.
</event>
<event>
 5   0  0.6870835E-04  0.1395763E+04  0.7818609E-02  0.8956891E-01
        2   -1    0    0  501    0  0.00000000000E+00  0.00000000000E+00  0.18026014035E+04  0.18026014035E+04  0.25500000920E-02 0. -1.
       -2   -1    0    0    0  501  0.00000000000E+00  0.00000000000E+00 -0.27018645558E+03  0.27018645559E+03  0.25500000920E-02 0.  1.
    10030    2    1    2    0    0  0.00000000000E+00  0.00000000000E+00  0.15324149480E+04  0.20727878591E+04  0.13957628510E+04 0.  0.
        2    1    3    3  502    0 -0.42989666232E+03 -0.16080404894E+03  0.15469147019E+04  0.16135718693E+04  0.25500000920E-02 0. -1.
       -2    1    3    3    0  502  0.42989666232E+03  0.16080404894E+03 -0.14499753956E+02  0.45921598981E+03  0.25500000920E-02 0.  1.
</event>
<event>
 5   0  0.3977658E-04  0.1410275E+04  0.7818609E-02  0.8946414E-01
       -1   -1    0    0    0  501  0.00000000000E+00  0.00000000000E+00  0.33326072694E+03  0.33326072698E+03  0.50400001928E-02 0.  1.
        1   -1    0    0  501    0  0.00000000000E+00  0.00000000000E+00 -0.14919815437E+04  0.14919815437E+04  0.50400001928E-02 0. -1.
    10030    2    1    2    0    0  0.00000000000E+00  0.00000000000E+00 -0.11587208167E+04  0.18252422706E+04  0.14102749432E+04 0.  0.
        5    1    3    3  502    0  0.20574528836E+03 -0.59922632410E+03 -0.97993614655E+03  0.11669191285E+04  0.46999998093E+01 0. -1.
       -5    1    3    3    0  502 -0.20574528836E+03  0.59922632410E+03 -0.17878467017E+03  0.65832314213E+03  0.46999998093E+01 0.  1.
</event>
<event>
 5   0  0.6870835E-04  0.1409221E+04  0.7818609E-02  0.8947171E-01
        2   -1    0    0  501    0  0.00000000000E+00  0.00000000000E+00  0.23924271240E+04  0.23924271240E+04  0.25500000920E-02 0. -1.
       -2   -1    0    0    0  501  0.00000000000E+00  0.00000000000E+00 -0.20751985009E+03  0.20751985011E+03  0.25500000920E-02 0.  1.
    10030    2    1    2    0    0  0.00000000000E+00  0.00000000000E+00  0.21849072739E+04  0.25999469741E+04  0.14092212291E+04 0.  0.
        2    1    3    3  502    0  0.37694768948E+02  0.68772176684E+03  0.81821892296E+03  0.10695159326E+04  0.25500000920E-02 0.  1.
       -2    1    3    3    0  502 -0.37694768948E+02 -0.68772176684E+03  0.13666883510E+04  0.15304310415E+04  0.25500000920E-02 0. -1.
</event>
<event>
 5   0  0.3907270E-04  0.1401729E+04  0.7818609E-02  0.8952568E-01
        1   -1    0    0  501    0  0.00000000000E+00  0.00000000000E+00  0.80963412690E+03  0.80963412691E+03  0.50400001928E-02 0.  1.
       -1   -1    0    0    0  501  0.00000000000E+00  0.00000000000E+00 -0.60670744805E+03  0.60670744807E+03  0.50400001928E-02 0. -1.
    10030    2    1    2    0    0  0.00000000000E+00  0.00000000000E+00  0.20292667885E+03  0.14163415750E+04  0.14017290109E+04 0.  0.
        3    1    3    3  502    0 -0.62230440192E+03  0.31835182851E+03  0.15298894904E+03  0.71555313157E+03  0.10100000352E+00 0.  1.
       -3    1    3    3    0  502  0.62230440192E+03 -0.31835182851E+03  0.49937729808E+02  0.70078844342E+03  0.10100000352E+00 0. -1.
</event>
<event>
 5   0  0.7296966E-04  0.1356080E+04  0.7818609E-02  0.8986238E-01
       -2   -1    0    0    0  501  0.00000000000E+00  0.00000000000E+00  0.32118163815E+03  0.32118163816E+03  0.25500000920E-02 0. -1.
        2   -1    0    0  501    0  0.00000000000E+00  0.00000000000E+00 -0.14313960678E+04  0.14313960678E+04  0.25500000920E-02 0.  1.
    10030    2    1    2    0    0  0.00000000000E+00  0.00000000000E+00 -0.11102144296E+04  0.17525777059E+04  0.13560798412E+04 0.  0.
        3    1    3    3  502    0 -0.29803619684E+03  0.31384658733E+03 -0.12296443016E+04  0.13035913370E+04  0.10100000352E+00 0.  1.
       -3    1    3    3    0  502  0.29803619684E+03 -0.31384658733E+03  0.11942987202E+03  0.44898636898E+03  0.10100000352E+00 0. -1.
</event>
<event>
 5   0  0.3756664E-04  0.1392414E+04  0.7818609E-02  0.8959328E-01
       -1   -1    0    0    0  501  0.00000000000E+00  0.00000000000E+00  0.61315409750E+03  0.61315409753E+03  0.50400001928E-02 0.  1.
        1   -1    0    0  501    0  0.00000000000E+00  0.00000000000E+00 -0.79050915748E+03  0.79050915750E+03  0.50400001928E-02 0. -1.
    10030    2    1    2    0    0  0.00000000000E+00  0.00000000000E+00 -0.17735505998E+03  0.14036632550E+04  0.13924136297E+04 0.  0.
        2    1    3    3  502    0  0.44945630982E+03  0.52210875411E+02 -0.62207146227E+03  0.76922678979E+03  0.25500000920E-02 0. -1.
       -2    1    3    3    0  502 -0.44945630982E+03 -0.52210875411E+02  0.44471640230E+03  0.63443646524E+03  0.25500000920E-02 0.  1.
</event>
<event>
 5   0  0.3784219E-04  0.1400467E+04  0.7818609E-02  0.8953481E-01
       -1   -1    0    0    0  501  0.00000000000E+00  0.00000000000E+00  0.62591878726E+03  0.62591878728E+03  0.50400001928E-02 0. -1.
        1   -1    0    0  501    0  0.00000000000E+00  0.00000000000E+00 -0.78337131458E+03  0.78337131460E+03  0.50400001928E-02 0.  1.
    10030    2    1    2    0    0  0.00000000000E+00  0.00000000000E+00 -0.15745252732E+03  0.14092901019E+04  0.14004668125E+04 0.  0.
        1    1    3    3  502    0 -0.27151534250E+03  0.53157485913E+03  0.28968740553E+03  0.66348414075E+03  0.50400001928E-02 0. -1.
       -1    1    3    3    0  502  0.27151534250E+03 -0.53157485913E+03 -0.44713993285E+03  0.74580596113E+03  0.50400001928E-02 0.  1.
</event>
<event>
 5   0  0.6870835E-04  0.1400645E+04  0.7818609E-02  0.8953352E-01
        2   -1    0    0  501    0  0.00000000000E+00  0.00000000000E+00  0.56966208407E+03  0.56966208407E+03  0.25500000920E-02 0. -1.
       -2   -1    0    0    0  501  0.00000000000E+00  0.00000000000E+00 -0.86095141064E+03  0.86095141065E+03  0.25500000920E-02 0.  1.
    10030    2    1    2    0    0  0.00000000000E+00  0.00000000000E+00 -0.29128932657E+03  0.14306134947E+04  0.14006446728E+04 0.  0.
        2    1    3    3  502    0  0.56923012534E+03 -0.35540523326E+03 -0.35021882023E+03  0.75696039360E+03  0.25500000920E-02 0.  1.
       -2    1    3    3    0  502 -0.56923012534E+03  0.35540523326E+03  0.58929493657E+02  0.67365310112E+03  0.25500000920E-02 0. -1.
</event>
<event>
 5   0  0.3907270E-04  0.1404291E+04  0.7818609E-02  0.8950718E-01
       -1   -1    0    0    0  501  0.00000000000E+00  0.00000000000E+00  0.81106507261E+03  0.81106507263E+03  0.50400001928E-02 0. -1.
        1   -1    0    0  501    0  0.00000000000E+00  0.00000000000E+00 -0.60785305845E+03  0.60785305847E+03  0.50400001928E-02 0.  1.
    10030    2    1    2    0    0  0.00000000000E+00  0.00000000000E+00  0.20321201416E+03  0.14189181311E+04  0.14042911166E+04 0.  0.
        3    1    3    3  502    0 -0.21705913238E+03  0.62216626313E+03  0.34662478721E+03  0.74454971576E+03  0.10100000352E+00 0. -1.
       -3    1    3    3    0  502  0.21705913238E+03 -0.62216626313E+03 -0.14341277305E+03  0.67436841534E+03  0.10100000352E+00 0.  1.
</event>
<event>
 5   0  0.6895048E-04  0.1400190E+04  0.7818609E-02  0.8953681E-01
        2   -1    0    0  501    0  0.00000000000E+00  0.00000000000E+00  0.11958199911E+04  0.11958199911E+04  0.25500000920E-02 0. -1.
       -2   -1    0    0    0  501  0.00000000000E+00  0.00000000000E+00 -0.40987197124E+03  0.40987197125E+03  0.25500000920E-02 0.  1.
    10030    2    1    2    0    0  0.00000000000E+00  0.00000000000E+00  0.78594801990E+03  0.16056919624E+04  0.14001901257E+04 0.  0.
        4    1    3    3  502    0 -0.22534071704E+03  0.49474187405E+03 -0.11288356110E+03  0.55524073334E+03  0.12699999809E+01 0.  1.
       -4    1    3    3    0  502  0.22534071704E+03 -0.49474187405E+03  0.89883158100E+03  0.10504512290E+04  0.12699999809E+01 0. -1.
</event>
<event>
 5   0  0.7296966E-04  0.1401469E+04  0.7818609E-02  0.8952756E-01
        2   -1    0    0  501    0  0.00000000000E+00  0.00000000000E+00  0.12107784131E+04  0.12107784131E+04  0.25500000920E-02 0.  1.
       -2   -1    0    0    0  501  0.00000000000E+00  0.00000000000E+00 -0.40554809051E+03  0.40554809052E+03  0.25500000920E-02 0. -1.
    10030    2    1    2    0    0  0.00000000000E+00  0.00000000000E+00  0.80523032256E+03  0.16163265036E+04  0.14014690485E+04 0.  0.
        3    1    3    3  502    0 -0.14727224371E+03  0.12054755516E+03 -0.37516999139E+03  0.42068201704E+03  0.10100000352E+00 0. -1.
       -3    1    3    3    0  502  0.14727224371E+03 -0.12054755516E+03  0.11804003139E+04  0.11956444865E+04  0.10100000352E+00 0.  1.
</event>
<event>
 5   0  0.6959748E-04  0.1399906E+04  0.7818609E-02  0.8953887E-01
        2   -1    0    0  501    0  0.00000000000E+00  0.00000000000E+00  0.38710170356E+03  0.38710170357E+03  0.25500000920E-02 0.  1.
       -2   -1    0    0    0  501  0.00000000000E+00  0.00000000000E+00 -0.12656467148E+04  0.12656467148E+04  0.25500000920E-02 0. -1.
    10030    2    1    2    0    0  0.00000000000E+00  0.00000000000E+00 -0.87854501123E+03  0.16527484184E+04  0.13999057103E+04 0.  0.
        5    1    3    3  502    0 -0.70658583172E+02 -0.62407796716E+03 -0.80401532574E+03  0.10202591232E+04  0.46999998093E+01 0. -1.
       -5    1    3    3    0  502  0.70658583172E+02  0.62407796716E+03 -0.74529685484E+02  0.63248929515E+03  0.46999998093E+01 0.  1.
</event>
<event>
 5   0  0.3907093E-04  0.1399428E+04  0.7818609E-02  0.8954233E-01
       -1   -1    0    0    0  501  0.00000000000E+00  0.00000000000E+00  0.44290807867E+03  0.44290807870E+03  0.50400001928E-02 0.  1.
        1   -1    0    0  501    0  0.00000000000E+00  0.00000000000E+00 -0.11054201080E+04  0.11054201080E+04  0.50400001928E-02 0. -1.
    10030    2    1    2    0    0  0.00000000000E+00  0.00000000000E+00 -0.66251202929E+03  0.15483281867E+04  0.13994277347E+04 0.  0.
        4    1    3    3  502    0 -0.59818487417E+03 -0.13432858800E+03 -0.70437498692E+03  0.93381745986E+03  0.12699999809E+01 0. -1.
       -4    1    3    3    0  502  0.59818487417E+03  0.13432858800E+03  0.41862957636E+02  0.61451072681E+03  0.12699999809E+01 0.  1.
</event>
<event>
 5   0  0.3784219E-04  0.1403967E+04  0.7818609E-02  0.8950952E-01
        1   -1    0    0  501    0  0.00000000000E+00  0.00000000000E+00  0.14132983677E+04  0.14132983677E+04  0.50400001928E-02 0.  1.
       -1   -1    0    0    0  501  0.00000000000E+00  0.00000000000E+00 -0.34867441815E+03  0.34867441819E+03  0.50400001928E-02 0. -1.
    10030    2    1    2    0    0  0.00000000000E+00  0.00000000000E+00  0.10646239495E+04  0.17619727859E+04  0.14039672162E+04 0.  0.
        1    1    3    3  502    0  0.28334154598E+02 -0.28814662429E+03  0.13348713425E+04  0.13659109790E+04  0.50400001928E-02 0.  1.
       -1    1    3    3    0  502 -0.28334154598E+02  0.28814662429E+03 -0.27024739302E+03  0.39606180687E+03  0.50400001928E-02 0. -1.
</event>
<event>
 5   0  0.3977658E-04  0.1398023E+04  0.7818609E-02  0.8955251E-01
        1   -1    0    0  501    0  0.00000000000E+00  0.00000000000E+00  0.11987004959E+04  0.11987004959E+04  0.50400001928E-02 0.  1.
       -1   -1    0    0    0  501  0.00000000000E+00  0.00000000000E+00 -0.40762205270E+03  0.40762205274E+03  0.50400001928E-02 0. -1.
    10030    2    1    2    0    0  0.00000000000E+00  0.00000000000E+00  0.79107844323E+03  0.16063225487E+04  0.13980225417E+04 0.  0.
        5    1    3    3  502    0 -0.19129779917E+03 -0.65691739257E+03  0.23119116081E+03  0.72222347751E+03  0.46999998093E+01 0.  1.
       -5    1    3    3    0  502  0.19129779917E+03  0.65691739257E+03  0.55988728242E+03  0.88409907117E+03  0.46999998093E+01 0. -1.
</event>
<event>
 5   0  0.6895048E-04  0.1390634E+04  0.7818609E-02  0.8960626E-01
       -2   -1    0    0    0  501  0.00000000000E+00  0.00000000000E+00  0.56777547330E+03  0.56777547331E+03  0.25500000920E-02 0.  1.
        2   -1    0    0  501    0  0.00000000000E+00  0.00000000000E+00 -0.85150867683E+03  0.85150867683E+03  0.25500000920E-02 0. -1.
    10030    2    1    2    0    0  0.00000000000E+00  0.00000000000E+00 -0.28373320352E+03  0.14192841501E+04  0.13906340166E+04 0.  0.
        4    1    3    3  502    0  0.10650894307E+03 -0.58549754014E+03  0.22514258382E+03  0.63627220622E+03  0.12699999809E+01 0.  1.
       -4    1    3    3    0  502 -0.10650894307E+03  0.58549754014E+03 -0.50887578735E+03  0.78301194391E+03  0.12699999809E+01 0. -1.
</event>
<event>
 5   0  0.6895048E-04  0.1385365E+04  0.7818609E-02  0.8964480E-01
        2   -1    0    0  501    0  0.00000000000E+00  0.00000000000E+00  0.22069603491E+04  0.22069603491E+04  0.25500000920E-02 0.  1.
       -2   -1    0    0    0  501  0.00000000000E+00  0.00000000000E+00 -0.21740734391E+03  0.21740734392E+03  0.25500000920E-02 0. -1.
    10030    2    1    2    0    0  0.00000000000E+00  0.00000000000E+00  0.19895530052E+04  0.24243676930E+04  0.13853654935E+04 0.  0.
        4    1    3    3  502    0  0.32499976253E+02 -0.63471606257E+03  0.51269779917E+03  0.81656682195E+03  0.12699999809E+01 0. -1.
       -4    1    3    3    0  502 -0.32499976253E+02  0.63471606257E+03  0.14768552060E+04  0.16078008711E+04  0.12699999809E+01 0.  1.
</event>
<event>
 5   0  0.6959748E-04  0.1410319E+04  0.7818609E-02  0.8946383E-01
        2   -1    0    0  501    0  0.00000000000E+00  0.00000000000E+00  0.78564494792E+03  0.78564494792E+03  0.25500000920E-02 0.  1.
       -2   -1    0    0    0  501  0.00000000000E+00  0.00000000000E+00 -0.63291975341E+03  0.63291975341E+03  0.25500000920E-02 0. -1.
    10030    2    1    2    0    0  0.00000000000E+00  0.00000000000E+00  0.15272519451E+03  0.14185647013E+04  0.14103194060E+04 0.  0.
        5    1    3    3  502    0 -0.19721305514E+03 -0.67154375948E+03  0.16267867609E+03  0.71857529298E+03  0.46999998093E+01 0.  1.
       -5    1    3    3    0  502  0.19721305514E+03  0.67154375948E+03 -0.99534815783E+01  0.69998940836E+03  0.46999998093E+01 0. -1.
</event>
<event>
 5   0  0.6895048E-04  0.1401699E+04  0.7818609E-02  0.8952590E-01
       -2   -1    0    0    0  501  0.00000000000E+00  0.00000000000E+00  0.11462441767E+04  0.11462441768E+04  0.25500000920E-02 0.  1.
        2   -1    0    0  501    0  0.00000000000E+00  0.00000000000E+00 -0.42852112294E+03  0.42852112294E+03  0.25500000920E-02 0. -1.
    10030    2    1    2    0    0  0.00000000000E+00  0.00000000000E+00  0.71772305381E+03  0.15747652997E+04  0.14016987434E+04 0.  0.
        4    1    3    3  502    0  0.58900408843E+03  0.16773559837E+03 -0.23987983155E+02  0.61289320716E+03  0.12699999809E+01 0. -1.
       -4    1    3    3    0  502 -0.58900408843E+03 -0.16773559837E+03  0.74171103697E+03  0.96187209254E+03  0.12699999809E+01 0.  1.
</event>
<event>
 5   0  0.6870835E-04  0.1401313E+04  0.7818609E-02  0.8952869E-01
       -2   -1    0    0    0  501  0.00000000000E+00  0.00000000000E+00  0.27753236351E+03  0.27753236352E+03  0.25500000920E-02 0.  1.
        2   -1    0    0  501    0  0.00000000000E+00  0.00000000000E+00 -0.17688736240E+04  0.17688736240E+04  0.25500000920E-02 0. -1.
    10030    2    1    2    0    0  0.00000000000E+00  0.00000000000E+00 -0.14913412605E+04  0.20464059875E+04  0.14013132093E+04 0.  0.
        2    1    3    3  502    0  0.64886780079E+03  0.22107865896E+03 -0.53397303780E+03  0.86892600459E+03  0.25500000920E-02 0.  1.
       -2    1    3    3    0  502 -0.64886780079E+03 -0.22107865896E+03 -0.95736822267E+03  0.11774799829E+04  0.25500000920E-02 0. -1.
</event>
<event>
 5   0  0.6959748E-04  0.1398814E+04  0.7818609E-02  0.8954677E-01
        2   -1    0    0  501    0  0.00000000000E+00  0.00000000000E+00  0.20588140657E+04  0.20588140657E+04  0.25500000920E-02 0.  1.
       -2   -1    0    0    0  501  0.00000000000E+00  0.00000000000E+00 -0.23759807552E+03  0.23759807553E+03  0.25500000920E-02 0. -1.
    10030    2    1    2    0    0  0.00000000000E+00  0.00000000000E+00  0.18212159902E+04  0.22964121412E+04  0.13988141547E+04 0.  0.
        5    1    3    3  502    0  0.42658097326E+03  0.23807967139E+03  0.88953431839E+02  0.49657633825E+03  0.46999998093E+01 0. -1.
       -5    1    3    3    0  502 -0.42658097326E+03 -0.23807967139E+03  0.17322625583E+04  0.17998358030E+04  0.46999998093E+01 0.  1.
</event>
<event>
 5   0  0.6959748E-04  0.1401222E+04  0.7818609E-02  0.8952935E-01
       -2   -1    0    0    0  501  0.00000000000E+00  0.00000000000E+00  0.40054869004E+03  0.40054869005E+03  0.25500000920E-02 0. -1.
        2   -1    0    0  501    0  0.00000000000E+00  0.00000000000E+00 -0.12254581142E+04  0.12254581142E+04  0.25500000920E-02 0.  1.
    10030    2    1    2    0    0  0.00000000000E+00  0.00000000000E+00 -0.82490942414E+03  0.16260068042E+04  0.14012218130E+04 0.  0.
        5    1    3    3  502    0 -0.27539166479E+03 -0.42961422154E+03 -0.96948639027E+03  0.10955979643E+04  0.46999998093E+01 0.  1.
       -5    1    3    3    0  502  0.27539166479E+03  0.42961422154E+03  0.14457696613E+03  0.53040883996E+03  0.46999998093E+01 0. -1.
</event>
<event>
 5   0  0.3756664E-04  0.1391210E+04  0.7818609E-02  0.8960206E-01
       -1   -1    0    0    0  501  0.00000000000E+00  0.00000000000E+00  0.43187869375E+03  0.43187869378E+03  0.50400001928E-02 0.  1.
        1   -1    0    0  501    0  0.00000000000E+00  0.00000000000E+00 -0.11203760136E+04  0.11203760136E+04  0.50400001928E-02 0. -1.
    10030    2    1    2    0    0  0.00000000000E+00  0.00000000000E+00 -0.68849731981E+03  0.15522547073E+04  0.13912103066E+04 0.  0.
        2    1    3    3  502    0  0.15921198301E+03  0.67238988831E+03 -0.43357843218E+03  0.81574927171E+03  0.25500000920E-02 0.  1.
       -2    1    3    3    0  502 -0.15921198301E+03 -0.67238988831E+03 -0.25491888762E+03  0.73650543563E+03  0.25500000920E-02 0. -1.
</event>
<event>
 5   0  0.3756664E-04  0.1398494E+04  0.7818609E-02  0.8954909E-01
       -1   -1    0    0    0  501  0.00000000000E+00  0.00000000000E+00  0.38196235208E+03  0.38196235211E+03  0.50400001928E-02 0. -1.
        1   -1    0    0  501    0  0.00000000000E+00  0.00000000000E+00 -0.12800909910E+04  0.12800909910E+04  0.50400001928E-02 0.  1.
    10030    2    1    2    0    0  0.00000000000E+00  0.00000000000E+00 -0.89812863893E+03  0.16620533431E+04  0.13984942843E+04 0.  0.
        2    1    3    3  502    0  0.23521340711E+03 -0.10337061178E+03  0.32383238138E+03  0.41337421485E+03  0.25500000920E-02 0. -1.
       -2    1    3    3    0  502 -0.23521340711E+03  0.10337061178E+03 -0.12219610203E+04  0.12486791283E+04  0.25500000920E-02 0.  1.
</event>
<event>
 5   0  0.2660250E-04  0.1398419E+04  0.7818609E-02  0.8954964E-01
        4   -1    0    0  501    0  0.00000000000E+00  0.00000000000E+00  0.61421233539E+03  0.61421364837E+03  0.12699999809E+01 0. -1.
       -4   -1    0    0    0  501  0.00000000000E+00  0.00000000000E+00 -0.79596626184E+03  0.79596727501E+03  0.12699999809E+01 0.  1.
    10030    2    1    2    0    0  0.00000000000E+00  0.00000000000E+00 -0.18175392645E+03  0.14101809234E+04  0.13984190169E+04 0.  0.
        1    1    3    3  502    0 -0.27282291375E+03  0.45784888276E+03  0.36551779938E+03  0.64626713006E+03  0.50400001928E-02 0. -1.
       -1    1    3    3    0  502  0.27282291375E+03 -0.45784888276E+03 -0.54727172583E+03  0.76391379332E+03  0.50400001928E-02 0.  1.
</event>
<event>
 5   0  0.3977658E-04  0.1416558E+04  0.7818609E-02  0.8941920E-01
       -1   -1    0    0    0  501  0.00000000000E+00  0.00000000000E+00  0.36102812589E+03  0.36102812593E+03  0.50400001928E-02 0. -1.
        1   -1    0    0  501    0  0.00000000000E+00  0.00000000000E+00 -0.13895290335E+04  0.13895290335E+04  0.50400001928E-02 0.  1.
    10030    2    1    2    0    0  0.00000000000E+00  0.00000000000E+00 -0.10285009076E+04  0.17505571594E+04  0.14165578885E+04 0.  0.
        5    1    3    3  502    0 -0.14134710767E+03 -0.62572215039E+03 -0.14324860583E+03  0.65730469906E+03  0.46999998093E+01 0. -1.
       -5    1    3    3    0  502  0.14134710767E+03  0.62572215039E+03 -0.88525230177E+03  0.10932524604E+04  0.46999998093E+01 0.  1.
</event>
<event>
 5   0  0.7296966E-04  0.1405603E+04  0.7818609E-02  0.8949773E-01
       -2   -1    0    0    0  501  0.00000000000E+00  0.00000000000E+00  0.18699188460E+03  0.18699188462E+03  0.25500000920E-02 0. -1.
        2   -1    0    0  501    0  0.00000000000E+00  0.00000000000E+00 -0.26414509011E+04  0.26414509011E+04  0.25500000920E-02 0.  1.
    10030    2    1    2    0    0  0.00000000000E+00  0.00000000000E+00 -0.24544590165E+04  0.28284427857E+04  0.14056029056E+04 0.  0.
        3    1    3    3  502    0  0.68742284424E+03 -0.16428821773E+02 -0.15195954639E+04  0.16679299917E+04  0.10100000352E+00 0.  1.
       -3    1    3    3    0  502 -0.68742284424E+03  0.16428821773E+02 -0.93486355255E+03  0.11605127940E+04  0.10100000352E+00 0. -1.
</event>
<event>
 5   0  0.3784219E-04  0.1403599E+04  0.7818609E-02  0.8951217E-01
        1   -1    0    0  501    0  0.00000000000E+00  0.00000000000E+00  0.10660689300E+04  0.10660689300E+04  0.50400001928E-02 0. -1.
       -1   -1    0    0    0  501  0.00000000000E+00  0.00000000000E+00 -0.46199906802E+03  0.46199906805E+03  0.50400001928E-02 0.  1.
    10030    2    1    2    0    0  0.00000000000E+00  0.00000000000E+00  0.60406986197E+03  0.15280679981E+04  0.14035994473E+04 0.  0.
        1    1    3    3  502    0  0.44498032616E+02  0.46611319404E+03  0.87115568555E+03  0.98901658887E+03  0.50400001928E-02 0. -1.
       -1    1    3    3    0  502 -0.44498032616E+02 -0.46611319404E+03 -0.26708582359E+03  0.53905140919E+03  0.50400001928E-02 0.  1.
</event>
<event>
 5   0  0.3756664E-04  0.1396477E+04  0.7818609E-02  0.8956373E-01
       -1   -1    0    0    0  501  0.00000000000E+00  0.00000000000E+00  0.36673794731E+03  0.36673794735E+03  0.50400001928E-02 0.  1.
        1   -1    0    0  501    0  0.00000000000E+00  0.00000000000E+00 -0.13293879824E+04  0.13293879824E+04  0.50400001928E-02 0. -1.
    10030    2    1    2    0    0  0.00000000000E+00  0.00000000000E+00 -0.96265003507E+03  0.16961259297E+04  0.13964770243E+04 0.  0.
        2    1    3    3  502    0 -0.40986369227E+03 -0.55972308311E+02  0.20188374926E+03  0.46030228520E+03  0.25500000920E-02 0.  1.
       -2    1    3    3    0  502  0.40986369227E+03  0.55972308311E+02 -0.11645337843E+04  0.12358236445E+04  0.25500000920E-02 0. -1.
</event>
<event>
 5   0  0.3977658E-04  0.1389289E+04  0.7818609E-02  0.8961608E-01
        1   -1    0    0  501    0  0.00000000000E+00  0.00000000000E+00  0.46004200094E+03  0.46004200097E+03  0.50400001928E-02 0.  1.
       -1   -1    0    0    0  501  0.00000000000E+00  0.00000000000E+00 -0.10488852796E+04  0.10488852796E+04  0.50400001928E-02 0. -1.
    10030    2    1    2    0    0  0.00000000000E+00  0.00000000000E+00 -0.58884327870E+03  0.15089272806E+04  0.13892894340E+04 0.  0.
        5    1    3    3  502    0 -0.27612448584E+03  0.42797363554E+03 -0.80743456839E+03  0.95466163462E+03  0.46999998093E+01 0. -1.
       -5    1    3    3    0  502  0.27612448584E+03 -0.42797363554E+03  0.21859128969E+03  0.55426564599E+03  0.46999998093E+01 0.  1.
</event>
<event>
 5   0  0.6870835E-04  0.1406827E+04  0.7818609E-02  0.8948892E-01
        2   -1    0    0  501    0  0.00000000000E+00  0.00000000000E+00  0.10488447257E+04  0.10488447257E+04  0.25500000920E-02 0.  1.
       -2   -1    0    0    0  501  0.00000000000E+00  0.00000000000E+00 -0.47174800420E+03  0.47174800420E+03  0.25500000920E-02 0. -1.
    10030    2    1    2    0    0  0.00000000000E+00  0.00000000000E+00  0.57709672149E+03  0.15205927299E+04  0.14068267925E+04 0.  0.
        2    1    3    3  502    0 -0.55742232652E+03 -0.23387179701E+03 -0.10022546790E+03  0.61274857157E+03  0.25500000920E-02 0. -1.
       -2    1    3    3    0  502  0.55742232652E+03  0.23387179701E+03  0.67732218939E+03  0.90784415831E+03  0.25500000920E-02 0.  1.
</event>
<event>
 5   0  0.6895048E-04  0.1397129E+04  0.7818609E-02  0.8955900E-01
       -2   -1    0    0    0  501  0.00000000000E+00  0.00000000000E+00  0.13953300443E+04  0.13953300443E+04  0.25500000920E-02 0.  1.
        2   -1    0    0  501    0  0.00000000000E+00  0.00000000000E+00 -0.34973238576E+03  0.34973238577E+03  0.25500000920E-02 0. -1.
    10030    2    1    2    0    0  0.00000000000E+00  0.00000000000E+00  0.10455976585E+04  0.17450624300E+04  0.13971286345E+04 0.  0.
        4    1    3    3  502    0  0.50823206845E+03  0.43784835197E+02  0.11189085661E+04  0.12297052246E+04  0.12699999809E+01 0.  1.
       -4    1    3    3    0  502 -0.50823206845E+03 -0.43784835197E+02 -0.73310907534E+02  0.51535720550E+03  0.12699999809E+01 0. -1.
</event>
<event>
 5   0  0.3907270E-04  0.1399580E+04  0.7818609E-02  0.8954123E-01
        1   -1    0    0  501    0  0.00000000000E+00  0.00000000000E+00  0.31392202956E+03  0.31392202960E+03  0.50400001928E-02 0.  1.
       -1   -1    0    0    0  501  0.00000000000E+00  0.00000000000E+00 -0.15599609903E+04  0.15599609903E+04  0.50400001928E-02 0. -1.
    10030    2    1    2    0    0  0.00000000000E+00  0.00000000000E+00 -0.12460389607E+04  0.18738830199E+04  0.13995801087E+04 0.  0.
        3    1    3    3  502    0 -0.67953685776E+03  0.28922993747E+02 -0.84342536434E+03  0.10835004550E+04  0.10100000352E+00 0. -1.
       -3    1    3    3    0  502  0.67953685776E+03 -0.28922993747E+02 -0.40261359636E+03  0.79038256484E+03  0.10100000352E+00 0.  1.
</event>
<event>
 5   0  0.6870835E-04  0.1398913E+04  0.7818609E-02  0.8954605E-01
        2   -1    0    0  501    0  0.00000000000E+00  0.00000000000E+00  0.60974116936E+03  0.60974116937E+03  0.25500000920E-02 0. -1.
       -2   -1    0    0    0  501  0.00000000000E+00  0.00000000000E+00 -0.80237273418E+03  0.80237273418E+03  0.25500000920E-02 0.  1.
    10030    2    1    2    0    0  0.00000000000E+00  0.00000000000E+00 -0.19263156481E+03  0.14121139035E+04  0.13989134201E+04 0.  0.
        2    1    3    3  502    0 -0.34920440856E+03 -0.37614188230E+03 -0.57599798762E+03  0.77149213627E+03  0.25500000920E-02 0.  1.
       -2    1    3    3    0  502  0.34920440856E+03  0.37614188230E+03  0.38336642281E+03  0.64062176728E+03  0.25500000920E-02 0. -1.
</event>
<event>
 5   0  0.3977658E-04  0.1402900E+04  0.7818609E-02  0.8951722E-01
        1   -1    0    0  501    0  0.00000000000E+00  0.00000000000E+00  0.12128972528E+04  0.12128972529E+04  0.50400001928E-02 0. -1.
       -1   -1    0    0    0  501  0.00000000000E+00  0.00000000000E+00 -0.40566690544E+03  0.40566690547E+03  0.50400001928E-02 0.  1.
    10030    2    1    2    0    0  0.00000000000E+00  0.00000000000E+00  0.80723034741E+03  0.16185641583E+04  0.14029002462E+04 0.  0.
        5    1    3    3  502    0 -0.15479173603E+03  0.50867953087E+02  0.11907430904E+04  0.12018482548E+04  0.46999998093E+01 0. -1.
       -5    1    3    3    0  502  0.15479173603E+03 -0.50867953087E+02 -0.38351274301E+03  0.41671590352E+03  0.46999998093E+01 0.  1.
</event>
<event>
 5   0  0.2660250E-04  0.1392590E+04  0.7818609E-02  0.8959200E-01
        3   -1    0    0  501    0  0.00000000000E+00  0.00000000000E+00  0.78917174621E+03  0.78917175267E+03  0.10100000352E+00 0.  1.
       -3   -1    0    0    0  501  0.00000000000E+00  0.00000000000E+00 -0.61434844088E+03  0.61434844918E+03  0.10100000352E+00 0. -1.
    10030    2    1    2    0    0  0.00000000000E+00  0.00000000000E+00  0.17482330533E+03  0.14035202019E+04  0.13925895910E+04 0.  0.
        1    1    3    3  502    0 -0.49447337369E+03  0.49004079189E+03  0.10102870514E+03  0.70345624903E+03  0.50400001928E-02 0.  1.
       -1    1    3    3    0  502  0.49447337369E+03 -0.49004079189E+03  0.73794600183E+02  0.70006395283E+03  0.50400001928E-02 0. -1.
</event>
<event>
 5   0  0.3907093E-04  0.1397555E+04  0.7818609E-02  0.8955590E-01
       -1   -1    0    0    0  501  0.00000000000E+00  0.00000000000E+00  0.72812857026E+03  0.72812857027E+03  0.50400001928E-02 0. -1.
        1   -1    0    0  501    0  0.00000000000E+00  0.00000000000E+00 -0.67060960871E+03  0.67060960873E+03  0.50400001928E-02 0.  1.
    10030    2    1    2    0    0  0.00000000000E+00  0.00000000000E+00  0.57518961546E+02  0.13987381790E+04  0.13975550302E+04 0.  0.
        4    1    3    3  502    0 -0.55918483200E+03  0.31905218238E+03 -0.24314390462E+03  0.68818786874E+03  0.12699999809E+01 0.  1.
       -4    1    3    3    0  502  0.55918483200E+03 -0.31905218238E+03  0.30066286617E+03  0.71055031026E+03  0.12699999809E+01 0. -1.
</event>
<event>
 5   0  0.3756664E-04  0.1387997E+04  0.7818609E-02  0.8962553E-01
        1   -1    0    0  501    0  0.00000000000E+00  0.00000000000E+00  0.12125243211E+04  0.12125243211E+04  0.50400001928E-02 0.  1.
       -1   -1    0    0    0  501  0.00000000000E+00  0.00000000000E+00 -0.39721596511E+03  0.39721596514E+03  0.50400001928E-02 0. -1.
    10030    2    1    2    0    0  0.00000000000E+00  0.00000000000E+00  0.81530835601E+03  0.16097402863E+04  0.13879971448E+04 0.  0.
        2    1    3    3  502    0  0.44777106732E+03  0.51854102498E+03  0.27929098360E+03  0.73985618660E+03  0.25500000920E-02 0.  1.
       -2    1    3    3    0  502 -0.44777106732E+03 -0.51854102498E+03  0.53601737241E+03  0.86988409967E+03  0.25500000920E-02 0. -1.
</event>
<event>
 5   0  0.3977658E-04  0.1405772E+04  0.7818609E-02  0.8949651E-01
       -1   -1    0    0    0  501  0.00000000000E+00  0.00000000000E+00  0.56107590160E+03  0.56107590162E+03  0.50400001928E-02 0. -1.
        1   -1    0    0  501    0  0.00000000000E+00  0.00000000000E+00 -0.88053781988E+03  0.88053781990E+03  0.50400001928E-02 0.  1.
    10030    2    1    2    0    0  0.00000000000E+00  0.00000000000E+00 -0.31946191828E+03  0.14416137215E+04  0.14057717471E+04 0.  0.
        5    1    3    3  502    0  0.67036671793E+03 -0.21069401102E+03 -0.14374642152E+03  0.71726468370E+03  0.46999998093E+01 0. -1.
       -5    1    3    3    0  502 -0.67036671793E+03  0.21069401102E+03 -0.17571549676E+03  0.72434903782E+03  0.46999998093E+01 0.  1.
</event>
<event>
 5   0  0.3784219E-04  0.1399481E+04  0.7818609E-02  0.8954195E-01
        1   -1    0    0  501    0  0.00000000000E+00  0.00000000000E+00  0.52794738808E+03  0.52794738810E+03  0.50400001928E-02 0.  1.
       -1   -1    0    0    0  501  0.00000000000E+00  0.00000000000E+00 -0.92743442572E+03  0.92743442573E+03  0.50400001928E-02 0. -1.
    10030    2    1    2    0    0  0.00000000000E+00  0.00000000000E+00 -0.39948703764E+03  0.14553818138E+04  0.13994807361E+04 0.  0.
        1    1    3    3  502    0  0.21121689080E+03 -0.48518028830E+03 -0.67587908112E+03  0.85838512303E+03  0.50400001928E-02 0. -1.
       -1    1    3    3    0  502 -0.21121689080E+03  0.48518028830E+03  0.27639204348E+03  0.59699669081E+03  0.50400001928E-02 0.  1.
</event>
<event>
 5   0  0.7296966E-04  0.1370085E+04  0.7818609E-02  0.8975762E-01
        2   -1    0    0  501    0  0.00000000000E+00  0.00000000000E+00  0.19895561245E+04  0.19895561245E+04  0.25500000920E-02 0.  1.
       -2   -1    0    0    0  501  0.00000000000E+00  0.00000000000E+00 -0.23587323326E+03  0.23587323327E+03  0.25500000920E-02 0. -1.
    10030    2    1    2    0    0  0.00000000000E+00  0.00000000000E+00  0.17536828913E+04  0.22254293578E+04  0.13700847213E+04 0.  0.
        3    1    3    3  502    0  0.38822791339E+03  0.20305699134E+03  0.17322326750E+04  0.17867800942E+04  0.10100000352E+00 0.  1.
       -3    1    3    3    0  502 -0.38822791339E+03 -0.20305699134E+03  0.21450216254E+02  0.43864926359E+03  0.10100000352E+00 0. -1.
</event>
<event>
 5   0  0.7296966E-04  0.1400679E+04  0.7818609E-02  0.8953327E-01
        2   -1    0    0  501    0  0.00000000000E+00  0.00000000000E+00  0.16437347514E+04  0.16437347514E+04  0.25500000920E-02 0. -1.
       -2   -1    0    0    0  501  0.00000000000E+00  0.00000000000E+00 -0.29839067725E+03  0.29839067726E+03  0.25500000920E-02 0.  1.
    10030    2    1    2    0    0  0.00000000000E+00  0.00000000000E+00  0.13453440741E+04  0.19421254286E+04  0.14006785865E+04 0.  0.
        3    1    3    3  502    0 -0.43957140943E+03 -0.46889026965E+03  0.10584100600E+04  0.12382701540E+04  0.10100000352E+00 0. -1.
       -3    1    3    3    0  502  0.43957140943E+03  0.46889026965E+03  0.28693401410E+03  0.70385527462E+03  0.10100000352E+00 0.  1.
</event>
<event>
 5   0  0.3977658E-04  0.1394550E+04  0.7818609E-02  0.8957773E-01
       -1   -1    0    0    0  501  0.00000000000E+00  0.00000000000E+00  0.59147436495E+03  0.59147436498E+03  0.50400001928E-02 0.  1.
        1   -1    0    0  501    0  0.00000000000E+00  0.00000000000E+00 -0.82200098529E+03  0.82200098530E+03  0.50400001928E-02 0. -1.
    10030    2    1    2    0    0  0.00000000000E+00  0.00000000000E+00 -0.23052662033E+03  0.14134753503E+04  0.13945501221E+04 0.  0.
        5    1    3    3  502    0  0.39627007518E+03 -0.29971104997E+03  0.38057253921E+03  0.62587078024E+03  0.46999998093E+01 0.  1.
       -5    1    3    3    0  502 -0.39627007518E+03  0.29971104997E+03 -0.61109915954E+03  0.78760457004E+03  0.46999998093E+01 0. -1.
</event>
<event>
 5   0  0.3907270E-04  0.1336768E+04  0.7818609E-02  0.9000906E-01
        1   -1    0    0  501    0  0.00000000000E+00  0.00000000000E+00  0.74020959419E+03  0.74020959421E+03  0.50400001928E-02 0.  1.
       -1   -1    0    0    0  501  0.00000000000E+00  0.00000000000E+00 -0.60352771585E+03  0.60352771587E+03  0.50400001928E-02 0. -1.
    10030    2    1    2    0    0  0.00000000000E+00  0.00000000000E+00  0.13668187834E+03  0.13437373101E+04  0.13367677519E+04 0.  0.
        3    1    3    3  502    0  0.56421371209E+02  0.66042054378E+03 -0.18121056582E+02  0.66307393907E+03  0.10100000352E+00 0.  1.
       -3    1    3    3    0  502 -0.56421371209E+02 -0.66042054378E+03  0.15480293492E+03  0.68066337101E+03  0.10100000352E+00 0. -1.
</event>
<event>
 5   0  0.3907270E-04  0.1390070E+04  0.7818609E-02  0.8961038E-01
        1   -1    0    0  501    0  0.00000000000E+00  0.00000000000E+00  0.10244590991E+04  0.10244590992E+04  0.50400001928E-02 0. -1.
       -1   -1    0    0    0  501  0.00000000000E+00  0.00000000000E+00 -0.47153997014E+03  0.47153997017E+03  0.50400001928E-02 0.  1.
    10030    2    1    2    0    0  0.00000000000E+00  0.00000000000E+00  0.55291912900E+03  0.14959990693E+04  0.13900696573E+04 0.  0.
        3    1    3    3  502    0  0.28286509860E+03 -0.31420210274E+03 -0.31724815005E+03  0.52856600750E+03  0.10100000352E+00 0.  1.
       -3    1    3    3    0  502 -0.28286509860E+03  0.31420210274E+03  0.87016727905E+03  0.96743306182E+03  0.10100000352E+00 0. -1.
</event>
<event>
 5   0  0.6870835E-04  0.1431401E+04  0.7818609E-02  0.8931397E-01
       -2   -1    0    0    0  501  0.00000000000E+00  0.00000000000E+00  0.23835251687E+03  0.23835251688E+03  0.25500000920E-02 0.  1.
        2   -1    0    0  501    0  0.00000000000E+00  0.00000000000E+00 -0.21490321993E+04  0.21490321993E+04  0.25500000920E-02 0. -1.
    10030    2    1    2    0    0  0.00000000000E+00  0.00000000000E+00 -0.19106796824E+04  0.23873847162E+04  0.14314010389E+04 0.  0.
        2    1    3    3  502    0 -0.45973158044E+03  0.53277713857E+03 -0.73773207708E+03  0.10195357880E+04  0.25500000920E-02 0.  1.
       -2    1    3    3    0  502  0.45973158044E+03 -0.53277713857E+03 -0.11729476054E+04  0.13678489282E+04  0.25500000920E-02 0. -1.
</event>
<event>
 5   0  0.6870835E-04  0.1392284E+04  0.7818609E-02  0.8959423E-01
       -2   -1    0    0    0  501  0.00000000000E+00  0.00000000000E+00  0.87262849545E+03  0.87262849545E+03  0.25500000920E-02 0. -1.
        2   -1    0    0  501    0  0.00000000000E+00  0.00000000000E+00 -0.55534926817E+03  0.55534926818E+03  0.25500000920E-02 0.  1.
    10030    2    1    2    0    0  0.00000000000E+00  0.00000000000E+00  0.31727922727E+03  0.14279777636E+04  0.13922838738E+04 0.  0.
        2    1    3    3  502    0  0.35667655436E+03  0.23064934650E+03 -0.40704012447E+03  0.58830174945E+03  0.25500000920E-02 0.  1.
       -2    1    3    3    0  502 -0.35667655436E+03 -0.23064934650E+03  0.72431935175E+03  0.83967601418E+03  0.25500000920E-02 0. -1.
</event>
<event>
 5   0  0.3907093E-04  0.1384430E+04  0.7818609E-02  0.8965167E-01
       -1   -1    0    0    0  501  0.00000000000E+00  0.00000000000E+00  0.39687432566E+03  0.39687432569E+03  0.50400001928E-02 0. -1.
        1   -1    0    0  501    0  0.00000000000E+00  0.00000000000E+00 -0.12073384560E+04  0.12073384560E+04  0.50400001928E-02 0.  1.
    10030    2    1    2    0    0  0.00000000000E+00  0.00000000000E+00 -0.81046413034E+03  0.16042127817E+04  0.13844300424E+04 0.  0.
        4    1    3    3  502    0  0.89675488972E+01 -0.54891122688E+03  0.83338849069E+02  0.55527554295E+03  0.12699999809E+01 0. -1.
       -4    1    3    3    0  502 -0.89675488972E+01  0.54891122688E+03 -0.89380297941E+03  0.10489372387E+04  0.12699999809E+01 0.  1.
</event>
<event>
 5   0  0.7065539E-04  0.1394373E+04  0.7818609E-02  0.8957901E-01
        2   -1    0    0  501    0  0.00000000000E+00  0.00000000000E+00  0.61602392460E+03  0.61602392461E+03  0.25500000920E-02 0. -1.
       -2   -1    0    0    0  501  0.00000000000E+00  0.00000000000E+00 -0.78904296242E+03  0.78904296242E+03  0.25500000920E-02 0.  1.
    10030    2    1    2    0    0  0.00000000000E+00  0.00000000000E+00 -0.17301903781E+03  0.14050668870E+04  0.13943734685E+04 0.  0.
        1    1    3    3  502    0  0.24005622350E+03  0.13466535613E+03 -0.73197447116E+03  0.78201558491E+03  0.50400001928E-02 0.  1.
       -1    1    3    3    0  502 -0.24005622350E+03 -0.13466535613E+03  0.55895543335E+03  0.62305130212E+03  0.50400001928E-02 0. -1.
</event>
<event>
 5   0  0.2660250E-04  0.1401003E+04  0.7818609E-02  0.8953093E-01
       -3   -1    0    0    0  501  0.00000000000E+00  0.00000000000E+00  0.34712023606E+03  0.34712025075E+03  0.10100000352E+00 0. -1.
        3   -1    0    0  501    0  0.00000000000E+00  0.00000000000E+00 -0.14136384155E+04  0.14136384191E+04  0.10100000352E+00 0.  1.
    10030    2    1    2    0    0  0.00000000000E+00  0.00000000000E+00 -0.10665181794E+04  0.17607586699E+04  0.14010032357E+04 0.  0.
        4    1    3    3  502    0  0.17481306621E+03  0.67400112116E+03 -0.43702040279E+03  0.82208610546E+03  0.12699999809E+01 0. -1.
       -4    1    3    3    0  502 -0.17481306621E+03 -0.67400112116E+03 -0.62949777664E+03  0.93867256439E+03  0.12699999809E+01 0.  1.
</event>
<event>
 5   0  0.6959748E-04  0.1392445E+04  0.7818609E-02  0.8959305E-01
       -2   -1    0    0    0  501  0.00000000000E+00  0.00000000000E+00  0.48020316112E+03  0.48020316112E+03  0.25500000920E-02 0. -1.
        2   -1    0    0  501    0  0.00000000000E+00  0.00000000000E+00 -0.10094188369E+04  0.10094188369E+04  0.25500000920E-02 0.  1.
    10030    2    1    2    0    0  0.00000000000E+00  0.00000000000E+00 -0.52921567574E+03  0.14896219980E+04  0.13924454982E+04 0.  0.
        5    1    3    3  502    0  0.65026982770E+03 -0.19221915307E+03 -0.95781218347E+02  0.68483223011E+03  0.46999998093E+01 0. -1.
       -5    1    3    3    0  502 -0.65026982770E+03  0.19221915307E+03 -0.43343445739E+03  0.80478976787E+03  0.46999998093E+01 0.  1.
</event>
<event>
 5   0  0.6959748E-04  0.1400940E+04  0.7818609E-02  0.8953138E-01
       -2   -1    0    0    0  501  0.00000000000E+00  0.00000000000E+00  0.10583845297E+04  0.10583845297E+04  0.25500000920E-02 0. -1.
        2   -1    0    0  501    0  0.00000000000E+00  0.00000000000E+00 -0.46359177614E+03  0.46359177615E+03  0.25500000920E-02 0.  1.
    10030    2    1    2    0    0  0.00000000000E+00  0.00000000000E+00  0.59479275357E+03  0.15219763059E+04  0.14009402043E+04 0.  0.
        5    1    3    3  502    0  0.74718430772E+02 -0.51799908480E+03  0.80316069551E+03  0.95864231524E+03  0.46999998093E+01 0. -1.
       -5    1    3    3    0  502 -0.74718430772E+02  0.51799908480E+03 -0.20836794194E+03  0.56333399062E+03  0.46999998093E+01 0.  1.
</event>
<event>
 5   0  0.6870835E-04  0.1396457E+04  0.7818609E-02  0.8956387E-01
        2   -1    0    0  501    0  0.00000000000E+00  0.00000000000E+00  0.83827948812E+03  0.83827948812E+03  0.25500000920E-02 0.  1.
       -2   -1    0    0    0  501  0.00000000000E+00  0.00000000000E+00 -0.58157560990E+03  0.58157560990E+03  0.25500000920E-02 0. -1.
    10030    2    1    2    0    0  0.00000000000E+00  0.00000000000E+00  0.25670387822E+03  0.14198550980E+04  0.13964568086E+04 0.  0.
        2    1    3    3  502    0 -0.18348271189E+03 -0.39752571961E+03  0.68136812831E+03  0.80991056889E+03  0.25500000920E-02 0.  1.
       -2    1    3    3    0  502  0.18348271189E+03  0.39752571961E+03 -0.42466425009E+03  0.60994452914E+03  0.25500000920E-02 0. -1.
</event>
<event>
 5   0  0.3977658E-04  0.1402271E+04  0.7818609E-02  0.8952177E-01
       -1   -1    0    0    0  501  0.00000000000E+00  0.00000000000E+00  0.38672222163E+03  0.38672222166E+03  0.50400001928E-02 0. -1.
        1   -1    0    0  501    0  0.00000000000E+00  0.00000000000E+00 -0.12711727520E+04  0.12711727520E+04  0.50400001928E-02 0.  1.
    10030    2    1    2    0    0  0.00000000000E+00  0.00000000000E+00 -0.88445053041E+03  0.16578949737E+04  0.14022706597E+04 0.  0.
        5    1    3    3  502    0  0.39570916662E+03  0.13347048641E+03  0.22361525811E+03  0.47373620185E+03  0.46999998093E+01 0. -1.
       -5    1    3    3    0  502 -0.39570916662E+03 -0.13347048641E+03 -0.11080657885E+04  0.11841587719E+04  0.46999998093E+01 0.  1.
</event>
<event>
 5   0  0.7296966E-04  0.1350055E+04  0.7818609E-02  0.8990786E-01
        2   -1    0    0  501    0  0.00000000000E+00  0.00000000000E+00  0.45195478643E+03  0.45195478643E+03  0.25500000920E-02 0.  1.
       -2   -1    0    0    0  501  0.00000000000E+00  0.00000000000E+00 -0.10082030676E+04  0.10082030676E+04  0.25500000920E-02 0. -1.
    10030    2    1    2    0    0  0.00000000000E+00  0.00000000000E+00 -0.55624828115E+03  0.14601578540E+04  0.13500551131E+04 0.  0.
        3    1    3    3  502    0 -0.23766451429E+03 -0.52195048858E+03  0.10692354153E+03  0.58339471013E+03  0.10100000352E+00 0.  1.
       -3    1    3    3    0  502  0.23766451429E+03  0.52195048858E+03 -0.66317182268E+03  0.87676314388E+03  0.10100000352E+00 0. -1.
</event>
<event>
 5   0  0.3907270E-04  0.1397787E+04  0.7818609E-02  0.8955422E-01
       -1   -1    0    0    0  501  0.00000000000E+00  0.00000000000E+00  0.83409361643E+03  0.83409361645E+03  0.50400001928E-02 0. -1.
        1   -1    0    0  501    0  0.00000000000E+00  0.00000000000E+00 -0.58560798626E+03  0.58560798628E+03  0.50400001928E-02 0.  1.
    10030    2    1    2    0    0  0.00000000000E+00  0.00000000000E+00  0.24848563017E+03  0.14197016027E+04  0.13977866548E+04 0.  0.
        3    1    3    3  502    0  0.11546896019E+03  0.51495204292E+03 -0.34113649799E+03  0.62839701442E+03  0.10100000352E+00 0.  1.
       -3    1    3    3    0  502 -0.11546896019E+03 -0.51495204292E+03  0.58962212816E+03  0.79130458831E+03  0.10100000352E+00 0. -1.
</event>
<event>
 5   0  0.6895048E-04  0.1378982E+04  0.7818609E-02  0.8969174E-01
        2   -1    0    0  501    0  0.00000000000E+00  0.00000000000E+00  0.82366066255E+03  0.82366066256E+03  0.25500000920E-02 0.  1.
       -2   -1    0    0    0  501  0.00000000000E+00  0.00000000000E+00 -0.57717693577E+03  0.57717693577E+03  0.25500000920E-02 0. -1.
    10030    2    1    2    0    0  0.00000000000E+00  0.00000000000E+00  0.24648372679E+03  0.14008375983E+04  0.13789821425E+04 0.  0.
        4    1    3    3  502    0  0.14893143378E+03  0.17845871367E+03  0.78265872269E+03  0.81644618534E+03  0.12699999809E+01 0.  1.
       -4    1    3    3    0  502 -0.14893143378E+03 -0.17845871367E+03 -0.53617499590E+03  0.58439141299E+03  0.12699999809E+01 0. -1.
</event>
<event>
 5   0  0.3756664E-04  0.1393187E+04  0.7818609E-02  0.8958765E-01
        1   -1    0    0  501    0  0.00000000000E+00  0.00000000000E+00  0.16222242225E+04  0.16222242225E+04  0.50400001928E-02 0. -1.
       -1   -1    0    0    0  501  0.00000000000E+00  0.00000000000E+00 -0.29912165230E+03  0.29912165234E+03  0.50400001928E-02 0.  1.
    10030    2    1    2    0    0  0.00000000000E+00  0.00000000000E+00  0.13231025702E+04  0.19213458748E+04  0.13931868358E+04 0.  0.
        2    1    3    3  502    0 -0.64113128088E+02  0.33681722602E+03  0.14977986617E+04  0.15365406496E+04  0.25500000920E-02 0. -1.
       -2    1    3    3    0  502  0.64113128088E+02 -0.33681722602E+03 -0.17469609154E+03  0.38480522520E+03  0.25500000920E-02 0.  1.
</event>
<event>
 5   0  0.3784219E-04  0.1401257E+04  0.7818609E-02  0.8952909E-01
       -1   -1    0    0    0  501  0.00000000000E+00  0.00000000000E+00  0.49076071815E+03  0.49076071818E+03  0.50400001928E-02 0.  1.
        1   -1    0    0  501    0  0.00000000000E+00  0.00000000000E+00 -0.10002442666E+04  0.10002442666E+04  0.50400001928E-02 0. -1.
    10030    2    1    2    0    0  0.00000000000E+00  0.00000000000E+00 -0.50948354842E+03  0.14910049848E+04  0.14012574276E+04 0.  0.
        1    1    3    3  502    0  0.22128413629E+03 -0.35180401679E+03  0.34543014313E+03  0.54042087211E+03  0.50400001928E-02 0.  1.
       -1    1    3    3    0  502 -0.22128413629E+03  0.35180401679E+03 -0.85491369155E+03  0.95058411266E+03  0.50400001928E-02 0. -1.
</event>
<event>
 5   0  0.6959748E-04  0.1387824E+04  0.7818609E-02  0.8962680E-01
        2   -1    0    0  501    0  0.00000000000E+00  0.00000000000E+00  0.15214255805E+04  0.15214255805E+04  0.25500000920E-02 0.  1.
       -2   -1    0    0    0  501  0.00000000000E+00  0.00000000000E+00 -0.31648858752E+03  0.31648858753E+03  0.25500000920E-02 0. -1.
    10030    2    1    2    0    0  0.00000000000E+00  0.00000000000E+00  0.12049369930E+04  0.18379141681E+04  0.13878239557E+04 0.  0.
        5    1    3    3  502    0  0.18236687637E+03 -0.21194230662E+03  0.14435009934E+04  0.14703382015E+04  0.46999998093E+01 0.  1.
       -5    1    3    3    0  502 -0.18236687637E+03  0.21194230662E+03 -0.23856400036E+03  0.36757596657E+03  0.46999998093E+01 0. -1.
</event>
<event>
 5   0  0.3977658E-04  0.1394292E+04  0.7818609E-02  0.8957961E-01
       -1   -1    0    0    0  501  0.00000000000E+00  0.00000000000E+00  0.10403209095E+04  0.10403209095E+04  0.50400001928E-02 0.  1.
        1   -1    0    0  501    0  0.00000000000E+00  0.00000000000E+00 -0.46717534403E+03  0.46717534406E+03  0.50400001928E-02 0. -1.
    10030    2    1    2    0    0  0.00000000000E+00  0.00000000000E+00  0.57314556545E+03  0.15074962535E+04  0.13942916177E+04 0.  0.
        5    1    3    3  502    0  0.17065229523E+03  0.20649780633E+03 -0.40928684037E+03  0.48918437995E+03  0.46999998093E+01 0. -1.
       -5    1    3    3    0  502 -0.17065229523E+03 -0.20649780633E+03  0.98243240582E+03  0.10183118736E+04  0.46999998093E+01 0.  1.
</event>
<event>
 5   0  0.7296966E-04  0.1414648E+04  0.7818609E-02  0.8943283E-01
       -2   -1    0    0    0  501  0.00000000000E+00  0.00000000000E+00  0.81283815208E+03  0.81283815209E+03  0.25500000920E-02 0. -1.
        2   -1    0    0  501    0  0.00000000000E+00  0.00000000000E+00 -0.61550701053E+03  0.61550701053E+03  0.25500000920E-02 0.  1.
    10030    2    1    2    0    0  0.00000000000E+00  0.00000000000E+00  0.19733114156E+03  0.14283451626E+04  0.14146484808E+04 0.  0.
        3    1    3    3  502    0  0.28510817816E+03 -0.60273848687E+03  0.33701729435E+03  0.74710174923E+03  0.10100000352E+00 0. -1.
       -3    1    3    3    0  502 -0.28510817816E+03  0.60273848687E+03 -0.13968615279E+03  0.68124341339E+03  0.10100000352E+00 0.  1.
</event>
<event>
 5   0  0.7065539E-04  0.1407017E+04  0.7818609E-02  0.8948755E-01
       -2   -1    0    0    0  501  0.00000000000E+00  0.00000000000E+00  0.84356825384E+03  0.84356825385E+03  0.25500000920E-02 0.  1.
        2   -1    0    0  501    0  0.00000000000E+00  0.00000000000E+00 -0.58670332010E+03  0.58670332010E+03  0.25500000920E-02 0. -1.
    10030    2    1    2    0    0  0.00000000000E+00  0.00000000000E+00  0.25686493375E+03  0.14302715739E+04  0.14070171218E+04 0.  0.
        1    1    3    3  502    0  0.49278951828E+03  0.37889274707E+03  0.46330549145E+03  0.77527620984E+03  0.50400001928E-02 0.  1.
       -1    1    3    3    0  502 -0.49278951828E+03 -0.37889274707E+03 -0.20644055770E+03  0.65499536411E+03  0.50400001928E-02 0. -1.
</event>
<event>
 5   0  0.3756664E-04  0.1388984E+04  0.7818609E-02  0.8961831E-01
        1   -1    0    0  501    0  0.00000000000E+00  0.00000000000E+00  0.12376784760E+04  0.12376784760E+04  0.50400001928E-02 0.  1.
       -1   -1    0    0    0  501  0.00000000000E+00  0.00000000000E+00 -0.38969648082E+03  0.38969648085E+03  0.50400001928E-02 0. -1.
    10030    2    1    2    0    0  0.00000000000E+00  0.00000000000E+00  0.84798199520E+03  0.16273749569E+04  0.13889837242E+04 0.  0.
        2    1    3    3  502    0 -0.43318502718E+03  0.19030134970E+01 -0.21200667706E+03  0.48228593216E+03  0.25500000920E-02 0. -1.
       -2    1    3    3    0  502  0.43318502718E+03 -0.19030134970E+01  0.10599886723E+04  0.11450890247E+04  0.25500000920E-02 0.  1.
</event>
<event>
 5   0  0.3756664E-04  0.1407374E+04  0.7818609E-02  0.8948498E-01
       -1   -1    0    0    0  501  0.00000000000E+00  0.00000000000E+00  0.40505600089E+03  0.40505600092E+03  0.50400001928E-02 0. -1.
        1   -1    0    0  501    0  0.00000000000E+00  0.00000000000E+00 -0.12224867466E+04  0.12224867467E+04  0.50400001928E-02 0.  1.
    10030    2    1    2    0    0  0.00000000000E+00  0.00000000000E+00 -0.81743074575E+03  0.16275427476E+04  0.14073742825E+04 0.  0.
        2    1    3    3  502    0  0.50844337783E+02  0.14789810936E+03 -0.12021342853E+04  0.12122647554E+04  0.25500000920E-02 0.  1.
       -2    1    3    3    0  502 -0.50844337783E+02 -0.14789810936E+03  0.38470353952E+03  0.41527799215E+03  0.25500000920E-02 0. -1.
</event>
<event>
 5   0  0.7296966E-04  0.1406211E+04  0.7818609E-02  0.8949335E-01
        2   -1    0    0  501    0  0.00000000000E+00  0.00000000000E+00  0.97789769876E+03  0.97789769876E+03  0.25500000920E-02 0. -1.
       -2   -1    0    0    0  501  0.00000000000E+00  0.00000000000E+00 -0.50553049548E+03  0.50553049549E+03  0.25500000920E-02 0.  1.
    10030    2    1    2    0    0  0.00000000000E+00  0.00000000000E+00  0.47236720328E+03  0.14834281942E+04  0.14062106644E+04 0.  0.
        3    1    3    3  502    0  0.67565979901E+03  0.19347539809E+03  0.25749710984E+03  0.74850094552E+03  0.10100000352E+00 0. -1.
       -3    1    3    3    0  502 -0.67565979901E+03 -0.19347539809E+03  0.21487009344E+03  0.73492724873E+03  0.10100000352E+00 0.  1.
</event>
<event>
 5   0  0.7296966E-04  0.1374293E+04  0.7818609E-02  0.8972640E-01
        2   -1    0    0  501    0  0.00000000000E+00  0.00000000000E+00  0.28196135791E+03  0.28196135792E+03  0.25500000920E-02 0. -1.
       -2   -1    0    0    0  501  0.00000000000E+00  0.00000000000E+00 -0.16745916039E+04  0.16745916039E+04  0.25500000920E-02 0.  1.
    10030    2    1    2    0    0  0.00000000000E+00  0.00000000000E+00 -0.13926302460E+04  0.19565529618E+04  0.13742927237E+04 0.  0.
        3    1    3    3  502    0  0.38812369082E+03 -0.19694700824E+03  0.60705159603E+02  0.43944652693E+03  0.10100000352E+00 0. -1.
       -3    1    3    3    0  502 -0.38812369082E+03  0.19694700824E+03 -0.14533354056E+04  0.15171064349E+04  0.10100000352E+00 0.  1.
</event>
<event>
 5   0  0.3907093E-04  0.1406870E+04  0.7818609E-02  0.8948860E-01
        1   -1    0    0  501    0  0.00000000000E+00  0.00000000000E+00  0.10789353436E+04  0.10789353436E+04  0.50400001928E-02 0.  1.
       -1   -1    0    0    0  501  0.00000000000E+00  0.00000000000E+00 -0.45861977735E+03  0.45861977738E+03  0.50400001928E-02 0. -1.
    10030    2    1    2    0    0  0.00000000000E+00  0.00000000000E+00  0.62031556629E+03  0.15375551210E+04  0.14068704092E+04 0.  0.
        4    1    3    3  502    0 -0.43899322620E+03 -0.35520396658E+03  0.76856577769E+03  0.95371897226E+03  0.12699999809E+01 0. -1.
       -4    1    3    3    0  502  0.43899322620E+03  0.35520396658E+03 -0.14825021140E+03  0.58383614876E+03  0.12699999809E+01 0.  1.
</event>
<event>
 5   0  0.3907093E-04  0.1400170E+04  0.7818609E-02  0.8953696E-01
       -1   -1    0    0    0  501  0.00000000000E+00  0.00000000000E+00  0.48585069162E+03  0.48585069165E+03  0.50400001928E-02 0. -1.
        1   -1    0    0  501    0  0.00000000000E+00  0.00000000000E+00 -0.10087852292E+04  0.10087852292E+04  0.50400001928E-02 0.  1.
    10030    2    1    2    0    0  0.00000000000E+00  0.00000000000E+00 -0.52293453754E+03  0.14946359208E+04  0.14001699916E+04 0.  0.
        4    1    3    3  502    0  0.19370525790E+03 -0.60892778205E+03  0.43840777898E+02  0.64049855378E+03  0.12699999809E+01 0. -1.
       -4    1    3    3    0  502 -0.19370525790E+03  0.60892778205E+03 -0.56677531544E+03  0.85413736704E+03  0.12699999809E+01 0.  1.
</event>
<event>
 5   0  0.3784219E-04  0.1271782E+04  0.7818609E-02  0.9052247E-01
       -1   -1    0    0    0  501  0.00000000000E+00  0.00000000000E+00  0.42700401259E+03  0.42700401262E+03  0.50400001928E-02 0. -1.
        1   -1    0    0  501    0  0.00000000000E+00  0.00000000000E+00 -0.94696328597E+03  0.94696328599E+03  0.50400001928E-02 0.  1.
    10030    2    1    2    0    0  0.00000000000E+00  0.00000000000E+00 -0.51995927339E+03  0.13739672986E+04  0.12717816211E+04 0.  0.
        1    1    3    3  502    0  0.19269910411E+03 -0.60332351687E+03 -0.19862847421E+03  0.66376613466E+03  0.50400001928E-02 0.  1.
       -1    1    3    3    0  502 -0.19269910411E+03  0.60332351687E+03 -0.32133079918E+03  0.71020116394E+03  0.50400001928E-02 0. -1.
</event>
<event>
 5   0  0.3784219E-04  0.1417456E+04  0.7818609E-02  0.8941279E-01
        1   -1    0    0  501    0  0.00000000000E+00  0.00000000000E+00  0.35706392044E+03  0.35706392048E+03  0.50400001928E-02 0.  1.
       -1   -1    0    0    0  501  0.00000000000E+00  0.00000000000E+00 -0.14067379592E+04  0.14067379592E+04  0.50400001928E-02 0. -1.
    10030    2    1    2    0    0  0.00000000000E+00  0.00000000000E+00 -0.10496740387E+04  0.17638018796E+04  0.14174559898E+04 0.  0.
        1    1    3    3  502    0  0.25118478724E+03  0.41201662608E+03  0.12107649899E+03  0.49750479007E+03  0.50400001928E-02 0.  1.
       -1    1    3    3    0  502 -0.25118478724E+03 -0.41201662608E+03 -0.11707505377E+04  0.12662970896E+04  0.50400001928E-02 0. -1.
</event>
<event>
 5   0  0.3756664E-04  0.1398483E+04  0.7818609E-02  0.8954917E-01
        1   -1    0    0  501    0  0.00000000000E+00  0.00000000000E+00  0.20283120669E+04  0.20283120670E+04  0.50400001928E-02 0. -1.
       -1   -1    0    0    0  501  0.00000000000E+00  0.00000000000E+00 -0.24105696203E+03  0.24105696209E+03  0.50400001928E-02 0.  1.
    10030    2    1    2    0    0  0.00000000000E+00  0.00000000000E+00  0.17872551049E+04  0.22693690290E+04  0.13984830996E+04 0.  0.
        2    1    3    3  502    0  0.51880406501E+03 -0.90081995868E+02  0.16402031353E+04  0.17226545646E+04  0.25500000920E-02 0. -1.
       -2    1    3    3    0  502 -0.51880406501E+03  0.90081995868E+02  0.14705196960E+03  0.54671446443E+03  0.25500000920E-02 0.  1.
</event>
<event>
 5   0  0.3977658E-04  0.1403425E+04  0.7818609E-02  0.8951343E-01
        1   -1    0    0  501    0  0.00000000000E+00  0.00000000000E+00  0.32229498406E+03  0.32229498410E+03  0.50400001928E-02 0.  1.
       -1   -1    0    0    0  501  0.00000000000E+00  0.00000000000E+00 -0.15277953538E+04  0.15277953538E+04  0.50400001928E-02 0. -1.
    10030    2    1    2    0    0  0.00000000000E+00  0.00000000000E+00 -0.12055003697E+04  0.18500903379E+04  0.14034254939E+04 0.  0.
        5    1    3    3  502    0 -0.11755322154E+03 -0.10339724889E+03 -0.15044576815E+04  0.15125887598E+04  0.46999998093E+01 0. -1.
       -5    1    3    3    0  502  0.11755322154E+03  0.10339724889E+03  0.29895731174E+03  0.33750157809E+03  0.46999998093E+01 0.  1.
</event>
<event>
 5   0  0.3756664E-04  0.1390206E+04  0.7818609E-02  0.8960939E-01
        1   -1    0    0  501    0  0.00000000000E+00  0.00000000000E+00  0.93443029687E+03  0.93443029689E+03  0.50400001928E-02 0.  1.
       -1   -1    0    0    0  501  0.00000000000E+00  0.00000000000E+00 -0.51707255068E+03  0.51707255070E+03  0.50400001928E-02 0. -1.
    10030    2    1    2    0    0  0.00000000000E+00  0.00000000000E+00  0.41735774619E+03  0.14515028476E+04  0.13902061100E+04 0.  0.
        2    1    3    3  502    0  0.52161713089E+03  0.25353727591E+03  0.60872096045E+03  0.84077749091E+03  0.25500000920E-02 0. -1.
       -2    1    3    3    0  502 -0.52161713089E+03 -0.25353727591E+03 -0.19136321426E+03  0.61072535668E+03  0.25500000920E-02 0.  1.
</event>
<event>
 5   0  0.7065539E-04  0.1405286E+04  0.7818609E-02  0.8950001E-01
        2   -1    0    0  501    0  0.00000000000E+00  0.00000000000E+00  0.85074429543E+03  0.85074429544E+03  0.25500000920E-02 0. -1.
       -2   -1    0    0    0  501  0.00000000000E+00  0.00000000000E+00 -0.58032387898E+03  0.58032387898E+03  0.25500000920E-02 0.  1.
    10030    2    1    2    0    0  0.00000000000E+00  0.00000000000E+00  0.27042041646E+03  0.14310681744E+04  0.14052860628E+04 0.  0.
        1    1    3    3  502    0  0.15410133754E+03 -0.55032509272E+02 -0.56065021775E+03  0.58404149339E+03  0.50400001928E-02 0.  1.
       -1    1    3    3    0  502 -0.15410133754E+03  0.55032509272E+02  0.83107063421E+03  0.84702668103E+03  0.50400001928E-02 0. -1.
</event>
<event>
 5   0  0.7065539E-04  0.1410178E+04  0.7818609E-02  0.8946484E-01
        2   -1    0    0  501    0  0.00000000000E+00  0.00000000000E+00  0.26926184997E+03  0.26926184998E+03  0.25500000920E-02 0.  1.
       -2   -1    0    0    0  501  0.00000000000E+00  0.00000000000E+00 -0.18463464092E+04  0.18463464092E+04  0.25500000920E-02 0. -1.
    10030    2    1    2    0    0  0.00000000000E+00  0.00000000000E+00 -0.15770845593E+04  0.21156082592E+04  0.14101782155E+04 0.  0.
        1    1    3    3  502    0 -0.36660751977E+03 -0.57531913986E+03 -0.52118983672E+03  0.85850569722E+03  0.50400001928E-02 0.  1.
       -1    1    3    3    0  502  0.36660751977E+03  0.57531913986E+03 -0.10558947225E+04  0.12571025620E+04  0.50400001928E-02 0. -1.
</event>
<event>
 5   0  0.6870835E-04  0.1404191E+04  0.7818609E-02  0.8950791E-01
       -2   -1    0    0    0  501  0.00000000000E+00  0.00000000000E+00  0.66993423831E+03  0.66993423831E+03  0.25500000920E-02 0.  1.
        2   -1    0    0  501    0  0.00000000000E+00  0.00000000000E+00 -0.73580022610E+03  0.73580022611E+03  0.25500000920E-02 0. -1.
    10030    2    1    2    0    0  0.00000000000E+00  0.00000000000E+00 -0.65865987793E+02  0.14057344644E+04  0.14041905341E+04 0.  0.
        2    1    3    3  502    0  0.22418791993E+03  0.41164207842E+03  0.49035421994E+03  0.67834849833E+03  0.25500000920E-02 0.  1.
       -2    1    3    3    0  502 -0.22418791993E+03 -0.41164207842E+03 -0.55622020773E+03  0.72738596609E+03  0.25500000920E-02 0. -1.
</event>
<event>
 5   0  0.3907093E-04  0.1413394E+04  0.7818609E-02  0.8944180E-01
       -1   -1    0    0    0  501  0.00000000000E+00  0.00000000000E+00  0.68349438711E+03  0.68349438713E+03  0.50400001928E-02 0.  1.
        1   -1    0    0  501    0  0.00000000000E+00  0.00000000000E+00 -0.73068762778E+03  0.73068762779E+03  0.50400001928E-02 0. -1.
    10030    2    1    2    0    0  0.00000000000E+00  0.00000000000E+00 -0.47193240666E+02  0.14141820149E+04  0.14133943432E+04 0.  0.
        4    1    3    3  502    0 -0.36032797244E+03  0.52910401616E+03 -0.32314945673E+03  0.71708750646E+03  0.12699999809E+01 0.  1.
       -4    1    3    3    0  502  0.36032797244E+03 -0.52910401616E+03  0.27595621606E+03  0.69709450846E+03  0.12699999809E+01 0. -1.
</event>
<event>
 5   0  0.3907093E-04  0.1404503E+04  0.7818609E-02  0.8950566E-01
        1   -1    0    0  501    0  0.00000000000E+00  0.00000000000E+00  0.12942596654E+04  0.12942596654E+04  0.50400001928E-02 0.  1.
       -1   -1    0    0    0  501  0.00000000000E+00  0.00000000000E+00 -0.38103411944E+03  0.38103411947E+03  0.50400001928E-02 0. -1.
    10030    2    1    2    0    0  0.00000000000E+00  0.00000000000E+00  0.91322554591E+03  0.16752937848E+04  0.14045028899E+04 0.  0.
        4    1    3    3  502    0  0.40996503647E+02 -0.42563609760E+03  0.11210673553E+04  0.11998501693E+04  0.12699999809E+01 0.  1.
       -4    1    3    3    0  502 -0.40996503647E+02  0.42563609760E+03 -0.20784180937E+03  0.47544361550E+03  0.12699999809E+01 0. -1.
</event>
<event>
 5   0  0.3784219E-04  0.1349371E+04  0.7818609E-02  0.8991304E-01
       -1   -1    0    0    0  501  0.00000000000E+00  0.00000000000E+00  0.22880326971E+03  0.22880326977E+03  0.50400001928E-02 0.  1.
        1   -1    0    0  501    0  0.00000000000E+00  0.00000000000E+00 -0.19894856647E+04  0.19894856647E+04  0.50400001928E-02 0. -1.
    10030    2    1    2    0    0  0.00000000000E+00  0.00000000000E+00 -0.17606823950E+04  0.22182889345E+04  0.13493714466E+04 0.  0.
        1    1    3    3  502    0  0.38493929387E+03 -0.50717758487E+03 -0.12471778831E+04  0.14003071215E+04  0.50400001928E-02 0. -1.
       -1    1    3    3    0  502 -0.38493929387E+03  0.50717758487E+03 -0.51350451197E+03  0.81798181300E+03  0.50400001928E-02 0.  1.
</event>
<event>
 5   0  0.3756664E-04  0.1398708E+04  0.7818609E-02  0.8954754E-01
       -1   -1    0    0    0  501  0.00000000000E+00  0.00000000000E+00  0.48898159950E+03  0.48898159953E+03  0.50400001928E-02 0.  1.
        1   -1    0    0  501    0  0.00000000000E+00  0.00000000000E+00 -0.10002337546E+04  0.10002337546E+04  0.50400001928E-02 0. -1.
    10030    2    1    2    0    0  0.00000000000E+00  0.00000000000E+00 -0.51125215513E+03  0.14892153542E+04  0.13987078340E+04 0.  0.
        2    1    3    3  502    0 -0.89873730945E+02 -0.17813716701E+03  0.45803469632E+03  0.49960576540E+03  0.25500000920E-02 0.  1.
       -2    1    3    3    0  502  0.89873730945E+02  0.17813716701E+03 -0.96928685145E+03  0.98960958877E+03  0.25500000920E-02 0. -1.
</event>
<event>
 5   0  0.3756664E-04  0.1399274E+04  0.7818609E-02  0.8954344E-01
        1   -1    0    0  501    0  0.00000000000E+00  0.00000000000E+00  0.15524846479E+04  0.15524846479E+04  0.50400001928E-02 0. -1.
       -1   -1    0    0    0  501  0.00000000000E+00  0.00000000000E+00 -0.31529574579E+03  0.31529574583E+03  0.50400001928E-02 0.  1.
    10030    2    1    2    0    0  0.00000000000E+00  0.00000000000E+00  0.12371889021E+04  0.18677803937E+04  0.13992738187E+04 0.  0.
        2    1    3    3  502    0  0.41532790179E+03 -0.12541016607E+01 -0.13293830923E+03  0.43608649697E+03  0.25500000920E-02 0.  1.
       -2    1    3    3    0  502 -0.41532790179E+03  0.12541016607E+01  0.13701272113E+04  0.14316938967E+04  0.25500000920E-02 0. -1.
</event>
<event>
 5   0  0.7296966E-04  0.1365658E+04  0.7818609E-02  0.8979059E-01
       -2   -1    0    0    0  501  0.00000000000E+00  0.00000000000E+00  0.39623079019E+03  0.39623079019E+03  0.25500000920E-02 0. -1.
        2   -1    0    0  501    0  0.00000000000E+00  0.00000000000E+00 -0.11767276735E+04  0.11767276735E+04  0.25500000920E-02 0.  1.
    10030    2    1    2    0    0  0.00000000000E+00  0.00000000000E+00 -0.78049688334E+03  0.15729584637E+04  0.13656584286E+04 0.  0.
        3    1    3    3  502    0  0.22567955163E+03  0.85419649719E+02  0.34548436415E+03  0.42141100205E+03  0.10100000352E+00 0. -1.
       -3    1    3    3    0  502 -0.22567955163E+03 -0.85419649719E+02 -0.11259812475E+04  0.11515474617E+04  0.10100000352E+00 0.  1.
</event>
<event>
 5   0  0.7065539E-04  0.1395621E+04  0.7818609E-02  0.8956995E-01
        2   -1    0    0  501    0  0.00000000000E+00  0.00000000000E+00  0.71549120320E+03  0.71549120320E+03  0.25500000920E-02 0.  1.
       -2   -1    0    0    0  501  0.00000000000E+00  0.00000000000E+00 -0.68056626439E+03  0.68056626439E+03  0.25500000920E-02 0. -1.
    10030    2    1    2    0    0  0.00000000000E+00  0.00000000000E+00  0.34924938813E+02  0.13960574676E+04  0.13956205435E+04 0.  0.
        1    1    3    3  502    0 -0.32401859266E+03 -0.58914023272E+03  0.20424241144E+03  0.70270137672E+03  0.50400001928E-02 0. -1.
       -1    1    3    3    0  502  0.32401859266E+03  0.58914023272E+03 -0.16931747262E+03  0.69335609087E+03  0.50400001928E-02 0.  1.
</event>
<event>
 5   0  0.7296966E-04  0.1283146E+04  0.7818609E-02  0.9043038E-01
        2   -1    0    0  501    0  0.00000000000E+00  0.00000000000E+00  0.11273042946E+04  0.11273042946E+04  0.25500000920E-02 0. -1.
       -2   -1    0    0    0  501  0.00000000000E+00  0.00000000000E+00 -0.36513284822E+03  0.36513284823E+03  0.25500000920E-02 0.  1.
    10030    2    1    2    0    0  0.00000000000E+00  0.00000000000E+00  0.76217144636E+03  0.14924371428E+04  0.12831458653E+04 0.  0.
        3    1    3    3  502    0  0.24820336545E+03  0.11021821112E+03  0.10571535091E+04  0.10914790500E+04  0.10100000352E+00 0. -1.
       -3    1    3    3    0  502 -0.24820336545E+03 -0.11021821112E+03 -0.29498206269E+03  0.40095809281E+03  0.10100000352E+00 0.  1.
</event>
<event>
 5   0  0.3907093E-04  0.1376648E+04  0.7818609E-02  0.8970898E-01
        1   -1    0    0  501    0  0.00000000000E+00  0.00000000000E+00  0.18510946571E+04  0.18510946571E+04  0.50400001928E-02 0. -1.
       -1   -1    0    0    0  501  0.00000000000E+00  0.00000000000E+00 -0.25595105290E+03  0.25595105295E+03  0.50400001928E-02 0.  1.
    10030    2    1    2    0    0  0.00000000000E+00  0.00000000000E+00  0.15951436042E+04  0.21070457100E+04  0.13766475606E+04 0.  0.
        4    1    3    3  502    0 -0.36368858939E+03  0.38186799570E+03  0.14746542569E+04  0.15661096215E+04  0.12699999809E+01 0. -1.
       -4    1    3    3    0  502  0.36368858939E+03 -0.38186799570E+03  0.12048934727E+03  0.54093608856E+03  0.12699999809E+01 0.  1.
</event>
<event>
 5   0  0.6870835E-04  0.1400520E+04  0.7818609E-02  0.8953442E-01
        2   -1    0    0  501    0  0.00000000000E+00  0.00000000000E+00  0.88429027608E+03  0.88429027608E+03  0.25500000920E-02 0. -1.
       -2   -1    0    0    0  501  0.00000000000E+00  0.00000000000E+00 -0.55452846547E+03  0.55452846548E+03  0.25500000920E-02 0.  1.
    10030    2    1    2    0    0  0.00000000000E+00  0.00000000000E+00  0.32976181061E+03  0.14388187416E+04  0.14005200889E+04 0.  0.
        2    1    3    3  502    0 -0.21235441285E+03  0.46090082486E+03  0.66061146327E+03  0.83302549326E+03  0.25500000920E-02 0. -1.
       -2    1    3    3    0  502  0.21235441285E+03 -0.46090082486E+03 -0.33084965266E+03  0.60579324830E+03  0.25500000920E-02 0.  1.
</event>
<event>
 5   0  0.6870835E-04  0.1413725E+04  0.7818609E-02  0.8943943E-01
       -2   -1    0    0    0  501  0.00000000000E+00  0.00000000000E+00  0.42796361962E+03  0.42796361963E+03  0.25500000920E-02 0.  1.
        2   -1    0    0  501    0  0.00000000000E+00  0.00000000000E+00 -0.11675160510E+04  0.11675160510E+04  0.25500000920E-02 0. -1.
    10030    2    1    2    0    0  0.00000000000E+00  0.00000000000E+00 -0.73955243133E+03  0.15954796706E+04  0.14137247188E+04 0.  0.
        2    1    3    3  502    0  0.34095013909E+03  0.47287958123E+03  0.81356524473E+02  0.58862634988E+03  0.25500000920E-02 0.  1.
       -2    1    3    3    0  502 -0.34095013909E+03 -0.47287958123E+03 -0.82090895581E+03  0.10068533207E+04  0.25500000920E-02 0. -1.
</event>
<event>
 5   0  0.3907093E-04  0.1391362E+04  0.7818609E-02  0.8960095E-01
        1   -1    0    0  501    0  0.00000000000E+00  0.00000000000E+00  0.42987372920E+03  0.42987372923E+03  0.50400001928E-02 0.  1.
       -1   -1    0    0    0  501  0.00000000000E+00  0.00000000000E+00 -0.11258471869E+04  0.11258471869E+04  0.50400001928E-02 0. -1.
    10030    2    1    2    0    0  0.00000000000E+00  0.00000000000E+00 -0.69597345771E+03  0.15557209162E+04  0.13913621078E+04 0.  0.
        4    1    3    3  502    0  0.20349195787E+03  0.66462552719E+03 -0.31568758230E+03  0.76341098422E+03  0.12699999809E+01 0. -1.
       -4    1    3    3    0  502 -0.20349195787E+03 -0.66462552719E+03 -0.38028587541E+03  0.79230993194E+03  0.12699999809E+01 0.  1.
</event>
<event>
 5   0  0.3756664E-04  0.1348976E+04  0.7818609E-02  0.8991604E-01
       -1   -1    0    0    0  501  0.00000000000E+00  0.00000000000E+00  0.22750389002E+03  0.22750389007E+03  0.50400001928E-02 0.  1.
        1   -1    0    0  501    0  0.00000000000E+00  0.00000000000E+00 -0.19996760417E+04  0.19996760417E+04  0.50400001928E-02 0. -1.
    10030    2    1    2    0    0  0.00000000000E+00  0.00000000000E+00 -0.17721721517E+04  0.22271799318E+04  0.13489760240E+04 0.  0.
        2    1    3    3  502    0  0.64316881448E+03 -0.84598898355E+02 -0.11910146881E+04  0.13562223582E+04  0.25500000920E-02 0.  1.
       -2    1    3    3    0  502 -0.64316881448E+03  0.84598898355E+02 -0.58115746356E+03  0.87095757359E+03  0.25500000920E-02 0. -1.
</event>
<event>
 5   0  0.3977658E-04  0.1404621E+04  0.7818609E-02  0.8950480E-01
       -1   -1    0    0    0  501  0.00000000000E+00  0.00000000000E+00  0.38836275714E+03  0.38836275717E+03  0.50400001928E-02 0.  1.
        1   -1    0    0  501    0  0.00000000000E+00  0.00000000000E+00 -0.12700503327E+04  0.12700503327E+04  0.50400001928E-02 0. -1.
    10030    2    1    2    0    0  0.00000000000E+00  0.00000000000E+00 -0.88168757553E+03  0.16584130899E+04  0.14046212998E+04 0.  0.
        5    1    3    3  502    0 -0.59564298079E+03 -0.34600399895E+03 -0.60233793748E+03  0.91506415556E+03  0.46999998093E+01 0.  1.
       -5    1    3    3    0  502  0.59564298079E+03  0.34600399895E+03 -0.27934963805E+03  0.74334893430E+03  0.46999998093E+01 0. -1.
</event>
<event>
 5   0  0.6895048E-04  0.1318337E+04  0.7818609E-02  0.9015149E-01
        2   -1    0    0  501    0  0.00000000000E+00  0.00000000000E+00  0.55867700097E+03  0.55867700098E+03  0.25500000920E-02 0.  1.
       -2   -1    0    0    0  501  0.00000000000E+00  0.00000000000E+00 -0.77773538177E+03  0.77773538178E+03  0.25500000920E-02 0. -1.
    10030    2    1    2    0    0  0.00000000000E+00  0.00000000000E+00 -0.21905838080E+03  0.13364123828E+04  0.13183366348E+04 0.  0.
        4    1    3    3  502    0 -0.52475263312E+03  0.39227121188E+03 -0.18304405712E+03  0.68025639974E+03  0.12699999809E+01 0.  1.
       -4    1    3    3    0  502  0.52475263312E+03 -0.39227121188E+03 -0.36014323688E+02  0.65615598302E+03  0.12699999809E+01 0. -1.
</event>
<event>
 5   0  0.3977658E-04  0.1393130E+04  0.7818609E-02  0.8958807E-01
        1   -1    0    0  501    0  0.00000000000E+00  0.00000000000E+00  0.74148229437E+03  0.74148229438E+03  0.50400001928E-02 0. -1.
       -1   -1    0    0    0  501  0.00000000000E+00  0.00000000000E+00 -0.65436835177E+03  0.65436835179E+03  0.50400001928E-02 0.  1.
    10030    2    1    2    0    0  0.00000000000E+00  0.00000000000E+00  0.87113942593E+02  0.13958506462E+04  0.13931296377E+04 0.  0.
        5    1    3    3  502    0  0.33126156779E+03  0.35309436074E+03 -0.45819112394E+03  0.66661161851E+03  0.46999998093E+01 0.  1.
       -5    1    3    3    0  502 -0.33126156779E+03 -0.35309436074E+03  0.54530506654E+03  0.72923902766E+03  0.46999998093E+01 0. -1.
</event>
<event>
 5   0  0.7065539E-04  0.1395201E+04  0.7818609E-02  0.8957300E-01
        2   -1    0    0  501    0  0.00000000000E+00  0.00000000000E+00  0.10350232380E+04  0.10350232380E+04  0.25500000920E-02 0. -1.
       -2   -1    0    0    0  501  0.00000000000E+00  0.00000000000E+00 -0.47017932655E+03  0.47017932656E+03  0.25500000920E-02 0.  1.
    10030    2    1    2    0    0  0.00000000000E+00  0.00000000000E+00  0.56484391148E+03  0.15052025646E+04  0.13952011024E+04 0.  0.
        1    1    3    3  502    0 -0.54274789865E+03  0.42053742812E+03  0.14932791712E+03  0.70265627215E+03  0.50400001928E-02 0. -1.
       -1    1    3    3    0  502  0.54274789865E+03 -0.42053742812E+03  0.41551599436E+03  0.80254629245E+03  0.50400001928E-02 0.  1.
</event>
<event>
 5   0  0.3977658E-04  0.1400053E+04  0.7818609E-02  0.8953781E-01
        1   -1    0    0  501    0  0.00000000000E+00  0.00000000000E+00  0.16375715749E+04  0.16375715749E+04  0.50400001928E-02 0. -1.
       -1   -1    0    0    0  501  0.00000000000E+00  0.00000000000E+00 -0.29924602707E+03  0.29924602712E+03  0.50400001928E-02 0.  1.
    10030    2    1    2    0    0  0.00000000000E+00  0.00000000000E+00  0.13383255478E+04  0.19368176020E+04  0.14000525531E+04 0.  0.
        5    1    3    3  502    0  0.11574765443E+03  0.50094183640E+03  0.11980884655E+02  0.51430134606E+03  0.46999998093E+01 0.  1.
       -5    1    3    3    0  502 -0.11574765443E+03 -0.50094183640E+03  0.13263446632E+04  0.14225162560E+04  0.46999998093E+01 0. -1.
</event>
<event>
 5   0  0.3784219E-04  0.1418058E+04  0.7818609E-02  0.8940850E-01
       -1   -1    0    0    0  501  0.00000000000E+00  0.00000000000E+00  0.55257854065E+03  0.55257854067E+03  0.50400001928E-02 0. -1.
        1   -1    0    0  501    0  0.00000000000E+00  0.00000000000E+00 -0.90977463515E+03  0.90977463516E+03  0.50400001928E-02 0.  1.
    10030    2    1    2    0    0  0.00000000000E+00  0.00000000000E+00 -0.35719609450E+03  0.14623531758E+04  0.14180577425E+04 0.  0.
        1    1    3    3  502    0  0.13699528617E+03 -0.24239696689E+03 -0.85103865845E+03  0.89542771690E+03  0.50400001928E-02 0.  1.
       -1    1    3    3    0  502 -0.13699528617E+03  0.24239696689E+03  0.49384256395E+03  0.56692545893E+03  0.50400001928E-02 0. -1.
</event>
<event>
 5   0  0.3907270E-04  0.1390038E+04  0.7818609E-02  0.8961062E-01
        1   -1    0    0  501    0  0.00000000000E+00  0.00000000000E+00  0.51956240526E+03  0.51956240528E+03  0.50400001928E-02 0.  1.
       -1   -1    0    0    0  501  0.00000000000E+00  0.00000000000E+00 -0.92972689384E+03  0.92972689385E+03  0.50400001928E-02 0. -1.
    10030    2    1    2    0    0  0.00000000000E+00  0.00000000000E+00 -0.41016448858E+03  0.14492892991E+04  0.13900376128E+04 0.  0.
        3    1    3    3  502    0  0.58023398526E+03  0.35667005793E+03 -0.34942522550E+03  0.76549526863E+03  0.10100000352E+00 0.  1.
       -3    1    3    3    0  502 -0.58023398526E+03 -0.35667005793E+03 -0.60739263077E+02  0.68379403050E+03  0.10100000352E+00 0. -1.
</event>
<event>
 5   0  0.3977658E-04  0.1391494E+04  0.7818609E-02  0.8959999E-01
       -1   -1    0    0    0  501  0.00000000000E+00  0.00000000000E+00  0.37129938966E+03  0.37129938969E+03  0.50400001928E-02 0. -1.
        1   -1    0    0  501    0  0.00000000000E+00  0.00000000000E+00 -0.13037015188E+04  0.13037015188E+04  0.50400001928E-02 0.  1.
    10030    2    1    2    0    0  0.00000000000E+00  0.00000000000E+00 -0.93240212912E+03  0.16750009085E+04  0.13914935548E+04 0.  0.
        5    1    3    3  502    0  0.63496607984E+03 -0.84745371050E+02 -0.13946119104E+03  0.65561819245E+03  0.46999998093E+01 0. -1.
       -5    1    3    3    0  502 -0.63496607984E+03  0.84745371050E+02 -0.79294093808E+03  0.10193827160E+04  0.46999998093E+01 0.  1.
</event>
<event>
 5   0  0.6895048E-04  0.1430228E+04  0.7818609E-02  0.8932224E-01
       -2   -1    0    0    0  501  0.00000000000E+00  0.00000000000E+00  0.12971566454E+04  0.12971566454E+04  0.25500000920E-02 0. -1.
        2   -1    0    0  501    0  0.00000000000E+00  0.00000000000E+00 -0.39423743508E+03  0.39423743509E+03  0.25500000920E-02 0.  1.
    10030    2    1    2    0    0  0.00000000000E+00  0.00000000000E+00  0.90291921028E+03  0.16913940805E+04  0.14302275466E+04 0.  0.
        4    1    3    3  502    0  0.45872485792E+03  0.51676408583E+03  0.66924033275E+03  0.96195522326E+03  0.12699999809E+01 0. -1.
       -4    1    3    3    0  502 -0.45872485792E+03 -0.51676408583E+03  0.23367887753E+03  0.72943885719E+03  0.12699999809E+01 0.  1.
</event>
<event>
 5   0  0.7296966E-04  0.1400391E+04  0.7818609E-02  0.8953536E-01
       -2   -1    0    0    0  501  0.00000000000E+00  0.00000000000E+00  0.28994725077E+03  0.28994725078E+03  0.25500000920E-02 0. -1.
        2   -1    0    0  501    0  0.00000000000E+00  0.00000000000E+00 -0.16909063485E+04  0.16909063485E+04  0.25500000920E-02 0.  1.
    10030    2    1    2    0    0  0.00000000000E+00  0.00000000000E+00 -0.14009590978E+04  0.19808535993E+04  0.14003908698E+04 0.  0.
        3    1    3    3  502    0  0.17976314693E+03  0.50513628075E+03 -0.13374701136E+04  0.14409385019E+04  0.10100000352E+00 0.  1.
       -3    1    3    3    0  502 -0.17976314693E+03 -0.50513628075E+03 -0.63488984117E+02  0.53991509743E+03  0.10100000352E+00 0. -1.
</event>
<event>
 5   0  0.6870835E-04  0.1406993E+04  0.7818609E-02  0.8948772E-01
       -2   -1    0    0    0  501  0.00000000000E+00  0.00000000000E+00  0.10503388892E+04  0.10503388892E+04  0.25500000920E-02 0.  1.
        2   -1    0    0  501    0  0.00000000000E+00  0.00000000000E+00 -0.47118856007E+03  0.47118856007E+03  0.25500000920E-02 0. -1.
    10030    2    1    2    0    0  0.00000000000E+00  0.00000000000E+00  0.57915032912E+03  0.15215274493E+04  0.14069934880E+04 0.  0.
        2    1    3    3  502    0 -0.33564984639E+02 -0.32817621281E+03  0.96151000943E+03  0.10165272909E+04  0.25500000920E-02 0.  1.
       -2    1    3    3    0  502  0.33564984639E+02  0.32817621281E+03 -0.38235968030E+03  0.50500015839E+03  0.25500000920E-02 0. -1.
</event>
<event>
 5   0  0.7065539E-04  0.1395087E+04  0.7818609E-02  0.8957383E-01
       -2   -1    0    0    0  501  0.00000000000E+00  0.00000000000E+00  0.33434107678E+03  0.33434107679E+03  0.25500000920E-02 0.  1.
        2   -1    0    0  501    0  0.00000000000E+00  0.00000000000E+00 -0.14553006463E+04  0.14553006463E+04  0.25500000920E-02 0. -1.
    10030    2    1    2    0    0  0.00000000000E+00  0.00000000000E+00 -0.11209595695E+04  0.17896417231E+04  0.13950867860E+04 0.  0.
        1    1    3    3  502    0  0.31542201884E+03  0.58010838963E+03 -0.84889981240E+03  0.10754755623E+04  0.50400001928E-02 0.  1.
       -1    1    3    3    0  502 -0.31542201884E+03 -0.58010838963E+03 -0.27205975712E+03  0.71416616075E+03  0.50400001928E-02 0. -1.
</event>
<event>
 5   0  0.6959748E-04  0.1398721E+04  0.7818609E-02  0.8954745E-01
       -2   -1    0    0    0  501  0.00000000000E+00  0.00000000000E+00  0.18601218966E+04  0.18601218966E+04  0.25500000920E-02 0.  1.
        2   -1    0    0  501    0  0.00000000000E+00  0.00000000000E+00 -0.26294234458E+03  0.26294234459E+03  0.25500000920E-02 0. -1.
    10030    2    1    2    0    0  0.00000000000E+00  0.00000000000E+00  0.15971795520E+04  0.21230642412E+04  0.13987205764E+04 0.  0.
        5    1    3    3  502    0  0.35185496628E+02 -0.31202215300E+03 -0.14990598616E+03  0.34797950776E+03  0.46999998093E+01 0. -1.
       -5    1    3    3    0  502 -0.35185496628E+02  0.31202215300E+03  0.17470855382E+04  0.17750847334E+04  0.46999998093E+01 0.  1.
</event>
<event>
 5   0  0.7296966E-04  0.1412075E+04  0.7818609E-02  0.8945124E-01
       -2   -1    0    0    0  501  0.00000000000E+00  0.00000000000E+00  0.30457580480E+03  0.30457580481E+03  0.25500000920E-02 0. -1.
        2   -1    0    0  501    0  0.00000000000E+00  0.00000000000E+00 -0.16366658436E+04  0.16366658436E+04  0.25500000920E-02 0.  1.
    10030    2    1    2    0    0  0.00000000000E+00  0.00000000000E+00 -0.13320900388E+04  0.19412416484E+04  0.14120748089E+04 0.  0.
        3    1    3    3  502    0 -0.75349721008E+02 -0.47586141476E+02  0.29681268941E+03  0.30990289465E+03  0.10100000352E+00 0. -1.
       -3    1    3    3    0  502  0.75349721008E+02  0.47586141476E+02 -0.16289027282E+04  0.16313387537E+04  0.10100000352E+00 0.  1.
</event>
<event>
 5   0  0.3784219E-04  0.1397673E+04  0.7818609E-02  0.8955505E-01
        1   -1    0    0  501    0  0.00000000000E+00  0.00000000000E+00  0.16808504656E+04  0.16808504656E+04  0.50400001928E-02 0.  1.
       -1   -1    0    0    0  501  0.00000000000E+00  0.00000000000E+00 -0.29055067292E+03  0.29055067297E+03  0.50400001928E-02 0. -1.
    10030    2    1    2    0    0  0.00000000000E+00  0.00000000000E+00  0.13902997927E+04  0.19714011386E+04  0.13976726855E+04 0.  0.
        1    1    3    3  502    0 -0.27327337764E+03 -0.50330777794E+02 -0.20928087036E+03  0.34786492902E+03  0.50400001928E-02 0. -1.
       -1    1    3    3    0  502  0.27327337764E+03  0.50330777794E+02  0.15995806630E+04  0.16235362096E+04  0.50400001928E-02 0.  1.
</event>
<event>
 5   0  0.3907270E-04  0.1394444E+04  0.7818609E-02  0.8957850E-01
       -1   -1    0    0    0  501  0.00000000000E+00  0.00000000000E+00  0.10002693230E+04  0.10002693230E+04  0.50400001928E-02 0.  1.
        1   -1    0    0  501    0  0.00000000000E+00  0.00000000000E+00 -0.48598797607E+03  0.48598797610E+03  0.50400001928E-02 0. -1.
    10030    2    1    2    0    0  0.00000000000E+00  0.00000000000E+00  0.51428134690E+03  0.14862572991E+04  0.13944444970E+04 0.  0.
        3    1    3    3  502    0  0.57717750342E+03 -0.37262971987E+03  0.13043509522E+03  0.69928542302E+03  0.10100000352E+00 0. -1.
       -3    1    3    3    0  502 -0.57717750342E+03  0.37262971987E+03  0.38384625168E+03  0.78697187606E+03  0.10100000352E+00 0.  1.
</event>
<event>
 5   0  0.3977658E-04  0.1387112E+04  0.7818609E-02  0.8963200E-01
       -1   -1    0    0    0  501  0.00000000000E+00  0.00000000000E+00  0.30250212218E+03  0.30250212222E+03  0.50400001928E-02 0. -1.
        1   -1    0    0  501    0  0.00000000000E+00  0.00000000000E+00 -0.15901382048E+04  0.15901382048E+04  0.50400001928E-02 0.  1.
    10030    2    1    2    0    0  0.00000000000E+00  0.00000000000E+00 -0.12876360826E+04  0.18926403270E+04  0.13871123697E+04 0.  0.
        5    1    3    3  502    0  0.56743185485E+02 -0.20497167765E+03  0.25688696083E+03  0.33353587270E+03  0.46999998093E+01 0. -1.
       -5    1    3    3    0  502 -0.56743185485E+02  0.20497167765E+03 -0.15445230434E+04  0.15591044543E+04  0.46999998093E+01 0.  1.
</event>
<event>
 5   0  0.3907270E-04  0.1397247E+04  0.7818609E-02  0.8955814E-01
        1   -1    0    0  501    0  0.00000000000E+00  0.00000000000E+00  0.19271665566E+04  0.19271665566E+04  0.50400001928E-02 0. -1.
       -1   -1    0    0    0  501  0.00000000000E+00  0.00000000000E+00 -0.25326024458E+03  0.25326024463E+03  0.50400001928E-02 0.  1.
    10030    2    1    2    0    0  0.00000000000E+00  0.00000000000E+00  0.16739063121E+04  0.21804268013E+04  0.13972468265E+04 0.  0.
        3    1    3    3  502    0  0.53779675338E+03 -0.44107738959E+03  0.93928368598E+03  0.11687722039E+04  0.10100000352E+00 0. -1.
       -3    1    3    3    0  502 -0.53779675338E+03  0.44107738959E+03  0.73462262608E+03  0.10116545974E+04  0.10100000352E+00 0.  1.
</event>
<event>
 5   0  0.6870835E-04  0.1400292E+04  0.7818609E-02  0.8953607E-01
       -2   -1    0    0    0  501  0.00000000000E+00  0.00000000000E+00  0.55935693332E+03  0.55935693333E+03  0.25500000920E-02 0. -1.
        2   -1    0    0  501    0  0.00000000000E+00  0.00000000000E+00 -0.87637184273E+03  0.87637184273E+03  0.25500000920E-02 0.  1.
    10030    2    1    2    0    0  0.00000000000E+00  0.00000000000E+00 -0.31701490941E+03  0.14357287761E+04  0.14002923501E+04 0.  0.
        2    1    3    3  502    0  0.12900708337E+02 -0.43707887530E+03 -0.71915444755E+03  0.84165758533E+03  0.25500000920E-02 0.  1.
       -2    1    3    3    0  502 -0.12900708337E+02  0.43707887530E+03  0.40213953815E+03  0.59407119073E+03  0.25500000920E-02 0. -1.
</event>
<event>
 5   0  0.7296966E-04  0.1400893E+04  0.7818609E-02  0.8953173E-01
        2   -1    0    0  501    0  0.00000000000E+00  0.00000000000E+00  0.12966092866E+04  0.12966092866E+04  0.25500000920E-02 0.  1.
       -2   -1    0    0    0  501  0.00000000000E+00  0.00000000000E+00 -0.37839077831E+03  0.37839077831E+03  0.25500000920E-02 0. -1.
    10030    2    1    2    0    0  0.00000000000E+00  0.00000000000E+00  0.91821850827E+03  0.16750000649E+04  0.14008925685E+04 0.  0.
        3    1    3    3  502    0  0.29567158455E+03  0.38265507911E+03  0.10649929051E+04  0.11696394716E+04  0.10100000352E+00 0.  1.
       -3    1    3    3    0  502 -0.29567158455E+03 -0.38265507911E+03 -0.14677439681E+03  0.50536059328E+03  0.10100000352E+00 0. -1.
</event>
<event>
 5   0  0.3907270E-04  0.1404027E+04  0.7818609E-02  0.8950908E-01
       -1   -1    0    0    0  501  0.00000000000E+00  0.00000000000E+00  0.70100741554E+03  0.70100741555E+03  0.50400001928E-02 0.  1.
        1   -1    0    0  501    0  0.00000000000E+00  0.00000000000E+00 -0.70302148326E+03  0.70302148328E+03  0.50400001928E-02 0. -1.
    10030    2    1    2    0    0  0.00000000000E+00  0.00000000000E+00 -0.20140677208E+01  0.14040288988E+04  0.14040274542E+04 0.  0.
        3    1    3    3  502    0  0.29399118291E+03  0.57097832168E+02  0.63392061112E+03  0.70110365101E+03  0.10100000352E+00 0.  1.
       -3    1    3    3    0  502 -0.29399118291E+03 -0.57097832168E+02 -0.63593467884E+03  0.70292524782E+03  0.10100000352E+00 0. -1.
</event>
<event>
 5   0  0.3756664E-04  0.1373984E+04  0.7818609E-02  0.8972868E-01
       -1   -1    0    0    0  501  0.00000000000E+00  0.00000000000E+00  0.88569992084E+03  0.88569992085E+03  0.50400001928E-02 0. -1.
        1   -1    0    0  501    0  0.00000000000E+00  0.00000000000E+00 -0.53286448946E+03  0.53286448948E+03  0.50400001928E-02 0.  1.
    10030    2    1    2    0    0  0.00000000000E+00  0.00000000000E+00  0.35283543138E+03  0.14185644103E+04  0.13739840409E+04 0.  0.
        2    1    3    3  502    0  0.45543808158E+02  0.42962771772E+03  0.72788679437E+03  0.84644751740E+03  0.25500000920E-02 0. -1.
       -2    1    3    3    0  502 -0.45543808158E+02 -0.42962771772E+03 -0.37505136299E+03  0.57211689293E+03  0.25500000920E-02 0.  1.
</event>
<event>
 5   0  0.6870835E-04  0.1391567E+04  0.7818609E-02  0.8959946E-01
       -2   -1    0    0    0  501  0.00000000000E+00  0.00000000000E+00  0.86892294734E+03  0.86892294735E+03  0.25500000920E-02 0.  1.
        2   -1    0    0  501    0  0.00000000000E+00  0.00000000000E+00 -0.55714303242E+03  0.55714303243E+03  0.25500000920E-02 0. -1.
    10030    2    1    2    0    0  0.00000000000E+00  0.00000000000E+00  0.31177991492E+03  0.14260659798E+04  0.13915665501E+04 0.  0.
        2    1    3    3  502    0  0.28864880951E+03  0.43186635474E+03  0.63027855575E+03  0.81674827299E+03  0.25500000920E-02 0.  1.
       -2    1    3    3    0  502 -0.28864880951E+03 -0.43186635474E+03 -0.31849864083E+03  0.60931770679E+03  0.25500000920E-02 0. -1.
</event>
<event>
 5   0  0.3907093E-04  0.1392144E+04  0.7818609E-02  0.8959525E-01
       -1   -1    0    0    0  501  0.00000000000E+00  0.00000000000E+00  0.79442475066E+03  0.79442475068E+03  0.50400001928E-02 0.  1.
        1   -1    0    0  501    0  0.00000000000E+00  0.00000000000E+00 -0.60989528624E+03  0.60989528626E+03  0.50400001928E-02 0. -1.
    10030    2    1    2    0    0  0.00000000000E+00  0.00000000000E+00  0.18452946442E+03  0.14043200369E+04  0.13921435425E+04 0.  0.
        4    1    3    3  502    0 -0.45618266762E+03 -0.50855404808E+03  0.22678952014E+03  0.71983674914E+03  0.12699999809E+01 0.  1.
       -4    1    3    3    0  502  0.45618266762E+03  0.50855404808E+03 -0.42260055713E+02  0.68448328780E+03  0.12699999809E+01 0. -1.
</event>
<event>
 5   0  0.2660250E-04  0.1399281E+04  0.7818609E-02  0.8954339E-01
        3   -1    0    0  501    0  0.00000000000E+00  0.00000000000E+00  0.59635146863E+03  0.59635147719E+03  0.10100000352E+00 0.  1.
       -3   -1    0    0    0  501  0.00000000000E+00  0.00000000000E+00 -0.82081988213E+03  0.82081988834E+03  0.10100000352E+00 0. -1.
    10030    2    1    2    0    0  0.00000000000E+00  0.00000000000E+00 -0.22446841350E+03  0.14171713655E+04  0.13992814623E+04 0.  0.
        1    1    3    3  502    0  0.11131546502E+03  0.33971382097E+03 -0.72133878868E+03  0.80506289257E+03  0.50400001928E-02 0. -1.
       -1    1    3    3    0  502 -0.11131546502E+03 -0.33971382097E+03  0.49687037518E+03  0.61210847296E+03  0.50400001928E-02 0.  1.
</event>
<event>
 5   0  0.7065539E-04  0.1406605E+04  0.7818609E-02  0.8949051E-01
       -2   -1    0    0    0  501  0.00000000000E+00  0.00000000000E+00  0.70697922721E+03  0.70697922721E+03  0.25500000920E-02 0. -1.
        2   -1    0    0  501    0  0.00000000000E+00  0.00000000000E+00 -0.69964529188E+03  0.69964529188E+03  0.25500000920E-02 0.  1.
    10030    2    1    2    0    0  0.00000000000E+00  0.00000000000E+00  0.73339353324E+01  0.14066245191E+04  0.14066053999E+04 0.  0.
        1    1    3    3  502    0 -0.13344313547E+03  0.32919861795E+03  0.61068089153E+03  0.70647714172E+03  0.50400001928E-02 0. -1.
       -1    1    3    3    0  502  0.13344313547E+03 -0.32919861795E+03 -0.60334695620E+03  0.70014737738E+03  0.50400001928E-02 0.  1.
</event>
<event>
 5   0  0.3907093E-04  0.1403525E+04  0.7818609E-02  0.8951271E-01
       -1   -1    0    0    0  501  0.00000000000E+00  0.00000000000E+00  0.52037248087E+03  0.52037248090E+03  0.50400001928E-02 0. -1.
        1   -1    0    0  501    0  0.00000000000E+00  0.00000000000E+00 -0.94638082341E+03  0.94638082342E+03  0.50400001928E-02 0.  1.
    10030    2    1    2    0    0  0.00000000000E+00  0.00000000000E+00 -0.42600834254E+03  0.14667533043E+04  0.14035249010E+04 0.  0.
        4    1    3    3  502    0 -0.78618417866E+02 -0.69475961269E+03 -0.15032602163E+03  0.71517221753E+03  0.12699999809E+01 0. -1.
       -4    1    3    3    0  502  0.78618417866E+02  0.69475961269E+03 -0.27568232090E+03  0.75158108678E+03  0.12699999809E+01 0.  1.
</event>
<event>
 5   0  0.3784219E-04  0.1398705E+04  0.7818609E-02  0.8954757E-01
        1   -1    0    0  501    0  0.00000000000E+00  0.00000000000E+00  0.12114409314E+04  0.12114409314E+04  0.50400001928E-02 0. -1.
       -1   -1    0    0    0  501  0.00000000000E+00  0.00000000000E+00 -0.40372896515E+03  0.40372896518E+03  0.50400001928E-02 0.  1.
    10030    2    1    2    0    0  0.00000000000E+00  0.00000000000E+00  0.80771196628E+03  0.16151698966E+04  0.13987048204E+04 0.  0.
        1    1    3    3  502    0 -0.33193108594E+03 -0.41896986324E+03  0.92462609316E+03  0.10680109570E+04  0.50400001928E-02 0. -1.
       -1    1    3    3    0  502  0.33193108594E+03  0.41896986324E+03 -0.11691412687E+03  0.54715893962E+03  0.50400001928E-02 0.  1.
</event>
<event>
 5   0  0.3756664E-04  0.1443373E+04  0.7818609E-02  0.8923008E-01
        1   -1    0    0  501    0  0.00000000000E+00  0.00000000000E+00  0.11707667832E+04  0.11707667832E+04  0.50400001928E-02 0. -1.
       -1   -1    0    0    0  501  0.00000000000E+00  0.00000000000E+00 -0.44486372627E+03  0.44486372629E+03  0.50400001928E-02 0.  1.
    10030    2    1    2    0    0  0.00000000000E+00  0.00000000000E+00  0.72590305697E+03  0.16156305095E+04  0.14433733735E+04 0.  0.
        2    1    3    3  502    0  0.43792365353E+03 -0.64328816431E+02  0.10009933407E+04  0.10944875472E+04  0.25500000920E-02 0. -1.
       -2    1    3    3    0  502 -0.43792365353E+03  0.64328816431E+02 -0.27509028373E+03  0.52114296230E+03  0.25500000920E-02 0.  1.
</event>
<event>
 5   0  0.7065539E-04  0.1403247E+04  0.7818609E-02  0.8951472E-01
        2   -1    0    0  501    0  0.00000000000E+00  0.00000000000E+00  0.68326521661E+03  0.68326521661E+03  0.25500000920E-02 0. -1.
       -2   -1    0    0    0  501  0.00000000000E+00  0.00000000000E+00 -0.72047461915E+03  0.72047461915E+03  0.25500000920E-02 0.  1.
    10030    2    1    2    0    0  0.00000000000E+00  0.00000000000E+00 -0.37209402540E+02  0.14037398358E+04  0.14032465880E+04 0.  0.
        1    1    3    3  502    0 -0.17455261890E+03 -0.37467296348E+03  0.54853973017E+03  0.68683643026E+03  0.50400001928E-02 0. -1.
       -1    1    3    3    0  502  0.17455261890E+03  0.37467296348E+03 -0.58574913271E+03  0.71690340550E+03  0.50400001928E-02 0.  1.
</event>
<event>
 5   0  0.6959748E-04  0.1434959E+04  0.7818609E-02  0.8928895E-01
       -2   -1    0    0    0  501  0.00000000000E+00  0.00000000000E+00  0.11467482716E+04  0.11467482716E+04  0.25500000920E-02 0. -1.
        2   -1    0    0  501    0  0.00000000000E+00  0.00000000000E+00 -0.44890164625E+03  0.44890164626E+03  0.25500000920E-02 0.  1.
    10030    2    1    2    0    0  0.00000000000E+00  0.00000000000E+00  0.69784662538E+03  0.15956499179E+04  0.14349594935E+04 0.  0.
        5    1    3    3  502    0  0.25346464649E+03 -0.83293843822E+02 -0.39167117915E+03  0.47393100132E+03  0.46999998093E+01 0.  1.
       -5    1    3    3    0  502 -0.25346464649E+03  0.83293843822E+02  0.10895178045E+04  0.11217189166E+04  0.46999998093E+01 0. -1.
</event>
<event>
 5   0  0.3907270E-04  0.1416179E+04  0.7818609E-02  0.8942190E-01
       -1   -1    0    0    0  501  0.00000000000E+00  0.00000000000E+00  0.66262449209E+03  0.66262449211E+03  0.50400001928E-02 0. -1.
        1   -1    0    0  501    0  0.00000000000E+00  0.00000000000E+00 -0.75667371398E+03  0.75667371399E+03  0.50400001928E-02 0.  1.
    10030    2    1    2    0    0  0.00000000000E+00  0.00000000000E+00 -0.94049221887E+02  0.14192982061E+04  0.14161787111E+04 0.  0.
        3    1    3    3  502    0 -0.31059256944E+03 -0.39252191654E+03  0.45492724187E+03  0.67638746644E+03  0.10100000352E+00 0. -1.
       -3    1    3    3    0  502  0.31059256944E+03  0.39252191654E+03 -0.54897646376E+03  0.74291073967E+03  0.10100000352E+00 0.  1.
</event>
<event>
 5   0  0.6895048E-04  0.1399092E+04  0.7818609E-02  0.8954476E-01
        2   -1    0    0  501    0  0.00000000000E+00  0.00000000000E+00  0.11526022452E+04  0.11526022452E+04  0.25500000920E-02 0. -1.
       -2   -1    0    0    0  501  0.00000000000E+00  0.00000000000E+00 -0.42457376125E+03  0.42457376126E+03  0.25500000920E-02 0.  1.
    10030    2    1    2    0    0  0.00000000000E+00  0.00000000000E+00  0.72802848393E+03  0.15771760064E+04  0.13990920920E+04 0.  0.
        4    1    3    3  502    0  0.56207216765E+03  0.17108148623E+03 -0.64011505715E+02  0.59101022186E+03  0.12699999809E+01 0.  1.
       -4    1    3    3    0  502 -0.56207216765E+03 -0.17108148623E+03  0.79203998965E+03  0.98616578458E+03  0.12699999809E+01 0. -1.
</event>
<event>
 5   0  0.3907093E-04  0.1372220E+04  0.7818609E-02  0.8974176E-01
       -1   -1    0    0    0  501  0.00000000000E+00  0.00000000000E+00  0.82262740861E+03  0.82262740863E+03  0.50400001928E-02 0.  1.
        1   -1    0    0  501    0  0.00000000000E+00  0.00000000000E+00 -0.57224781609E+03  0.57224781612E+03  0.50400001928E-02 0. -1.
    10030    2    1    2    0    0  0.00000000000E+00  0.00000000000E+00  0.25037959252E+03  0.13948752247E+04  0.13722197172E+04 0.  0.
        4    1    3    3  502    0  0.20122140224E+03  0.24426249869E+03  0.74400230372E+03  0.80851423106E+03  0.12699999809E+01 0.  1.
       -4    1    3    3    0  502 -0.20122140224E+03 -0.24426249869E+03 -0.49362271121E+03  0.58636099368E+03  0.12699999809E+01 0. -1.
</event>
<event>
 5   0  0.3977658E-04  0.1385932E+04  0.7818609E-02  0.8964065E-01
        1   -1    0    0  501    0  0.00000000000E+00  0.00000000000E+00  0.10219150439E+04  0.10219150439E+04  0.50400001928E-02 0. -1.
       -1   -1    0    0    0  501  0.00000000000E+00  0.00000000000E+00 -0.46990423574E+03  0.46990423577E+03  0.50400001928E-02 0.  1.
    10030    2    1    2    0    0  0.00000000000E+00  0.00000000000E+00  0.55201080816E+03  0.14918192797E+04  0.13859324770E+04 0.  0.
        5    1    3    3  502    0  0.16569460822E+03  0.21995949798E+03  0.96046723346E+03  0.99917780224E+03  0.46999998093E+01 0. -1.
       -5    1    3    3    0  502 -0.16569460822E+03 -0.21995949798E+03 -0.40845642529E+03  0.49264147745E+03  0.46999998093E+01 0.  1.
</event>
<event>
 5   0  0.3756664E-04  0.1392219E+04  0.7818609E-02  0.8959470E-01
        1   -1    0    0  501    0  0.00000000000E+00  0.00000000000E+00  0.43595697436E+03  0.43595697439E+03  0.50400001928E-02 0.  1.
       -1   -1    0    0    0  501  0.00000000000E+00  0.00000000000E+00 -0.11115048522E+04  0.11115048522E+04  0.50400001928E-02 0. -1.
    10030    2    1    2    0    0  0.00000000000E+00  0.00000000000E+00 -0.67554787780E+03  0.15474618266E+04  0.13922187937E+04 0.  0.
        2    1    3    3  502    0  0.55336181272E+02  0.42956208455E+03  0.26795450227E+03  0.50929882460E+03  0.25500000920E-02 0.  1.
       -2    1    3    3    0  502 -0.55336181272E+02 -0.42956208455E+03 -0.94350238007E+03  0.10381630020E+04  0.25500000920E-02 0. -1.
</event>
<event>
 5   0  0.3756664E-04  0.1411776E+04  0.7818609E-02  0.8945339E-01
        1   -1    0    0  501    0  0.00000000000E+00  0.00000000000E+00  0.13926127053E+04  0.13926127053E+04  0.50400001928E-02 0.  1.
       -1   -1    0    0    0  501  0.00000000000E+00  0.00000000000E+00 -0.35780062156E+03  0.35780062160E+03  0.50400001928E-02 0. -1.
    10030    2    1    2    0    0  0.00000000000E+00  0.00000000000E+00  0.10348120837E+04  0.17504133269E+04  0.14117757493E+04 0.  0.
        2    1    3    3  502    0 -0.20261658657E+03  0.28597107758E+03  0.12771161650E+04  0.13243332803E+04  0.25500000920E-02 0.  1.
       -2    1    3    3    0  502  0.20261658657E+03 -0.28597107758E+03 -0.24230408123E+03  0.42608004665E+03  0.25500000920E-02 0. -1.
</event>
<event>
 5   0  0.3977658E-04  0.1391750E+04  0.7818609E-02  0.8959812E-01
       -1   -1    0    0    0  501  0.00000000000E+00  0.00000000000E+00  0.26896501832E+03  0.26896501837E+03  0.50400001928E-02 0. -1.
        1   -1    0    0  501    0  0.00000000000E+00  0.00000000000E+00 -0.18003901793E+04  0.18003901793E+04  0.50400001928E-02 0.  1.
    10030    2    1    2    0    0  0.00000000000E+00  0.00000000000E+00 -0.15314251610E+04  0.20693551977E+04  0.13917499454E+04 0.  0.
        5    1    3    3  502    0  0.55723118554E+03 -0.41547844834E+03 -0.71660181079E+03  0.99833320109E+03  0.46999998093E+01 0.  1.
       -5    1    3    3    0  502 -0.55723118554E+03  0.41547844834E+03 -0.81482335020E+03  0.10710219966E+04  0.46999998093E+01 0. -1.
</event>
<event>
 5   0  0.3977658E-04  0.1397565E+04  0.7818609E-02  0.8955583E-01
       -1   -1    0    0    0  501  0.00000000000E+00  0.00000000000E+00  0.39512032915E+03  0.39512032918E+03  0.50400001928E-02 0.  1.
        1   -1    0    0  501    0  0.00000000000E+00  0.00000000000E+00 -0.12358182829E+04  0.12358182829E+04  0.50400001928E-02 0. -1.
    10030    2    1    2    0    0  0.00000000000E+00  0.00000000000E+00 -0.84069795373E+03  0.16309386121E+04  0.13975649205E+04 0.  0.
        5    1    3    3  502    0  0.15477928324E+03 -0.88025064961E+02 -0.12088807789E+04  0.12219328403E+04  0.46999998093E+01 0. -1.
       -5    1    3    3    0  502 -0.15477928324E+03  0.88025064961E+02  0.36818282518E+03  0.40900577177E+03  0.46999998093E+01 0.  1.
</event>
<event>
 5   0  0.3756664E-04  0.1407000E+04  0.7818609E-02  0.8948767E-01
        1   -1    0    0  501    0  0.00000000000E+00  0.00000000000E+00  0.11119693897E+04  0.11119693897E+04  0.50400001928E-02 0. -1.
       -1   -1    0    0    0  501  0.00000000000E+00  0.00000000000E+00 -0.44507731158E+03  0.44507731161E+03  0.50400001928E-02 0.  1.
    10030    2    1    2    0    0  0.00000000000E+00  0.00000000000E+00  0.66689207815E+03  0.15570467014E+04  0.14070001373E+04 0.  0.
        2    1    3    3  502    0  0.65289404140E+03 -0.25968207874E+03  0.37189189078E+03  0.79498993059E+03  0.25500000920E-02 0. -1.
       -2    1    3    3    0  502 -0.65289404140E+03  0.25968207874E+03  0.29500018738E+03  0.76205677076E+03  0.25500000920E-02 0.  1.
</event>
<event>
 5   0  0.3756664E-04  0.1362896E+04  0.7818609E-02  0.8981123E-01
        1   -1    0    0  501    0  0.00000000000E+00  0.00000000000E+00  0.11118797800E+04  0.11118797801E+04  0.50400001928E-02 0. -1.
       -1   -1    0    0    0  501  0.00000000000E+00  0.00000000000E+00 -0.41764509774E+03  0.41764509777E+03  0.50400001928E-02 0.  1.
    10030    2    1    2    0    0  0.00000000000E+00  0.00000000000E+00  0.69423468230E+03  0.15295248778E+04  0.13628956518E+04 0.  0.
        2    1    3    3  502    0 -0.18261344406E+03 -0.20986205581E+03  0.10452516441E+04  0.10816379949E+04  0.25500000920E-02 0. -1.
       -2    1    3    3    0  502  0.18261344406E+03  0.20986205581E+03 -0.35101696182E+03  0.44788688294E+03  0.25500000920E-02 0.  1.
</event>
<event>
 5   0  0.2660250E-04  0.1403140E+04  0.7818609E-02  0.8951549E-01
        4   -1    0    0  501    0  0.00000000000E+00  0.00000000000E+00  0.42586570745E+03  0.42586760112E+03  0.12699999809E+01 0.  1.
       -4   -1    0    0    0  501  0.00000000000E+00  0.00000000000E+00 -0.11557591106E+04  0.11557598083E+04  0.12699999809E+01 0. -1.
    10030    2    1    2    0    0  0.00000000000E+00  0.00000000000E+00 -0.72989340312E+03  0.15816274095E+04  0.14031396518E+04 0.  0.
        4    1    3    3  502    0 -0.15821273525E+03  0.65569712028E+03 -0.14745545592E+03  0.69044529654E+03  0.12699999809E+01 0.  1.
       -4    1    3    3    0  502  0.15821273525E+03 -0.65569712028E+03 -0.58243794720E+03  0.89118211292E+03  0.12699999809E+01 0. -1.
</event>
<event>
 5   0  0.7065539E-04  0.1403333E+04  0.7818609E-02  0.8951410E-01
        2   -1    0    0  501    0  0.00000000000E+00  0.00000000000E+00  0.10821244012E+04  0.10821244012E+04  0.25500000920E-02 0. -1.
       -2   -1    0    0    0  501  0.00000000000E+00  0.00000000000E+00 -0.45497143430E+03  0.45497143430E+03  0.25500000920E-02 0.  1.
    10030    2    1    2    0    0  0.00000000000E+00  0.00000000000E+00  0.62715296688E+03  0.15370958355E+04  0.14033327345E+04 0.  0.
        1    1    3    3  502    0 -0.68644123386E+03 -0.97822694104E+02  0.19578600747E+03  0.72048803444E+03  0.50400001928E-02 0. -1.
       -1    1    3    3    0  502  0.68644123386E+03  0.97822694104E+02  0.43136695941E+03  0.81660780104E+03  0.50400001928E-02 0.  1.
</event>
<event>
 5   0  0.3977658E-04  0.1404069E+04  0.7818609E-02  0.8950879E-01
       -1   -1    0    0    0  501  0.00000000000E+00  0.00000000000E+00  0.27816716097E+03  0.27816716102E+03  0.50400001928E-02 0.  1.
        1   -1    0    0  501    0  0.00000000000E+00  0.00000000000E+00 -0.17717839399E+04  0.17717839399E+04  0.50400001928E-02 0. -1.
    10030    2    1    2    0    0  0.00000000000E+00  0.00000000000E+00 -0.14936167789E+04  0.20499511009E+04  0.14040685289E+04 0.  0.
        5    1    3    3  502    0  0.42513925614E+03  0.33410347295E+03 -0.93120129578E+02  0.54869113924E+03  0.46999998093E+01 0.  1.
       -5    1    3    3    0  502 -0.42513925614E+03 -0.33410347295E+03 -0.14004966493E+04  0.15012599617E+04  0.46999998093E+01 0. -1.
</event>
<event>
 5   0  0.3756664E-04  0.1389047E+04  0.7818609E-02  0.8961785E-01
       -1   -1    0    0    0  501  0.00000000000E+00  0.00000000000E+00  0.42427125521E+03  0.42427125524E+03  0.50400001928E-02 0.  1.
        1   -1    0    0  501    0  0.00000000000E+00  0.00000000000E+00 -0.11369212489E+04  0.11369212489E+04  0.50400001928E-02 0. -1.
    10030    2    1    2    0    0  0.00000000000E+00  0.00000000000E+00 -0.71264999370E+03  0.15611925042E+04  0.13890471632E+04 0.  0.
        2    1    3    3  502    0  0.52270536016E+03  0.45105041989E+03 -0.44114736063E+03  0.81931579297E+03  0.25500000920E-02 0.  1.
       -2    1    3    3    0  502 -0.52270536016E+03 -0.45105041989E+03 -0.27150263307E+03  0.74187671118E+03  0.25500000920E-02 0. -1.
</event>
<event>
 5   0  0.3784219E-04  0.1441749E+04  0.7818609E-02  0.8924141E-01
        1   -1    0    0  501    0  0.00000000000E+00  0.00000000000E+00  0.13771204241E+04  0.13771204241E+04  0.50400001928E-02 0. -1.
       -1   -1    0    0    0  501  0.00000000000E+00  0.00000000000E+00 -0.37735261196E+03  0.37735261199E+03  0.50400001928E-02 0.  1.
    10030    2    1    2    0    0  0.00000000000E+00  0.00000000000E+00  0.99976781214E+03  0.17544730361E+04  0.14417489227E+04 0.  0.
        1    1    3    3  502    0  0.13986329512E+02 -0.69710426050E+03  0.27712020928E+03  0.75029699309E+03  0.50400001928E-02 0. -1.
       -1    1    3    3    0  502 -0.13986329512E+02  0.69710426050E+03  0.72264760286E+03  0.10041760430E+04  0.50400001928E-02 0.  1.
</event>
<event>
 5   0  0.6959748E-04  0.1397259E+04  0.7818609E-02  0.8955805E-01
       -2   -1    0    0    0  501  0.00000000000E+00  0.00000000000E+00  0.20204695571E+03  0.20204695572E+03  0.25500000920E-02 0.  1.
        2   -1    0    0  501    0  0.00000000000E+00  0.00000000000E+00 -0.24156920085E+04  0.24156920085E+04  0.25500000920E-02 0. -1.
    10030    2    1    2    0    0  0.00000000000E+00  0.00000000000E+00 -0.22136450528E+04  0.26177389643E+04  0.13972590544E+04 0.  0.
        5    1    3    3  502    0 -0.66869951339E+03  0.13701207326E+03 -0.13855231508E+04  0.15445477781E+04  0.46999998093E+01 0. -1.
       -5    1    3    3    0  502  0.66869951339E+03 -0.13701207326E+03 -0.82812190201E+03  0.10731911861E+04  0.46999998093E+01 0.  1.
</event>
<event>
 5   0  0.6959748E-04  0.1392754E+04  0.7818609E-02  0.8959080E-01
       -2   -1    0    0    0  501  0.00000000000E+00  0.00000000000E+00  0.82882386261E+03  0.82882386261E+03  0.25500000920E-02 0.  1.
        2   -1    0    0  501    0  0.00000000000E+00  0.00000000000E+00 -0.58509562835E+03  0.58509562835E+03  0.25500000920E-02 0. -1.
    10030    2    1    2    0    0  0.00000000000E+00  0.00000000000E+00  0.24372823426E+03  0.14139194910E+04  0.13927544201E+04 0.  0.
        5    1    3    3  502    0  0.37158322421E+03  0.62597813935E+02  0.71636251823E+03  0.80943803119E+03  0.46999998093E+01 0.  1.
       -5    1    3    3    0  502 -0.37158322421E+03 -0.62597813935E+02 -0.47263428397E+03  0.60448145977E+03  0.46999998093E+01 0. -1.
</event>
<event>
 5   0  0.6895048E-04  0.1407211E+04  0.7818609E-02  0.8948615E-01
       -2   -1    0    0    0  501  0.00000000000E+00  0.00000000000E+00  0.11731050325E+04  0.11731050325E+04  0.25500000920E-02 0.  1.
        2   -1    0    0  501    0  0.00000000000E+00  0.00000000000E+00 -0.42200899291E+03  0.42200899292E+03  0.25500000920E-02 0. -1.
    10030    2    1    2    0    0  0.00000000000E+00  0.00000000000E+00  0.75109603957E+03  0.15951140254E+04  0.14072112469E+04 0.  0.
        4    1    3    3  502    0 -0.45735229426E+03 -0.43441953624E+03  0.22207344781E+02  0.63117844829E+03  0.12699999809E+01 0. -1.
       -4    1    3    3    0  502  0.45735229426E+03  0.43441953624E+03  0.72888869479E+03  0.96393557711E+03  0.12699999809E+01 0.  1.
</event>
<event>
 5   0  0.3977658E-04  0.1375657E+04  0.7818609E-02  0.8971630E-01
        1   -1    0    0  501    0  0.00000000000E+00  0.00000000000E+00  0.40593979715E+03  0.40593979718E+03  0.50400001928E-02 0. -1.
       -1   -1    0    0    0  501  0.00000000000E+00  0.00000000000E+00 -0.11654629404E+04  0.11654629404E+04  0.50400001928E-02 0.  1.
    10030    2    1    2    0    0  0.00000000000E+00  0.00000000000E+00 -0.75952314322E+03  0.15714027376E+04  0.13756566281E+04 0.  0.
        5    1    3    3  502    0  0.63224910415E+03  0.22750506295E+03 -0.54759784985E+03  0.86682349906E+03  0.46999998093E+01 0.  1.
       -5    1    3    3    0  502 -0.63224910415E+03 -0.22750506295E+03 -0.21192529336E+03  0.70457923850E+03  0.46999998093E+01 0. -1.
</event>
<event>
 5   0  0.6870835E-04  0.1399795E+04  0.7818609E-02  0.8953967E-01
        2   -1    0    0  501    0  0.00000000000E+00  0.00000000000E+00  0.13688200467E+04  0.13688200467E+04  0.25500000920E-02 0. -1.
       -2   -1    0    0    0  501  0.00000000000E+00  0.00000000000E+00 -0.35786764371E+03  0.35786764372E+03  0.25500000920E-02 0.  1.
    10030    2    1    2    0    0  0.00000000000E+00  0.00000000000E+00  0.10109524030E+04  0.17266876904E+04  0.13997948490E+04 0.  0.
        2    1    3    3  502    0  0.18033685151E+03 -0.59633863899E+03  0.89888352697E+03  0.10936785394E+04  0.25500000920E-02 0.  1.
       -2    1    3    3    0  502 -0.18033685151E+03  0.59633863899E+03  0.11206887601E+03  0.63300915108E+03  0.25500000920E-02 0. -1.
</event>
<event>
 5   0  0.3756664E-04  0.1400247E+04  0.7818609E-02  0.8953640E-01
        1   -1    0    0  501    0  0.00000000000E+00  0.00000000000E+00  0.85225830173E+03  0.85225830175E+03  0.50400001928E-02 0. -1.
       -1   -1    0    0    0  501  0.00000000000E+00  0.00000000000E+00 -0.57514623486E+03  0.57514623488E+03  0.50400001928E-02 0.  1.
    10030    2    1    2    0    0  0.00000000000E+00  0.00000000000E+00  0.27711206687E+03  0.14274045366E+04  0.14002473401E+04 0.  0.
        2    1    3    3  502    0  0.12419736254E+03 -0.42937877856E+03  0.68787827948E+03  0.82034605364E+03  0.25500000920E-02 0. -1.
       -2    1    3    3    0  502 -0.12419736254E+03  0.42937877856E+03 -0.41076621261E+03  0.60705848299E+03  0.25500000920E-02 0.  1.
</event>
<event>
 5   0  0.6870835E-04  0.1350593E+04  0.7818609E-02  0.8990379E-01
        2   -1    0    0  501    0  0.00000000000E+00  0.00000000000E+00  0.14035598633E+04  0.14035598633E+04  0.25500000920E-02 0.  1.
       -2   -1    0    0    0  501  0.00000000000E+00  0.00000000000E+00 -0.32490646562E+03  0.32490646563E+03  0.25500000920E-02 0. -1.
    10030    2    1    2    0    0  0.00000000000E+00  0.00000000000E+00  0.10786533977E+04  0.17284663289E+04  0.13505934614E+04 0.  0.
        2    1    3    3  502    0  0.14578580708E+03 -0.38794926878E+03  0.12216652592E+04  0.12900481162E+04  0.25500000920E-02 0.  1.
       -2    1    3    3    0  502 -0.14578580708E+03  0.38794926878E+03 -0.14301186149E+03  0.43841821270E+03  0.25500000920E-02 0. -1.
</event>
<event>
 5   0  0.3977658E-04  0.1401557E+04  0.7818609E-02  0.8952692E-01
       -1   -1    0    0    0  501  0.00000000000E+00  0.00000000000E+00  0.51959464486E+03  0.51959464489E+03  0.50400001928E-02 0. -1.
        1   -1    0    0  501    0  0.00000000000E+00  0.00000000000E+00 -0.94514217947E+03  0.94514217948E+03  0.50400001928E-02 0.  1.
    10030    2    1    2    0    0  0.00000000000E+00  0.00000000000E+00 -0.42554753460E+03  0.14647368244E+04  0.14015574410E+04 0.  0.
        5    1    3    3  502    0  0.40303524779E+02 -0.26390167515E+03  0.46435310376E+03  0.53564387724E+03  0.46999998093E+01 0. -1.
       -5    1    3    3    0  502 -0.40303524779E+02  0.26390167515E+03 -0.88990063836E+03  0.92909294713E+03  0.46999998093E+01 0.  1.
</event>
<event>
 5   0  0.6895048E-04  0.1431441E+04  0.7818609E-02  0.8931369E-01
        2   -1    0    0  501    0  0.00000000000E+00  0.00000000000E+00  0.85666054802E+03  0.85666054802E+03  0.25500000920E-02 0.  1.
       -2   -1    0    0    0  501  0.00000000000E+00  0.00000000000E+00 -0.59796814459E+03  0.59796814460E+03  0.25500000920E-02 0. -1.
    10030    2    1    2    0    0  0.00000000000E+00  0.00000000000E+00  0.25869240343E+03  0.14546286926E+04  0.14314408384E+04 0.  0.
        4    1    3    3  502    0 -0.29716684819E+03 -0.24482186187E+03  0.74245047830E+03  0.83634933212E+03  0.12699999809E+01 0.  1.
       -4    1    3    3    0  502  0.29716684819E+03  0.24482186187E+03 -0.48375807487E+03  0.61827936050E+03  0.12699999809E+01 0. -1.
</event>
<event>
 5   0  0.3784219E-04  0.1402145E+04  0.7818609E-02  0.8952268E-01
        1   -1    0    0  501    0  0.00000000000E+00  0.00000000000E+00  0.77715992523E+03  0.77715992524E+03  0.50400001928E-02 0. -1.
       -1   -1    0    0    0  501  0.00000000000E+00  0.00000000000E+00 -0.63243402636E+03  0.63243402638E+03  0.50400001928E-02 0.  1.
    10030    2    1    2    0    0  0.00000000000E+00  0.00000000000E+00  0.14472589886E+03  0.14095939516E+04  0.14021446155E+04 0.  0.
        1    1    3    3  502    0  0.66353224981E+02 -0.34372913377E+02  0.77314468126E+03  0.77674767192E+03  0.50400001928E-02 0. -1.
       -1    1    3    3    0  502 -0.66353224981E+02  0.34372913377E+02 -0.62841878240E+03  0.63284627971E+03  0.50400001928E-02 0.  1.
</event>
<event>
 5   0  0.3977658E-04  0.1392721E+04  0.7818609E-02  0.8959104E-01
        1   -1    0    0  501    0  0.00000000000E+00  0.00000000000E+00  0.64660658445E+03  0.64660658447E+03  0.50400001928E-02 0. -1.
       -1   -1    0    0    0  501  0.00000000000E+00  0.00000000000E+00 -0.74994268104E+03  0.74994268106E+03  0.50400001928E-02 0.  1.
    10030    2    1    2    0    0  0.00000000000E+00  0.00000000000E+00 -0.10333609659E+03  0.13965492655E+04  0.13927208989E+04 0.  0.
        5    1    3    3  502    0  0.29850424247E+03  0.24335679442E+03  0.53007189547E+03  0.65522943808E+03  0.46999998093E+01 0. -1.
       -5    1    3    3    0  502 -0.29850424247E+03 -0.24335679442E+03 -0.63340799206E+03  0.74131982745E+03  0.46999998093E+01 0.  1.
</event>
<event>
 5   0  0.3907093E-04  0.1400654E+04  0.7818609E-02  0.8953345E-01
       -1   -1    0    0    0  501  0.00000000000E+00  0.00000000000E+00  0.23964834943E+03  0.23964834948E+03  0.50400001928E-02 0.  1.
        1   -1    0    0  501    0  0.00000000000E+00  0.00000000000E+00 -0.20465733810E+04  0.20465733810E+04  0.50400001928E-02 0. -1.
    10030    2    1    2    0    0  0.00000000000E+00  0.00000000000E+00 -0.18069250316E+04  0.22862217305E+04  0.14006540369E+04 0.  0.
        4    1    3    3  502    0 -0.27867367243E+03  0.46775040560E+03 -0.16224080939E+04  0.17113325491E+04  0.12699999809E+01 0. -1.
       -4    1    3    3    0  502  0.27867367243E+03 -0.46775040560E+03 -0.18451693766E+03  0.57488918135E+03  0.12699999809E+01 0.  1.
</event>
<event>
 5   0  0.6870835E-04  0.1402738E+04  0.7818609E-02  0.8951839E-01
        2   -1    0    0  501    0  0.00000000000E+00  0.00000000000E+00  0.23204530409E+04  0.23204530409E+04  0.25500000920E-02 0.  1.
       -2   -1    0    0    0  501  0.00000000000E+00  0.00000000000E+00 -0.21199234842E+03  0.21199234844E+03  0.25500000920E-02 0. -1.
    10030    2    1    2    0    0  0.00000000000E+00  0.00000000000E+00  0.21084606925E+04  0.25324453894E+04  0.14027377368E+04 0.  0.
        2    1    3    3  502    0  0.65264709102E+03 -0.15434228006E+03  0.14248724885E+04  0.15748115358E+04  0.25500000920E-02 0.  1.
       -2    1    3    3    0  502 -0.65264709102E+03  0.15434228006E+03  0.68358820401E+03  0.95763385357E+03  0.25500000920E-02 0. -1.
</event>
<event>
 5   0  0.7296966E-04  0.1415308E+04  0.7818609E-02  0.8942812E-01
        2   -1    0    0  501    0  0.00000000000E+00  0.00000000000E+00  0.16647286730E+04  0.16647286730E+04  0.25500000920E-02 0. -1.
       -2   -1    0    0    0  501  0.00000000000E+00  0.00000000000E+00 -0.30081441486E+03  0.30081441487E+03  0.25500000920E-02 0.  1.
    10030    2    1    2    0    0  0.00000000000E+00  0.00000000000E+00  0.13639142582E+04  0.19655430879E+04  0.14153082798E+04 0.  0.
        3    1    3    3  502    0  0.16292950361E+03 -0.17210108203E+03 -0.24406405637E+03  0.34019417896E+03  0.10100000352E+00 0.  1.
       -3    1    3    3    0  502 -0.16292950361E+03  0.17210108203E+03  0.16079783146E+04  0.16253489090E+04  0.10100000352E+00 0. -1.
</event>
<event>
 5   0  0.3977658E-04  0.1424907E+04  0.7818609E-02  0.8935985E-01
       -1   -1    0    0    0  501  0.00000000000E+00  0.00000000000E+00  0.19994911019E+03  0.19994911025E+03  0.50400001928E-02 0.  1.
        1   -1    0    0  501    0  0.00000000000E+00  0.00000000000E+00 -0.25385942106E+04  0.25385942106E+04  0.50400001928E-02 0. -1.
    10030    2    1    2    0    0  0.00000000000E+00  0.00000000000E+00 -0.23386451004E+04  0.27385433208E+04  0.14249065283E+04 0.  0.
        5    1    3    3  502    0 -0.15918939824E+03 -0.67985005251E+03 -0.14413269560E+04  0.16015563813E+04  0.46999998093E+01 0.  1.
       -5    1    3    3    0  502  0.15918939824E+03  0.67985005251E+03 -0.89731814435E+03  0.11369869395E+04  0.46999998093E+01 0. -1.
</event>
<event>
 5   0  0.6959748E-04  0.1404981E+04  0.7818609E-02  0.8950221E-01
        2   -1    0    0  501    0  0.00000000000E+00  0.00000000000E+00  0.50644767127E+03  0.50644767128E+03  0.25500000920E-02 0.  1.
       -2   -1    0    0    0  501  0.00000000000E+00  0.00000000000E+00 -0.97442056854E+03  0.97442056854E+03  0.25500000920E-02 0. -1.
    10030    2    1    2    0    0  0.00000000000E+00  0.00000000000E+00 -0.46797289727E+03  0.14808682398E+04  0.14049811782E+04 0.  0.
        5    1    3    3  502    0 -0.36701119787E+03 -0.13708595180E+03 -0.84855925330E+03  0.93464681773E+03  0.46999998093E+01 0.  1.
       -5    1    3    3    0  502  0.36701119787E+03  0.13708595180E+03  0.38058635603E+03  0.54622142208E+03  0.46999998093E+01 0. -1.
</event>
<event>
 5   0  0.6959748E-04  0.1402523E+04  0.7818609E-02  0.8951994E-01
        2   -1    0    0  501    0  0.00000000000E+00  0.00000000000E+00  0.11256186259E+04  0.11256186259E+04  0.25500000920E-02 0.  1.
       -2   -1    0    0    0  501  0.00000000000E+00  0.00000000000E+00 -0.43688660335E+03  0.43688660335E+03  0.25500000920E-02 0. -1.
    10030    2    1    2    0    0  0.00000000000E+00  0.00000000000E+00  0.68873202252E+03  0.15625052292E+04  0.14025230096E+04 0.  0.
        5    1    3    3  502    0  0.47755148569E+03 -0.39251678719E+03  0.71322288895E+03  0.94383993825E+03  0.46999998093E+01 0. -1.
       -5    1    3    3    0  502 -0.47755148569E+03  0.39251678719E+03 -0.24490866433E+02  0.61866529097E+03  0.46999998093E+01 0.  1.
</event>
<event>
 5   0  0.6959748E-04  0.1410804E+04  0.7818609E-02  0.8946035E-01
       -2   -1    0    0    0  501  0.00000000000E+00  0.00000000000E+00  0.45133801873E+03  0.45133801874E+03  0.25500000920E-02 0.  1.
        2   -1    0    0  501    0  0.00000000000E+00  0.00000000000E+00 -0.11024816027E+04  0.11024816027E+04  0.25500000920E-02 0. -1.
    10030    2    1    2    0    0  0.00000000000E+00  0.00000000000E+00 -0.65114358395E+03  0.15538196214E+04  0.14108038308E+04 0.  0.
        5    1    3    3  502    0 -0.18748931858E+03 -0.25513952288E+03  0.36866067951E+03  0.48598478096E+03  0.46999998093E+01 0.  1.
       -5    1    3    3    0  502  0.18748931858E+03  0.25513952288E+03 -0.10198042635E+04  0.10678348404E+04  0.46999998093E+01 0. -1.
</event>
<event>
 5   0  0.3907093E-04  0.1389910E+04  0.7818609E-02  0.8961155E-01
       -1   -1    0    0    0  501  0.00000000000E+00  0.00000000000E+00  0.49142929460E+03  0.49142929463E+03  0.50400001928E-02 0.  1.
        1   -1    0    0  501    0  0.00000000000E+00  0.00000000000E+00 -0.98277113331E+03  0.98277113332E+03  0.50400001928E-02 0. -1.
    10030    2    1    2    0    0  0.00000000000E+00  0.00000000000E+00 -0.49134183871E+03  0.14742004280E+04  0.13899101048E+04 0.  0.
        4    1    3    3  502    0  0.64059827945E+03  0.18249384821E+03 -0.45591074575E+03  0.80717184122E+03  0.12699999809E+01 0. -1.
       -4    1    3    3    0  502 -0.64059827945E+03 -0.18249384821E+03 -0.35431092955E+02  0.66702858673E+03  0.12699999809E+01 0.  1.
</event>
<event>
 5   0  0.6895048E-04  0.1399461E+04  0.7818609E-02  0.8954208E-01
        2   -1    0    0  501    0  0.00000000000E+00  0.00000000000E+00  0.17695355968E+04  0.17695355968E+04  0.25500000920E-02 0. -1.
       -2   -1    0    0    0  501  0.00000000000E+00  0.00000000000E+00 -0.27669581563E+03  0.27669581564E+03  0.25500000920E-02 0.  1.
    10030    2    1    2    0    0  0.00000000000E+00  0.00000000000E+00  0.14928397812E+04  0.20462314124E+04  0.13994614611E+04 0.  0.
        4    1    3    3  502    0 -0.28443644358E+02 -0.70472090376E+02  0.17634819139E+04  0.17651190980E+04  0.12699999809E+01 0. -1.
       -4    1    3    3    0  502  0.28443644358E+02  0.70472090376E+02 -0.27064213275E+03  0.28111231447E+03  0.12699999809E+01 0.  1.
</event>
<event>
 5   0  0.3784219E-04  0.1405849E+04  0.7818609E-02  0.8949595E-01
       -1   -1    0    0    0  501  0.00000000000E+00  0.00000000000E+00  0.49265652851E+03  0.49265652854E+03  0.50400001928E-02 0. -1.
        1   -1    0    0  501    0  0.00000000000E+00  0.00000000000E+00 -0.10029360018E+04  0.10029360018E+04  0.50400001928E-02 0.  1.
    10030    2    1    2    0    0  0.00000000000E+00  0.00000000000E+00 -0.51027947332E+03  0.14955925304E+04  0.14058491655E+04 0.  0.
        1    1    3    3  502    0  0.16071674520E+03  0.12632880203E+03 -0.97061502412E+03  0.99190844511E+03  0.50400001928E-02 0.  1.
       -1    1    3    3    0  502 -0.16071674520E+03 -0.12632880203E+03  0.46033555080E+03  0.50368408528E+03  0.50400001928E-02 0. -1.
</event>
<event>
 5   0  0.3784219E-04  0.1345767E+04  0.7818609E-02  0.8994039E-01
       -1   -1    0    0    0  501  0.00000000000E+00  0.00000000000E+00  0.34533969918E+03  0.34533969922E+03  0.50400001928E-02 0.  1.
        1   -1    0    0  501    0  0.00000000000E+00  0.00000000000E+00 -0.13110921429E+04  0.13110921429E+04  0.50400001928E-02 0. -1.
    10030    2    1    2    0    0  0.00000000000E+00  0.00000000000E+00 -0.96575244373E+03  0.16564318421E+04  0.13457669431E+04 0.  0.
        1    1    3    3  502    0  0.51454789216E+03 -0.26978633319E+03 -0.65062533021E+02  0.58461725268E+03  0.50400001928E-02 0.  1.
       -1    1    3    3    0  502 -0.51454789216E+03  0.26978633319E+03 -0.90068991071E+03  0.10718145895E+04  0.50400001928E-02 0. -1.
</event>
<event>
 5   0  0.3756664E-04  0.1401562E+04  0.7818609E-02  0.8952689E-01
        1   -1    0    0  501    0  0.00000000000E+00  0.00000000000E+00  0.12522271919E+04  0.12522271919E+04  0.50400001928E-02 0.  1.
       -1   -1    0    0    0  501  0.00000000000E+00  0.00000000000E+00 -0.39217629180E+03  0.39217629183E+03  0.50400001928E-02 0. -1.
    10030    2    1    2    0    0  0.00000000000E+00  0.00000000000E+00  0.86005090011E+03  0.16444034838E+04  0.14015617241E+04 0.  0.
        2    1    3    3  502    0 -0.17755126292E+03  0.67331420538E+03  0.33751331678E+03  0.77381632778E+03  0.25500000920E-02 0. -1.
       -2    1    3    3    0  502  0.17755126292E+03 -0.67331420538E+03  0.52253758333E+03  0.87058715597E+03  0.25500000920E-02 0.  1.
</event>
<event>
 5   0  0.6895048E-04  0.1402619E+04  0.7818609E-02  0.8951925E-01
       -2   -1    0    0    0  501  0.00000000000E+00  0.00000000000E+00  0.24644945342E+03  0.24644945343E+03  0.25500000920E-02 0. -1.
        2   -1    0    0  501    0  0.00000000000E+00  0.00000000000E+00 -0.19956844338E+04  0.19956844338E+04  0.25500000920E-02 0.  1.
    10030    2    1    2    0    0  0.00000000000E+00  0.00000000000E+00 -0.17492349804E+04  0.22421338872E+04  0.14026194607E+04 0.  0.
        4    1    3    3  502    0 -0.76592653251E+01 -0.13414291350E+03  0.22568066051E+03  0.26265254428E+03  0.12699999809E+01 0. -1.
       -4    1    3    3    0  502  0.76592653251E+01  0.13414291350E+03 -0.19749156409E+04  0.19794813429E+04  0.12699999809E+01 0.  1.
</event>
<event>
 5   0  0.3907093E-04  0.1354754E+04  0.7818609E-02  0.8987237E-01
        1   -1    0    0  501    0  0.00000000000E+00  0.00000000000E+00  0.16690481881E+04  0.16690481881E+04  0.50400001928E-02 0. -1.
       -1   -1    0    0    0  501  0.00000000000E+00  0.00000000000E+00 -0.27491101976E+03  0.27491101980E+03  0.50400001928E-02 0.  1.
    10030    2    1    2    0    0  0.00000000000E+00  0.00000000000E+00  0.13941371683E+04  0.19439592079E+04  0.13547542057E+04 0.  0.
        4    1    3    3  502    0  0.19109224185E+03  0.43939638138E+03  0.10025660697E+02  0.47925729169E+03  0.12699999809E+01 0.  1.
       -4    1    3    3    0  502 -0.19109224185E+03 -0.43939638138E+03  0.13841115076E+04  0.14647019162E+04  0.12699999809E+01 0. -1.
</event>
<event>
 5   0  0.3784219E-04  0.1368191E+04  0.7818609E-02  0.8977171E-01
        1   -1    0    0  501    0  0.00000000000E+00  0.00000000000E+00  0.18737010231E+04  0.18737010231E+04  0.50400001928E-02 0. -1.
       -1   -1    0    0    0  501  0.00000000000E+00  0.00000000000E+00 -0.24976603786E+03  0.24976603791E+03  0.50400001928E-02 0.  1.
    10030    2    1    2    0    0  0.00000000000E+00  0.00000000000E+00  0.16239349853E+04  0.21234670611E+04  0.13681913327E+04 0.  0.
        1    1    3    3  502    0  0.27015738310E+03  0.32482369904E+03 -0.23090336683E+02  0.42311772685E+03  0.50400001928E-02 0.  1.
       -1    1    3    3    0  502 -0.27015738310E+03 -0.32482369904E+03  0.16470253220E+04  0.17003493342E+04  0.50400001928E-02 0. -1.
</event>
<event>
 5   0  0.7065539E-04  0.1409264E+04  0.7818609E-02  0.8947140E-01
       -2   -1    0    0    0  501  0.00000000000E+00  0.00000000000E+00  0.37159251205E+03  0.37159251206E+03  0.25500000920E-02 0. -1.
        2   -1    0    0  501    0  0.00000000000E+00  0.00000000000E+00 -0.13361573554E+04  0.13361573554E+04  0.25500000920E-02 0.  1.
    10030    2    1    2    0    0  0.00000000000E+00  0.00000000000E+00 -0.96456484333E+03  0.17077498675E+04  0.14092637343E+04 0.  0.
        1    1    3    3  502    0 -0.68837912266E+03  0.69745047265E+02 -0.32071732688E+03  0.76262034586E+03  0.50400001928E-02 0. -1.
       -1    1    3    3    0  502  0.68837912266E+03 -0.69745047265E+02 -0.64384751645E+03  0.94512952159E+03  0.50400001928E-02 0.  1.
</event>
<event>
 5   0  0.6959748E-04  0.1402178E+04  0.7818609E-02  0.8952244E-01
       -2   -1    0    0    0  501  0.00000000000E+00  0.00000000000E+00  0.56294434348E+03  0.56294434349E+03  0.25500000920E-02 0. -1.
        2   -1    0    0  501    0  0.00000000000E+00  0.00000000000E+00 -0.87313328786E+03  0.87313328786E+03  0.25500000920E-02 0.  1.
    10030    2    1    2    0    0  0.00000000000E+00  0.00000000000E+00 -0.31018894438E+03  0.14360776313E+04  0.14021775145E+04 0.  0.
        5    1    3    3  502    0  0.61944105782E+03 -0.29641091121E+03 -0.29970555898E+03  0.74927442535E+03  0.46999998093E+01 0.  1.
       -5    1    3    3    0  502 -0.61944105782E+03  0.29641091121E+03 -0.10483385395E+02  0.68680320600E+03  0.46999998093E+01 0. -1.
</event>
<event>
 5   0  0.3907093E-04  0.1395663E+04  0.7818609E-02  0.8956964E-01
       -1   -1    0    0    0  501  0.00000000000E+00  0.00000000000E+00  0.33922063045E+03  0.33922063049E+03  0.50400001928E-02 0.  1.
        1   -1    0    0  501    0  0.00000000000E+00  0.00000000000E+00 -0.14355512104E+04  0.14355512104E+04  0.50400001928E-02 0. -1.
    10030    2    1    2    0    0  0.00000000000E+00  0.00000000000E+00 -0.10963305799E+04  0.17747718409E+04  0.13956626909E+04 0.  0.
        4    1    3    3  502    0 -0.25874507595E+02  0.15186447358E+03 -0.14136563499E+04  0.14220260887E+04  0.12699999809E+01 0. -1.
       -4    1    3    3    0  502  0.25874507595E+02 -0.15186447358E+03  0.31732576997E+03  0.35274575216E+03  0.12699999809E+01 0.  1.
</event>
<event>
 5   0  0.6895048E-04  0.1399614E+04  0.7818609E-02  0.8954098E-01
        2   -1    0    0  501    0  0.00000000000E+00  0.00000000000E+00  0.68129387790E+03  0.68129387791E+03  0.25500000920E-02 0.  1.
       -2   -1    0    0    0  501  0.00000000000E+00  0.00000000000E+00 -0.71882286418E+03  0.71882286418E+03  0.25500000920E-02 0. -1.
    10030    2    1    2    0    0  0.00000000000E+00  0.00000000000E+00 -0.37528986279E+02  0.14001167421E+04  0.13996136848E+04 0.  0.
        4    1    3    3  502    0  0.28603899233E+03  0.42103603290E+03  0.46165634549E+03  0.68718108266E+03  0.12699999809E+01 0.  1.
       -4    1    3    3    0  502 -0.28603899233E+03 -0.42103603290E+03 -0.49918533177E+03  0.71293565943E+03  0.12699999809E+01 0. -1.
</event>
<event>
 5   0  0.6870835E-04  0.1407305E+04  0.7818609E-02  0.8948548E-01
        2   -1    0    0  501    0  0.00000000000E+00  0.00000000000E+00  0.75471805182E+03  0.75471805183E+03  0.25500000920E-02 0. -1.
       -2   -1    0    0    0  501  0.00000000000E+00  0.00000000000E+00 -0.65604186207E+03  0.65604186208E+03  0.25500000920E-02 0.  1.
    10030    2    1    2    0    0  0.00000000000E+00  0.00000000000E+00  0.98676189748E+02  0.14107599139E+04  0.14073047091E+04 0.  0.
        2    1    3    3  502    0 -0.95662981042E+02  0.64970374096E+02 -0.64645108526E+03  0.65671269296E+03  0.25500000920E-02 0.  1.
       -2    1    3    3    0  502  0.95662981042E+02 -0.64970374096E+02  0.74512727501E+03  0.75404722095E+03  0.25500000920E-02 0. -1.
</event>
<event>
 5   0  0.3784219E-04  0.1395797E+04  0.7818609E-02  0.8956867E-01
        1   -1    0    0  501    0  0.00000000000E+00  0.00000000000E+00  0.46312832668E+03  0.46312832671E+03  0.50400001928E-02 0.  1.
       -1   -1    0    0    0  501  0.00000000000E+00  0.00000000000E+00 -0.10516783415E+04  0.10516783415E+04  0.50400001928E-02 0. -1.
    10030    2    1    2    0    0  0.00000000000E+00  0.00000000000E+00 -0.58855001481E+03  0.15148066682E+04  0.13957965905E+04 0.  0.
        1    1    3    3  502    0 -0.27350323120E+03 -0.39233829798E+03 -0.84587135468E+03  0.97171585674E+03  0.50400001928E-02 0. -1.
       -1    1    3    3    0  502  0.27350323120E+03  0.39233829798E+03  0.25732133987E+03  0.54309081148E+03  0.50400001928E-02 0.  1.
</event>
<event>
 5   0  0.6870835E-04  0.1401209E+04  0.7818609E-02  0.8952944E-01
        2   -1    0    0  501    0  0.00000000000E+00  0.00000000000E+00  0.13796168768E+04  0.13796168768E+04  0.25500000920E-02 0. -1.
       -2   -1    0    0    0  501  0.00000000000E+00  0.00000000000E+00 -0.35578491876E+03  0.35578491877E+03  0.25500000920E-02 0.  1.
    10030    2    1    2    0    0  0.00000000000E+00  0.00000000000E+00  0.10238319581E+04  0.17354017956E+04  0.14012093041E+04 0.  0.
        2    1    3    3  502    0 -0.19161656796E+03  0.36283803603E+03 -0.19139505681E+03  0.45276971772E+03  0.25500000920E-02 0.  1.
       -2    1    3    3    0  502  0.19161656796E+03 -0.36283803603E+03  0.12152270149E+04  0.12826320779E+04  0.25500000920E-02 0. -1.
</event>
<event>
 5   0  0.3756664E-04  0.1383270E+04  0.7818609E-02  0.8966018E-01
       -1   -1    0    0    0  501  0.00000000000E+00  0.00000000000E+00  0.62293776391E+03  0.62293776394E+03  0.50400001928E-02 0.  1.
        1   -1    0    0  501    0  0.00000000000E+00  0.00000000000E+00 -0.76790794247E+03  0.76790794248E+03  0.50400001928E-02 0. -1.
    10030    2    1    2    0    0  0.00000000000E+00  0.00000000000E+00 -0.14497017855E+03  0.13908457064E+04  0.13832698314E+04 0.  0.
        2    1    3    3  502    0  0.45853779033E+03  0.41814931014E+03 -0.37953127132E+03  0.72742679127E+03  0.25500000920E-02 0. -1.
       -2    1    3    3    0  502 -0.45853779033E+03 -0.41814931014E+03  0.23456109277E+03  0.66341891515E+03  0.25500000920E-02 0.  1.
</event>
<event>
 5   0  0.3907093E-04  0.1400942E+04  0.7818609E-02  0.8953137E-01
       -1   -1    0    0    0  501  0.00000000000E+00  0.00000000000E+00  0.36082823127E+03  0.36082823130E+03  0.50400001928E-02 0.  1.
        1   -1    0    0  501    0  0.00000000000E+00  0.00000000000E+00 -0.13598142071E+04  0.13598142071E+04  0.50400001928E-02 0. -1.
    10030    2    1    2    0    0  0.00000000000E+00  0.00000000000E+00 -0.99898597582E+03  0.17206424384E+04  0.14009416194E+04 0.  0.
        4    1    3    3  502    0  0.17374388893E+03  0.33292312104E+03 -0.12257273607E+04  0.12819648666E+04  0.12699999809E+01 0. -1.
       -4    1    3    3    0  502 -0.17374388893E+03 -0.33292312104E+03  0.22674138492E+03  0.43867757179E+03  0.12699999809E+01 0.  1.
</event>
<event>
 5   0  0.7065539E-04  0.1403155E+04  0.7818609E-02  0.8951538E-01
        2   -1    0    0  501    0  0.00000000000E+00  0.00000000000E+00  0.11067984753E+04  0.11067984753E+04  0.25500000920E-02 0.  1.
       -2   -1    0    0    0  501  0.00000000000E+00  0.00000000000E+00 -0.44471592169E+03  0.44471592170E+03  0.25500000920E-02 0. -1.
    10030    2    1    2    0    0  0.00000000000E+00  0.00000000000E+00  0.66208255359E+03  0.15515143970E+04  0.14031548796E+04 0.  0.
        1    1    3    3  502    0 -0.13310625006E+03 -0.61769259467E+03 -0.60703269108E+01  0.63190051765E+03  0.50400001928E-02 0.  1.
       -1    1    3    3    0  502  0.13310625006E+03  0.61769259467E+03  0.66815288050E+03  0.91961387933E+03  0.50400001928E-02 0. -1.
</event>
<event>
 5   0  0.6870835E-04  0.1401237E+04  0.7818609E-02  0.8952923E-01
       -2   -1    0    0    0  501  0.00000000000E+00  0.00000000000E+00  0.31694038608E+03  0.31694038609E+03  0.25500000920E-02 0. -1.
        2   -1    0    0  501    0  0.00000000000E+00  0.00000000000E+00 -0.15487661350E+04  0.15487661350E+04  0.25500000920E-02 0.  1.
    10030    2    1    2    0    0  0.00000000000E+00  0.00000000000E+00 -0.12318257489E+04  0.18657065210E+04  0.14012373629E+04 0.  0.
        2    1    3    3  502    0 -0.33756410581E+03 -0.57614654080E+03 -0.33355261948E+03  0.74642595880E+03  0.25500000920E-02 0. -1.
       -2    1    3    3    0  502  0.33756410581E+03  0.57614654080E+03 -0.89827312939E+03  0.11192805622E+04  0.25500000920E-02 0.  1.
</event>
<event>
 5   0  0.3784219E-04  0.1399018E+04  0.7818609E-02  0.8954530E-01
       -1   -1    0    0    0  501  0.00000000000E+00  0.00000000000E+00  0.36408101870E+03  0.36408101873E+03  0.50400001928E-02 0.  1.
        1   -1    0    0  501    0  0.00000000000E+00  0.00000000000E+00 -0.13439665815E+04  0.13439665815E+04  0.50400001928E-02 0. -1.
    10030    2    1    2    0    0  0.00000000000E+00  0.00000000000E+00 -0.97988556279E+03  0.17080476002E+04  0.13990178299E+04 0.  0.
        1    1    3    3  502    0  0.28926695303E+03 -0.31129093286E+03  0.18843227283E+03  0.46484850916E+03  0.50400001928E-02 0.  1.
       -1    1    3    3    0  502 -0.28926695303E+03  0.31129093286E+03 -0.11683178356E+04  0.12431990911E+04  0.50400001928E-02 0. -1.
</event>
<event>
 5   0  0.3756664E-04  0.1420207E+04  0.7818609E-02  0.8939320E-01
        1   -1    0    0  501    0  0.00000000000E+00  0.00000000000E+00  0.50799522555E+03  0.50799522558E+03  0.50400001928E-02 0. -1.
       -1   -1    0    0    0  501  0.00000000000E+00  0.00000000000E+00 -0.99262094906E+03  0.99262094908E+03  0.50400001928E-02 0.  1.
    10030    2    1    2    0    0  0.00000000000E+00  0.00000000000E+00 -0.48462572351E+03  0.15006161747E+04  0.14202066088E+04 0.  0.
        2    1    3    3  502    0 -0.56635349263E+02 -0.54150869342E+03  0.23935611671E+03  0.59475253546E+03  0.25500000920E-02 0. -1.
       -2    1    3    3    0  502  0.56635349263E+02  0.54150869342E+03 -0.72398184022E+03  0.90586363919E+03  0.25500000920E-02 0.  1.
</event>
<event>
 5   0  0.7065539E-04  0.1382766E+04  0.7818609E-02  0.8966389E-01
       -2   -1    0    0    0  501  0.00000000000E+00  0.00000000000E+00  0.35741635619E+03  0.35741635620E+03  0.25500000920E-02 0. -1.
        2   -1    0    0  501    0  0.00000000000E+00  0.00000000000E+00 -0.13374046407E+04  0.13374046407E+04  0.25500000920E-02 0.  1.
    10030    2    1    2    0    0  0.00000000000E+00  0.00000000000E+00 -0.97998828454E+03  0.16948209969E+04  0.13827657697E+04 0.  0.
        1    1    3    3  502    0 -0.16837790229E+03 -0.73883896516E+02  0.32689789287E+03  0.37506290210E+03  0.50400001928E-02 0. -1.
       -1    1    3    3    0  502  0.16837790229E+03  0.73883896516E+02 -0.13068861774E+04  0.13197580948E+04  0.50400001928E-02 0.  1.
</event>
<event>
 5   0  0.3756664E-04  0.1403511E+04  0.7818609E-02  0.8951281E-01
        1   -1    0    0  501    0  0.00000000000E+00  0.00000000000E+00  0.51835373164E+03  0.51835373167E+03  0.50400001928E-02 0. -1.
       -1   -1    0    0    0  501  0.00000000000E+00  0.00000000000E+00 -0.95004709096E+03  0.95004709097E+03  0.50400001928E-02 0.  1.
    10030    2    1    2    0    0  0.00000000000E+00  0.00000000000E+00 -0.43169335931E+03  0.14684008226E+04  0.14035105341E+04 0.  0.
        2    1    3    3  502    0 -0.31307447132E+03 -0.36164745059E+03 -0.75306118713E+03  0.89213544638E+03  0.25500000920E-02 0.  1.
       -2    1    3    3    0  502  0.31307447132E+03  0.36164745059E+03  0.32136782782E+03  0.57626537626E+03  0.25500000920E-02 0. -1.
</event>
<event>
 5   0  0.3907270E-04  0.1403333E+04  0.7818609E-02  0.8951409E-01
       -1   -1    0    0    0  501  0.00000000000E+00  0.00000000000E+00  0.29250460496E+03  0.29250460500E+03  0.50400001928E-02 0. -1.
        1   -1    0    0  501    0  0.00000000000E+00  0.00000000000E+00 -0.16831730418E+04  0.16831730418E+04  0.50400001928E-02 0.  1.
    10030    2    1    2    0    0  0.00000000000E+00  0.00000000000E+00 -0.13906684368E+04  0.19756776468E+04  0.14033329836E+04 0.  0.
        3    1    3    3  502    0 -0.59669725216E+03 -0.15658940727E+03 -0.22466684125E+03  0.65653869114E+03  0.10100000352E+00 0. -1.
       -3    1    3    3    0  502  0.59669725216E+03  0.15658940727E+03 -0.11660015955E+04  0.13191389556E+04  0.10100000352E+00 0.  1.
</event>
<event>
 5   0  0.6895048E-04  0.1414372E+04  0.7818609E-02  0.8943480E-01
        2   -1    0    0  501    0  0.00000000000E+00  0.00000000000E+00  0.16772162403E+04  0.16772162403E+04  0.25500000920E-02 0. -1.
       -2   -1    0    0    0  501  0.00000000000E+00  0.00000000000E+00 -0.29817999583E+03  0.29817999584E+03  0.25500000920E-02 0.  1.
    10030    2    1    2    0    0  0.00000000000E+00  0.00000000000E+00  0.13790362445E+04  0.19753962361E+04  0.14143724142E+04 0.  0.
        4    1    3    3  502    0 -0.16437846433E+03  0.50496684333E+03  0.13417728089E+04  0.14430411207E+04  0.12699999809E+01 0. -1.
       -4    1    3    3    0  502  0.16437846433E+03 -0.50496684333E+03  0.37263435556E+02  0.53235511543E+03  0.12699999809E+01 0.  1.
</event>
<event>
 5   0  0.6895048E-04  0.1395784E+04  0.7818609E-02  0.8956876E-01
       -2   -1    0    0    0  501  0.00000000000E+00  0.00000000000E+00  0.64154519849E+03  0.64154519849E+03  0.25500000920E-02 0.  1.
        2   -1    0    0  501    0  0.00000000000E+00  0.00000000000E+00 -0.75918743438E+03  0.75918743439E+03  0.25500000920E-02 0. -1.
    10030    2    1    2    0    0  0.00000000000E+00  0.00000000000E+00 -0.11764223589E+03  0.14007326329E+04  0.13957837272E+04 0.  0.
        4    1    3    3  502    0  0.51179883021E+03 -0.39658206582E+03 -0.32019815629E+03  0.72231838529E+03  0.12699999809E+01 0. -1.
       -4    1    3    3    0  502 -0.51179883021E+03  0.39658206582E+03  0.20255592040E+03  0.67841424759E+03  0.12699999809E+01 0.  1.
</event>
<event>
 5   0  0.6895048E-04  0.1393398E+04  0.7818609E-02  0.8958612E-01
        2   -1    0    0  501    0  0.00000000000E+00  0.00000000000E+00  0.68362483592E+03  0.68362483592E+03  0.25500000920E-02 0.  1.
       -2   -1    0    0    0  501  0.00000000000E+00  0.00000000000E+00 -0.71002288239E+03  0.71002288240E+03  0.25500000920E-02 0. -1.
    10030    2    1    2    0    0  0.00000000000E+00  0.00000000000E+00 -0.26398046476E+02  0.13936477183E+04  0.13933976841E+04 0.  0.
        4    1    3    3  502    0 -0.11500100456E+03  0.40703434920E+03  0.54051161761E+03  0.68633564249E+03  0.12699999809E+01 0.  1.
       -4    1    3    3    0  502  0.11500100456E+03 -0.40703434920E+03 -0.56690966409E+03  0.70731207583E+03  0.12699999809E+01 0. -1.
</event>
<event>
 5   0  0.7296966E-04  0.1402234E+04  0.7818609E-02  0.8952203E-01
        2   -1    0    0  501    0  0.00000000000E+00  0.00000000000E+00  0.62962468302E+03  0.62962468302E+03  0.25500000920E-02 0.  1.
       -2   -1    0    0    0  501  0.00000000000E+00  0.00000000000E+00 -0.78072659415E+03  0.78072659415E+03  0.25500000920E-02 0. -1.
    10030    2    1    2    0    0  0.00000000000E+00  0.00000000000E+00 -0.15110191113E+03  0.14103512772E+04  0.14022335531E+04 0.  0.
        3    1    3    3  502    0  0.34397108626E+02  0.65294767122E+03 -0.33007901157E+03  0.73244521059E+03  0.10100000352E+00 0. -1.
       -3    1    3    3    0  502 -0.34397108626E+02 -0.65294767122E+03  0.17897710044E+03  0.67790606659E+03  0.10100000352E+00 0.  1.
</event>
<event>
 5   0  0.3784219E-04  0.1397490E+04  0.7818609E-02  0.8955638E-01
        1   -1    0    0  501    0  0.00000000000E+00  0.00000000000E+00  0.77200599777E+03  0.77200599779E+03  0.50400001928E-02 0. -1.
       -1   -1    0    0    0  501  0.00000000000E+00  0.00000000000E+00 -0.63243595996E+03  0.63243595998E+03  0.50400001928E-02 0.  1.
    10030    2    1    2    0    0  0.00000000000E+00  0.00000000000E+00  0.13957003781E+03  0.14044419578E+04  0.13974896841E+04 0.  0.
        1    1    3    3  502    0  0.13719551571E+03  0.11370678159E+03 -0.60921848300E+03  0.63474325657E+03  0.50400001928E-02 0.  1.
       -1    1    3    3    0  502 -0.13719551571E+03 -0.11370678159E+03  0.74878852081E+03  0.76969870120E+03  0.50400001928E-02 0. -1.
</event>
<event>
 5   0  0.6870835E-04  0.1400802E+04  0.7818609E-02  0.8953238E-01
        2   -1    0    0  501    0  0.00000000000E+00  0.00000000000E+00  0.85854255624E+03  0.85854255624E+03  0.25500000920E-02 0. -1.
       -2   -1    0    0    0  501  0.00000000000E+00  0.00000000000E+00 -0.57138869665E+03  0.57138869666E+03  0.25500000920E-02 0.  1.
    10030    2    1    2    0    0  0.00000000000E+00  0.00000000000E+00  0.28715385958E+03  0.14299312529E+04  0.14008019307E+04 0.  0.
        2    1    3    3  502    0 -0.46581874134E+03  0.50558542263E+03  0.67836048742E+01  0.68749526301E+03  0.25500000920E-02 0.  1.
       -2    1    3    3    0  502  0.46581874134E+03 -0.50558542263E+03  0.28037025471E+03  0.74243598989E+03  0.25500000920E-02 0. -1.
</event>
<event>
 5   0  0.7065539E-04  0.1438815E+04  0.7818609E-02  0.8926192E-01
        2   -1    0    0  501    0  0.00000000000E+00  0.00000000000E+00  0.10752413064E+04  0.10752413064E+04  0.25500000920E-02 0.  1.
       -2   -1    0    0    0  501  0.00000000000E+00  0.00000000000E+00 -0.48133123178E+03  0.48133123179E+03  0.25500000920E-02 0. -1.
    10030    2    1    2    0    0  0.00000000000E+00  0.00000000000E+00  0.59391007466E+03  0.15565725382E+04  0.14388150993E+04 0.  0.
        1    1    3    3  502    0 -0.43429617483E+03 -0.24815739543E+03  0.85633391759E+03  0.99171721716E+03  0.50400001928E-02 0.  1.
       -1    1    3    3    0  502  0.43429617483E+03  0.24815739543E+03 -0.26242384293E+03  0.56485532107E+03  0.50400001928E-02 0. -1.
</event>
<event>
 5   0  0.3756664E-04  0.1408729E+04  0.7818609E-02  0.8947524E-01
        1   -1    0    0  501    0  0.00000000000E+00  0.00000000000E+00  0.55726705338E+03  0.55726705340E+03  0.50400001928E-02 0.  1.
       -1   -1    0    0    0  501  0.00000000000E+00  0.00000000000E+00 -0.89028993477E+03  0.89028993479E+03  0.50400001928E-02 0. -1.
    10030    2    1    2    0    0  0.00000000000E+00  0.00000000000E+00 -0.33302288139E+03  0.14475569882E+04  0.14087288577E+04 0.  0.
        2    1    3    3  502    0 -0.42948372588E+03  0.38342301778E+02  0.40579831349E+03  0.59211373413E+03  0.25500000920E-02 0.  1.
       -2    1    3    3    0  502  0.42948372588E+03 -0.38342301778E+02 -0.73882119488E+03  0.85544325406E+03  0.25500000920E-02 0. -1.
</event>
<event>
 5   0  0.3756664E-04  0.1426322E+04  0.7818609E-02  0.8934982E-01
        1   -1    0    0  501    0  0.00000000000E+00  0.00000000000E+00  0.16387244276E+04  0.16387244276E+04  0.50400001928E-02 0. -1.
       -1   -1    0    0    0  501  0.00000000000E+00  0.00000000000E+00 -0.31036268538E+03  0.31036268542E+03  0.50400001928E-02 0.  1.
    10030    2    1    2    0    0  0.00000000000E+00  0.00000000000E+00  0.13283617422E+04  0.19490871130E+04  0.14263224236E+04 0.  0.
        2    1    3    3  502    0  0.29610927952E+03  0.58671803279E+03  0.10425842810E+04  0.12324369105E+04  0.25500000920E-02 0. -1.
       -2    1    3    3    0  502 -0.29610927952E+03 -0.58671803279E+03  0.28577746125E+03  0.71665020253E+03  0.25500000920E-02 0.  1.
</event>
<event>
 5   0  0.6895048E-04  0.1391594E+04  0.7818609E-02  0.8959926E-01
        2   -1    0    0  501    0  0.00000000000E+00  0.00000000000E+00  0.11986016443E+04  0.11986016443E+04  0.25500000920E-02 0.  1.
       -2   -1    0    0    0  501  0.00000000000E+00  0.00000000000E+00 -0.40391521054E+03  0.40391521055E+03  0.25500000920E-02 0. -1.
    10030    2    1    2    0    0  0.00000000000E+00  0.00000000000E+00  0.79468643372E+03  0.16025168548E+04  0.13915939573E+04 0.  0.
        4    1    3    3  502    0 -0.26751538254E+03  0.62518882803E+03  0.56700447857E+03  0.88539326980E+03  0.12699999809E+01 0. -1.
       -4    1    3    3    0  502  0.26751538254E+03 -0.62518882803E+03  0.22768195515E+03  0.71712358502E+03  0.12699999809E+01 0.  1.
</event>
<event>
 5   0  0.6895048E-04  0.1368497E+04  0.7818609E-02  0.8976943E-01
       -2   -1    0    0    0  501  0.00000000000E+00  0.00000000000E+00  0.57883911419E+03  0.57883911419E+03  0.25500000920E-02 0. -1.
        2   -1    0    0  501    0  0.00000000000E+00  0.00000000000E+00 -0.80885318294E+03  0.80885318295E+03  0.25500000920E-02 0.  1.
    10030    2    1    2    0    0  0.00000000000E+00  0.00000000000E+00 -0.23001406875E+03  0.13876922971E+04  0.13684967810E+04 0.  0.
        4    1    3    3  502    0  0.67270446297E+03 -0.23722801355E+02  0.95994023788E+01  0.67319226617E+03  0.12699999809E+01 0.  1.
       -4    1    3    3    0  502 -0.67270446297E+03  0.23722801355E+02 -0.23961347113E+03  0.71450003097E+03  0.12699999809E+01 0. -1.
</event>
<event>
 5   0  0.6895048E-04  0.1422395E+04  0.7818609E-02  0.8937766E-01
        2   -1    0    0  501    0  0.00000000000E+00  0.00000000000E+00  0.11925528648E+04  0.11925528648E+04  0.25500000920E-02 0.  1.
       -2   -1    0    0    0  501  0.00000000000E+00  0.00000000000E+00 -0.42413344315E+03  0.42413344316E+03  0.25500000920E-02 0. -1.
    10030    2    1    2    0    0  0.00000000000E+00  0.00000000000E+00  0.76841942161E+03  0.16166863079E+04  0.14223945341E+04 0.  0.
        4    1    3    3  502    0 -0.35175668292E+03 -0.11996779163E+03 -0.30497824595E+03  0.48076852893E+03  0.12699999809E+01 0. -1.
       -4    1    3    3    0  502  0.35175668292E+03  0.11996779163E+03  0.10733976676E+04  0.11359177790E+04  0.12699999809E+01 0.  1.
</event>
<event>
 5   0  0.3907270E-04  0.1395552E+04  0.7818609E-02  0.8957045E-01
       -1   -1    0    0    0  501  0.00000000000E+00  0.00000000000E+00  0.25759288181E+03  0.25759288186E+03  0.50400001928E-02 0. -1.
        1   -1    0    0  501    0  0.00000000000E+00  0.00000000000E+00 -0.18901582326E+04  0.18901582326E+04  0.50400001928E-02 0.  1.
    10030    2    1    2    0    0  0.00000000000E+00  0.00000000000E+00 -0.16325653508E+04  0.21477511145E+04  0.13955519428E+04 0.  0.
        3    1    3    3  502    0 -0.53336264548E+03  0.36726276807E+03 -0.12162256187E+04  0.13778833108E+04  0.10100000352E+00 0.  1.
       -3    1    3    3    0  502  0.53336264548E+03 -0.36726276807E+03 -0.41633973210E+03  0.76986780367E+03  0.10100000352E+00 0. -1.
</event>
<event>
 5   0  0.2660250E-04  0.1404635E+04  0.7818609E-02  0.8950470E-01
        3   -1    0    0  501    0  0.00000000000E+00  0.00000000000E+00  0.25884371897E+03  0.25884373867E+03  0.10100000352E+00 0.  1.
       -3   -1    0    0    0  501  0.00000000000E+00  0.00000000000E+00 -0.19055905396E+04  0.19055905423E+04  0.10100000352E+00 0. -1.
    10030    2    1    2    0    0  0.00000000000E+00  0.00000000000E+00 -0.16467468206E+04  0.21644342809E+04  0.14046354208E+04 0.  0.
        5    1    3    3  502    0 -0.37410606407E+03 -0.18371735431E+03  0.47650871634E+02  0.41952366920E+03  0.46999998093E+01 0.  1.
       -5    1    3    3    0  502  0.37410606407E+03  0.18371735431E+03 -0.16943976922E+04  0.17449106117E+04  0.46999998093E+01 0. -1.
</event>
<event>
 5   0  0.3907270E-04  0.1435355E+04  0.7818609E-02  0.8928617E-01
       -1   -1    0    0    0  501  0.00000000000E+00  0.00000000000E+00  0.94530877495E+03  0.94530877496E+03  0.50400001928E-02 0.  1.
        1   -1    0    0  501    0  0.00000000000E+00  0.00000000000E+00 -0.54485993737E+03  0.54485993739E+03  0.50400001928E-02 0. -1.
    10030    2    1    2    0    0  0.00000000000E+00  0.00000000000E+00  0.40044883758E+03  0.14901687124E+04  0.14353548411E+04 0.  0.
        3    1    3    3  502    0 -0.34951139705E+03  0.11824639227E+03 -0.43884815648E+03  0.57334818444E+03  0.10100000352E+00 0. -1.
       -3    1    3    3    0  502  0.34951139705E+03 -0.11824639227E+03  0.83929699407E+03  0.91682052791E+03  0.10100000352E+00 0.  1.
</event>
<event>
 5   0  0.6870835E-04  0.1401821E+04  0.7818609E-02  0.8952502E-01
       -2   -1    0    0    0  501  0.00000000000E+00  0.00000000000E+00  0.53335637425E+03  0.53335637426E+03  0.25500000920E-02 0. -1.
        2   -1    0    0  501    0  0.00000000000E+00  0.00000000000E+00 -0.92110122999E+03  0.92110122999E+03  0.25500000920E-02 0.  1.
    10030    2    1    2    0    0  0.00000000000E+00  0.00000000000E+00 -0.38774485574E+03  0.14544576043E+04  0.14018205482E+04 0.  0.
        2    1    3    3  502    0 -0.22355682391E+03 -0.82779394087E+01 -0.88306515590E+03  0.91096116677E+03  0.25500000920E-02 0.  1.
       -2    1    3    3    0  502  0.22355682391E+03  0.82779394087E+01  0.49532030016E+03  0.54349643748E+03  0.25500000920E-02 0. -1.
</event>
<event>
 5   0  0.3756664E-04  0.1384675E+04  0.7818609E-02  0.8964987E-01
       -1   -1    0    0    0  501  0.00000000000E+00  0.00000000000E+00  0.12915834524E+04  0.12915834524E+04  0.50400001928E-02 0.  1.
        1   -1    0    0  501    0  0.00000000000E+00  0.00000000000E+00 -0.37111900240E+03  0.37111900243E+03  0.50400001928E-02 0. -1.
    10030    2    1    2    0    0  0.00000000000E+00  0.00000000000E+00  0.92046444997E+03  0.16627024548E+04  0.13846749256E+04 0.  0.
        2    1    3    3  502    0  0.67703754726E+03 -0.11855606825E+03  0.36051769887E+03  0.77614972327E+03  0.25500000920E-02 0. -1.
       -2    1    3    3    0  502 -0.67703754726E+03  0.11855606825E+03  0.55994675111E+03  0.88655273154E+03  0.25500000920E-02 0.  1.
</event>
<event>
 5   0  0.3756664E-04  0.1408569E+04  0.7818609E-02  0.8947639E-01
        1   -1    0    0  501    0  0.00000000000E+00  0.00000000000E+00  0.64064807450E+03  0.64064807452E+03  0.50400001928E-02 0.  1.
       -1   -1    0    0    0  501  0.00000000000E+00  0.00000000000E+00 -0.77424229299E+03  0.77424229301E+03  0.50400001928E-02 0. -1.
    10030    2    1    2    0    0  0.00000000000E+00  0.00000000000E+00 -0.13359421849E+03  0.14148903675E+04  0.14085692517E+04 0.  0.
        2    1    3    3  502    0  0.14884886912E+03 -0.52547524752E+03  0.37987427574E+03  0.66527038636E+03  0.25500000920E-02 0.  1.
       -2    1    3    3    0  502 -0.14884886912E+03  0.52547524752E+03 -0.51346849423E+03  0.74961998117E+03  0.25500000920E-02 0. -1.
</event>
<event>
 5   0  0.3784219E-04  0.1406615E+04  0.7818609E-02  0.8949044E-01
        1   -1    0    0  501    0  0.00000000000E+00  0.00000000000E+00  0.31397861884E+03  0.31397861888E+03  0.50400001928E-02 0.  1.
       -1   -1    0    0    0  501  0.00000000000E+00  0.00000000000E+00 -0.15753987494E+04  0.15753987494E+04  0.50400001928E-02 0. -1.
    10030    2    1    2    0    0  0.00000000000E+00  0.00000000000E+00 -0.12614201306E+04  0.18893773683E+04  0.14066151194E+04 0.  0.
        1    1    3    3  502    0  0.54169031654E+02  0.76597792103E+02 -0.15669562688E+04  0.15697622286E+04  0.50400001928E-02 0. -1.
       -1    1    3    3    0  502 -0.54169031654E+02 -0.76597792103E+02  0.30553613826E+03  0.31961513974E+03  0.50400001928E-02 0.  1.
</event>
<event>
 5   0  0.6870835E-04  0.1417142E+04  0.7818609E-02  0.8941503E-01
       -2   -1    0    0    0  501  0.00000000000E+00  0.00000000000E+00  0.64788506396E+03  0.64788506396E+03  0.25500000920E-02 0.  1.
        2   -1    0    0  501    0  0.00000000000E+00  0.00000000000E+00 -0.77494164877E+03  0.77494164878E+03  0.25500000920E-02 0. -1.
    10030    2    1    2    0    0  0.00000000000E+00  0.00000000000E+00 -0.12705658482E+03  0.14228267127E+04  0.14171423636E+04 0.  0.
        2    1    3    3  502    0 -0.27181251151E+03 -0.11906532336E+03  0.58249223699E+03  0.65372455882E+03  0.25500000920E-02 0.  1.
       -2    1    3    3    0  502  0.27181251151E+03  0.11906532336E+03 -0.70954882181E+03  0.76910215393E+03  0.25500000920E-02 0. -1.
</event>
<event>
 5   0  0.6895048E-04  0.1388790E+04  0.7818609E-02  0.8961973E-01
        2   -1    0    0  501    0  0.00000000000E+00  0.00000000000E+00  0.11590285966E+04  0.11590285966E+04  0.25500000920E-02 0. -1.
       -2   -1    0    0    0  501  0.00000000000E+00  0.00000000000E+00 -0.41602464303E+03  0.41602464304E+03  0.25500000920E-02 0.  1.
    10030    2    1    2    0    0  0.00000000000E+00  0.00000000000E+00  0.74300395352E+03  0.15750532396E+04  0.13887900607E+04 0.  0.
        4    1    3    3  502    0  0.14422643495E+03  0.61561092017E+03  0.45939135985E+02  0.63394801576E+03  0.12699999809E+01 0.  1.
       -4    1    3    3    0  502 -0.14422643495E+03 -0.61561092017E+03  0.69706481753E+03  0.94110522383E+03  0.12699999809E+01 0. -1.
</event>
<event>
 5   0  0.3784219E-04  0.1401585E+04  0.7818609E-02  0.8952672E-01
       -1   -1    0    0    0  501  0.00000000000E+00  0.00000000000E+00  0.39253094572E+03  0.39253094575E+03  0.50400001928E-02 0.  1.
        1   -1    0    0  501    0  0.00000000000E+00  0.00000000000E+00 -0.12511365252E+04  0.12511365252E+04  0.50400001928E-02 0. -1.
    10030    2    1    2    0    0  0.00000000000E+00  0.00000000000E+00 -0.85860557943E+03  0.16436674709E+04  0.14015845368E+04 0.  0.
        1    1    3    3  502    0 -0.21857379056E+03 -0.92117440573E+02  0.34402610878E+03  0.41786850603E+03  0.50400001928E-02 0.  1.
       -1    1    3    3    0  502  0.21857379056E+03  0.92117440573E+02 -0.12026316882E+04  0.12257989649E+04  0.50400001928E-02 0. -1.
</event>
<event>
 5   0  0.7065539E-04  0.1404390E+04  0.7818609E-02  0.8950647E-01
        2   -1    0    0  501    0  0.00000000000E+00  0.00000000000E+00  0.98633078882E+03  0.98633078882E+03  0.25500000920E-02 0.  1.
       -2   -1    0    0    0  501  0.00000000000E+00  0.00000000000E+00 -0.49991123203E+03  0.49991123204E+03  0.25500000920E-02 0. -1.
    10030    2    1    2    0    0  0.00000000000E+00  0.00000000000E+00  0.48641955678E+03  0.14862420209E+04  0.14043900311E+04 0.  0.
        1    1    3    3  502    0  0.13805579900E+03  0.13456617485E+03  0.95777444639E+03  0.97698482549E+03  0.50400001928E-02 0.  1.
       -1    1    3    3    0  502 -0.13805579900E+03 -0.13456617485E+03 -0.47135488961E+03  0.50925719537E+03  0.50400001928E-02 0. -1.
</event>
<event>
 5   0  0.3756664E-04  0.1387019E+04  0.7818609E-02  0.8963269E-01
       -1   -1    0    0    0  501  0.00000000000E+00  0.00000000000E+00  0.64597539593E+03  0.64597539595E+03  0.50400001928E-02 0. -1.
        1   -1    0    0  501    0  0.00000000000E+00  0.00000000000E+00 -0.74454104914E+03  0.74454104915E+03  0.50400001928E-02 0.  1.
    10030    2    1    2    0    0  0.00000000000E+00  0.00000000000E+00 -0.98565653206E+02  0.13905164451E+04  0.13870186719E+04 0.  0.
        2    1    3    3  502    0  0.41585792822E+03  0.55485622508E+03 -0.36924857564E+02  0.69438223774E+03  0.25500000920E-02 0. -1.
       -2    1    3    3    0  502 -0.41585792822E+03 -0.55485622508E+03 -0.61640795642E+02  0.69613420737E+03  0.25500000920E-02 0.  1.
</event>
<event>
 5   0  0.3907093E-04  0.1400697E+04  0.7818609E-02  0.8953314E-01
        1   -1    0    0  501    0  0.00000000000E+00  0.00000000000E+00  0.65769388624E+03  0.65769388626E+03  0.50400001928E-02 0.  1.
       -1   -1    0    0    0  501  0.00000000000E+00  0.00000000000E+00 -0.74576968945E+03  0.74576968946E+03  0.50400001928E-02 0. -1.
    10030    2    1    2    0    0  0.00000000000E+00  0.00000000000E+00 -0.88075803210E+02  0.14034635757E+04  0.14006972054E+04 0.  0.
        4    1    3    3  502    0 -0.68270355134E+03  0.16022036533E+02  0.11165788267E+03  0.69196093845E+03  0.12699999809E+01 0.  1.
       -4    1    3    3    0  502  0.68270355134E+03 -0.16022036533E+02 -0.19973368588E+03  0.71150263727E+03  0.12699999809E+01 0. -1.
</event>
<event>
 5   0  0.3784219E-04  0.1384380E+04  0.7818609E-02  0.8965204E-01
        1   -1    0    0  501    0  0.00000000000E+00  0.00000000000E+00  0.96030475042E+03  0.96030475044E+03  0.50400001928E-02 0. -1.
       -1   -1    0    0    0  501  0.00000000000E+00  0.00000000000E+00 -0.49893206203E+03  0.49893206206E+03  0.50400001928E-02 0.  1.
    10030    2    1    2    0    0  0.00000000000E+00  0.00000000000E+00  0.46137268839E+03  0.14592368125E+04  0.13843797591E+04 0.  0.
        1    1    3    3  502    0 -0.50103469682E+03  0.90087456374E+01  0.73401005814E+03  0.88875626040E+03  0.50400001928E-02 0. -1.
       -1    1    3    3    0  502  0.50103469682E+03 -0.90087456374E+01 -0.27263736975E+03  0.57048055210E+03  0.50400001928E-02 0.  1.
</event>
<event>
 5   0  0.3784219E-04  0.1401777E+04  0.7818609E-02  0.8952533E-01
        1   -1    0    0  501    0  0.00000000000E+00  0.00000000000E+00  0.13269304370E+04  0.13269304370E+04  0.50400001928E-02 0. -1.
       -1   -1    0    0    0  501  0.00000000000E+00  0.00000000000E+00 -0.37021146485E+03  0.37021146488E+03  0.50400001928E-02 0.  1.
    10030    2    1    2    0    0  0.00000000000E+00  0.00000000000E+00  0.95671897210E+03  0.16971419018E+04  0.14017772446E+04 0.  0.
        1    1    3    3  502    0 -0.33695754353E+03 -0.30102190601E+03 -0.17034723874E+03  0.48287964941E+03  0.50400001928E-02 0.  1.
       -1    1    3    3    0  502  0.33695754353E+03  0.30102190601E+03  0.11270662108E+04  0.12142622524E+04  0.50400001928E-02 0. -1.
</event>
<event>
 5   0  0.3784219E-04  0.1401388E+04  0.7818609E-02  0.8952815E-01
       -1   -1    0    0    0  501  0.00000000000E+00  0.00000000000E+00  0.33799867210E+03  0.33799867214E+03  0.50400001928E-02 0. -1.
        1   -1    0    0  501    0  0.00000000000E+00  0.00000000000E+00 -0.14525854238E+04  0.14525854238E+04  0.50400001928E-02 0.  1.
    10030    2    1    2    0    0  0.00000000000E+00  0.00000000000E+00 -0.11145867517E+04  0.17905840960E+04  0.14013878042E+04 0.  0.
        1    1    3    3  502    0 -0.59199147243E+03  0.10988921986E+03 -0.99372338825E+02  0.61024946196E+03  0.50400001928E-02 0. -1.
       -1    1    3    3    0  502  0.59199147243E+03 -0.10988921986E+03 -0.10152144129E+04  0.11803346340E+04  0.50400001928E-02 0.  1.
</event>
<event>
 5   0  0.3756664E-04  0.1392503E+04  0.7818609E-02  0.8959263E-01
        1   -1    0    0  501    0  0.00000000000E+00  0.00000000000E+00  0.18354282651E+04  0.18354282651E+04  0.50400001928E-02 0.  1.
       -1   -1    0    0    0  501  0.00000000000E+00  0.00000000000E+00 -0.26411626475E+03  0.26411626480E+03  0.50400001928E-02 0. -1.
    10030    2    1    2    0    0  0.00000000000E+00  0.00000000000E+00  0.15713120004E+04  0.20995445299E+04  0.13925034401E+04 0.  0.
        2    1    3    3  502    0  0.65349396556E+03 -0.19968670422E+03  0.58428656513E+03  0.89906614499E+03  0.25500000920E-02 0. -1.
       -2    1    3    3    0  502 -0.65349396556E+03  0.19968670422E+03  0.98702543523E+03  0.12004783849E+04  0.25500000920E-02 0.  1.
</event>
<event>
 5   0  0.3907093E-04  0.1399673E+04  0.7818609E-02  0.8954055E-01
       -1   -1    0    0    0  501  0.00000000000E+00  0.00000000000E+00  0.78080081772E+03  0.78080081773E+03  0.50400001928E-02 0.  1.
        1   -1    0    0  501    0  0.00000000000E+00  0.00000000000E+00 -0.62726791393E+03  0.62726791395E+03  0.50400001928E-02 0. -1.
    10030    2    1    2    0    0  0.00000000000E+00  0.00000000000E+00  0.15353290378E+03  0.14080687317E+04  0.13996732478E+04 0.  0.
        4    1    3    3  502    0 -0.49246964601E+02  0.46988092759E+03 -0.44262129389E+03  0.64740139971E+03  0.12699999809E+01 0. -1.
       -4    1    3    3    0  502  0.49246964601E+02 -0.46988092759E+03  0.59615419768E+03  0.76066733198E+03  0.12699999809E+01 0.  1.
</event>
<event>
 5   0  0.6870835E-04  0.1402423E+04  0.7818609E-02  0.8952066E-01
       -2   -1    0    0    0  501  0.00000000000E+00  0.00000000000E+00  0.80067655252E+03  0.80067655253E+03  0.25500000920E-02 0.  1.
        2   -1    0    0  501    0  0.00000000000E+00  0.00000000000E+00 -0.61410291814E+03  0.61410291815E+03  0.25500000920E-02 0. -1.
    10030    2    1    2    0    0  0.00000000000E+00  0.00000000000E+00  0.18657363438E+03  0.14147794707E+04  0.14024233418E+04 0.  0.
        2    1    3    3  502    0 -0.61311277115E+03 -0.12262265045E+03  0.41350150353E+03  0.74961795468E+03  0.25500000920E-02 0.  1.
       -2    1    3    3    0  502  0.61311277115E+03  0.12262265045E+03 -0.22692786915E+03  0.66516151599E+03  0.25500000920E-02 0. -1.
</event>
<event>
 5   0  0.3756664E-04  0.1398895E+04  0.7818609E-02  0.8954619E-01
        1   -1    0    0  501    0  0.00000000000E+00  0.00000000000E+00  0.60099433244E+03  0.60099433246E+03  0.50400001928E-02 0.  1.
       -1   -1    0    0    0  501  0.00000000000E+00  0.00000000000E+00 -0.81402845619E+03  0.81402845620E+03  0.50400001928E-02 0. -1.
    10030    2    1    2    0    0  0.00000000000E+00  0.00000000000E+00 -0.21303412375E+03  0.14150227887E+04  0.13988945473E+04 0.  0.
        2    1    3    3  502    0 -0.15309775922E+03  0.44065242072E+03  0.42065664337E+03  0.62814448288E+03  0.25500000920E-02 0.  1.
       -2    1    3    3    0  502  0.15309775922E+03 -0.44065242072E+03 -0.63369076712E+03  0.78687830577E+03  0.25500000920E-02 0. -1.
</event>
<event>
 5   0  0.3977658E-04  0.1379076E+04  0.7818609E-02  0.8969105E-01
        1   -1    0    0  501    0  0.00000000000E+00  0.00000000000E+00  0.97073176582E+03  0.97073176583E+03  0.50400001928E-02 0. -1.
       -1   -1    0    0    0  501  0.00000000000E+00  0.00000000000E+00 -0.48979844157E+03  0.48979844160E+03  0.50400001928E-02 0.  1.
    10030    2    1    2    0    0  0.00000000000E+00  0.00000000000E+00  0.48093332425E+03  0.14605302074E+04  0.13790763664E+04 0.  0.
        5    1    3    3  502    0  0.56009812710E+02  0.12126806642E+03  0.95688085144E+03  0.96617084250E+03  0.46999998093E+01 0. -1.
       -5    1    3    3    0  502 -0.56009812710E+02 -0.12126806642E+03 -0.47594752719E+03  0.49435936492E+03  0.46999998093E+01 0.  1.
</event>
<event>
 5   0  0.7065539E-04  0.1392917E+04  0.7818609E-02  0.8958961E-01
        2   -1    0    0  501    0  0.00000000000E+00  0.00000000000E+00  0.11124183393E+04  0.11124183393E+04  0.25500000920E-02 0. -1.
       -2   -1    0    0    0  501  0.00000000000E+00  0.00000000000E+00 -0.43603620809E+03  0.43603620809E+03  0.25500000920E-02 0.  1.
    10030    2    1    2    0    0  0.00000000000E+00  0.00000000000E+00  0.67638213119E+03  0.15484545474E+04  0.13929173335E+04 0.  0.
        1    1    3    3  502    0 -0.60949984249E+03 -0.33413912156E+03  0.28953547195E+03  0.75297397040E+03  0.50400001928E-02 0.  1.
       -1    1    3    3    0  502  0.60949984249E+03  0.33413912156E+03  0.38684665924E+03  0.79548057697E+03  0.50400001928E-02 0. -1.
</event>
<event>
 5   0  0.7065539E-04  0.1394960E+04  0.7818609E-02  0.8957475E-01
        2   -1    0    0  501    0  0.00000000000E+00  0.00000000000E+00  0.19661885659E+04  0.19661885659E+04  0.25500000920E-02 0. -1.
       -2   -1    0    0    0  501  0.00000000000E+00  0.00000000000E+00 -0.24742211312E+03  0.24742211314E+03  0.25500000920E-02 0.  1.
    10030    2    1    2    0    0  0.00000000000E+00  0.00000000000E+00  0.17187664527E+04  0.22136106790E+04  0.13949602572E+04 0.  0.
        1    1    3    3  502    0  0.29462474480E+03 -0.33384797053E+03  0.17113088998E+04  0.17682862772E+04  0.50400001928E-02 0. -1.
       -1    1    3    3    0  502 -0.29462474480E+03  0.33384797053E+03  0.74575529255E+01  0.44532440176E+03  0.50400001928E-02 0.  1.
</event>
<event>
 5   0  0.6870835E-04  0.1392323E+04  0.7818609E-02  0.8959394E-01
        2   -1    0    0  501    0  0.00000000000E+00  0.00000000000E+00  0.40231185056E+03  0.40231185057E+03  0.25500000920E-02 0.  1.
       -2   -1    0    0    0  501  0.00000000000E+00  0.00000000000E+00 -0.12046394781E+04  0.12046394781E+04  0.25500000920E-02 0. -1.
    10030    2    1    2    0    0  0.00000000000E+00  0.00000000000E+00 -0.80232762756E+03  0.16069513287E+04  0.13923228616E+04 0.  0.
        2    1    3    3  502    0 -0.17814618921E+03 -0.37331141166E+02 -0.11766908896E+04  0.11906851509E+04  0.25500000920E-02 0. -1.
       -2    1    3    3    0  502  0.17814618921E+03  0.37331141166E+02  0.37436326204E+03  0.41626617783E+03  0.25500000920E-02 0.  1.
</event>
<event>
 5   0  0.6959748E-04  0.1412228E+04  0.7818609E-02  0.8945015E-01
       -2   -1    0    0    0  501  0.00000000000E+00  0.00000000000E+00  0.79705098970E+03  0.79705098970E+03  0.25500000920E-02 0.  1.
        2   -1    0    0  501    0  0.00000000000E+00  0.00000000000E+00 -0.62555175046E+03  0.62555175047E+03  0.25500000920E-02 0. -1.
    10030    2    1    2    0    0  0.00000000000E+00  0.00000000000E+00  0.17149923923E+03  0.14226027402E+04  0.14122275197E+04 0.  0.
        5    1    3    3  502    0 -0.28486118758E+03  0.42786885839E+03 -0.40191117162E+03  0.65251232635E+03  0.46999998093E+01 0. -1.
       -5    1    3    3    0  502  0.28486118758E+03 -0.42786885839E+03  0.57341041086E+03  0.77009041381E+03  0.46999998093E+01 0.  1.
</event>
<event>
 5   0  0.3907093E-04  0.1441745E+04  0.7818609E-02  0.8924144E-01
        1   -1    0    0  501    0  0.00000000000E+00  0.00000000000E+00  0.10283236810E+04  0.10283236810E+04  0.50400001928E-02 0.  1.
       -1   -1    0    0    0  501  0.00000000000E+00  0.00000000000E+00 -0.50534380777E+03  0.50534380779E+03  0.50400001928E-02 0. -1.
    10030    2    1    2    0    0  0.00000000000E+00  0.00000000000E+00  0.52297987324E+03  0.15336674888E+04  0.14417447827E+04 0.  0.
        4    1    3    3  502    0 -0.87367822009E+02 -0.66990580461E+03 -0.60371926019E+01  0.67560712250E+03  0.12699999809E+01 0.  1.
       -4    1    3    3    0  502  0.87367822009E+02  0.66990580461E+03  0.52901706585E+03  0.85806036631E+03  0.12699999809E+01 0. -1.
</event>
<event>
 5   0  0.7065539E-04  0.1403046E+04  0.7818609E-02  0.8951617E-01
       -2   -1    0    0    0  501  0.00000000000E+00  0.00000000000E+00  0.10815796073E+04  0.10815796073E+04  0.25500000920E-02 0.  1.
        2   -1    0    0  501    0  0.00000000000E+00  0.00000000000E+00 -0.45501431596E+03  0.45501431597E+03  0.25500000920E-02 0. -1.
    10030    2    1    2    0    0  0.00000000000E+00  0.00000000000E+00  0.62656529129E+03  0.15365939232E+04  0.14030455519E+04 0.  0.
        1    1    3    3  502    0 -0.61948860184E+03 -0.12173925506E+03  0.64825096735E+03  0.90488446264E+03  0.50400001928E-02 0.  1.
       -1    1    3    3    0  502  0.61948860184E+03  0.12173925506E+03 -0.21685676053E+02  0.63170946059E+03  0.50400001928E-02 0. -1.
</event>
<event>
 5   0  0.3784219E-04  0.1410327E+04  0.7818609E-02  0.8946377E-01
        1   -1    0    0  501    0  0.00000000000E+00  0.00000000000E+00  0.13662463732E+04  0.13662463732E+04  0.50400001928E-02 0. -1.
       -1   -1    0    0    0  501  0.00000000000E+00  0.00000000000E+00 -0.36395730807E+03  0.36395730810E+03  0.50400001928E-02 0.  1.
    10030    2    1    2    0    0  0.00000000000E+00  0.00000000000E+00  0.10022890651E+04  0.17302036813E+04  0.14103267028E+04 0.  0.
        1    1    3    3  502    0  0.35997815081E+02  0.69459110819E+03  0.64370130117E+03  0.94768349960E+03  0.50400001928E-02 0.  1.
       -1    1    3    3    0  502 -0.35997815081E+02 -0.69459110819E+03  0.35858776394E+03  0.78252018168E+03  0.50400001928E-02 0. -1.
</event>
<event>
 5   0  0.2660250E-04  0.1408776E+04  0.7818609E-02  0.8947490E-01
        4   -1    0    0  501    0  0.00000000000E+00  0.00000000000E+00  0.33135712891E+03  0.33135956268E+03  0.12699999809E+01 0. -1.
       -4   -1    0    0    0  501  0.00000000000E+00  0.00000000000E+00 -0.14973564697E+04  0.14973570083E+04  0.12699999809E+01 0.  1.
    10030    2    1    2    0    0  0.00000000000E+00  0.00000000000E+00 -0.11659993408E+04  0.18287165709E+04  0.14087760057E+04 0.  0.
        5    1    3    3  502    0 -0.15012050890E+03 -0.53924493955E+03 -0.27971235318E+02  0.56046922487E+03  0.46999998093E+01 0. -1.
       -5    1    3    3    0  502  0.15012050890E+03  0.53924493955E+03 -0.11380281055E+04  0.12682473461E+04  0.46999998093E+01 0.  1.
</event>
<event>
 5   0  0.3784219E-04  0.1394660E+04  0.7818609E-02  0.8957693E-01
        1   -1    0    0  501    0  0.00000000000E+00  0.00000000000E+00  0.11247167881E+04  0.11247167881E+04  0.50400001928E-02 0.  1.
       -1   -1    0    0    0  501  0.00000000000E+00  0.00000000000E+00 -0.43234792323E+03  0.43234792326E+03  0.50400001928E-02 0. -1.
    10030    2    1    2    0    0  0.00000000000E+00  0.00000000000E+00  0.69236886482E+03  0.15570647113E+04  0.13946597686E+04 0.  0.
        1    1    3    3  502    0 -0.18735257849E+03  0.42938676798E+02  0.10945577891E+04  0.11113062010E+04  0.50400001928E-02 0.  1.
       -1    1    3    3    0  502  0.18735257849E+03 -0.42938676798E+02 -0.40218892432E+03  0.44575851030E+03  0.50400001928E-02 0. -1.
</event>
<event>
 5   0  0.3977658E-04  0.1381606E+04  0.7818609E-02  0.8967242E-01
        1   -1    0    0  501    0  0.00000000000E+00  0.00000000000E+00  0.37999491701E+03  0.37999491704E+03  0.50400001928E-02 0. -1.
       -1   -1    0    0    0  501  0.00000000000E+00  0.00000000000E+00 -0.12558286045E+04  0.12558286045E+04  0.50400001928E-02 0.  1.
    10030    2    1    2    0    0  0.00000000000E+00  0.00000000000E+00 -0.87583368753E+03  0.16358235216E+04  0.13816055680E+04 0.  0.
        5    1    3    3  502    0 -0.35257819193E+03  0.54434842572E+03 -0.71949977845E+03  0.96867363503E+03  0.46999998093E+01 0.  1.
       -5    1    3    3    0  502  0.35257819193E+03 -0.54434842572E+03 -0.15633390908E+03  0.66714988656E+03  0.46999998093E+01 0. -1.
</event>
<event>
 5   0  0.3756664E-04  0.1374724E+04  0.7818609E-02  0.8972321E-01
        1   -1    0    0  501    0  0.00000000000E+00  0.00000000000E+00  0.18106444052E+04  0.18106444052E+04  0.50400001928E-02 0.  1.
       -1   -1    0    0    0  501  0.00000000000E+00  0.00000000000E+00 -0.26093833138E+03  0.26093833142E+03  0.50400001928E-02 0. -1.
    10030    2    1    2    0    0  0.00000000000E+00  0.00000000000E+00  0.15497060739E+04  0.20715827367E+04  0.13747240158E+04 0.  0.
        2    1    3    3  502    0 -0.50867524089E+03  0.19411797029E+03  0.14260812673E+03  0.56282267625E+03  0.25500000920E-02 0. -1.
       -2    1    3    3    0  502  0.50867524089E+03 -0.19411797029E+03  0.14070979471E+04  0.15087600604E+04  0.25500000920E-02 0.  1.
</event>
<event>
 5   0  0.7065539E-04  0.1401867E+04  0.7818609E-02  0.8952468E-01
       -2   -1    0    0    0  501  0.00000000000E+00  0.00000000000E+00  0.79678147120E+03  0.79678147121E+03  0.25500000920E-02 0.  1.
        2   -1    0    0  501    0  0.00000000000E+00  0.00000000000E+00 -0.61661538404E+03  0.61661538404E+03  0.25500000920E-02 0. -1.
    10030    2    1    2    0    0  0.00000000000E+00  0.00000000000E+00  0.18016608717E+03  0.14133968553E+04  0.14018669165E+04 0.  0.
        1    1    3    3  502    0 -0.41155208188E+03 -0.33524112150E+03  0.55160993233E+03  0.76552938749E+03  0.50400001928E-02 0.  1.
       -1    1    3    3    0  502  0.41155208188E+03  0.33524112150E+03 -0.37144384516E+03  0.64786746776E+03  0.50400001928E-02 0. -1.
</event>
<event>
 5   0  0.7296966E-04  0.1399939E+04  0.7818609E-02  0.8953863E-01
        2   -1    0    0  501    0  0.00000000000E+00  0.00000000000E+00  0.63964193240E+03  0.63964193241E+03  0.25500000920E-02 0.  1.
       -2   -1    0    0    0  501  0.00000000000E+00  0.00000000000E+00 -0.76598697934E+03  0.76598697935E+03  0.25500000920E-02 0. -1.
    10030    2    1    2    0    0  0.00000000000E+00  0.00000000000E+00 -0.12634504694E+03  0.14056289118E+04  0.13999391296E+04 0.  0.
        3    1    3    3  502    0  0.13194732719E+03 -0.49205062853E+02 -0.75161670110E+03  0.76469530594E+03  0.10100000352E+00 0. -1.
       -3    1    3    3    0  502 -0.13194732719E+03  0.49205062853E+02  0.62527165416E+03  0.64093360581E+03  0.10100000352E+00 0.  1.
</event>
<event>
 5   0  0.3784219E-04  0.1409668E+04  0.7818609E-02  0.8946850E-01
        1   -1    0    0  501    0  0.00000000000E+00  0.00000000000E+00  0.12642123821E+04  0.12642123821E+04  0.50400001928E-02 0. -1.
       -1   -1    0    0    0  501  0.00000000000E+00  0.00000000000E+00 -0.39296475733E+03  0.39296475736E+03  0.50400001928E-02 0.  1.
    10030    2    1    2    0    0  0.00000000000E+00  0.00000000000E+00  0.87124762478E+03  0.16571771395E+04  0.14096679212E+04 0.  0.
        1    1    3    3  502    0 -0.40806586188E+02 -0.48001510717E+03 -0.16921311830E+03  0.51060039172E+03  0.50400001928E-02 0.  1.
       -1    1    3    3    0  502  0.40806586188E+02  0.48001510717E+03  0.10404607431E+04  0.11465767478E+04  0.50400001928E-02 0. -1.
</event>
<event>
 5   0  0.3756664E-04  0.1405530E+04  0.7818609E-02  0.8949825E-01
        1   -1    0    0  501    0  0.00000000000E+00  0.00000000000E+00  0.87399041554E+03  0.87399041555E+03  0.50400001928E-02 0. -1.
       -1   -1    0    0    0  501  0.00000000000E+00  0.00000000000E+00 -0.56508486124E+03  0.56508486126E+03  0.50400001928E-02 0.  1.
    10030    2    1    2    0    0  0.00000000000E+00  0.00000000000E+00  0.30890555430E+03  0.14390752768E+04  0.14055301530E+04 0.  0.
        2    1    3    3  502    0  0.14806032240E+03  0.63344638438E+03  0.42669842808E+03  0.77797668955E+03  0.25500000920E-02 0.  1.
       -2    1    3    3    0  502 -0.14806032240E+03 -0.63344638438E+03 -0.11779287378E+03  0.66109858726E+03  0.25500000920E-02 0. -1.
</event>
<event>
 5   0  0.2660250E-04  0.1404869E+04  0.7818609E-02  0.8950302E-01
       -3   -1    0    0    0  501  0.00000000000E+00  0.00000000000E+00  0.97426325893E+03  0.97426326416E+03  0.10100000352E+00 0. -1.
        3   -1    0    0  501    0  0.00000000000E+00  0.00000000000E+00 -0.50644838704E+03  0.50644839711E+03  0.10100000352E+00 0.  1.
    10030    2    1    2    0    0  0.00000000000E+00  0.00000000000E+00  0.46781487189E+03  0.14807116613E+04  0.14048687730E+04 0.  0.
        1    1    3    3  502    0  0.16437112876E+03  0.65538323241E+03  0.43628647194E+03  0.80429530331E+03  0.50400001928E-02 0. -1.
       -1    1    3    3    0  502 -0.16437112876E+03 -0.65538323241E+03  0.31528399953E+02  0.67641635797E+03  0.50400001928E-02 0.  1.
</event>
<event>
 5   0  0.3907093E-04  0.1400052E+04  0.7818609E-02  0.8953781E-01
        1   -1    0    0  501    0  0.00000000000E+00  0.00000000000E+00  0.12072796071E+04  0.12072796071E+04  0.50400001928E-02 0. -1.
       -1   -1    0    0    0  501  0.00000000000E+00  0.00000000000E+00 -0.40590140367E+03  0.40590140370E+03  0.50400001928E-02 0.  1.
    10030    2    1    2    0    0  0.00000000000E+00  0.00000000000E+00  0.80137820343E+03  0.16131810108E+04  0.14000521236E+04 0.  0.
        4    1    3    3  502    0 -0.63081642777E+03  0.48769038724E+02  0.55544816352E+02  0.63513354833E+03  0.12699999809E+01 0. -1.
       -4    1    3    3    0  502  0.63081642777E+03 -0.48769038724E+02  0.74583338708E+03  0.97804746248E+03  0.12699999809E+01 0.  1.
</event>
<event>
 5   0  0.3756664E-04  0.1429097E+04  0.7818609E-02  0.8933022E-01
       -1   -1    0    0    0  501  0.00000000000E+00  0.00000000000E+00  0.24231373504E+03  0.24231373509E+03  0.50400001928E-02 0. -1.
        1   -1    0    0  501    0  0.00000000000E+00  0.00000000000E+00 -0.21071013549E+04  0.21071013549E+04  0.50400001928E-02 0.  1.
    10030    2    1    2    0    0  0.00000000000E+00  0.00000000000E+00 -0.18647876198E+04  0.23494150900E+04  0.14290970568E+04 0.  0.
        2    1    3    3  502    0 -0.43661609439E+03 -0.56546149390E+03 -0.90918596659E+03  0.11562869180E+04  0.25500000920E-02 0. -1.
       -2    1    3    3    0  502  0.43661609439E+03  0.56546149390E+03 -0.95560165324E+03  0.11931281719E+04  0.25500000920E-02 0.  1.
</event>
<event>
 5   0  0.3907270E-04  0.1394718E+04  0.7818609E-02  0.8957651E-01
       -1   -1    0    0    0  501  0.00000000000E+00  0.00000000000E+00  0.48076035272E+03  0.48076035275E+03  0.50400001928E-02 0.  1.
        1   -1    0    0  501    0  0.00000000000E+00  0.00000000000E+00 -0.10115419023E+04  0.10115419024E+04  0.50400001928E-02 0. -1.
    10030    2    1    2    0    0  0.00000000000E+00  0.00000000000E+00 -0.53078154962E+03  0.14923022551E+04  0.13947175224E+04 0.  0.
        3    1    3    3  502    0  0.58382968627E+03  0.26348140609E+03 -0.56041801232E+03  0.85108631328E+03  0.10100000352E+00 0.  1.
       -3    1    3    3    0  502 -0.58382968627E+03 -0.26348140609E+03  0.29636462698E+02  0.64121594182E+03  0.10100000352E+00 0. -1.
</event>
<event>
 5   0  0.7065539E-04  0.1405265E+04  0.7818609E-02  0.8950016E-01
       -2   -1    0    0    0  501  0.00000000000E+00  0.00000000000E+00  0.68945261540E+03  0.68945261540E+03  0.25500000920E-02 0.  1.
        2   -1    0    0  501    0  0.00000000000E+00  0.00000000000E+00 -0.71606407316E+03  0.71606407317E+03  0.25500000920E-02 0. -1.
    10030    2    1    2    0    0  0.00000000000E+00  0.00000000000E+00 -0.26611457764E+02  0.14055166886E+04  0.14052647410E+04 0.  0.
        1    1    3    3  502    0  0.54962150160E+03  0.42420708149E+03  0.94680313023E+02  0.70071378230E+03  0.50400001928E-02 0. -1.
       -1    1    3    3    0  502 -0.54962150160E+03 -0.42420708149E+03 -0.12129177079E+03  0.70480290627E+03  0.50400001928E-02 0.  1.
</event>
<event>
 5   0  0.3977658E-04  0.1394516E+04  0.7818609E-02  0.8957798E-01
        1   -1    0    0  501    0  0.00000000000E+00  0.00000000000E+00  0.14346682433E+04  0.14346682433E+04  0.50400001928E-02 0. -1.
       -1   -1    0    0    0  501  0.00000000000E+00  0.00000000000E+00 -0.33887171530E+03  0.33887171534E+03  0.50400001928E-02 0.  1.
    10030    2    1    2    0    0  0.00000000000E+00  0.00000000000E+00  0.10957965280E+04  0.17735399586E+04  0.13945156701E+04 0.  0.
        5    1    3    3  502    0 -0.14423465537E+03  0.17190756882E+03  0.13874674361E+04  0.14055048290E+04  0.46999998093E+01 0. -1.
       -5    1    3    3    0  502  0.14423465537E+03 -0.17190756882E+03 -0.29167090812E+03  0.36803512966E+03  0.46999998093E+01 0.  1.
</event>
<event>
 5   0  0.6870835E-04  0.1413268E+04  0.7818609E-02  0.8944270E-01
       -2   -1    0    0    0  501  0.00000000000E+00  0.00000000000E+00  0.45482832574E+03  0.45482832574E+03  0.25500000920E-02 0. -1.
        2   -1    0    0  501    0  0.00000000000E+00  0.00000000000E+00 -0.10978470704E+04  0.10978470704E+04  0.25500000920E-02 0.  1.
    10030    2    1    2    0    0  0.00000000000E+00  0.00000000000E+00 -0.64301874464E+03  0.15526753961E+04  0.14132684741E+04 0.  0.
        2    1    3    3  502    0  0.59269609275E+03 -0.14743041639E+03  0.68945342017E+02  0.61463635284E+03  0.25500000920E-02 0. -1.
       -2    1    3    3    0  502 -0.59269609275E+03  0.14743041639E+03 -0.71196408666E+03  0.93803904329E+03  0.25500000920E-02 0.  1.
</event>
<event>
 5   0  0.3756664E-04  0.1406904E+04  0.7818609E-02  0.8948836E-01
       -1   -1    0    0    0  501  0.00000000000E+00  0.00000000000E+00  0.36597925760E+03  0.36597925764E+03  0.50400001928E-02 0. -1.
        1   -1    0    0  501    0  0.00000000000E+00  0.00000000000E+00 -0.13521110064E+04  0.13521110064E+04  0.50400001928E-02 0.  1.
    10030    2    1    2    0    0  0.00000000000E+00  0.00000000000E+00 -0.98613174883E+03  0.17180902641E+04  0.14069038096E+04 0.  0.
        2    1    3    3  502    0  0.19927649817E+03 -0.35303708291E+03  0.20898109920E+03  0.45609144309E+03  0.25500000920E-02 0. -1.
       -2    1    3    3    0  502 -0.19927649817E+03  0.35303708291E+03 -0.11951128480E+04  0.12619988210E+04  0.25500000920E-02 0.  1.
</event>
<event>
 5   0  0.7296966E-04  0.1404890E+04  0.7818609E-02  0.8950286E-01
       -2   -1    0    0    0  501  0.00000000000E+00  0.00000000000E+00  0.48605759644E+03  0.48605759644E+03  0.25500000920E-02 0.  1.
        2   -1    0    0  501    0  0.00000000000E+00  0.00000000000E+00 -0.10151663235E+04  0.10151663235E+04  0.25500000920E-02 0. -1.
    10030    2    1    2    0    0  0.00000000000E+00  0.00000000000E+00 -0.52910872704E+03  0.15012239199E+04  0.14048904629E+04 0.  0.
        3    1    3    3  502    0 -0.48002435093E+03  0.98114573490E+02 -0.80243845840E+03  0.94019005352E+03  0.10100000352E+00 0. -1.
       -3    1    3    3    0  502  0.48002435093E+03 -0.98114573490E+02  0.27332973136E+03  0.56103386641E+03  0.10100000352E+00 0.  1.
</event>
<event>
 5   0  0.3784219E-04  0.1401987E+04  0.7818609E-02  0.8952382E-01
       -1   -1    0    0    0  501  0.00000000000E+00  0.00000000000E+00  0.76551323503E+03  0.76551323505E+03  0.50400001928E-02 0.  1.
        1   -1    0    0  501    0  0.00000000000E+00  0.00000000000E+00 -0.64191138401E+03  0.64191138403E+03  0.50400001928E-02 0. -1.
    10030    2    1    2    0    0  0.00000000000E+00  0.00000000000E+00  0.12360185102E+03  0.14074246191E+04  0.14019866764E+04 0.  0.
        1    1    3    3  502    0 -0.18993270202E+03  0.10687343189E+03  0.73063983447E+03  0.76245060789E+03  0.50400001928E-02 0.  1.
       -1    1    3    3    0  502  0.18993270202E+03 -0.10687343189E+03 -0.60703798344E+03  0.64497401119E+03  0.50400001928E-02 0. -1.
</event>
<event>
 5   0  0.7296966E-04  0.1398778E+04  0.7818609E-02  0.8954703E-01
       -2   -1    0    0    0  501  0.00000000000E+00  0.00000000000E+00  0.52558600799E+03  0.52558600799E+03  0.25500000920E-02 0. -1.
        2   -1    0    0  501    0  0.00000000000E+00  0.00000000000E+00 -0.93066626411E+03  0.93066626411E+03  0.25500000920E-02 0.  1.
    10030    2    1    2    0    0  0.00000000000E+00  0.00000000000E+00 -0.40508025612E+03  0.14562522721E+04  0.13987782763E+04 0.  0.
        3    1    3    3  502    0  0.11891122918E+03  0.65226011752E+03  0.29232536942E+02  0.66365479939E+03  0.10100000352E+00 0. -1.
       -3    1    3    3    0  502 -0.11891122918E+03 -0.65226011752E+03 -0.43431279306E+03  0.79259747272E+03  0.10100000352E+00 0.  1.
</event>
<event>
 5   0  0.3907270E-04  0.1392496E+04  0.7818609E-02  0.8959268E-01
       -1   -1    0    0    0  501  0.00000000000E+00  0.00000000000E+00  0.80548459895E+03  0.80548459896E+03  0.50400001928E-02 0. -1.
        1   -1    0    0  501    0  0.00000000000E+00  0.00000000000E+00 -0.60182571390E+03  0.60182571392E+03  0.50400001928E-02 0.  1.
    10030    2    1    2    0    0  0.00000000000E+00  0.00000000000E+00  0.20365888505E+03  0.14073103129E+04  0.13924960953E+04 0.  0.
        3    1    3    3  502    0 -0.22823002888E+03  0.57752460854E+03  0.42004054960E+03  0.74970507072E+03  0.10100000352E+00 0. -1.
       -3    1    3    3    0  502  0.22823002888E+03 -0.57752460854E+03 -0.21638166455E+03  0.65760524216E+03  0.10100000352E+00 0.  1.
</event>
<event>
 5   0  0.3977658E-04  0.1384701E+04  0.7818609E-02  0.8964968E-01
        1   -1    0    0  501    0  0.00000000000E+00  0.00000000000E+00  0.11449291085E+04  0.11449291085E+04  0.50400001928E-02 0. -1.
       -1   -1    0    0    0  501  0.00000000000E+00  0.00000000000E+00 -0.41867161795E+03  0.41867161798E+03  0.50400001928E-02 0.  1.
    10030    2    1    2    0    0  0.00000000000E+00  0.00000000000E+00  0.72625749054E+03  0.15636007265E+04  0.13847011552E+04 0.  0.
        5    1    3    3  502    0 -0.14193120176E+03  0.40110208861E+02 -0.40070782793E+03  0.42701539580E+03  0.46999998093E+01 0.  1.
       -5    1    3    3    0  502  0.14193120176E+03 -0.40110208861E+02  0.11269653185E+04  0.11365853307E+04  0.46999998093E+01 0. -1.
</event>
<event>
 5   0  0.3907270E-04  0.1413579E+04  0.7818609E-02  0.8944048E-01
        1   -1    0    0  501    0  0.00000000000E+00  0.00000000000E+00  0.10763635739E+04  0.10763635739E+04  0.50400001928E-02 0. -1.
       -1   -1    0    0    0  501  0.00000000000E+00  0.00000000000E+00 -0.46411035407E+03  0.46411035410E+03  0.50400001928E-02 0.  1.
    10030    2    1    2    0    0  0.00000000000E+00  0.00000000000E+00  0.61225321987E+03  0.15404739280E+04  0.14135791162E+04 0.  0.
        3    1    3    3  502    0 -0.63105664011E+03  0.83115712476E+02 -0.28719292937E+02  0.63715422990E+03  0.10100000352E+00 0.  1.
       -3    1    3    3    0  502  0.63105664011E+03 -0.83115712476E+02  0.64097251281E+03  0.90331969815E+03  0.10100000352E+00 0. -1.
</event>
<event>
 5   0  0.6959748E-04  0.1393193E+04  0.7818609E-02  0.8958760E-01
        2   -1    0    0  501    0  0.00000000000E+00  0.00000000000E+00  0.12832245691E+04  0.12832245691E+04  0.25500000920E-02 0.  1.
       -2   -1    0    0    0  501  0.00000000000E+00  0.00000000000E+00 -0.37814646282E+03  0.37814646283E+03  0.25500000920E-02 0. -1.
    10030    2    1    2    0    0  0.00000000000E+00  0.00000000000E+00  0.90507810630E+03  0.16613710320E+04  0.13931932125E+04 0.  0.
        5    1    3    3  502    0 -0.30285853438E+03 -0.62719150316E+03  0.43882444926E+03  0.82321410383E+03  0.46999998093E+01 0. -1.
       -5    1    3    3    0  502  0.30285853438E+03  0.62719150316E+03  0.46625365704E+03  0.83815692813E+03  0.46999998093E+01 0.  1.
</event>
<event>
 5   0  0.7065539E-04  0.1369235E+04  0.7818609E-02  0.8976394E-01
        2   -1    0    0  501    0  0.00000000000E+00  0.00000000000E+00  0.80116060945E+03  0.80116060945E+03  0.25500000920E-02 0. -1.
       -2   -1    0    0    0  501  0.00000000000E+00  0.00000000000E+00 -0.58502800112E+03  0.58502800113E+03  0.25500000920E-02 0.  1.
    10030    2    1    2    0    0  0.00000000000E+00  0.00000000000E+00  0.21613260833E+03  0.13861886106E+04  0.13692353924E+04 0.  0.
        1    1    3    3  502    0  0.21222482471E+03  0.61917432264E+03 -0.95130475216E+02  0.66141214487E+03  0.50400001928E-02 0. -1.
       -1    1    3    3    0  502 -0.21222482471E+03 -0.61917432264E+03  0.31126308354E+03  0.72477646571E+03  0.50400001928E-02 0.  1.
</event>
<event>
 5   0  0.7065539E-04  0.1335703E+04  0.7818609E-02  0.9001722E-01
       -2   -1    0    0    0  501  0.00000000000E+00  0.00000000000E+00  0.68291397890E+03  0.68291397891E+03  0.25500000920E-02 0. -1.
        2   -1    0    0  501    0  0.00000000000E+00  0.00000000000E+00 -0.65312153806E+03  0.65312153806E+03  0.25500000920E-02 0.  1.
    10030    2    1    2    0    0  0.00000000000E+00  0.00000000000E+00  0.29792440845E+02  0.13360355170E+04  0.13357033028E+04 0.  0.
        1    1    3    3  502    0  0.46336478901E+03  0.32218245074E+03 -0.34228833795E+03  0.66005285060E+03  0.50400001928E-02 0.  1.
       -1    1    3    3    0  502 -0.46336478901E+03 -0.32218245074E+03  0.37208077880E+03  0.67598266637E+03  0.50400001928E-02 0. -1.
</event>
<event>
 5   0  0.3756664E-04  0.1413475E+04  0.7818609E-02  0.8944122E-01
        1   -1    0    0  501    0  0.00000000000E+00  0.00000000000E+00  0.85570446461E+03  0.85570446463E+03  0.50400001928E-02 0.  1.
       -1   -1    0    0    0  501  0.00000000000E+00  0.00000000000E+00 -0.58370382382E+03  0.58370382384E+03  0.50400001928E-02 0. -1.
    10030    2    1    2    0    0  0.00000000000E+00  0.00000000000E+00  0.27200064079E+03  0.14394082885E+04  0.14134751050E+04 0.  0.
        2    1    3    3  502    0  0.58743586634E+03 -0.34435658145E+00  0.53614329582E+03  0.79531795485E+03  0.25500000920E-02 0.  1.
       -2    1    3    3    0  502 -0.58743586634E+03  0.34435658145E+00 -0.26414265504E+03  0.64409033362E+03  0.25500000920E-02 0. -1.
</event>
<event>
 5   0  0.2660250E-04  0.1415324E+04  0.7818609E-02  0.8942800E-01
       -4   -1    0    0    0  501  0.00000000000E+00  0.00000000000E+00  0.96200206945E+03  0.96200290775E+03  0.12699999809E+01 0.  1.
        4   -1    0    0  501    0  0.00000000000E+00  0.00000000000E+00 -0.52056437440E+03  0.52056592359E+03  0.12699999809E+01 0. -1.
    10030    2    1    2    0    0  0.00000000000E+00  0.00000000000E+00  0.44143769504E+03  0.14825688313E+04  0.14153243801E+04 0.  0.
        4    1    3    3  502    0  0.60551453726E+03  0.24695902845E+03 -0.62589099784E+02  0.65692893442E+03  0.12699999809E+01 0. -1.
       -4    1    3    3    0  502 -0.60551453726E+03 -0.24695902845E+03  0.50402679483E+03  0.82563989691E+03  0.12699999809E+01 0.  1.
</event>
<event>
 5   0  0.6870835E-04  0.1395753E+04  0.7818609E-02  0.8956898E-01
       -2   -1    0    0    0  501  0.00000000000E+00  0.00000000000E+00  0.57172661492E+03  0.57172661493E+03  0.25500000920E-02 0. -1.
        2   -1    0    0  501    0  0.00000000000E+00  0.00000000000E+00 -0.85186113858E+03  0.85186113859E+03  0.25500000920E-02 0.  1.
    10030    2    1    2    0    0  0.00000000000E+00  0.00000000000E+00 -0.28013452366E+03  0.14235877535E+04  0.13957531088E+04 0.  0.
        2    1    3    3  502    0 -0.14362198561E+02  0.92442412533E+02  0.56530221836E+03  0.57299081186E+03  0.25500000920E-02 0. -1.
       -2    1    3    3    0  502  0.14362198561E+02 -0.92442412533E+02 -0.84543674202E+03  0.85059694165E+03  0.25500000920E-02 0.  1.
</event>
<event>
 5   0  0.3977658E-04  0.1406524E+04  0.7818609E-02  0.8949110E-01
       -1   -1    0    0    0  501  0.00000000000E+00  0.00000000000E+00  0.79370594203E+03  0.79370594205E+03  0.50400001928E-02 0.  1.
        1   -1    0    0  501    0  0.00000000000E+00  0.00000000000E+00 -0.62312421008E+03  0.62312421010E+03  0.50400001928E-02 0. -1.
    10030    2    1    2    0    0  0.00000000000E+00  0.00000000000E+00  0.17058173196E+03  0.14168301521E+04  0.14065239254E+04 0.  0.
        5    1    3    3  502    0  0.19462003300E+03 -0.67884728225E+02  0.76257907134E+03  0.78995836828E+03  0.46999998093E+01 0.  1.
       -5    1    3    3    0  502 -0.19462003300E+03  0.67884728225E+02 -0.59199733938E+03  0.62687178386E+03  0.46999998093E+01 0. -1.
</event>
<event>
 5   0  0.3907093E-04  0.1453489E+04  0.7818609E-02  0.8915985E-01
       -1   -1    0    0    0  501  0.00000000000E+00  0.00000000000E+00  0.68772777409E+03  0.68772777411E+03  0.50400001928E-02 0.  1.
        1   -1    0    0  501    0  0.00000000000E+00  0.00000000000E+00 -0.76797448941E+03  0.76797448943E+03  0.50400001928E-02 0. -1.
    10030    2    1    2    0    0  0.00000000000E+00  0.00000000000E+00 -0.80246715326E+02  0.14557022635E+04  0.14534887494E+04 0.  0.
        4    1    3    3  502    0 -0.63716508260E+03 -0.15958070568E+03  0.27133324216E+03  0.71068184535E+03  0.12699999809E+01 0.  1.
       -4    1    3    3    0  502  0.63716508260E+03  0.15958070568E+03 -0.35157995748E+03  0.74502041819E+03  0.12699999809E+01 0. -1.
</event>
<event>
 5   0  0.3907270E-04  0.1397453E+04  0.7818609E-02  0.8955664E-01
        1   -1    0    0  501    0  0.00000000000E+00  0.00000000000E+00  0.14783908666E+04  0.14783908666E+04  0.50400001928E-02 0. -1.
       -1   -1    0    0    0  501  0.00000000000E+00  0.00000000000E+00 -0.33023665486E+03  0.33023665490E+03  0.50400001928E-02 0.  1.
    10030    2    1    2    0    0  0.00000000000E+00  0.00000000000E+00  0.11481542117E+04  0.18086275215E+04  0.13974531898E+04 0.  0.
        3    1    3    3  502    0 -0.34085740932E+03  0.53561254944E+03  0.95174935509E+03  0.11440679271E+04  0.10100000352E+00 0. -1.
       -3    1    3    3    0  502  0.34085740932E+03 -0.53561254944E+03  0.19640485660E+03  0.66455959440E+03  0.10100000352E+00 0.  1.
</event>
<event>
 5   0  0.3907270E-04  0.1403310E+04  0.7818609E-02  0.8951426E-01
       -1   -1    0    0    0  501  0.00000000000E+00  0.00000000000E+00  0.44016829188E+03  0.44016829191E+03  0.50400001928E-02 0.  1.
        1   -1    0    0  501    0  0.00000000000E+00  0.00000000000E+00 -0.11184812227E+04  0.11184812227E+04  0.50400001928E-02 0. -1.
    10030    2    1    2    0    0  0.00000000000E+00  0.00000000000E+00 -0.67831293078E+03  0.15586495146E+04  0.14033103282E+04 0.  0.
        3    1    3    3  502    0  0.20250623179E+03 -0.67174442382E+03 -0.34848988904E+03  0.78338659537E+03  0.10100000352E+00 0. -1.
       -3    1    3    3    0  502 -0.20250623179E+03  0.67174442382E+03 -0.32982304175E+03  0.77526291921E+03  0.10100000352E+00 0.  1.
</event>
<event>
 5   0  0.6870835E-04  0.1402486E+04  0.7818609E-02  0.8952021E-01
        2   -1    0    0  501    0  0.00000000000E+00  0.00000000000E+00  0.18839352380E+04  0.18839352380E+04  0.25500000920E-02 0.  1.
       -2   -1    0    0    0  501  0.00000000000E+00  0.00000000000E+00 -0.26101854822E+03  0.26101854823E+03  0.25500000920E-02 0. -1.
    10030    2    1    2    0    0  0.00000000000E+00  0.00000000000E+00  0.16229166898E+04  0.21449537863E+04  0.14024864217E+04 0.  0.
        2    1    3    3  502    0  0.62513295452E+03  0.60791818514E+02  0.33450526682E+03  0.71160426472E+03  0.25500000920E-02 0. -1.
       -2    1    3    3    0  502 -0.62513295452E+03 -0.60791818514E+02  0.12884114230E+04  0.14333495215E+04  0.25500000920E-02 0.  1.
</event>
<event>
 5   0  0.6870835E-04  0.1396951E+04  0.7818609E-02  0.8956029E-01
        2   -1    0    0  501    0  0.00000000000E+00  0.00000000000E+00  0.14360606493E+04  0.14360606493E+04  0.25500000920E-02 0.  1.
       -2   -1    0    0    0  501  0.00000000000E+00  0.00000000000E+00 -0.33972638282E+03  0.33972638283E+03  0.25500000920E-02 0. -1.
    10030    2    1    2    0    0  0.00000000000E+00  0.00000000000E+00  0.10963342665E+04  0.17757870322E+04  0.13969505216E+04 0.  0.
        2    1    3    3  502    0  0.92333222362E+01  0.52775557113E+03 -0.33332341951E+02  0.52888774057E+03  0.25500000920E-02 0. -1.
       -2    1    3    3    0  502 -0.92333222362E+01 -0.52775557113E+03  0.11296666085E+04  0.12468992916E+04  0.25500000920E-02 0.  1.
</event>
<event>
 5   0  0.3907093E-04  0.1414734E+04  0.7818609E-02  0.8943222E-01
        1   -1    0    0  501    0  0.00000000000E+00  0.00000000000E+00  0.48062978458E+03  0.48062978460E+03  0.50400001928E-02 0.  1.
       -1   -1    0    0    0  501  0.00000000000E+00  0.00000000000E+00 -0.10410668982E+04  0.10410668983E+04  0.50400001928E-02 0. -1.
    10030    2    1    2    0    0  0.00000000000E+00  0.00000000000E+00 -0.56043711367E+03  0.15216966829E+04  0.14147335566E+04 0.  0.
        4    1    3    3  502    0 -0.28296018665E+03  0.35707162280E+03 -0.86223952425E+03  0.97520522000E+03  0.12699999809E+01 0. -1.
       -4    1    3    3    0  502  0.28296018665E+03 -0.35707162280E+03  0.30180241058E+03  0.54649146286E+03  0.12699999809E+01 0.  1.
</event>
<event>
 5   0  0.3784219E-04  0.1404206E+04  0.7818609E-02  0.8950780E-01
        1   -1    0    0  501    0  0.00000000000E+00  0.00000000000E+00  0.52539509745E+03  0.52539509747E+03  0.50400001928E-02 0. -1.
       -1   -1    0    0    0  501  0.00000000000E+00  0.00000000000E+00 -0.93824376787E+03  0.93824376788E+03  0.50400001928E-02 0.  1.
    10030    2    1    2    0    0  0.00000000000E+00  0.00000000000E+00 -0.41284867042E+03  0.14636388654E+04  0.14042060759E+04 0.  0.
        1    1    3    3  502    0  0.48735672484E+03  0.12817260321E+03 -0.71599634325E+03  0.87555442836E+03  0.50400001928E-02 0.  1.
       -1    1    3    3    0  502 -0.48735672484E+03 -0.12817260321E+03  0.30314767283E+03  0.58808443699E+03  0.50400001928E-02 0. -1.
</event>
<event>
 5   0  0.3784219E-04  0.1394771E+04  0.7818609E-02  0.8957612E-01
        1   -1    0    0  501    0  0.00000000000E+00  0.00000000000E+00  0.13126957432E+04  0.13126957432E+04  0.50400001928E-02 0. -1.
       -1   -1    0    0    0  501  0.00000000000E+00  0.00000000000E+00 -0.37049464169E+03  0.37049464172E+03  0.50400001928E-02 0.  1.
    10030    2    1    2    0    0  0.00000000000E+00  0.00000000000E+00  0.94220110155E+03  0.16831903850E+04  0.13947712917E+04 0.  0.
        1    1    3    3  502    0 -0.23172652615E+02 -0.34365312915E+03 -0.26068582045E+03  0.43196243125E+03  0.50400001928E-02 0.  1.
       -1    1    3    3    0  502  0.23172652615E+02  0.34365312915E+03  0.12028869220E+04  0.12512279537E+04  0.50400001928E-02 0. -1.
</event>
<event>
 5   0  0.2660250E-04  0.1398509E+04  0.7818609E-02  0.8954899E-01
        3   -1    0    0  501    0  0.00000000000E+00  0.00000000000E+00  0.67843862804E+03  0.67843863556E+03  0.10100000352E+00 0.  1.
       -3   -1    0    0    0  501  0.00000000000E+00  0.00000000000E+00 -0.72070865850E+03  0.72070866557E+03  0.10100000352E+00 0. -1.
    10030    2    1    2    0    0  0.00000000000E+00  0.00000000000E+00 -0.42270030459E+02  0.13991473011E+04  0.13985086395E+04 0.  0.
        3    1    3    3  502    0  0.38796728841E+02  0.42221203746E+03  0.53516603944E+03  0.68276708380E+03  0.10100000352E+00 0.  1.
       -3    1    3    3    0  502 -0.38796728841E+02 -0.42221203746E+03 -0.57743606990E+03  0.71638021733E+03  0.10100000352E+00 0. -1.
</event>
<event>
 5   0  0.3977658E-04  0.1388288E+04  0.7818609E-02  0.8962340E-01
        1   -1    0    0  501    0  0.00000000000E+00  0.00000000000E+00  0.11143741902E+04  0.11143741902E+04  0.50400001928E-02 0. -1.
       -1   -1    0    0    0  501  0.00000000000E+00  0.00000000000E+00 -0.43238252761E+03  0.43238252764E+03  0.50400001928E-02 0.  1.
    10030    2    1    2    0    0  0.00000000000E+00  0.00000000000E+00  0.68199166260E+03  0.15467567179E+04  0.13882880524E+04 0.  0.
        5    1    3    3  502    0 -0.20388783755E+02 -0.68445683188E+02 -0.42826048434E+03  0.43420000748E+03  0.46999998093E+01 0.  1.
       -5    1    3    3    0  502  0.20388783755E+02  0.68445683188E+02  0.11102521469E+04  0.11125567104E+04  0.46999998093E+01 0. -1.
</event>
<event>
 5   0  0.6895048E-04  0.1402351E+04  0.7818609E-02  0.8952118E-01
       -2   -1    0    0    0  501  0.00000000000E+00  0.00000000000E+00  0.36208436665E+03  0.36208436666E+03  0.25500000920E-02 0. -1.
        2   -1    0    0  501    0  0.00000000000E+00  0.00000000000E+00 -0.13578252845E+04  0.13578252845E+04  0.25500000920E-02 0.  1.
    10030    2    1    2    0    0  0.00000000000E+00  0.00000000000E+00 -0.99574091790E+03  0.17199096512E+04  0.14023513229E+04 0.  0.
        4    1    3    3  502    0 -0.51045484371E+03  0.30360542729E+03 -0.95496728052E+03  0.11245908246E+04  0.12699999809E+01 0.  1.
       -4    1    3    3    0  502  0.51045484371E+03 -0.30360542729E+03 -0.40773637376E+02  0.59531882664E+03  0.12699999809E+01 0. -1.
</event>
<event>
 5   0  0.7296966E-04  0.1397699E+04  0.7818609E-02  0.8955486E-01
       -2   -1    0    0    0  501  0.00000000000E+00  0.00000000000E+00  0.32866791667E+03  0.32866791668E+03  0.25500000920E-02 0.  1.
        2   -1    0    0  501    0  0.00000000000E+00  0.00000000000E+00 -0.14859691604E+04  0.14859691604E+04  0.25500000920E-02 0. -1.
    10030    2    1    2    0    0  0.00000000000E+00  0.00000000000E+00 -0.11573012437E+04  0.18146370771E+04  0.13976986631E+04 0.  0.
        3    1    3    3  502    0  0.21580244258E+03  0.31484726117E+02  0.28335681230E+03  0.35756548418E+03  0.10100000352E+00 0.  1.
       -3    1    3    3    0  502 -0.21580244258E+03 -0.31484726117E+02 -0.14406580560E+04  0.14570715929E+04  0.10100000352E+00 0. -1.
</event>
<event>
 5   0  0.7065539E-04  0.1396117E+04  0.7818609E-02  0.8956634E-01
       -2   -1    0    0    0  501  0.00000000000E+00  0.00000000000E+00  0.46491565408E+03  0.46491565408E+03  0.25500000920E-02 0.  1.
        2   -1    0    0  501    0  0.00000000000E+00  0.00000000000E+00 -0.10481167464E+04  0.10481167464E+04  0.25500000920E-02 0. -1.
    10030    2    1    2    0    0  0.00000000000E+00  0.00000000000E+00 -0.58320109236E+03  0.15130324005E+04  0.13961173056E+04 0.  0.
        1    1    3    3  502    0 -0.58067866240E+03  0.17519654294E+03 -0.66608723327E+03  0.90086277533E+03  0.50400001928E-02 0. -1.
       -1    1    3    3    0  502  0.58067866240E+03 -0.17519654294E+03  0.82886140913E+02  0.61216962519E+03  0.50400001928E-02 0.  1.
</event>
<event>
 5   0  0.7296966E-04  0.1351798E+04  0.7818609E-02  0.8989468E-01
        2   -1    0    0  501    0  0.00000000000E+00  0.00000000000E+00  0.12694151435E+04  0.12694151435E+04  0.25500000920E-02 0. -1.
       -2   -1    0    0    0  501  0.00000000000E+00  0.00000000000E+00 -0.35988180789E+03  0.35988180790E+03  0.25500000920E-02 0.  1.
    10030    2    1    2    0    0  0.00000000000E+00  0.00000000000E+00  0.90953333562E+03  0.16292969514E+04  0.13517979388E+04 0.  0.
        3    1    3    3  502    0 -0.51612765251E+03  0.99389121327E+02  0.96693818096E+03  0.11005614054E+04  0.10100000352E+00 0.  1.
       -3    1    3    3    0  502  0.51612765251E+03 -0.99389121327E+02 -0.57404845339E+02  0.52873554599E+03  0.10100000352E+00 0. -1.
</event>
<event>
 5   0  0.6959748E-04  0.1401682E+04  0.7818609E-02  0.8952602E-01
       -2   -1    0    0    0  501  0.00000000000E+00  0.00000000000E+00  0.27372911854E+03  0.27372911855E+03  0.25500000920E-02 0. -1.
        2   -1    0    0  501    0  0.00000000000E+00  0.00000000000E+00 -0.17943939164E+04  0.17943939164E+04  0.25500000920E-02 0.  1.
    10030    2    1    2    0    0  0.00000000000E+00  0.00000000000E+00 -0.15206647978E+04  0.20681230349E+04  0.14016816544E+04 0.  0.
        5    1    3    3  502    0 -0.60905954761E+03  0.21974285972E+03 -0.11560065558E+04  0.13249957373E+04  0.46999998093E+01 0.  1.
       -5    1    3    3    0  502  0.60905954761E+03 -0.21974285972E+03 -0.36465824205E+03  0.74312729760E+03  0.46999998093E+01 0. -1.
</event>
<event>
 5   0  0.2660250E-04  0.1397527E+04  0.7818609E-02  0.8955610E-01
        4   -1    0    0  501    0  0.00000000000E+00  0.00000000000E+00  0.33492803551E+03  0.33493044333E+03  0.12699999809E+01 0.  1.
       -4   -1    0    0    0  501  0.00000000000E+00  0.00000000000E+00 -0.14578295499E+04  0.14578301031E+04  0.12699999809E+01 0. -1.
    10030    2    1    2    0    0  0.00000000000E+00  0.00000000000E+00 -0.11229015144E+04  0.17927605464E+04  0.13975273041E+04 0.  0.
        2    1    3    3  502    0  0.21618699337E+03 -0.50828827641E+02 -0.14113542959E+04  0.14287201736E+04  0.25500000920E-02 0. -1.
       -2    1    3    3    0  502 -0.21618699337E+03  0.50828827641E+02  0.28845278156E+03  0.36404037279E+03  0.25500000920E-02 0.  1.
</event>
<event>
 5   0  0.3784219E-04  0.1400173E+04  0.7818609E-02  0.8953693E-01
       -1   -1    0    0    0  501  0.00000000000E+00  0.00000000000E+00  0.52152152293E+03  0.52152152295E+03  0.50400001928E-02 0.  1.
        1   -1    0    0  501    0  0.00000000000E+00  0.00000000000E+00 -0.93979079936E+03  0.93979079937E+03  0.50400001928E-02 0. -1.
    10030    2    1    2    0    0  0.00000000000E+00  0.00000000000E+00 -0.41826927642E+03  0.14613123223E+04  0.14001730307E+04 0.  0.
        1    1    3    3  502    0  0.41085465327E+02 -0.59133940944E+03 -0.59789243449E+03  0.84192973333E+03  0.50400001928E-02 0. -1.
       -1    1    3    3    0  502 -0.41085465327E+02  0.59133940944E+03  0.17962315806E+03  0.61938258900E+03  0.50400001928E-02 0.  1.
</event>
<event>
 5   0  0.6895048E-04  0.1388554E+04  0.7818609E-02  0.8962146E-01
        2   -1    0    0  501    0  0.00000000000E+00  0.00000000000E+00  0.11522501191E+04  0.11522501191E+04  0.25500000920E-02 0. -1.
       -2   -1    0    0    0  501  0.00000000000E+00  0.00000000000E+00 -0.41832987261E+03  0.41832987262E+03  0.25500000920E-02 0.  1.
    10030    2    1    2    0    0  0.00000000000E+00  0.00000000000E+00  0.73392024645E+03  0.15705799917E+04  0.13885541337E+04 0.  0.
        4    1    3    3  502    0 -0.37461909139E+03  0.11473987770E+03 -0.28133746165E+03  0.48234539844E+03  0.12699999809E+01 0.  1.
       -4    1    3    3    0  502  0.37461909139E+03 -0.11473987770E+03  0.10152577081E+04  0.10882345932E+04  0.12699999809E+01 0. -1.
</event>
<event>
 5   0  0.3907270E-04  0.1408224E+04  0.7818609E-02  0.8947887E-01
        1   -1    0    0  501    0  0.00000000000E+00  0.00000000000E+00  0.68562424752E+03  0.68562424754E+03  0.50400001928E-02 0.  1.
       -1   -1    0    0    0  501  0.00000000000E+00  0.00000000000E+00 -0.72309816596E+03  0.72309816598E+03  0.50400001928E-02 0. -1.
    10030    2    1    2    0    0  0.00000000000E+00  0.00000000000E+00 -0.37473918438E+02  0.14087224135E+04  0.14082238969E+04 0.  0.
        3    1    3    3  502    0  0.25966516589E+03  0.26732032293E+03 -0.61634903749E+03  0.72025849501E+03  0.10100000352E+00 0. -1.
       -3    1    3    3    0  502 -0.25966516589E+03 -0.26732032293E+03  0.57887511905E+03  0.68846391850E+03  0.10100000352E+00 0.  1.
</event>
<event>
 5   0  0.3756664E-04  0.1425328E+04  0.7818609E-02  0.8935686E-01
        1   -1    0    0  501    0  0.00000000000E+00  0.00000000000E+00  0.15036307815E+04  0.15036307816E+04  0.50400001928E-02 0.  1.
       -1   -1    0    0    0  501  0.00000000000E+00  0.00000000000E+00 -0.33777581988E+03  0.33777581991E+03  0.50400001928E-02 0. -1.
    10030    2    1    2    0    0  0.00000000000E+00  0.00000000000E+00  0.11658549617E+04  0.18414066015E+04  0.14253282009E+04 0.  0.
        2    1    3    3  502    0  0.25443620703E+03  0.32682005892E+03  0.13321739657E+04  0.13950758435E+04  0.25500000920E-02 0. -1.
       -2    1    3    3    0  502 -0.25443620703E+03 -0.32682005892E+03 -0.16631900402E+03  0.44633075792E+03  0.25500000920E-02 0.  1.
</event>
<event>
 5   0  0.3907093E-04  0.1399451E+04  0.7818609E-02  0.8954216E-01
       -1   -1    0    0    0  501  0.00000000000E+00  0.00000000000E+00  0.89496125179E+03  0.89496125180E+03  0.50400001928E-02 0. -1.
        1   -1    0    0  501    0  0.00000000000E+00  0.00000000000E+00 -0.54708030535E+03  0.54708030537E+03  0.50400001928E-02 0.  1.
    10030    2    1    2    0    0  0.00000000000E+00  0.00000000000E+00  0.34788094644E+03  0.14420415572E+04  0.13994508565E+04 0.  0.
        4    1    3    3  502    0 -0.20983106550E+03  0.28876327257E+03 -0.44620674736E+03  0.57141524125E+03  0.12699999809E+01 0.  1.
       -4    1    3    3    0  502  0.20983106550E+03 -0.28876327257E+03  0.79408769380E+03  0.87062631592E+03  0.12699999809E+01 0. -1.
</event>
<event>
 5   0  0.6895048E-04  0.1399853E+04  0.7818609E-02  0.8953925E-01
       -2   -1    0    0    0  501  0.00000000000E+00  0.00000000000E+00  0.35668295856E+03  0.35668295857E+03  0.25500000920E-02 0.  1.
        2   -1    0    0  501    0  0.00000000000E+00  0.00000000000E+00 -0.13734813217E+04  0.13734813217E+04  0.25500000920E-02 0. -1.
    10030    2    1    2    0    0  0.00000000000E+00  0.00000000000E+00 -0.10167983632E+04  0.17301642803E+04  0.13998533943E+04 0.  0.
        4    1    3    3  502    0  0.34056667505E+03 -0.14657680875E+02 -0.12639498289E+04  0.13091108779E+04  0.12699999809E+01 0. -1.
       -4    1    3    3    0  502 -0.34056667505E+03  0.14657680875E+02  0.24715146573E+03  0.42105340241E+03  0.12699999809E+01 0.  1.
</event>
<event>
 5   0  0.3977658E-04  0.1403902E+04  0.7818609E-02  0.8950999E-01
       -1   -1    0    0    0  501  0.00000000000E+00  0.00000000000E+00  0.27973487837E+03  0.27973487841E+03  0.50400001928E-02 0. -1.
        1   -1    0    0  501    0  0.00000000000E+00  0.00000000000E+00 -0.17614358739E+04  0.17614358739E+04  0.50400001928E-02 0.  1.
    10030    2    1    2    0    0  0.00000000000E+00  0.00000000000E+00 -0.14817009955E+04  0.20411707523E+04  0.14039017772E+04 0.  0.
        5    1    3    3  502    0  0.38002796221E+02 -0.34109615895E+03 -0.16311029259E+04  0.16668262198E+04  0.46999998093E+01 0.  1.
       -5    1    3    3    0  502 -0.38002796221E+02  0.34109615895E+03  0.14940193041E+03  0.37434453246E+03  0.46999998093E+01 0. -1.
</event>
<event>
 5   0  0.3907270E-04  0.1403725E+04  0.7818609E-02  0.8951126E-01
       -1   -1    0    0    0  501  0.00000000000E+00  0.00000000000E+00  0.58393253990E+03  0.58393253993E+03  0.50400001928E-02 0.  1.
        1   -1    0    0  501    0  0.00000000000E+00  0.00000000000E+00 -0.84360980146E+03  0.84360980148E+03  0.50400001928E-02 0. -1.
    10030    2    1    2    0    0  0.00000000000E+00  0.00000000000E+00 -0.25967726156E+03  0.14275423414E+04  0.14037253493E+04 0.  0.
        3    1    3    3  502    0 -0.92020025614E+02 -0.67329262115E+03 -0.30837518731E+03  0.74624788452E+03  0.10100000352E+00 0. -1.
       -3    1    3    3    0  502  0.92020025614E+02  0.67329262115E+03  0.48697925752E+02  0.68129445688E+03  0.10100000352E+00 0.  1.
</event>
<event>
 5   0  0.3977658E-04  0.1390834E+04  0.7818609E-02  0.8960480E-01
        1   -1    0    0  501    0  0.00000000000E+00  0.00000000000E+00  0.55231135661E+03  0.55231135663E+03  0.50400001928E-02 0. -1.
       -1   -1    0    0    0  501  0.00000000000E+00  0.00000000000E+00 -0.87560211543E+03  0.87560211545E+03  0.50400001928E-02 0.  1.
    10030    2    1    2    0    0  0.00000000000E+00  0.00000000000E+00 -0.32329075883E+03  0.14279134721E+04  0.13908342709E+04 0.  0.
        5    1    3    3  502    0  0.37944605238E+03 -0.22413810083E+03 -0.71391358146E+03  0.83899456894E+03  0.46999998093E+01 0.  1.
       -5    1    3    3    0  502 -0.37944605238E+03  0.22413810083E+03  0.39062282264E+03  0.58891890314E+03  0.46999998093E+01 0. -1.
</event>
<event>
 5   0  0.6959748E-04  0.1391933E+04  0.7818609E-02  0.8959679E-01
       -2   -1    0    0    0  501  0.00000000000E+00  0.00000000000E+00  0.85781976662E+03  0.85781976663E+03  0.25500000920E-02 0.  1.
        2   -1    0    0  501    0  0.00000000000E+00  0.00000000000E+00 -0.56465172349E+03  0.56465172350E+03  0.25500000920E-02 0. -1.
    10030    2    1    2    0    0  0.00000000000E+00  0.00000000000E+00  0.29316804313E+03  0.14224714901E+04  0.13919330583E+04 0.  0.
        5    1    3    3  502    0 -0.41848658065E+03  0.55607206282E+03  0.14617212913E+03  0.71115085500E+03  0.46999998093E+01 0. -1.
       -5    1    3    3    0  502  0.41848658065E+03 -0.55607206282E+03  0.14699591400E+03  0.71132063513E+03  0.46999998093E+01 0.  1.
</event>
<event>
 5   0  0.7065539E-04  0.1334305E+04  0.7818609E-02  0.9002795E-01
       -2   -1    0    0    0  501  0.00000000000E+00  0.00000000000E+00  0.46954817369E+03  0.46954817369E+03  0.25500000920E-02 0. -1.
        2   -1    0    0  501    0  0.00000000000E+00  0.00000000000E+00 -0.94791590767E+03  0.94791590767E+03  0.25500000920E-02 0.  1.
    10030    2    1    2    0    0  0.00000000000E+00  0.00000000000E+00 -0.47836773398E+03  0.14174640814E+04  0.13343045878E+04 0.  0.
        1    1    3    3  502    0  0.63590558747E+03 -0.18732527189E+03 -0.31886179228E+03  0.73562185685E+03  0.50400001928E-02 0. -1.
       -1    1    3    3    0  502 -0.63590558747E+03  0.18732527189E+03 -0.15950594170E+03  0.68184222451E+03  0.50400001928E-02 0.  1.
</event>
<event>
 5   0  0.3756664E-04  0.1404067E+04  0.7818609E-02  0.8950880E-01
       -1   -1    0    0    0  501  0.00000000000E+00  0.00000000000E+00  0.23447661221E+03  0.23447661226E+03  0.50400001928E-02 0.  1.
        1   -1    0    0  501    0  0.00000000000E+00  0.00000000000E+00 -0.21019212134E+04  0.21019212134E+04  0.50400001928E-02 0. -1.
    10030    2    1    2    0    0  0.00000000000E+00  0.00000000000E+00 -0.18674446011E+04  0.23363978256E+04  0.14040674703E+04 0.  0.
        2    1    3    3  502    0 -0.27706015405E+03  0.24005603205E+03  0.62555517628E+02  0.37189033367E+03  0.25500000920E-02 0.  1.
       -2    1    3    3    0  502  0.27706015405E+03 -0.24005603205E+03 -0.19300001188E+04  0.19645074920E+04  0.25500000920E-02 0. -1.
</event>
<event>
 5   0  0.6959748E-04  0.1450303E+04  0.7818609E-02  0.8918191E-01
        2   -1    0    0  501    0  0.00000000000E+00  0.00000000000E+00  0.12197237688E+04  0.12197237688E+04  0.25500000920E-02 0.  1.
       -2   -1    0    0    0  501  0.00000000000E+00  0.00000000000E+00 -0.43111767946E+03  0.43111767947E+03  0.25500000920E-02 0. -1.
    10030    2    1    2    0    0  0.00000000000E+00  0.00000000000E+00  0.78860608934E+03  0.16508414483E+04  0.14503027005E+04 0.  0.
        5    1    3    3  502    0  0.48221375196E+03  0.10737911694E+03 -0.20990698444E+03  0.53678991184E+03  0.46999998093E+01 0. -1.
       -5    1    3    3    0  502 -0.48221375196E+03 -0.10737911694E+03  0.99851307378E+03  0.11140515364E+04  0.46999998093E+01 0.  1.
</event>
<event>
 5   0  0.7065539E-04  0.1378613E+04  0.7818609E-02  0.8969447E-01
        2   -1    0    0  501    0  0.00000000000E+00  0.00000000000E+00  0.92169687952E+03  0.92169687953E+03  0.25500000920E-02 0.  1.
       -2   -1    0    0    0  501  0.00000000000E+00  0.00000000000E+00 -0.51550952258E+03  0.51550952259E+03  0.25500000920E-02 0. -1.
    10030    2    1    2    0    0  0.00000000000E+00  0.00000000000E+00  0.40618735694E+03  0.14372064021E+04  0.13786130978E+04 0.  0.
        1    1    3    3  502    0  0.55134268713E+03 -0.56599491873E+01 -0.22817038966E+03  0.59671812476E+03  0.50400001928E-02 0. -1.
       -1    1    3    3    0  502 -0.55134268713E+03  0.56599491873E+01  0.63435774660E+03  0.84048827735E+03  0.50400001928E-02 0.  1.
</event>
<event>
 5   0  0.2660250E-04  0.1367928E+04  0.7818609E-02  0.8977367E-01
        3   -1    0    0  501    0  0.00000000000E+00  0.00000000000E+00  0.90939931308E+03  0.90939931869E+03  0.10100000352E+00 0. -1.
       -3   -1    0    0    0  501  0.00000000000E+00  0.00000000000E+00 -0.51441273861E+03  0.51441274853E+03  0.10100000352E+00 0.  1.
    10030    2    1    2    0    0  0.00000000000E+00  0.00000000000E+00  0.39498657447E+03  0.14238120672E+04  0.13679277791E+04 0.  0.
        1    1    3    3  502    0  0.22867209374E+02  0.22347057884E+03 -0.47492094353E+03  0.52536835792E+03  0.50400001928E-02 0.  1.
       -1    1    3    3    0  502 -0.22867209374E+02 -0.22347057884E+03  0.86990751801E+03  0.89844370930E+03  0.50400001928E-02 0. -1.
</event>
<event>
 5   0  0.7065539E-04  0.1392848E+04  0.7818609E-02  0.8959012E-01
        2   -1    0    0  501    0  0.00000000000E+00  0.00000000000E+00  0.15827884034E+04  0.15827884034E+04  0.25500000920E-02 0.  1.
       -2   -1    0    0    0  501  0.00000000000E+00  0.00000000000E+00 -0.30642532700E+03  0.30642532701E+03  0.25500000920E-02 0. -1.
    10030    2    1    2    0    0  0.00000000000E+00  0.00000000000E+00  0.12763630763E+04  0.18892137304E+04  0.13928480952E+04 0.  0.
        1    1    3    3  502    0 -0.69190649885E+03 -0.66207443653E+02  0.57923921568E+03  0.90478511137E+03  0.50400001928E-02 0. -1.
       -1    1    3    3    0  502  0.69190649885E+03  0.66207443653E+02  0.69712386067E+03  0.98442861900E+03  0.50400001928E-02 0.  1.
</event>
<event>
 5   0  0.7296966E-04  0.1389537E+04  0.7818609E-02  0.8961427E-01
        2   -1    0    0  501    0  0.00000000000E+00  0.00000000000E+00  0.36824718354E+03  0.36824718355E+03  0.25500000920E-02 0. -1.
       -2   -1    0    0    0  501  0.00000000000E+00  0.00000000000E+00 -0.13108133673E+04  0.13108133673E+04  0.25500000920E-02 0.  1.
    10030    2    1    2    0    0  0.00000000000E+00  0.00000000000E+00 -0.94256618373E+03  0.16790605508E+04  0.13895370893E+04 0.  0.
        3    1    3    3  502    0  0.10300443594E+03  0.26187015783E+03  0.29630346933E+03  0.40863388200E+03  0.10100000352E+00 0. -1.
       -3    1    3    3    0  502 -0.10300443594E+03 -0.26187015783E+03 -0.12388696531E+04  0.12704266688E+04  0.10100000352E+00 0.  1.
</event>
<event>
 5   0  0.3907093E-04  0.1423679E+04  0.7818609E-02  0.8936855E-01
        1   -1    0    0  501    0  0.00000000000E+00  0.00000000000E+00  0.20551964381E+04  0.20551964381E+04  0.50400001928E-02 0.  1.
       -1   -1    0    0    0  501  0.00000000000E+00  0.00000000000E+00 -0.24655320567E+03  0.24655320572E+03  0.50400001928E-02 0. -1.
    10030    2    1    2    0    0  0.00000000000E+00  0.00000000000E+00  0.18086432325E+04  0.23017496439E+04  0.14236787140E+04 0.  0.
        4    1    3    3  502    0  0.52235362995E+03 -0.47525297290E+03  0.75975963702E+03  0.10372825179E+04  0.12699999809E+01 0. -1.
       -4    1    3    3    0  502 -0.52235362995E+03  0.47525297290E+03  0.10488835954E+04  0.12644671260E+04  0.12699999809E+01 0.  1.
</event>
<event>
 5   0  0.3907093E-04  0.1405198E+04  0.7818609E-02  0.8950064E-01
       -1   -1    0    0    0  501  0.00000000000E+00  0.00000000000E+00  0.27837470380E+03  0.27837470385E+03  0.50400001928E-02 0. -1.
        1   -1    0    0  501    0  0.00000000000E+00  0.00000000000E+00 -0.17733137942E+04  0.17733137942E+04  0.50400001928E-02 0.  1.
    10030    2    1    2    0    0  0.00000000000E+00  0.00000000000E+00 -0.14949390904E+04  0.20516884981E+04  0.14051984945E+04 0.  0.
        4    1    3    3  502    0  0.51892916004E+03  0.47283227483E+03 -0.70652879796E+03  0.99601324715E+03  0.12699999809E+01 0. -1.
       -4    1    3    3    0  502 -0.51892916004E+03 -0.47283227483E+03 -0.78841029247E+03  0.10556752509E+04  0.12699999809E+01 0.  1.
</event>
<event>
 5   0  0.3784219E-04  0.1397206E+04  0.7818609E-02  0.8955843E-01
       -1   -1    0    0    0  501  0.00000000000E+00  0.00000000000E+00  0.27884099302E+03  0.27884099306E+03  0.50400001928E-02 0. -1.
        1   -1    0    0  501    0  0.00000000000E+00  0.00000000000E+00 -0.17502680495E+04  0.17502680496E+04  0.50400001928E-02 0.  1.
    10030    2    1    2    0    0  0.00000000000E+00  0.00000000000E+00 -0.14714270565E+04  0.20291090426E+04  0.13972064715E+04 0.  0.
        1    1    3    3  502    0  0.14700453792E+02  0.43005106774E+02  0.27669178427E+03  0.28039951152E+03  0.50400001928E-02 0. -1.
       -1    1    3    3    0  502 -0.14700453792E+02 -0.43005106774E+02 -0.17481188408E+04  0.17487095311E+04  0.50400001928E-02 0.  1.
</event>
<event>
 5   0  0.6959748E-04  0.1400662E+04  0.7818609E-02  0.8953340E-01
       -2   -1    0    0    0  501  0.00000000000E+00  0.00000000000E+00  0.44529079179E+03  0.44529079180E+03  0.25500000920E-02 0. -1.
        2   -1    0    0  501    0  0.00000000000E+00  0.00000000000E+00 -0.11014447325E+04  0.11014447325E+04  0.25500000920E-02 0.  1.
    10030    2    1    2    0    0  0.00000000000E+00  0.00000000000E+00 -0.65615394067E+03  0.15467355243E+04  0.14006615537E+04 0.  0.
        5    1    3    3  502    0  0.45904254422E+02  0.22593011040E+03  0.40216597947E+03  0.46358513824E+03  0.46999998093E+01 0. -1.
       -5    1    3    3    0  502 -0.45904254422E+02 -0.22593011040E+03 -0.10583199201E+04  0.10831503860E+04  0.46999998093E+01 0.  1.
</event>
<event>
 5   0  0.3784219E-04  0.1397501E+04  0.7818609E-02  0.8955630E-01
       -1   -1    0    0    0  501  0.00000000000E+00  0.00000000000E+00  0.79932536761E+03  0.79932536762E+03  0.50400001928E-02 0. -1.
        1   -1    0    0  501    0  0.00000000000E+00  0.00000000000E+00 -0.61083022886E+03  0.61083022888E+03  0.50400001928E-02 0.  1.
    10030    2    1    2    0    0  0.00000000000E+00  0.00000000000E+00  0.18849513875E+03  0.14101555965E+04  0.13975007653E+04 0.  0.
        1    1    3    3  502    0 -0.40733326961E+03  0.20791930531E+03 -0.43883672189E+03  0.63382055706E+03  0.50400001928E-02 0. -1.
       -1    1    3    3    0  502  0.40733326961E+03 -0.20791930531E+03  0.62733186064E+03  0.77633503943E+03  0.50400001928E-02 0.  1.
</event>
<event>
 5   0  0.2660250E-04  0.1332349E+04  0.7818609E-02  0.9004298E-01
        3   -1    0    0  501    0  0.00000000000E+00  0.00000000000E+00  0.45055295311E+03  0.45055296443E+03  0.10100000352E+00 0. -1.
       -3   -1    0    0    0  501  0.00000000000E+00  0.00000000000E+00 -0.98498590386E+03  0.98498590904E+03  0.10100000352E+00 0.  1.
    10030    2    1    2    0    0  0.00000000000E+00  0.00000000000E+00 -0.53443295075E+03  0.14355388735E+04  0.13323487826E+04 0.  0.
        1    1    3    3  502    0 -0.63930981622E+03  0.17879136720E+03 -0.20717897285E+03  0.69541823453E+03  0.50400001928E-02 0.  1.
       -1    1    3    3    0  502  0.63930981622E+03 -0.17879136720E+03 -0.32725397790E+03  0.74012063894E+03  0.50400001928E-02 0. -1.
</event>
<event>
 5   0  0.6959748E-04  0.1404549E+04  0.7818609E-02  0.8950532E-01
       -2   -1    0    0    0  501  0.00000000000E+00  0.00000000000E+00  0.37398727329E+03  0.37398727330E+03  0.25500000920E-02 0.  1.
        2   -1    0    0  501    0  0.00000000000E+00  0.00000000000E+00 -0.13187337885E+04  0.13187337885E+04  0.25500000920E-02 0. -1.
    10030    2    1    2    0    0  0.00000000000E+00  0.00000000000E+00 -0.94474651524E+03  0.16927210618E+04  0.14045492569E+04 0.  0.
        5    1    3    3  502    0 -0.59674688583E+03 -0.30613846802E+03 -0.22147788072E+03  0.70633005670E+03  0.46999998093E+01 0.  1.
       -5    1    3    3    0  502  0.59674688583E+03  0.30613846802E+03 -0.72326863452E+03  0.98639100514E+03  0.46999998093E+01 0. -1.
</event>
<event>
 5   0  0.7065539E-04  0.1392625E+04  0.7818609E-02  0.8959174E-01
        2   -1    0    0  501    0  0.00000000000E+00  0.00000000000E+00  0.58005539765E+03  0.58005539766E+03  0.25500000920E-02 0. -1.
       -2   -1    0    0    0  501  0.00000000000E+00  0.00000000000E+00 -0.83587036610E+03  0.83587036611E+03  0.25500000920E-02 0.  1.
    10030    2    1    2    0    0  0.00000000000E+00  0.00000000000E+00 -0.25581496845E+03  0.14159257638E+04  0.13926250286E+04 0.  0.
        1    1    3    3  502    0 -0.56009275278E+03  0.25321308287E+03 -0.46053623296E+03  0.76805883821E+03  0.50400001928E-02 0.  1.
       -1    1    3    3    0  502  0.56009275278E+03 -0.25321308287E+03  0.20472126451E+03  0.64786692555E+03  0.50400001928E-02 0. -1.
</event>
<event>
 5   0  0.6895048E-04  0.1403905E+04  0.7818609E-02  0.8950997E-01
        2   -1    0    0  501    0  0.00000000000E+00  0.00000000000E+00  0.49391438385E+03  0.49391438386E+03  0.25500000920E-02 0.  1.
       -2   -1    0    0    0  501  0.00000000000E+00  0.00000000000E+00 -0.99761700186E+03  0.99761700187E+03  0.25500000920E-02 0. -1.
    10030    2    1    2    0    0  0.00000000000E+00  0.00000000000E+00 -0.50370261801E+03  0.14915313857E+04  0.14039051062E+04 0.  0.
        4    1    3    3  502    0  0.16040945860E+03  0.44425086486E+03  0.29983401568E+03  0.55945694668E+03  0.12699999809E+01 0.  1.
       -4    1    3    3    0  502 -0.16040945860E+03 -0.44425086486E+03 -0.80353663369E+03  0.93207443904E+03  0.12699999809E+01 0. -1.
</event>
<event>
 5   0  0.6959748E-04  0.1402862E+04  0.7818609E-02  0.8951750E-01
       -2   -1    0    0    0  501  0.00000000000E+00  0.00000000000E+00  0.32755779274E+03  0.32755779275E+03  0.25500000920E-02 0. -1.
        2   -1    0    0  501    0  0.00000000000E+00  0.00000000000E+00 -0.15020408246E+04  0.15020408246E+04  0.25500000920E-02 0.  1.
    10030    2    1    2    0    0  0.00000000000E+00  0.00000000000E+00 -0.11744830319E+04  0.18295986174E+04  0.14028616142E+04 0.  0.
        5    1    3    3  502    0 -0.39556878329E+03  0.48686038497E+03 -0.99650674327E+03  0.11775209026E+04  0.46999998093E+01 0. -1.
       -5    1    3    3    0  502  0.39556878329E+03 -0.48686038497E+03 -0.17797628863E+03  0.65207771475E+03  0.46999998093E+01 0.  1.
</event>
<event>
 5   0  0.3907093E-04  0.1397061E+04  0.7818609E-02  0.8955949E-01
       -1   -1    0    0    0  501  0.00000000000E+00  0.00000000000E+00  0.58283642744E+03  0.58283642746E+03  0.50400001928E-02 0.  1.
        1   -1    0    0  501    0  0.00000000000E+00  0.00000000000E+00 -0.83719000645E+03  0.83719000646E+03  0.50400001928E-02 0. -1.
    10030    2    1    2    0    0  0.00000000000E+00  0.00000000000E+00 -0.25435357901E+03  0.14200264339E+04  0.13970609614E+04 0.  0.
        4    1    3    3  502    0  0.68489469925E+02 -0.11250705150E+03 -0.82445248910E+03  0.83490847631E+03  0.12699999809E+01 0. -1.
       -4    1    3    3    0  502 -0.68489469925E+02  0.11250705150E+03  0.57009891009E+03  0.58511795761E+03  0.12699999809E+01 0.  1.
</event>
<event>
 5   0  0.7065539E-04  0.1396936E+04  0.7818609E-02  0.8956039E-01
       -2   -1    0    0    0  501  0.00000000000E+00  0.00000000000E+00  0.65105465670E+03  0.65105465671E+03  0.25500000920E-02 0. -1.
        2   -1    0    0  501    0  0.00000000000E+00  0.00000000000E+00 -0.74933467634E+03  0.74933467635E+03  0.25500000920E-02 0.  1.
    10030    2    1    2    0    0  0.00000000000E+00  0.00000000000E+00 -0.98280019641E+02  0.14003893331E+04  0.13969364058E+04 0.  0.
        1    1    3    3  502    0  0.48554691069E+03  0.24459134708E+02 -0.55188113817E+03  0.73547728887E+03  0.50400001928E-02 0.  1.
       -1    1    3    3    0  502 -0.48554691069E+03 -0.24459134708E+02  0.45360111853E+03  0.66491204419E+03  0.50400001928E-02 0. -1.
</event>
<event>
 5   0  0.3907093E-04  0.1402409E+04  0.7818609E-02  0.8952077E-01
       -1   -1    0    0    0  501  0.00000000000E+00  0.00000000000E+00  0.40806371367E+03  0.40806371370E+03  0.50400001928E-02 0. -1.
        1   -1    0    0  501    0  0.00000000000E+00  0.00000000000E+00 -0.12049285195E+04  0.12049285195E+04  0.50400001928E-02 0.  1.
    10030    2    1    2    0    0  0.00000000000E+00  0.00000000000E+00 -0.79686480583E+03  0.16129922332E+04  0.14024087940E+04 0.  0.
        4    1    3    3  502    0  0.61245715042E+03 -0.32331185810E+03 -0.27216787711E+03  0.74411778969E+03  0.12699999809E+01 0. -1.
       -4    1    3    3    0  502 -0.61245715042E+03  0.32331185810E+03 -0.52469692872E+03  0.86887444352E+03  0.12699999809E+01 0.  1.
</event>
<event>
 5   0  0.3756664E-04  0.1405499E+04  0.7818609E-02  0.8949848E-01
       -1   -1    0    0    0  501  0.00000000000E+00  0.00000000000E+00  0.53377763889E+03  0.53377763891E+03  0.50400001928E-02 0.  1.
        1   -1    0    0  501    0  0.00000000000E+00  0.00000000000E+00 -0.92521058086E+03  0.92521058087E+03  0.50400001928E-02 0. -1.
    10030    2    1    2    0    0  0.00000000000E+00  0.00000000000E+00 -0.39143294197E+03  0.14589882198E+04  0.14054988002E+04 0.  0.
        2    1    3    3  502    0  0.45133810228E+03 -0.51132066768E+03 -0.19852870394E+02  0.68231154486E+03  0.25500000920E-02 0.  1.
       -2    1    3    3    0  502 -0.45133810228E+03  0.51132066768E+03 -0.37158007157E+03  0.77667667492E+03  0.25500000920E-02 0. -1.
</event>
<event>
 5   0  0.2660250E-04  0.1392686E+04  0.7818609E-02  0.8959130E-01
        4   -1    0    0  501    0  0.00000000000E+00  0.00000000000E+00  0.49122785442E+03  0.49122949612E+03  0.12699999809E+01 0.  1.
       -4   -1    0    0    0  501  0.00000000000E+00  0.00000000000E+00 -0.98710217600E+03  0.98710299299E+03  0.12699999809E+01 0. -1.
    10030    2    1    2    0    0  0.00000000000E+00  0.00000000000E+00 -0.49587432158E+03  0.14783324891E+04  0.13926864707E+04 0.  0.
        3    1    3    3  502    0 -0.50161920862E+03 -0.34911046961E+03  0.10634521539E+03  0.62032996501E+03  0.10100000352E+00 0.  1.
       -3    1    3    3    0  502  0.50161920862E+03  0.34911046961E+03 -0.60221953698E+03  0.85800252410E+03  0.10100000352E+00 0. -1.
</event>
<event>
 5   0  0.3784219E-04  0.1401803E+04  0.7818609E-02  0.8952515E-01
       -1   -1    0    0    0  501  0.00000000000E+00  0.00000000000E+00  0.69254056938E+03  0.69254056940E+03  0.50400001928E-02 0. -1.
        1   -1    0    0  501    0  0.00000000000E+00  0.00000000000E+00 -0.70936287580E+03  0.70936287582E+03  0.50400001928E-02 0.  1.
    10030    2    1    2    0    0  0.00000000000E+00  0.00000000000E+00 -0.16822306418E+02  0.14019034452E+04  0.14018025110E+04 0.  0.
        1    1    3    3  502    0  0.32992827421E+03 -0.46658018279E+03 -0.41428866843E+03  0.70582209792E+03  0.50400001928E-02 0.  1.
       -1    1    3    3    0  502 -0.32992827421E+03  0.46658018279E+03  0.39746636201E+03  0.69608134730E+03  0.50400001928E-02 0. -1.
</event>
<event>
 5   0  0.3907093E-04  0.1398814E+04  0.7818609E-02  0.8954677E-01
       -1   -1    0    0    0  501  0.00000000000E+00  0.00000000000E+00  0.35207535263E+03  0.35207535266E+03  0.50400001928E-02 0.  1.
        1   -1    0    0  501    0  0.00000000000E+00  0.00000000000E+00 -0.13893914468E+04  0.13893914468E+04  0.50400001928E-02 0. -1.
    10030    2    1    2    0    0  0.00000000000E+00  0.00000000000E+00 -0.10373160942E+04  0.17414667995E+04  0.13988144746E+04 0.  0.
        4    1    3    3  502    0  0.16271045301E+03  0.34018846213E+03  0.21467040377E+03  0.43392150954E+03  0.12699999809E+01 0.  1.
       -4    1    3    3    0  502 -0.16271045301E+03 -0.34018846213E+03 -0.12519864980E+04  0.13075452900E+04  0.12699999809E+01 0. -1.
</event>
<event>
 5   0  0.6895048E-04  0.1398672E+04  0.7818609E-02  0.8954780E-01
        2   -1    0    0  501    0  0.00000000000E+00  0.00000000000E+00  0.38455976104E+03  0.38455976104E+03  0.25500000920E-02 0. -1.
       -2   -1    0    0    0  501  0.00000000000E+00  0.00000000000E+00 -0.12717684872E+04  0.12717684872E+04  0.25500000920E-02 0.  1.
    10030    2    1    2    0    0  0.00000000000E+00  0.00000000000E+00 -0.88720872621E+03  0.16563282483E+04  0.13986722069E+04 0.  0.
        4    1    3    3  502    0 -0.61843805189E+03 -0.29393340458E+03 -0.61194165434E+03  0.91833363848E+03  0.12699999809E+01 0.  1.
       -4    1    3    3    0  502  0.61843805189E+03  0.29393340458E+03 -0.27526707187E+03  0.73799460981E+03  0.12699999809E+01 0. -1.
</event>
<event>
 5   0  0.6870835E-04  0.1397116E+04  0.7818609E-02  0.8955909E-01
       -2   -1    0    0    0  501  0.00000000000E+00  0.00000000000E+00  0.32958976409E+03  0.32958976410E+03  0.25500000920E-02 0.  1.
        2   -1    0    0  501    0  0.00000000000E+00  0.00000000000E+00 -0.14805771519E+04  0.14805771519E+04  0.25500000920E-02 0. -1.
    10030    2    1    2    0    0  0.00000000000E+00  0.00000000000E+00 -0.11509873878E+04  0.18101669160E+04  0.13971157063E+04 0.  0.
        2    1    3    3  502    0  0.21661495843E+03  0.34474032682E+03  0.15996658188E+03  0.43744398553E+03  0.25500000920E-02 0.  1.
       -2    1    3    3    0  502 -0.21661495843E+03 -0.34474032682E+03 -0.13109539697E+04  0.13727229305E+04  0.25500000920E-02 0. -1.
</event>
<event>
 5   0  0.3907270E-04  0.1410188E+04  0.7818609E-02  0.8946477E-01
        1   -1    0    0  501    0  0.00000000000E+00  0.00000000000E+00  0.60232597533E+03  0.60232597535E+03  0.50400001928E-02 0.  1.
       -1   -1    0    0    0  501  0.00000000000E+00  0.00000000000E+00 -0.82539597476E+03  0.82539597477E+03  0.50400001928E-02 0. -1.
    10030    2    1    2    0    0  0.00000000000E+00  0.00000000000E+00 -0.22306999943E+03  0.14277219501E+04  0.14101878393E+04 0.  0.
        3    1    3    3  502    0  0.30587495315E+03  0.62786598653E+03 -0.20960134072E+03  0.72918304714E+03  0.10100000352E+00 0. -1.
       -3    1    3    3    0  502 -0.30587495315E+03 -0.62786598653E+03 -0.13468658707E+02  0.69853890298E+03  0.10100000352E+00 0.  1.
</event>
<event>
 5   0  0.6870835E-04  0.1406533E+04  0.7818609E-02  0.8949103E-01
        2   -1    0    0  501    0  0.00000000000E+00  0.00000000000E+00  0.15268597203E+04  0.15268597203E+04  0.25500000920E-02 0.  1.
       -2   -1    0    0    0  501  0.00000000000E+00  0.00000000000E+00 -0.32392211175E+03  0.32392211176E+03  0.25500000920E-02 0. -1.
    10030    2    1    2    0    0  0.00000000000E+00  0.00000000000E+00  0.12029376085E+04  0.18507818320E+04  0.14065327937E+04 0.  0.
        2    1    3    3  502    0 -0.45307809887E+03 -0.30174505080E+03  0.11873588369E+04  0.13061970935E+04  0.25500000920E-02 0.  1.
       -2    1    3    3    0  502  0.45307809887E+03  0.30174505080E+03  0.15578771617E+02  0.54458473858E+03  0.25500000920E-02 0. -1.
</event>
<event>
 5   0  0.3977658E-04  0.1398927E+04  0.7818609E-02  0.8954596E-01
       -1   -1    0    0    0  501  0.00000000000E+00  0.00000000000E+00  0.94427987256E+03  0.94427987258E+03  0.50400001928E-02 0. -1.
        1   -1    0    0  501    0  0.00000000000E+00  0.00000000000E+00 -0.51811887953E+03  0.51811887955E+03  0.50400001928E-02 0.  1.
    10030    2    1    2    0    0  0.00000000000E+00  0.00000000000E+00  0.42616099303E+03  0.14623987521E+04  0.13989270597E+04 0.  0.
        5    1    3    3  502    0  0.64996261019E+03 -0.11750003225E+03  0.45367384790E+03  0.80131123946E+03  0.46999998093E+01 0. -1.
       -5    1    3    3    0  502 -0.64996261019E+03  0.11750003225E+03 -0.27512854863E+02  0.66108751267E+03  0.46999998093E+01 0.  1.
</event>
<event>
 5   0  0.7065539E-04  0.1398618E+04  0.7818609E-02  0.8954820E-01
        2   -1    0    0  501    0  0.00000000000E+00  0.00000000000E+00  0.14629649452E+04  0.14629649452E+04  0.25500000920E-02 0. -1.
       -2   -1    0    0    0  501  0.00000000000E+00  0.00000000000E+00 -0.33427510865E+03  0.33427510866E+03  0.25500000920E-02 0.  1.
    10030    2    1    2    0    0  0.00000000000E+00  0.00000000000E+00  0.11286898365E+04  0.17972400539E+04  0.13986175546E+04 0.  0.
        1    1    3    3  502    0  0.29210288988E+03 -0.54886901494E+03  0.97565202694E+03  0.11569261738E+04  0.50400001928E-02 0.  1.
       -1    1    3    3    0  502 -0.29210288988E+03  0.54886901494E+03  0.15303780960E+03  0.64031388009E+03  0.50400001928E-02 0. -1.
</event>
<event>
 5   0  0.6895048E-04  0.1396713E+04  0.7818609E-02  0.8956201E-01
        2   -1    0    0  501    0  0.00000000000E+00  0.00000000000E+00  0.40330835896E+03  0.40330835897E+03  0.25500000920E-02 0.  1.
       -2   -1    0    0    0  501  0.00000000000E+00  0.00000000000E+00 -0.12092528565E+04  0.12092528565E+04  0.25500000920E-02 0. -1.
    10030    2    1    2    0    0  0.00000000000E+00  0.00000000000E+00 -0.80594449754E+03  0.16125612155E+04  0.13967129771E+04 0.  0.
        4    1    3    3  502    0  0.44208473554E+03  0.54060197360E+03 -0.40676029840E+03  0.80817384300E+03  0.12699999809E+01 0.  1.
       -4    1    3    3    0  502 -0.44208473554E+03 -0.54060197360E+03 -0.39918419914E+03  0.80438737247E+03  0.12699999809E+01 0. -1.
</event>
<event>
 5   0  0.3907270E-04  0.1392779E+04  0.7818609E-02  0.8959062E-01
       -1   -1    0    0    0  501  0.00000000000E+00  0.00000000000E+00  0.49796018162E+03  0.49796018164E+03  0.50400001928E-02 0.  1.
        1   -1    0    0  501    0  0.00000000000E+00  0.00000000000E+00 -0.97388965009E+03  0.97388965010E+03  0.50400001928E-02 0. -1.
    10030    2    1    2    0    0  0.00000000000E+00  0.00000000000E+00 -0.47592946847E+03  0.14718498317E+04  0.13927789014E+04 0.  0.
        3    1    3    3  502    0  0.35297085084E+03  0.51839358365E+03  0.81938737447E+02  0.63248264482E+03  0.10100000352E+00 0.  1.
       -3    1    3    3    0  502 -0.35297085084E+03 -0.51839358365E+03 -0.55786820592E+03  0.83936718692E+03  0.10100000352E+00 0. -1.
</event>
<event>
 5   0  0.6895048E-04  0.1398916E+04  0.7818609E-02  0.8954603E-01
       -2   -1    0    0    0  501  0.00000000000E+00  0.00000000000E+00  0.48075540044E+03  0.48075540045E+03  0.25500000920E-02 0.  1.
        2   -1    0    0  501    0  0.00000000000E+00  0.00000000000E+00 -0.10176522021E+04  0.10176522021E+04  0.25500000920E-02 0. -1.
    10030    2    1    2    0    0  0.00000000000E+00  0.00000000000E+00 -0.53689680164E+03  0.14984076025E+04  0.13989164263E+04 0.  0.
        4    1    3    3  502    0 -0.25028008253E+03  0.25271623947E+03  0.37665995453E+03  0.51805400456E+03  0.12699999809E+01 0.  1.
       -4    1    3    3    0  502  0.25028008253E+03 -0.25271623947E+03 -0.91355675617E+03  0.98035359797E+03  0.12699999809E+01 0. -1.
</event>
<event>
 5   0  0.6959748E-04  0.1395711E+04  0.7818609E-02  0.8956929E-01
       -2   -1    0    0    0  501  0.00000000000E+00  0.00000000000E+00  0.73048436102E+03  0.73048436102E+03  0.25500000920E-02 0.  1.
        2   -1    0    0  501    0  0.00000000000E+00  0.00000000000E+00 -0.66668430961E+03  0.66668430962E+03  0.25500000920E-02 0. -1.
    10030    2    1    2    0    0  0.00000000000E+00  0.00000000000E+00  0.63800051405E+02  0.13971686706E+04  0.13957112336E+04 0.  0.
        5    1    3    3  502    0  0.20829428379E+03 -0.42788892733E+03 -0.47902977855E+03  0.67525333137E+03  0.46999998093E+01 0. -1.
       -5    1    3    3    0  502 -0.20829428379E+03  0.42788892733E+03  0.54282982996E+03  0.72191533927E+03  0.46999998093E+01 0.  1.
</event>
<event>
 5   0  0.7065539E-04  0.1425258E+04  0.7818609E-02  0.8935736E-01
       -2   -1    0    0    0  501  0.00000000000E+00  0.00000000000E+00  0.29549270727E+03  0.29549270728E+03  0.25500000920E-02 0. -1.
        2   -1    0    0  501    0  0.00000000000E+00  0.00000000000E+00 -0.17186212745E+04  0.17186212745E+04  0.25500000920E-02 0.  1.
    10030    2    1    2    0    0  0.00000000000E+00  0.00000000000E+00 -0.14231285672E+04  0.20141139818E+04  0.14252579460E+04 0.  0.
        1    1    3    3  502    0  0.26056300128E+03  0.59475177490E+03 -0.11265066573E+04  0.13002461307E+04  0.50400001928E-02 0.  1.
       -1    1    3    3    0  502 -0.26056300128E+03 -0.59475177490E+03 -0.29662190998E+03  0.71386785114E+03  0.50400001928E-02 0. -1.
</event>
<event>
 5   0  0.3907093E-04  0.1402165E+04  0.7818609E-02  0.8952253E-01
       -1   -1    0    0    0  501  0.00000000000E+00  0.00000000000E+00  0.39722991355E+03  0.39722991358E+03  0.50400001928E-02 0.  1.
        1   -1    0    0  501    0  0.00000000000E+00  0.00000000000E+00 -0.12373600034E+04  0.12373600034E+04  0.50400001928E-02 0. -1.
    10030    2    1    2    0    0  0.00000000000E+00  0.00000000000E+00 -0.84013008988E+03  0.16345899170E+04  0.14021646226E+04 0.  0.
        4    1    3    3  502    0 -0.56025145571E+03  0.29729588237E+02  0.70039356589E+02  0.56539602618E+03  0.12699999809E+01 0.  1.
       -4    1    3    3    0  502  0.56025145571E+03 -0.29729588237E+02 -0.91016944647E+03  0.10691938909E+04  0.12699999809E+01 0. -1.
</event>
<event>
 5   0  0.7065539E-04  0.1412448E+04  0.7818609E-02  0.8944857E-01
        2   -1    0    0  501    0  0.00000000000E+00  0.00000000000E+00  0.51148309422E+03  0.51148309422E+03  0.25500000920E-02 0. -1.
       -2   -1    0    0    0  501  0.00000000000E+00  0.00000000000E+00 -0.97511067389E+03  0.97511067389E+03  0.25500000920E-02 0.  1.
    10030    2    1    2    0    0  0.00000000000E+00  0.00000000000E+00 -0.46362757967E+03  0.14865937681E+04  0.14124484057E+04 0.  0.
        1    1    3    3  502    0  0.17307782229E+03  0.11586305728E+03  0.47842287522E+03  0.52179366436E+03  0.50400001928E-02 0. -1.
       -1    1    3    3    0  502 -0.17307782229E+03 -0.11586305728E+03 -0.94205045489E+03  0.96480010375E+03  0.50400001928E-02 0.  1.
</event>
<event>
 5   0  0.3756664E-04  0.1399935E+04  0.7818609E-02  0.8953865E-01
        1   -1    0    0  501    0  0.00000000000E+00  0.00000000000E+00  0.16938421284E+04  0.16938421285E+04  0.50400001928E-02 0.  1.
       -1   -1    0    0    0  501  0.00000000000E+00  0.00000000000E+00 -0.28925649343E+03  0.28925649348E+03  0.50400001928E-02 0. -1.
    10030    2    1    2    0    0  0.00000000000E+00  0.00000000000E+00  0.14045856350E+04  0.19830986219E+04  0.13999354765E+04 0.  0.
        2    1    3    3  502    0  0.89655509150E+02  0.32149809925E+03  0.15738606363E+04  0.16088618463E+04  0.25500000920E-02 0.  1.
       -2    1    3    3    0  502 -0.89655509150E+02 -0.32149809925E+03 -0.16927500128E+03  0.37423677559E+03  0.25500000920E-02 0. -1.
</event>
<event>
 5   0  0.7296966E-04  0.1371650E+04  0.7818609E-02  0.8974599E-01
        2   -1    0    0  501    0  0.00000000000E+00  0.00000000000E+00  0.13739097735E+04  0.13739097735E+04  0.25500000920E-02 0. -1.
       -2   -1    0    0    0  501  0.00000000000E+00  0.00000000000E+00 -0.34234845435E+03  0.34234845436E+03  0.25500000920E-02 0.  1.
    10030    2    1    2    0    0  0.00000000000E+00  0.00000000000E+00  0.10315613191E+04  0.17162582278E+04  0.13716499369E+04 0.  0.
        3    1    3    3  502    0  0.80032698314E+02  0.55457381306E+03  0.10106102682E+04  0.11555476932E+04  0.10100000352E+00 0. -1.
       -3    1    3    3    0  502 -0.80032698314E+02 -0.55457381306E+03  0.20951050967E+02  0.56071053465E+03  0.10100000352E+00 0.  1.
</event>
<event>
 5   0  0.3907093E-04  0.1396337E+04  0.7818609E-02  0.8956474E-01
       -1   -1    0    0    0  501  0.00000000000E+00  0.00000000000E+00  0.85695171985E+03  0.85695171986E+03  0.50400001928E-02 0.  1.
        1   -1    0    0  501    0  0.00000000000E+00  0.00000000000E+00 -0.56880593752E+03  0.56880593754E+03  0.50400001928E-02 0. -1.
    10030    2    1    2    0    0  0.00000000000E+00  0.00000000000E+00  0.28814578233E+03  0.14257576574E+04  0.13963369600E+04 0.  0.
        4    1    3    3  502    0 -0.50214541794E+03  0.21679546657E+03 -0.29899065008E+03  0.62333563737E+03  0.12699999809E+01 0. -1.
       -4    1    3    3    0  502  0.50214541794E+03 -0.21679546657E+03  0.58713643240E+03  0.80242202003E+03  0.12699999809E+01 0.  1.
</event>
<event>
 5   0  0.3907093E-04  0.1400566E+04  0.7818609E-02  0.8953409E-01
       -1   -1    0    0    0  501  0.00000000000E+00  0.00000000000E+00  0.36711987679E+03  0.36711987682E+03  0.50400001928E-02 0.  1.
        1   -1    0    0  501    0  0.00000000000E+00  0.00000000000E+00 -0.13357941314E+04  0.13357941314E+04  0.50400001928E-02 0. -1.
    10030    2    1    2    0    0  0.00000000000E+00  0.00000000000E+00 -0.96867425457E+03  0.17029140082E+04  0.14005664239E+04 0.  0.
        4    1    3    3  502    0  0.24349321199E+03 -0.47780829647E+03  0.63218952721E+02  0.53998885298E+03  0.12699999809E+01 0.  1.
       -4    1    3    3    0  502 -0.24349321199E+03  0.47780829647E+03 -0.10318932073E+04  0.11629251552E+04  0.12699999809E+01 0. -1.
</event>
<event>
 5   0  0.7065539E-04  0.1464500E+04  0.7818609E-02  0.8908409E-01
       -2   -1    0    0    0  501  0.00000000000E+00  0.00000000000E+00  0.91824362144E+03  0.91824362144E+03  0.25500000920E-02 0. -1.
        2   -1    0    0  501    0  0.00000000000E+00  0.00000000000E+00 -0.58393030862E+03  0.58393030863E+03  0.25500000920E-02 0.  1.
    10030    2    1    2    0    0  0.00000000000E+00  0.00000000000E+00  0.33431331281E+03  0.15021739301E+04  0.14645002988E+04 0.  0.
        1    1    3    3  502    0 -0.27677920265E+02  0.46118368424E+03  0.74986736261E+03  0.88077098012E+03  0.50400001928E-02 0. -1.
       -1    1    3    3    0  502  0.27677920265E+02 -0.46118368424E+03 -0.41555404980E+03  0.62140294995E+03  0.50400001928E-02 0.  1.
</event>
<event>
 5   0  0.6895048E-04  0.1402881E+04  0.7818609E-02  0.8951736E-01
        2   -1    0    0  501    0  0.00000000000E+00  0.00000000000E+00  0.14889070283E+04  0.14889070283E+04  0.25500000920E-02 0.  1.
       -2   -1    0    0    0  501  0.00000000000E+00  0.00000000000E+00 -0.33045620968E+03  0.33045620969E+03  0.25500000920E-02 0. -1.
    10030    2    1    2    0    0  0.00000000000E+00  0.00000000000E+00  0.11584508187E+04  0.18193632380E+04  0.14028807122E+04 0.  0.
        4    1    3    3  502    0 -0.41058501441E+03  0.12740636850E+03 -0.13958188229E+03  0.45199242423E+03  0.12699999809E+01 0. -1.
       -4    1    3    3    0  502  0.41058501441E+03 -0.12740636850E+03  0.12980327010E+04  0.13673708138E+04  0.12699999809E+01 0.  1.
</event>
<event>
 5   0  0.3977658E-04  0.1403012E+04  0.7818609E-02  0.8951641E-01
       -1   -1    0    0    0  501  0.00000000000E+00  0.00000000000E+00  0.80477489376E+03  0.80477489378E+03  0.50400001928E-02 0. -1.
        1   -1    0    0  501    0  0.00000000000E+00  0.00000000000E+00 -0.61148845422E+03  0.61148845424E+03  0.50400001928E-02 0.  1.
    10030    2    1    2    0    0  0.00000000000E+00  0.00000000000E+00  0.19328643954E+03  0.14162633480E+04  0.14030118400E+04 0.  0.
        5    1    3    3  502    0  0.53757449009E+03 -0.45522428625E+02 -0.35595510854E+03  0.64636271025E+03  0.46999998093E+01 0.  1.
       -5    1    3    3    0  502 -0.53757449009E+03  0.45522428625E+02  0.54924154809E+03  0.76990063777E+03  0.46999998093E+01 0. -1.
</event>
<event>
 5   0  0.7065539E-04  0.1403351E+04  0.7818609E-02  0.8951396E-01
        2   -1    0    0  501    0  0.00000000000E+00  0.00000000000E+00  0.90455120798E+03  0.90455120798E+03  0.25500000920E-02 0.  1.
       -2   -1    0    0    0  501  0.00000000000E+00  0.00000000000E+00 -0.54430169079E+03  0.54430169080E+03  0.25500000920E-02 0. -1.
    10030    2    1    2    0    0  0.00000000000E+00  0.00000000000E+00  0.36024951719E+03  0.14488528988E+04  0.14033513486E+04 0.  0.
        1    1    3    3  502    0  0.65874518991E+03 -0.17572130567E+03  0.35141233944E+03  0.76701618942E+03  0.50400001928E-02 0.  1.
       -1    1    3    3    0  502 -0.65874518991E+03  0.17572130567E+03  0.88371777478E+01  0.68183670936E+03  0.50400001928E-02 0. -1.
</event>
<event>
 5   0  0.7296966E-04  0.1398681E+04  0.7818609E-02  0.8954774E-01
       -2   -1    0    0    0  501  0.00000000000E+00  0.00000000000E+00  0.20635161901E+03  0.20635161903E+03  0.25500000920E-02 0.  1.
        2   -1    0    0  501    0  0.00000000000E+00  0.00000000000E+00 -0.23701148762E+04  0.23701148762E+04  0.25500000920E-02 0. -1.
    10030    2    1    2    0    0  0.00000000000E+00  0.00000000000E+00 -0.21637632572E+04  0.25764664952E+04  0.13986808671E+04 0.  0.
        3    1    3    3  502    0  0.39803007497E+03  0.57550341719E+02 -0.27971819193E+02  0.40314068919E+03  0.10100000352E+00 0.  1.
       -3    1    3    3    0  502 -0.39803007497E+03 -0.57550341719E+02 -0.21357914380E+04  0.21733258060E+04  0.10100000352E+00 0. -1.
</event>
<event>
 5   0  0.3784219E-04  0.1400694E+04  0.7818609E-02  0.8953316E-01
       -1   -1    0    0    0  501  0.00000000000E+00  0.00000000000E+00  0.57396649773E+03  0.57396649775E+03  0.50400001928E-02 0.  1.
        1   -1    0    0  501    0  0.00000000000E+00  0.00000000000E+00 -0.85455513266E+03  0.85455513268E+03  0.50400001928E-02 0. -1.
    10030    2    1    2    0    0  0.00000000000E+00  0.00000000000E+00 -0.28058863493E+03  0.14285216304E+04  0.14006941374E+04 0.  0.
        1    1    3    3  502    0 -0.19571268957E+03 -0.44560604165E+03  0.37331558515E+03  0.61337812755E+03  0.50400001928E-02 0.  1.
       -1    1    3    3    0  502  0.19571268957E+03  0.44560604165E+03 -0.65390422008E+03  0.81514350288E+03  0.50400001928E-02 0. -1.
</event>
<event>
 5   0  0.3907093E-04  0.1408277E+04  0.7818609E-02  0.8947849E-01
        1   -1    0    0  501    0  0.00000000000E+00  0.00000000000E+00  0.10096181671E+04  0.10096181671E+04  0.50400001928E-02 0.  1.
       -1   -1    0    0    0  501  0.00000000000E+00  0.00000000000E+00 -0.49108782788E+03  0.49108782791E+03  0.50400001928E-02 0. -1.
    10030    2    1    2    0    0  0.00000000000E+00  0.00000000000E+00  0.51853033922E+03  0.15007059950E+04  0.14082772351E+04 0.  0.
        4    1    3    3  502    0 -0.43407557029E+03  0.28386511839E+03  0.76676650837E+03  0.92570702569E+03  0.12699999809E+01 0.  1.
       -4    1    3    3    0  502  0.43407557029E+03 -0.28386511839E+03 -0.24823616915E+03  0.57499896933E+03  0.12699999809E+01 0. -1.
</event>
<event>
 5   0  0.3907270E-04  0.1392990E+04  0.7818609E-02  0.8958908E-01
        1   -1    0    0  501    0  0.00000000000E+00  0.00000000000E+00  0.63329923505E+03  0.63329923507E+03  0.50400001928E-02 0.  1.
       -1   -1    0    0    0  501  0.00000000000E+00  0.00000000000E+00 -0.76599717562E+03  0.76599717564E+03  0.50400001928E-02 0. -1.
    10030    2    1    2    0    0  0.00000000000E+00  0.00000000000E+00 -0.13269794057E+03  0.13992964107E+04  0.13929902015E+04 0.  0.
        3    1    3    3  502    0 -0.30903813981E+03 -0.59878484681E+03  0.11068037333E+03  0.68286017593E+03  0.10100000352E+00 0.  1.
       -3    1    3    3    0  502  0.30903813981E+03  0.59878484681E+03 -0.24337831391E+03  0.71643623478E+03  0.10100000352E+00 0. -1.
</event>
<event>
 5   0  0.3977658E-04  0.1392378E+04  0.7818609E-02  0.8959354E-01
       -1   -1    0    0    0  501  0.00000000000E+00  0.00000000000E+00  0.48896979321E+03  0.48896979324E+03  0.50400001928E-02 0. -1.
        1   -1    0    0  501    0  0.00000000000E+00  0.00000000000E+00 -0.99122496948E+03  0.99122496949E+03  0.50400001928E-02 0.  1.
    10030    2    1    2    0    0  0.00000000000E+00  0.00000000000E+00 -0.50225517627E+03  0.14801947627E+04  0.13923779205E+04 0.  0.
        5    1    3    3  502    0  0.21293895713E+03 -0.64855600486E+03 -0.39645775888E+03  0.78941037203E+03  0.46999998093E+01 0.  1.
       -5    1    3    3    0  502 -0.21293895713E+03  0.64855600486E+03 -0.10579741739E+03  0.69078439069E+03  0.46999998093E+01 0. -1.
</event>
<event>
 5   0  0.2660250E-04  0.1398860E+04  0.7818609E-02  0.8954644E-01
        3   -1    0    0  501    0  0.00000000000E+00  0.00000000000E+00  0.14469271160E+04  0.14469271196E+04  0.10100000352E+00 0.  1.
       -3   -1    0    0    0  501  0.00000000000E+00  0.00000000000E+00 -0.33809740436E+03  0.33809741945E+03  0.10100000352E+00 0. -1.
    10030    2    1    2    0    0  0.00000000000E+00  0.00000000000E+00  0.11088297117E+04  0.17850245390E+04  0.13988599913E+04 0.  0.
        5    1    3    3  502    0  0.16347373838E+03  0.21351569676E+03  0.13783044532E+04  0.14042997799E+04  0.46999998093E+01 0.  1.
       -5    1    3    3    0  502 -0.16347373838E+03 -0.21351569676E+03 -0.26947474156E+03  0.38072475916E+03  0.46999998093E+01 0. -1.
</event>
<event>
 5   0  0.3907270E-04  0.1401751E+04  0.7818609E-02  0.8952552E-01
        1   -1    0    0  501    0  0.00000000000E+00  0.00000000000E+00  0.48026124614E+03  0.48026124617E+03  0.50400001928E-02 0. -1.
       -1   -1    0    0    0  501  0.00000000000E+00  0.00000000000E+00 -0.10228314857E+04  0.10228314858E+04  0.50400001928E-02 0.  1.
    10030    2    1    2    0    0  0.00000000000E+00  0.00000000000E+00 -0.54257023961E+03  0.15030927319E+04  0.14017507966E+04 0.  0.
        3    1    3    3  502    0  0.45331713284E+03 -0.27399048437E+03 -0.76344372267E+03  0.92920048231E+03  0.10100000352E+00 0.  1.
       -3    1    3    3    0  502 -0.45331713284E+03  0.27399048437E+03  0.22087348306E+03  0.57389224961E+03  0.10100000352E+00 0. -1.
</event>
<event>
 5   0  0.6895048E-04  0.1399473E+04  0.7818609E-02  0.8954200E-01
       -2   -1    0    0    0  501  0.00000000000E+00  0.00000000000E+00  0.35233715131E+03  0.35233715132E+03  0.25500000920E-02 0. -1.
        2   -1    0    0  501    0  0.00000000000E+00  0.00000000000E+00 -0.13896669655E+04  0.13896669655E+04  0.25500000920E-02 0.  1.
    10030    2    1    2    0    0  0.00000000000E+00  0.00000000000E+00 -0.10373298142E+04  0.17420041169E+04  0.13994731865E+04 0.  0.
        4    1    3    3  502    0  0.34213821965E+03  0.19678185137E+03  0.20055053450E+03  0.44272315070E+03  0.12699999809E+01 0. -1.
       -4    1    3    3    0  502 -0.34213821965E+03 -0.19678185137E+03 -0.12378803487E+04  0.12992809662E+04  0.12699999809E+01 0.  1.
</event>
<event>
 5   0  0.7065539E-04  0.1391062E+04  0.7818609E-02  0.8960314E-01
       -2   -1    0    0    0  501  0.00000000000E+00  0.00000000000E+00  0.28666251702E+03  0.28666251703E+03  0.25500000920E-02 0. -1.
        2   -1    0    0  501    0  0.00000000000E+00  0.00000000000E+00 -0.16875700427E+04  0.16875700427E+04  0.25500000920E-02 0.  1.
    10030    2    1    2    0    0  0.00000000000E+00  0.00000000000E+00 -0.14009075256E+04  0.19742325597E+04  0.13910615746E+04 0.  0.
        1    1    3    3  502    0  0.44953009119E+03  0.37274205467E+03 -0.12366684395E+04  0.13676120691E+04  0.50400001928E-02 0.  1.
       -1    1    3    3    0  502 -0.44953009119E+03 -0.37274205467E+03 -0.16423908614E+03  0.60662049062E+03  0.50400001928E-02 0. -1.
</event>
<event>
 5   0  0.3756664E-04  0.1371531E+04  0.7818609E-02  0.8974688E-01
        1   -1    0    0  501    0  0.00000000000E+00  0.00000000000E+00  0.61644972367E+03  0.61644972369E+03  0.50400001928E-02 0.  1.
       -1   -1    0    0    0  501  0.00000000000E+00  0.00000000000E+00 -0.76287539355E+03  0.76287539357E+03  0.50400001928E-02 0. -1.
    10030    2    1    2    0    0  0.00000000000E+00  0.00000000000E+00 -0.14642566988E+03  0.13793251173E+04  0.13715310067E+04 0.  0.
        2    1    3    3  502    0 -0.21391179097E+03  0.45801863825E+02 -0.72684340581E+03  0.75905032878E+03  0.25500000920E-02 0. -1.
       -2    1    3    3    0  502  0.21391179097E+03 -0.45801863825E+02  0.58041773593E+03  0.62027478849E+03  0.25500000920E-02 0.  1.
</event>
<event>
 5   0  0.6959748E-04  0.1412699E+04  0.7818609E-02  0.8944677E-01
        2   -1    0    0  501    0  0.00000000000E+00  0.00000000000E+00  0.95815433473E+03  0.95815433473E+03  0.25500000920E-02 0. -1.
       -2   -1    0    0    0  501  0.00000000000E+00  0.00000000000E+00 -0.52071973167E+03  0.52071973168E+03  0.25500000920E-02 0.  1.
    10030    2    1    2    0    0  0.00000000000E+00  0.00000000000E+00  0.43743460305E+03  0.14788740664E+04  0.14126993567E+04 0.  0.
        5    1    3    3  502    0 -0.30703783383E+03 -0.61981041694E+03  0.36849483194E+03  0.78373957123E+03  0.46999998093E+01 0. -1.
       -5    1    3    3    0  502  0.30703783383E+03  0.61981041694E+03  0.68939771108E+02  0.69513449518E+03  0.46999998093E+01 0.  1.
</event>
<event>
 5   0  0.3756664E-04  0.1399861E+04  0.7818609E-02  0.8953919E-01
       -1   -1    0    0    0  501  0.00000000000E+00  0.00000000000E+00  0.10090754440E+04  0.10090754440E+04  0.50400001928E-02 0. -1.
        1   -1    0    0  501    0  0.00000000000E+00  0.00000000000E+00 -0.48549688603E+03  0.48549688605E+03  0.50400001928E-02 0.  1.
    10030    2    1    2    0    0  0.00000000000E+00  0.00000000000E+00  0.52357855794E+03  0.14945723300E+04  0.13998614015E+04 0.  0.
        2    1    3    3  502    0  0.64252618568E+03 -0.24784518759E+03  0.12828578250E+03  0.70051722198E+03  0.25500000920E-02 0. -1.
       -2    1    3    3    0  502 -0.64252618568E+03  0.24784518759E+03  0.39529277544E+03  0.79405510805E+03  0.25500000920E-02 0.  1.
</event>
<event>
 5   0  0.6870835E-04  0.1398544E+04  0.7818609E-02  0.8954873E-01
        2   -1    0    0  501    0  0.00000000000E+00  0.00000000000E+00  0.33673503949E+03  0.33673503950E+03  0.25500000920E-02 0. -1.
       -2   -1    0    0    0  501  0.00000000000E+00  0.00000000000E+00 -0.14521242961E+04  0.14521242961E+04  0.25500000920E-02 0.  1.
    10030    2    1    2    0    0  0.00000000000E+00  0.00000000000E+00 -0.11153892566E+04  0.17888593356E+04  0.13985437171E+04 0.  0.
        2    1    3    3  502    0 -0.58350044248E+02  0.42045658013E+03 -0.12684720696E+04  0.13376134923E+04  0.25500000920E-02 0.  1.
       -2    1    3    3    0  502  0.58350044248E+02 -0.42045658013E+03  0.15308281300E+03  0.45124584328E+03  0.25500000920E-02 0. -1.
</event>
<event>
 5   0  0.7296966E-04  0.1399618E+04  0.7818609E-02  0.8954095E-01
       -2   -1    0    0    0  501  0.00000000000E+00  0.00000000000E+00  0.52859534790E+03  0.52859534791E+03  0.25500000920E-02 0.  1.
        2   -1    0    0  501    0  0.00000000000E+00  0.00000000000E+00 -0.92647874263E+03  0.92647874263E+03  0.25500000920E-02 0. -1.
    10030    2    1    2    0    0  0.00000000000E+00  0.00000000000E+00 -0.39788339473E+03  0.14550740905E+04  0.13996175953E+04 0.  0.
        3    1    3    3  502    0  0.41093730843E+03 -0.37985158245E+03 -0.63580052613E+03  0.84699410586E+03  0.10100000352E+00 0. -1.
       -3    1    3    3    0  502 -0.41093730843E+03  0.37985158245E+03  0.23791713140E+03  0.60807998467E+03  0.10100000352E+00 0.  1.
</event>
<event>
 5   0  0.2660250E-04  0.1396760E+04  0.7818609E-02  0.8956167E-01
        3   -1    0    0  501    0  0.00000000000E+00  0.00000000000E+00  0.60791082670E+03  0.60791083509E+03  0.10100000352E+00 0. -1.
       -3   -1    0    0    0  501  0.00000000000E+00  0.00000000000E+00 -0.80231270181E+03  0.80231270816E+03  0.10100000352E+00 0.  1.
    10030    2    1    2    0    0  0.00000000000E+00  0.00000000000E+00 -0.19440187511E+03  0.14102235433E+04  0.13967599482E+04 0.  0.
        1    1    3    3  502    0 -0.10350704426E+03 -0.42017841648E+02  0.59883186739E+03  0.60916238611E+03  0.50400001928E-02 0. -1.
       -1    1    3    3    0  502  0.10350704426E+03  0.42017841648E+02 -0.79323374249E+03  0.80106115714E+03  0.50400001928E-02 0.  1.
</event>
<event>
 5   0  0.7065539E-04  0.1406114E+04  0.7818609E-02  0.8949405E-01
       -2   -1    0    0    0  501  0.00000000000E+00  0.00000000000E+00  0.36302181634E+03  0.36302181635E+03  0.25500000920E-02 0. -1.
        2   -1    0    0  501    0  0.00000000000E+00  0.00000000000E+00 -0.13615969972E+04  0.13615969972E+04  0.25500000920E-02 0.  1.
    10030    2    1    2    0    0  0.00000000000E+00  0.00000000000E+00 -0.99857518089E+03  0.17246188136E+04  0.14061143838E+04 0.  0.
        1    1    3    3  502    0 -0.24929569715E+03 -0.23570708680E+03 -0.12519547412E+04  0.12981128031E+04  0.50400001928E-02 0.  1.
       -1    1    3    3    0  502  0.24929569715E+03  0.23570708680E+03  0.25337956033E+03  0.42650601052E+03  0.50400001928E-02 0. -1.
</event>
<event>
 5   0  0.6895048E-04  0.1400786E+04  0.7818609E-02  0.8953250E-01
       -2   -1    0    0    0  501  0.00000000000E+00  0.00000000000E+00  0.90007252189E+03  0.90007252189E+03  0.25500000920E-02 0.  1.
        2   -1    0    0  501    0  0.00000000000E+00  0.00000000000E+00 -0.54501225869E+03  0.54501225869E+03  0.25500000920E-02 0. -1.
    10030    2    1    2    0    0  0.00000000000E+00  0.00000000000E+00  0.35506026320E+03  0.14450847806E+04  0.14007862908E+04 0.  0.
        4    1    3    3  502    0  0.41273635359E+03  0.16486624023E+03 -0.38089850757E+03  0.58533534039E+03  0.12699999809E+01 0. -1.
       -4    1    3    3    0  502 -0.41273635359E+03 -0.16486624023E+03  0.73595877077E+03  0.85974944019E+03  0.12699999809E+01 0.  1.
</event>
<event>
 5   0  0.3977658E-04  0.1400483E+04  0.7818609E-02  0.8953469E-01
       -1   -1    0    0    0  501  0.00000000000E+00  0.00000000000E+00  0.33480153302E+03  0.33480153306E+03  0.50400001928E-02 0.  1.
        1   -1    0    0  501    0  0.00000000000E+00  0.00000000000E+00 -0.14645634816E+04  0.14645634816E+04  0.50400001928E-02 0. -1.
    10030    2    1    2    0    0  0.00000000000E+00  0.00000000000E+00 -0.11297619485E+04  0.17993650146E+04  0.14004829151E+04 0.  0.
        5    1    3    3  502    0 -0.41689396392E+03 -0.44244439371E+03 -0.10113590261E+04  0.11800113509E+04  0.46999998093E+01 0.  1.
       -5    1    3    3    0  502  0.41689396392E+03  0.44244439371E+03 -0.11840292243E+03  0.61935366368E+03  0.46999998093E+01 0. -1.
</event>
<event>
 5   0  0.3756664E-04  0.1399380E+04  0.7818609E-02  0.8954267E-01
        1   -1    0    0  501    0  0.00000000000E+00  0.00000000000E+00  0.97119256713E+03  0.97119256715E+03  0.50400001928E-02 0.  1.
       -1   -1    0    0    0  501  0.00000000000E+00  0.00000000000E+00 -0.50408763635E+03  0.50408763638E+03  0.50400001928E-02 0. -1.
    10030    2    1    2    0    0  0.00000000000E+00  0.00000000000E+00  0.46710493078E+03  0.14752802035E+04  0.13993800994E+04 0.  0.
        2    1    3    3  502    0 -0.23303894579E+03  0.14755784562E+01  0.92907566802E+03  0.95785746565E+03  0.25500000920E-02 0.  1.
       -2    1    3    3    0  502  0.23303894579E+03 -0.14755784562E+01 -0.46197073725E+03  0.51742273787E+03  0.25500000920E-02 0. -1.
</event>
<event>
 5   0  0.3977658E-04  0.1431630E+04  0.7818609E-02  0.8931236E-01
       -1   -1    0    0    0  501  0.00000000000E+00  0.00000000000E+00  0.85179151436E+03  0.85179151437E+03  0.50400001928E-02 0.  1.
        1   -1    0    0  501    0  0.00000000000E+00  0.00000000000E+00 -0.60154551910E+03  0.60154551912E+03  0.50400001928E-02 0. -1.
    10030    2    1    2    0    0  0.00000000000E+00  0.00000000000E+00  0.25024599526E+03  0.14533370335E+04  0.14316303555E+04 0.  0.
        5    1    3    3  502    0 -0.59899174721E+03 -0.25876069505E+03  0.42390003007E+03  0.77811408933E+03  0.46999998093E+01 0.  1.
       -5    1    3    3    0  502  0.59899174721E+03  0.25876069505E+03 -0.17365403481E+03  0.67522294417E+03  0.46999998093E+01 0. -1.
</event>
<event>
 5   0  0.7296966E-04  0.1400727E+04  0.7818609E-02  0.8953292E-01
        2   -1    0    0  501    0  0.00000000000E+00  0.00000000000E+00  0.14023403001E+04  0.14023403001E+04  0.25500000920E-02 0.  1.
       -2   -1    0    0    0  501  0.00000000000E+00  0.00000000000E+00 -0.34977907097E+03  0.34977907098E+03  0.25500000920E-02 0. -1.
    10030    2    1    2    0    0  0.00000000000E+00  0.00000000000E+00  0.10525612291E+04  0.17521193711E+04  0.14007273644E+04 0.  0.
        3    1    3    3  502    0 -0.64891221278E+03  0.21790035140E+03  0.71156753383E+03  0.98736821320E+03  0.10100000352E+00 0. -1.
       -3    1    3    3    0  502  0.64891221278E+03 -0.21790035140E+03  0.34099369529E+03  0.76475115787E+03  0.10100000352E+00 0.  1.
</event>
<event>
 5   0  0.6870835E-04  0.1396089E+04  0.7818609E-02  0.8956655E-01
       -2   -1    0    0    0  501  0.00000000000E+00  0.00000000000E+00  0.37124803049E+03  0.37124803050E+03  0.25500000920E-02 0.  1.
        2   -1    0    0  501    0  0.00000000000E+00  0.00000000000E+00 -0.13125078708E+04  0.13125078708E+04  0.25500000920E-02 0. -1.
    10030    2    1    2    0    0  0.00000000000E+00  0.00000000000E+00 -0.94125984030E+03  0.16837559013E+04  0.13960887680E+04 0.  0.
        2    1    3    3  502    0 -0.32526701787E+03 -0.32360110292E+02  0.27324146942E+03  0.42603604339E+03  0.25500000920E-02 0.  1.
       -2    1    3    3    0  502  0.32526701787E+03  0.32360110292E+02 -0.12145013097E+04  0.12577198579E+04  0.25500000920E-02 0. -1.
</event>
<event>
 5   0  0.6959748E-04  0.1391331E+04  0.7818609E-02  0.8960117E-01
       -2   -1    0    0    0  501  0.00000000000E+00  0.00000000000E+00  0.24971942357E+03  0.24971942359E+03  0.25500000920E-02 0. -1.
        2   -1    0    0  501    0  0.00000000000E+00  0.00000000000E+00 -0.19379775910E+04  0.19379775910E+04  0.25500000920E-02 0.  1.
    10030    2    1    2    0    0  0.00000000000E+00  0.00000000000E+00 -0.16882581674E+04  0.21876970145E+04  0.13913312286E+04 0.  0.
        5    1    3    3  502    0  0.68856560845E+03 -0.93303215267E+02 -0.79196810774E+03  0.10535955869E+04  0.46999998093E+01 0.  1.
       -5    1    3    3    0  502 -0.68856560845E+03  0.93303215267E+02 -0.89629005964E+03  0.11341014276E+04  0.46999998093E+01 0. -1.
</event>
<event>
 5   0  0.3907093E-04  0.1431604E+04  0.7818609E-02  0.8931255E-01
        1   -1    0    0  501    0  0.00000000000E+00  0.00000000000E+00  0.88731736656E+03  0.88731736657E+03  0.50400001928E-02 0.  1.
       -1   -1    0    0    0  501  0.00000000000E+00  0.00000000000E+00 -0.57743971996E+03  0.57743971998E+03  0.50400001928E-02 0. -1.
    10030    2    1    2    0    0  0.00000000000E+00  0.00000000000E+00  0.30987764659E+03  0.14647570866E+04  0.14316037045E+04 0.  0.
        4    1    3    3  502    0 -0.53819874459E+03  0.44918609510E+03  0.68646673159E+01  0.70105261804E+03  0.12699999809E+01 0. -1.
       -4    1    3    3    0  502  0.53819874459E+03 -0.44918609510E+03  0.30301297928E+03  0.76370446851E+03  0.12699999809E+01 0.  1.
</event>
<event>
 5   0  0.3784219E-04  0.1400366E+04  0.7818609E-02  0.8953554E-01
        1   -1    0    0  501    0  0.00000000000E+00  0.00000000000E+00  0.27422671955E+03  0.27422671960E+03  0.50400001928E-02 0. -1.
       -1   -1    0    0    0  501  0.00000000000E+00  0.00000000000E+00 -0.17877763974E+04  0.17877763974E+04  0.50400001928E-02 0.  1.
    10030    2    1    2    0    0  0.00000000000E+00  0.00000000000E+00 -0.15135496778E+04  0.20620031170E+04  0.14003657477E+04 0.  0.
        1    1    3    3  502    0  0.25560475325E+02 -0.50993289502E+03 -0.14622902480E+04  0.15488633461E+04  0.50400001928E-02 0.  1.
       -1    1    3    3    0  502 -0.25560475325E+02  0.50993289502E+03 -0.51259429810E+02  0.51313977092E+03  0.50400001928E-02 0. -1.
</event>
<event>
 5   0  0.6870835E-04  0.1404952E+04  0.7818609E-02  0.8950242E-01
       -2   -1    0    0    0  501  0.00000000000E+00  0.00000000000E+00  0.70261648795E+03  0.70261648796E+03  0.25500000920E-02 0.  1.
        2   -1    0    0  501    0  0.00000000000E+00  0.00000000000E+00 -0.70233528893E+03  0.70233528894E+03  0.25500000920E-02 0. -1.
    10030    2    1    2    0    0  0.00000000000E+00  0.00000000000E+00  0.28119901667E+00  0.14049517769E+04  0.14049517488E+04 0.  0.
        2    1    3    3  502    0  0.32580961366E+03 -0.42444836550E+03  0.45529336841E+03  0.70256698660E+03  0.25500000920E-02 0.  1.
       -2    1    3    3    0  502 -0.32580961366E+03  0.42444836550E+03 -0.45501216939E+03  0.70238479029E+03  0.25500000920E-02 0. -1.
</event>
<event>
 5   0  0.2660250E-04  0.1401519E+04  0.7818609E-02  0.8952720E-01
        3   -1    0    0  501    0  0.00000000000E+00  0.00000000000E+00  0.46608114818E+03  0.46608115913E+03  0.10100000352E+00 0.  1.
       -3   -1    0    0    0  501  0.00000000000E+00  0.00000000000E+00 -0.10536017492E+04  0.10536017540E+04  0.10100000352E+00 0. -1.
    10030    2    1    2    0    0  0.00000000000E+00  0.00000000000E+00 -0.58752060097E+03  0.15196829131E+04  0.14015190687E+04 0.  0.
        4    1    3    3  502    0  0.59315588860E+03 -0.11891950987E+03 -0.67725492754E+03  0.90810330238E+03  0.12699999809E+01 0. -1.
       -4    1    3    3    0  502 -0.59315588860E+03  0.11891950987E+03  0.89734326566E+02  0.61157961074E+03  0.12699999809E+01 0.  1.
</event>
<event>
 5   0  0.3907093E-04  0.1399213E+04  0.7818609E-02  0.8954388E-01
        1   -1    0    0  501    0  0.00000000000E+00  0.00000000000E+00  0.13848194766E+04  0.13848194766E+04  0.50400001928E-02 0. -1.
       -1   -1    0    0    0  501  0.00000000000E+00  0.00000000000E+00 -0.35343906761E+03  0.35343906765E+03  0.50400001928E-02 0.  1.
    10030    2    1    2    0    0  0.00000000000E+00  0.00000000000E+00  0.10313804089E+04  0.17382585442E+04  0.13992130712E+04 0.  0.
        4    1    3    3  502    0  0.28927454863E+03  0.11508313708E+03  0.12940197485E+04  0.13309442571E+04  0.12699999809E+01 0. -1.
       -4    1    3    3    0  502 -0.28927454863E+03 -0.11508313708E+03 -0.26263933958E+03  0.40731428715E+03  0.12699999809E+01 0.  1.
</event>
<event>
 5   0  0.6895048E-04  0.1402595E+04  0.7818609E-02  0.8951942E-01
       -2   -1    0    0    0  501  0.00000000000E+00  0.00000000000E+00  0.69072729139E+03  0.69072729140E+03  0.25500000920E-02 0.  1.
        2   -1    0    0  501    0  0.00000000000E+00  0.00000000000E+00 -0.71202996305E+03  0.71202996305E+03  0.25500000920E-02 0. -1.
    10030    2    1    2    0    0  0.00000000000E+00  0.00000000000E+00 -0.21302671653E+02  0.14027572544E+04  0.14025954909E+04 0.  0.
        4    1    3    3  502    0 -0.20409336162E+02 -0.68490577200E+03  0.13871265735E+03  0.69911034303E+03  0.12699999809E+01 0.  1.
       -4    1    3    3    0  502  0.20409336162E+02  0.68490577200E+03 -0.16001532900E+03  0.70364691141E+03  0.12699999809E+01 0. -1.
</event>
<event>
 5   0  0.3977658E-04  0.1401019E+04  0.7818609E-02  0.8953081E-01
        1   -1    0    0  501    0  0.00000000000E+00  0.00000000000E+00  0.74234314104E+03  0.74234314106E+03  0.50400001928E-02 0.  1.
       -1   -1    0    0    0  501  0.00000000000E+00  0.00000000000E+00 -0.66103315331E+03  0.66103315333E+03  0.50400001928E-02 0. -1.
    10030    2    1    2    0    0  0.00000000000E+00  0.00000000000E+00  0.81309987737E+02  0.14033762944E+04  0.14010188113E+04 0.  0.
        5    1    3    3  502    0  0.64658486356E+03 -0.26937514979E+03  0.33133678945E+02  0.70125237097E+03  0.46999998093E+01 0. -1.
       -5    1    3    3    0  502 -0.64658486356E+03  0.26937514979E+03  0.48176308792E+02  0.70212392342E+03  0.46999998093E+01 0.  1.
</event>
<event>
 5   0  0.7296966E-04  0.1403997E+04  0.7818609E-02  0.8950931E-01
        2   -1    0    0  501    0  0.00000000000E+00  0.00000000000E+00  0.18075774269E+04  0.18075774270E+04  0.25500000920E-02 0.  1.
       -2   -1    0    0    0  501  0.00000000000E+00  0.00000000000E+00 -0.27263097508E+03  0.27263097509E+03  0.25500000920E-02 0. -1.
    10030    2    1    2    0    0  0.00000000000E+00  0.00000000000E+00  0.15349464519E+04  0.20802084020E+04  0.14039965761E+04 0.  0.
        3    1    3    3  502    0  0.86327617457E+02  0.53180861865E+03  0.14342555960E+04  0.15321103058E+04  0.10100000352E+00 0.  1.
       -3    1    3    3    0  502 -0.86327617457E+02 -0.53180861865E+03  0.10069085587E+03  0.54809809620E+03  0.10100000352E+00 0. -1.
</event>
<event>
 5   0  0.7065539E-04  0.1396778E+04  0.7818609E-02  0.8956154E-01
       -2   -1    0    0    0  501  0.00000000000E+00  0.00000000000E+00  0.65575247883E+03  0.65575247884E+03  0.25500000920E-02 0.  1.
        2   -1    0    0  501    0  0.00000000000E+00  0.00000000000E+00 -0.74379815108E+03  0.74379815108E+03  0.25500000920E-02 0. -1.
    10030    2    1    2    0    0  0.00000000000E+00  0.00000000000E+00 -0.88045672246E+02  0.13995506299E+04  0.13967784095E+04 0.  0.
        1    1    3    3  502    0  0.33283888236E+03 -0.60305861853E+03 -0.15951678829E+03  0.70704103472E+03  0.50400001928E-02 0. -1.
       -1    1    3    3    0  502 -0.33283888236E+03  0.60305861853E+03  0.71471116047E+02  0.69250959521E+03  0.50400001928E-02 0.  1.
</event>
<event>
 5   0  0.3784219E-04  0.1426200E+04  0.7818609E-02  0.8935069E-01
       -1   -1    0    0    0  501  0.00000000000E+00  0.00000000000E+00  0.10486934738E+04  0.10486934738E+04  0.50400001928E-02 0.  1.
        1   -1    0    0  501    0  0.00000000000E+00  0.00000000000E+00 -0.48490016816E+03  0.48490016819E+03  0.50400001928E-02 0. -1.
    10030    2    1    2    0    0  0.00000000000E+00  0.00000000000E+00  0.56379330566E+03  0.15335936420E+04  0.14262000446E+04 0.  0.
        1    1    3    3  502    0 -0.27033600741E+03 -0.31736237003E+03  0.90400350261E+03  0.99550126246E+03  0.50400001928E-02 0.  1.
       -1    1    3    3    0  502  0.27033600741E+03  0.31736237003E+03 -0.34021019694E+03  0.53809237956E+03  0.50400001928E-02 0. -1.
</event>
<event>
 5   0  0.2660250E-04  0.1407307E+04  0.7818609E-02  0.8948547E-01
        3   -1    0    0  501    0  0.00000000000E+00  0.00000000000E+00  0.27085608842E+03  0.27085610725E+03  0.10100000352E+00 0. -1.
       -3   -1    0    0    0  501  0.00000000000E+00  0.00000000000E+00 -0.18280112424E+04  0.18280112452E+04  0.10100000352E+00 0.  1.
    10030    2    1    2    0    0  0.00000000000E+00  0.00000000000E+00 -0.15571551540E+04  0.20988673525E+04  0.14073066438E+04 0.  0.
        5    1    3    3  502    0 -0.50247293479E+03  0.35735868039E+03 -0.12841660273E+04  0.14245310640E+04  0.46999998093E+01 0. -1.
       -5    1    3    3    0  502  0.50247293479E+03 -0.35735868039E+03 -0.27298912672E+03  0.67433628847E+03  0.46999998093E+01 0.  1.
</event>
<event>
 5   0  0.3756664E-04  0.1395535E+04  0.7818609E-02  0.8957057E-01
       -1   -1    0    0    0  501  0.00000000000E+00  0.00000000000E+00  0.56047184272E+03  0.56047184274E+03  0.50400001928E-02 0. -1.
        1   -1    0    0  501    0  0.00000000000E+00  0.00000000000E+00 -0.86869624303E+03  0.86869624304E+03  0.50400001928E-02 0.  1.
    10030    2    1    2    0    0  0.00000000000E+00  0.00000000000E+00 -0.30822440031E+03  0.14291680858E+04  0.13955354300E+04 0.  0.
        2    1    3    3  502    0  0.23036027947E+03  0.48095989380E+03 -0.61494761640E+03  0.81397103678E+03  0.25500000920E-02 0.  1.
       -2    1    3    3    0  502 -0.23036027947E+03 -0.48095989380E+03  0.30672321609E+03  0.61519704900E+03  0.25500000920E-02 0. -1.
</event>
<event>
 5   0  0.3907093E-04  0.1299886E+04  0.7818609E-02  0.9029655E-01
        1   -1    0    0  501    0  0.00000000000E+00  0.00000000000E+00  0.19753040371E+03  0.19753040377E+03  0.50400001928E-02 0.  1.
       -1   -1    0    0    0  501  0.00000000000E+00  0.00000000000E+00 -0.21385373398E+04  0.21385373398E+04  0.50400001928E-02 0. -1.
    10030    2    1    2    0    0  0.00000000000E+00  0.00000000000E+00 -0.19410069361E+04  0.23360677436E+04  0.12998863707E+04 0.  0.
        4    1    3    3  502    0 -0.60801524111E+02 -0.58828778884E+03 -0.48612653294E+03  0.76557166011E+03  0.12699999809E+01 0. -1.
       -4    1    3    3    0  502  0.60801524111E+02  0.58828778884E+03 -0.14548804032E+04  0.15704960835E+04  0.12699999809E+01 0.  1.
</event>
<event>
 5   0  0.3907093E-04  0.1384266E+04  0.7818609E-02  0.8965287E-01
       -1   -1    0    0    0  501  0.00000000000E+00  0.00000000000E+00  0.45970343058E+03  0.45970343061E+03  0.50400001928E-02 0.  1.
        1   -1    0    0  501    0  0.00000000000E+00  0.00000000000E+00 -0.10420809084E+04  0.10420809084E+04  0.50400001928E-02 0. -1.
    10030    2    1    2    0    0  0.00000000000E+00  0.00000000000E+00 -0.58237747783E+03  0.15017843390E+04  0.13842661140E+04 0.  0.
        4    1    3    3  502    0 -0.85065879134E+02 -0.55444456724E+03 -0.73107557802E+03  0.92147604180E+03  0.12699999809E+01 0. -1.
       -4    1    3    3    0  502  0.85065879134E+02  0.55444456724E+03  0.14869810019E+03  0.58030829723E+03  0.12699999809E+01 0.  1.
</event>
<event>
 5   0  0.3784219E-04  0.1428989E+04  0.7818609E-02  0.8933098E-01
        1   -1    0    0  501    0  0.00000000000E+00  0.00000000000E+00  0.10028838521E+04  0.10028838521E+04  0.50400001928E-02 0. -1.
       -1   -1    0    0    0  501  0.00000000000E+00  0.00000000000E+00 -0.50903429759E+03  0.50903429761E+03  0.50400001928E-02 0.  1.
    10030    2    1    2    0    0  0.00000000000E+00  0.00000000000E+00  0.49384955449E+03  0.15119181497E+04  0.14289888414E+04 0.  0.
        1    1    3    3  502    0 -0.37202974595E+03  0.10590163446E+03 -0.38867164694E+03  0.54834928395E+03  0.50400001928E-02 0.  1.
       -1    1    3    3    0  502  0.37202974595E+03 -0.10590163446E+03  0.88252120143E+03  0.96356886575E+03  0.50400001928E-02 0. -1.
</event>
<event>
 5   0  0.6959748E-04  0.1413717E+04  0.7818609E-02  0.8943949E-01
       -2   -1    0    0    0  501  0.00000000000E+00  0.00000000000E+00  0.12628625588E+04  0.12628625588E+04  0.25500000920E-02 0. -1.
        2   -1    0    0  501    0  0.00000000000E+00  0.00000000000E+00 -0.39564816510E+03  0.39564816511E+03  0.25500000920E-02 0.  1.
    10030    2    1    2    0    0  0.00000000000E+00  0.00000000000E+00  0.86721439365E+03  0.16585107239E+04  0.14137174458E+04 0.  0.
        5    1    3    3  502    0  0.38594198134E+03 -0.10964479226E+03 -0.24909885499E+03  0.47227695580E+03  0.46999998093E+01 0.  1.
       -5    1    3    3    0  502 -0.38594198134E+03  0.10964479226E+03  0.11163132486E+04  0.11862337681E+04  0.46999998093E+01 0. -1.
</event>
<event>
 5   0  0.6870835E-04  0.1401623E+04  0.7818609E-02  0.8952645E-01
       -2   -1    0    0    0  501  0.00000000000E+00  0.00000000000E+00  0.42916538518E+03  0.42916538519E+03  0.25500000920E-02 0.  1.
        2   -1    0    0  501    0  0.00000000000E+00  0.00000000000E+00 -0.11443991602E+04  0.11443991602E+04  0.25500000920E-02 0. -1.
    10030    2    1    2    0    0  0.00000000000E+00  0.00000000000E+00 -0.71523377501E+03  0.15735645454E+04  0.14016226402E+04 0.  0.
        2    1    3    3  502    0 -0.48907042194E+03 -0.22360024440E+03  0.14689907653E+03  0.55746415634E+03  0.25500000920E-02 0.  1.
       -2    1    3    3    0  502  0.48907042194E+03  0.22360024440E+03 -0.86213285153E+03  0.10161003890E+04  0.25500000920E-02 0. -1.
</event>
<event>
 5   0  0.3756664E-04  0.1394544E+04  0.7818609E-02  0.8957777E-01
       -1   -1    0    0    0  501  0.00000000000E+00  0.00000000000E+00  0.60161078675E+03  0.60161078678E+03  0.50400001928E-02 0. -1.
        1   -1    0    0  501    0  0.00000000000E+00  0.00000000000E+00 -0.80814415428E+03  0.80814415430E+03  0.50400001928E-02 0.  1.
    10030    2    1    2    0    0  0.00000000000E+00  0.00000000000E+00 -0.20653336753E+03  0.14097549411E+04  0.13945439979E+04 0.  0.
        2    1    3    3  502    0  0.41557434090E+03  0.33637881424E+03  0.34920391350E+03  0.63858915798E+03  0.25500000920E-02 0. -1.
       -2    1    3    3    0  502 -0.41557434090E+03 -0.33637881424E+03 -0.55573728103E+03  0.77116578309E+03  0.25500000920E-02 0.  1.
</event>
<event>
 5   0  0.3784219E-04  0.1414975E+04  0.7818609E-02  0.8943049E-01
        1   -1    0    0  501    0  0.00000000000E+00  0.00000000000E+00  0.14400307628E+04  0.14400307628E+04  0.50400001928E-02 0. -1.
       -1   -1    0    0    0  501  0.00000000000E+00  0.00000000000E+00 -0.34758898394E+03  0.34758898398E+03  0.50400001928E-02 0.  1.
    10030    2    1    2    0    0  0.00000000000E+00  0.00000000000E+00  0.10924417789E+04  0.17876197468E+04  0.14149753775E+04 0.  0.
        1    1    3    3  502    0  0.94014289133E+02 -0.34658042290E+03  0.13163325239E+04  0.13644368764E+04  0.50400001928E-02 0. -1.
       -1    1    3    3    0  502 -0.94014289133E+02  0.34658042290E+03 -0.22389074502E+03  0.42318287044E+03  0.50400001928E-02 0.  1.
</event>
<event>
 5   0  0.3907270E-04  0.1398832E+04  0.7818609E-02  0.8954664E-01
       -1   -1    0    0    0  501  0.00000000000E+00  0.00000000000E+00  0.63193494647E+03  0.63193494649E+03  0.50400001928E-02 0. -1.
        1   -1    0    0  501    0  0.00000000000E+00  0.00000000000E+00 -0.77410295539E+03  0.77410295541E+03  0.50400001928E-02 0.  1.
    10030    2    1    2    0    0  0.00000000000E+00  0.00000000000E+00 -0.14216800893E+03  0.14060379019E+04  0.13988319552E+04 0.  0.
        3    1    3    3  502    0 -0.32797227417E+03  0.58736289909E+03 -0.26343781869E+03  0.72246832620E+03  0.10100000352E+00 0.  1.
       -3    1    3    3    0  502  0.32797227417E+03 -0.58736289909E+03  0.12126980976E+03  0.68356957569E+03  0.10100000352E+00 0. -1.
</event>
<event>
 5   0  0.3784219E-04  0.1396387E+04  0.7818609E-02  0.8956438E-01
        1   -1    0    0  501    0  0.00000000000E+00  0.00000000000E+00  0.74385940209E+03  0.74385940210E+03  0.50400001928E-02 0. -1.
       -1   -1    0    0    0  501  0.00000000000E+00  0.00000000000E+00 -0.65533113029E+03  0.65533113031E+03  0.50400001928E-02 0.  1.
    10030    2    1    2    0    0  0.00000000000E+00  0.00000000000E+00  0.88528271797E+02  0.13991905324E+04  0.13963870850E+04 0.  0.
        1    1    3    3  502    0  0.39657706798E+03 -0.55486496323E+03  0.19398206621E+03  0.70906807875E+03  0.50400001928E-02 0.  1.
       -1    1    3    3    0  502 -0.39657706798E+03  0.55486496323E+03 -0.10545379441E+03  0.69012245366E+03  0.50400001928E-02 0. -1.
</event>
<event>
 5   0  0.3907093E-04  0.1401172E+04  0.7818609E-02  0.8952970E-01
       -1   -1    0    0    0  501  0.00000000000E+00  0.00000000000E+00  0.10030133881E+04  0.10030133881E+04  0.50400001928E-02 0. -1.
        1   -1    0    0  501    0  0.00000000000E+00  0.00000000000E+00 -0.48934635386E+03  0.48934635388E+03  0.50400001928E-02 0.  1.
    10030    2    1    2    0    0  0.00000000000E+00  0.00000000000E+00  0.51366703424E+03  0.14923597420E+04  0.14011722869E+04 0.  0.
        4    1    3    3  502    0 -0.18056231721E+03  0.55645609843E+03 -0.15370339588E+03  0.60487394280E+03  0.12699999809E+01 0.  1.
       -4    1    3    3    0  502  0.18056231721E+03 -0.55645609843E+03  0.66737043012E+03  0.88748579920E+03  0.12699999809E+01 0. -1.
</event>
<event>
 5   0  0.3907093E-04  0.1352096E+04  0.7818609E-02  0.8989243E-01
       -1   -1    0    0    0  501  0.00000000000E+00  0.00000000000E+00  0.31332092490E+03  0.31332092494E+03  0.50400001928E-02 0.  1.
        1   -1    0    0  501    0  0.00000000000E+00  0.00000000000E+00 -0.14586978640E+04  0.14586978640E+04  0.50400001928E-02 0. -1.
    10030    2    1    2    0    0  0.00000000000E+00  0.00000000000E+00 -0.11453769391E+04  0.17720187889E+04  0.13520955054E+04 0.  0.
        4    1    3    3  502    0 -0.33404474575E+03  0.43769305317E+03 -0.58586807068E+02  0.55371032844E+03  0.12699999809E+01 0.  1.
       -4    1    3    3    0  502  0.33404474575E+03 -0.43769305317E+03 -0.10867901320E+04  0.12183084605E+04  0.12699999809E+01 0. -1.
</event>
<event>
 5   0  0.3907270E-04  0.1400068E+04  0.7818609E-02  0.8953769E-01
        1   -1    0    0  501    0  0.00000000000E+00  0.00000000000E+00  0.65469409470E+03  0.65469409472E+03  0.50400001928E-02 0. -1.
       -1   -1    0    0    0  501  0.00000000000E+00  0.00000000000E+00 -0.74851409383E+03  0.74851409384E+03  0.50400001928E-02 0.  1.
    10030    2    1    2    0    0  0.00000000000E+00  0.00000000000E+00 -0.93819999128E+02  0.14032081886E+04  0.14000682227E+04 0.  0.
        3    1    3    3  502    0 -0.29719876118E+03  0.12195187536E+03  0.57645627878E+03  0.65992515871E+03  0.10100000352E+00 0. -1.
       -3    1    3    3    0  502  0.29719876118E+03 -0.12195187536E+03 -0.67027627791E+03  0.74328302986E+03  0.10100000352E+00 0.  1.
</event>
<event>
 5   0  0.6870835E-04  0.1358864E+04  0.7818609E-02  0.8984145E-01
       -2   -1    0    0    0  501  0.00000000000E+00  0.00000000000E+00  0.40578745014E+03  0.40578745015E+03  0.25500000920E-02 0. -1.
        2   -1    0    0  501    0  0.00000000000E+00  0.00000000000E+00 -0.11376105928E+04  0.11376105928E+04  0.25500000920E-02 0.  1.
    10030    2    1    2    0    0  0.00000000000E+00  0.00000000000E+00 -0.73182314262E+03  0.15433980429E+04  0.13588643813E+04 0.  0.
        2    1    3    3  502    0 -0.10827030720E+03  0.17336860881E+03  0.37003853958E+03  0.42273828159E+03  0.25500000920E-02 0. -1.
       -2    1    3    3    0  502  0.10827030720E+03 -0.17336860881E+03 -0.11018616822E+04  0.11206597613E+04  0.25500000920E-02 0.  1.
</event>
<event>
 5   0  0.3977658E-04  0.1411229E+04  0.7818609E-02  0.8945730E-01
       -1   -1    0    0    0  501  0.00000000000E+00  0.00000000000E+00  0.77740108627E+03  0.77740108629E+03  0.50400001928E-02 0.  1.
        1   -1    0    0  501    0  0.00000000000E+00  0.00000000000E+00 -0.64045664732E+03  0.64045664734E+03  0.50400001928E-02 0. -1.
    10030    2    1    2    0    0  0.00000000000E+00  0.00000000000E+00  0.13694443896E+03  0.14178577336E+04  0.14112288168E+04 0.  0.
        5    1    3    3  502    0 -0.29904634424E+02 -0.69522073359E+03 -0.48881615692E+02  0.69759419286E+03  0.46999998093E+01 0. -1.
       -5    1    3    3    0  502  0.29904634424E+02  0.69522073359E+03  0.18582605465E+03  0.72026354076E+03  0.46999998093E+01 0.  1.
</event>
<event>
 5   0  0.7065539E-04  0.1394221E+04  0.7818609E-02  0.8958013E-01
       -2   -1    0    0    0  501  0.00000000000E+00  0.00000000000E+00  0.22985955488E+03  0.22985955490E+03  0.25500000920E-02 0. -1.
        2   -1    0    0  501    0  0.00000000000E+00  0.00000000000E+00 -0.21141726612E+04  0.21141726612E+04  0.25500000920E-02 0.  1.
    10030    2    1    2    0    0  0.00000000000E+00  0.00000000000E+00 -0.18843131063E+04  0.23440322161E+04  0.13942206237E+04 0.  0.
        1    1    3    3  502    0  0.63685586555E+03  0.20343555335E+03 -0.61017319372E+03  0.90514238891E+03  0.50400001928E-02 0.  1.
       -1    1    3    3    0  502 -0.63685586555E+03 -0.20343555335E+03 -0.12741399126E+04  0.14388898272E+04  0.50400001928E-02 0. -1.
</event>
<event>
 5   0  0.3907270E-04  0.1394375E+04  0.7818609E-02  0.8957900E-01
        1   -1    0    0  501    0  0.00000000000E+00  0.00000000000E+00  0.14868917011E+04  0.14868917011E+04  0.50400001928E-02 0.  1.
       -1   -1    0    0    0  501  0.00000000000E+00  0.00000000000E+00 -0.32690393098E+03  0.32690393101E+03  0.50400001928E-02 0. -1.
    10030    2    1    2    0    0  0.00000000000E+00  0.00000000000E+00  0.11599877701E+04  0.18137956321E+04  0.13943754761E+04 0.  0.
        3    1    3    3  502    0  0.28811156912E+03  0.15151158918E+03 -0.22198212052E+03  0.39400521563E+03  0.10100000352E+00 0. -1.
       -3    1    3    3    0  502 -0.28811156912E+03 -0.15151158918E+03  0.13819698906E+04  0.14197904165E+04  0.10100000352E+00 0.  1.
</event>
<event>
 5   0  0.7065539E-04  0.1402262E+04  0.7818609E-02  0.8952183E-01
       -2   -1    0    0    0  501  0.00000000000E+00  0.00000000000E+00  0.32794513948E+03  0.32794513949E+03  0.25500000920E-02 0. -1.
        2   -1    0    0  501    0  0.00000000000E+00  0.00000000000E+00 -0.14989839294E+04  0.14989839294E+04  0.25500000920E-02 0.  1.
    10030    2    1    2    0    0  0.00000000000E+00  0.00000000000E+00 -0.11710387899E+04  0.18269290689E+04  0.14022617356E+04 0.  0.
        1    1    3    3  502    0  0.35581316965E+03  0.15590259211E+03 -0.13459564751E+04  0.14008952362E+04  0.50400001928E-02 0.  1.
       -1    1    3    3    0  502 -0.35581316965E+03 -0.15590259211E+03  0.17491768523E+03  0.42603383264E+03  0.50400001928E-02 0. -1.
</event>
<event>
 5   0  0.3784219E-04  0.1392321E+04  0.7818609E-02  0.8959396E-01
       -1   -1    0    0    0  501  0.00000000000E+00  0.00000000000E+00  0.63039083302E+03  0.63039083304E+03  0.50400001928E-02 0.  1.
        1   -1    0    0  501    0  0.00000000000E+00  0.00000000000E+00 -0.76879235200E+03  0.76879235202E+03  0.50400001928E-02 0. -1.
    10030    2    1    2    0    0  0.00000000000E+00  0.00000000000E+00 -0.13840151898E+03  0.13991831851E+04  0.13923213009E+04 0.  0.
        1    1    3    3  502    0 -0.42104274061E+03 -0.51908274304E+03 -0.26488012727E+03  0.71894740099E+03  0.50400001928E-02 0. -1.
       -1    1    3    3    0  502  0.42104274061E+03  0.51908274304E+03  0.12647860829E+03  0.68023578406E+03  0.50400001928E-02 0.  1.
</event>
<event>
 5   0  0.6959748E-04  0.1399385E+04  0.7818609E-02  0.8954264E-01
        2   -1    0    0  501    0  0.00000000000E+00  0.00000000000E+00  0.77550834948E+03  0.77550834948E+03  0.25500000920E-02 0. -1.
       -2   -1    0    0    0  501  0.00000000000E+00  0.00000000000E+00 -0.63128821092E+03  0.63128821092E+03  0.25500000920E-02 0.  1.
    10030    2    1    2    0    0  0.00000000000E+00  0.00000000000E+00  0.14422013856E+03  0.14067965604E+04  0.13993845483E+04 0.  0.
        5    1    3    3  502    0  0.38248156073E+03 -0.52370348288E+03  0.33616019062E+03  0.73046782683E+03  0.46999998093E+01 0. -1.
       -5    1    3    3    0  502 -0.38248156073E+03  0.52370348288E+03 -0.19194005206E+03  0.67632873358E+03  0.46999998093E+01 0.  1.
</event>
<event>
 5   0  0.3756664E-04  0.1397963E+04  0.7818609E-02  0.8955294E-01
        1   -1    0    0  501    0  0.00000000000E+00  0.00000000000E+00  0.97204063274E+03  0.97204063276E+03  0.50400001928E-02 0. -1.
       -1   -1    0    0    0  501  0.00000000000E+00  0.00000000000E+00 -0.50262836062E+03  0.50262836065E+03  0.50400001928E-02 0.  1.
    10030    2    1    2    0    0  0.00000000000E+00  0.00000000000E+00  0.46941227212E+03  0.14746689934E+04  0.13979630749E+04 0.  0.
        2    1    3    3  502    0  0.48291474793E+03 -0.50433252786E+03  0.26835031900E+03  0.74804401350E+03  0.25500000920E-02 0. -1.
       -2    1    3    3    0  502 -0.48291474793E+03  0.50433252786E+03  0.20106195312E+03  0.72662497990E+03  0.25500000920E-02 0.  1.
</event>
<event>
 5   0  0.7296966E-04  0.1417641E+04  0.7818609E-02  0.8941147E-01
        2   -1    0    0  501    0  0.00000000000E+00  0.00000000000E+00  0.64368896648E+03  0.64368896649E+03  0.25500000920E-02 0.  1.
       -2   -1    0    0    0  501  0.00000000000E+00  0.00000000000E+00 -0.78054209956E+03  0.78054209956E+03  0.25500000920E-02 0. -1.
    10030    2    1    2    0    0  0.00000000000E+00  0.00000000000E+00 -0.13685313308E+03  0.14242310661E+04  0.14176407688E+04 0.  0.
        3    1    3    3  502    0 -0.23940483943E+03  0.15828310138E+03  0.58270529535E+03  0.64954883478E+03  0.10100000352E+00 0.  1.
       -3    1    3    3    0  502  0.23940483943E+03 -0.15828310138E+03 -0.71955842843E+03  0.77468223128E+03  0.10100000352E+00 0. -1.
</event>
<event>
 5   0  0.6870835E-04  0.1388238E+04  0.7818609E-02  0.8962377E-01
       -2   -1    0    0    0  501  0.00000000000E+00  0.00000000000E+00  0.41127301774E+03  0.41127301774E+03  0.25500000920E-02 0. -1.
        2   -1    0    0  501    0  0.00000000000E+00  0.00000000000E+00 -0.11714872618E+04  0.11714872618E+04  0.25500000920E-02 0.  1.
    10030    2    1    2    0    0  0.00000000000E+00  0.00000000000E+00 -0.76021424409E+03  0.15827602796E+04  0.13882378779E+04 0.  0.
        2    1    3    3  502    0 -0.66313192084E+03 -0.17534949863E+03 -0.25885844931E+03  0.73314329288E+03  0.25500000920E-02 0. -1.
       -2    1    3    3    0  502  0.66313192084E+03  0.17534949863E+03 -0.50135579478E+03  0.84961698669E+03  0.25500000920E-02 0.  1.
</event>
<event>
 5   0  0.2660250E-04  0.1389276E+04  0.7818609E-02  0.8961618E-01
       -4   -1    0    0    0  501  0.00000000000E+00  0.00000000000E+00  0.70072350357E+03  0.70072465445E+03  0.12699999809E+01 0. -1.
        4   -1    0    0  501    0  0.00000000000E+00  0.00000000000E+00 -0.68860321210E+03  0.68860438324E+03  0.12699999809E+01 0.  1.
    10030    2    1    2    0    0  0.00000000000E+00  0.00000000000E+00  0.12120291468E+02  0.13893290377E+04  0.13892761689E+04 0.  0.
        5    1    3    3  502    0  0.44543357187E+03  0.46537005947E+03  0.26591540963E+03  0.69693145594E+03  0.46999998093E+01 0.  1.
       -5    1    3    3    0  502 -0.44543357187E+03 -0.46537005947E+03 -0.25379511816E+03  0.69239758174E+03  0.46999998093E+01 0. -1.
</event>
<event>
 5   0  0.6959748E-04  0.1382235E+04  0.7818609E-02  0.8966779E-01
        2   -1    0    0  501    0  0.00000000000E+00  0.00000000000E+00  0.75093498231E+03  0.75093498232E+03  0.25500000920E-02 0. -1.
       -2   -1    0    0    0  501  0.00000000000E+00  0.00000000000E+00 -0.63606502913E+03  0.63606502914E+03  0.25500000920E-02 0.  1.
    10030    2    1    2    0    0  0.00000000000E+00  0.00000000000E+00  0.11486995318E+03  0.13870000115E+04  0.13822351195E+04 0.  0.
        5    1    3    3  502    0  0.29766543837E+03 -0.11504954782E+03 -0.55768741174E+03  0.64255618499E+03  0.46999998093E+01 0.  1.
       -5    1    3    3    0  502 -0.29766543837E+03  0.11504954782E+03  0.67255736492E+03  0.74444382646E+03  0.46999998093E+01 0. -1.
</event>
<event>
 5   0  0.6959748E-04  0.1393542E+04  0.7818609E-02  0.8958506E-01
        2   -1    0    0  501    0  0.00000000000E+00  0.00000000000E+00  0.16673454711E+04  0.16673454711E+04  0.25500000920E-02 0.  1.
       -2   -1    0    0    0  501  0.00000000000E+00  0.00000000000E+00 -0.29117537024E+03  0.29117537025E+03  0.25500000920E-02 0. -1.
    10030    2    1    2    0    0  0.00000000000E+00  0.00000000000E+00  0.13761701009E+04  0.19585208414E+04  0.13935421556E+04 0.  0.
        5    1    3    3  502    0 -0.30359902108E+03 -0.58642339752E+03  0.37570370509E+03  0.75976320704E+03  0.46999998093E+01 0. -1.
       -5    1    3    3    0  502  0.30359902108E+03  0.58642339752E+03  0.10004663958E+04  0.11987576343E+04  0.46999998093E+01 0.  1.
</event>
<event>
 5   0  0.7296966E-04  0.1412312E+04  0.7818609E-02  0.8944954E-01
        2   -1    0    0  501    0  0.00000000000E+00  0.00000000000E+00  0.76914854488E+03  0.76914854489E+03  0.25500000920E-02 0.  1.
       -2   -1    0    0    0  501  0.00000000000E+00  0.00000000000E+00 -0.64832246463E+03  0.64832246464E+03  0.25500000920E-02 0. -1.
    10030    2    1    2    0    0  0.00000000000E+00  0.00000000000E+00  0.12082608025E+03  0.14174710095E+04  0.14123119773E+04 0.  0.
        3    1    3    3  502    0  0.56718124027E+03  0.32494017190E+03 -0.20772499054E+03  0.68587925797E+03  0.10100000352E+00 0. -1.
       -3    1    3    3    0  502 -0.56718124027E+03 -0.32494017190E+03  0.32855107079E+03  0.73159175155E+03  0.10100000352E+00 0.  1.
</event>
<event>
 5   0  0.7065539E-04  0.1423681E+04  0.7818609E-02  0.8936853E-01
       -2   -1    0    0    0  501  0.00000000000E+00  0.00000000000E+00  0.43677778662E+03  0.43677778662E+03  0.25500000920E-02 0. -1.
        2   -1    0    0  501    0  0.00000000000E+00  0.00000000000E+00 -0.11601249402E+04  0.11601249402E+04  0.25500000920E-02 0.  1.
    10030    2    1    2    0    0  0.00000000000E+00  0.00000000000E+00 -0.72334715363E+03  0.15969027269E+04  0.14236808682E+04 0.  0.
        1    1    3    3  502    0  0.13373973766E+03  0.69226947507E+03 -0.47153708144E+03  0.84821610616E+03  0.50400001928E-02 0.  1.
       -1    1    3    3    0  502 -0.13373973766E+03 -0.69226947507E+03 -0.25181007219E+03  0.74868662071E+03  0.50400001928E-02 0. -1.
</event>
<event>
 5   0  0.3977658E-04  0.1398983E+04  0.7818609E-02  0.8954555E-01
        1   -1    0    0  501    0  0.00000000000E+00  0.00000000000E+00  0.10518456957E+04  0.10518456957E+04  0.50400001928E-02 0.  1.
       -1   -1    0    0    0  501  0.00000000000E+00  0.00000000000E+00 -0.46517125653E+03  0.46517125656E+03  0.50400001928E-02 0. -1.
    10030    2    1    2    0    0  0.00000000000E+00  0.00000000000E+00  0.58667443915E+03  0.15170169522E+04  0.13989830363E+04 0.  0.
        5    1    3    3  502    0  0.44548539356E+03 -0.22046157454E+03  0.82700405205E+03  0.96489291314E+03  0.46999998093E+01 0.  1.
       -5    1    3    3    0  502 -0.44548539356E+03  0.22046157454E+03 -0.24032961290E+03  0.55212403911E+03  0.46999998093E+01 0. -1.
</event>
<event>
 5   0  0.3784219E-04  0.1393596E+04  0.7818609E-02  0.8958467E-01
        1   -1    0    0  501    0  0.00000000000E+00  0.00000000000E+00  0.93390915794E+03  0.93390915795E+03  0.50400001928E-02 0.  1.
       -1   -1    0    0    0  501  0.00000000000E+00  0.00000000000E+00 -0.51988718494E+03  0.51988718497E+03  0.50400001928E-02 0. -1.
    10030    2    1    2    0    0  0.00000000000E+00  0.00000000000E+00  0.41402197299E+03  0.14537963429E+04  0.13935959287E+04 0.  0.
        1    1    3    3  502    0 -0.62945758664E+03 -0.29870124945E+03  0.19721862456E+03  0.72410943628E+03  0.50400001928E-02 0.  1.
       -1    1    3    3    0  502  0.62945758664E+03  0.29870124945E+03  0.21680334843E+03  0.72968690664E+03  0.50400001928E-02 0. -1.
</event>
<event>
 5   0  0.2660250E-04  0.1407684E+04  0.7818609E-02  0.8948275E-01
       -3   -1    0    0    0  501  0.00000000000E+00  0.00000000000E+00  0.95073172035E+03  0.95073172571E+03  0.10100000352E+00 0.  1.
        3   -1    0    0  501    0  0.00000000000E+00  0.00000000000E+00 -0.52106582742E+03  0.52106583721E+03  0.10100000352E+00 0. -1.
    10030    2    1    2    0    0  0.00000000000E+00  0.00000000000E+00  0.42966589293E+03  0.14717975629E+04  0.14076843704E+04 0.  0.
        3    1    3    3  502    0  0.50380040570E+03 -0.22708865561E+03 -0.24092125698E+03  0.60284920881E+03  0.10100000352E+00 0. -1.
       -3    1    3    3    0  502 -0.50380040570E+03  0.22708865561E+03  0.67058714991E+03  0.86894835412E+03  0.10100000352E+00 0.  1.
</event>
<event>
 5   0  0.6870835E-04  0.1399565E+04  0.7818609E-02  0.8954133E-01
       -2   -1    0    0    0  501  0.00000000000E+00  0.00000000000E+00  0.98386377358E+03  0.98386377358E+03  0.25500000920E-02 0.  1.
        2   -1    0    0  501    0  0.00000000000E+00  0.00000000000E+00 -0.49772711146E+03  0.49772711147E+03  0.25500000920E-02 0. -1.
    10030    2    1    2    0    0  0.00000000000E+00  0.00000000000E+00  0.48613666212E+03  0.14815908850E+04  0.13995651812E+04 0.  0.
        2    1    3    3  502    0 -0.69217315785E+03  0.23837879051E+02  0.34905476095E+03  0.77557149965E+03  0.25500000920E-02 0.  1.
       -2    1    3    3    0  502  0.69217315785E+03 -0.23837879051E+02  0.13708190116E+03  0.70601938539E+03  0.25500000920E-02 0. -1.
</event>
<event>
 5   0  0.3756664E-04  0.1398382E+04  0.7818609E-02  0.8954990E-01
       -1   -1    0    0    0  501  0.00000000000E+00  0.00000000000E+00  0.96995352325E+03  0.96995352326E+03  0.50400001928E-02 0. -1.
        1   -1    0    0  501    0  0.00000000000E+00  0.00000000000E+00 -0.50401192493E+03  0.50401192496E+03  0.50400001928E-02 0.  1.
    10030    2    1    2    0    0  0.00000000000E+00  0.00000000000E+00  0.46594159832E+03  0.14739654482E+04  0.13983821257E+04 0.  0.
        2    1    3    3  502    0 -0.26002827201E+03 -0.56519954352E+02 -0.44855169392E+03  0.52154369866E+03  0.25500000920E-02 0.  1.
       -2    1    3    3    0  502  0.26002827201E+03  0.56519954352E+02  0.91449329224E+03  0.95242174956E+03  0.25500000920E-02 0. -1.
</event>
<event>
 5   0  0.7065539E-04  0.1399695E+04  0.7818609E-02  0.8954039E-01
       -2   -1    0    0    0  501  0.00000000000E+00  0.00000000000E+00  0.34138747882E+03  0.34138747882E+03  0.25500000920E-02 0.  1.
        2   -1    0    0  501    0  0.00000000000E+00  0.00000000000E+00 -0.14346946220E+04  0.14346946220E+04  0.25500000920E-02 0. -1.
    10030    2    1    2    0    0  0.00000000000E+00  0.00000000000E+00 -0.10933071432E+04  0.17760821008E+04  0.13996953667E+04 0.  0.
        1    1    3    3  502    0 -0.17277332408E+03 -0.94912750893E+02  0.30543155225E+03  0.36352095528E+03  0.50400001928E-02 0.  1.
       -1    1    3    3    0  502  0.17277332408E+03  0.94912750893E+02 -0.13987386954E+04  0.14125611456E+04  0.50400001928E-02 0. -1.
</event>
<event>
 5   0  0.6959748E-04  0.1392931E+04  0.7818609E-02  0.8958951E-01
       -2   -1    0    0    0  501  0.00000000000E+00  0.00000000000E+00  0.43270903844E+03  0.43270903845E+03  0.25500000920E-02 0.  1.
        2   -1    0    0  501    0  0.00000000000E+00  0.00000000000E+00 -0.11209944031E+04  0.11209944031E+04  0.25500000920E-02 0. -1.
    10030    2    1    2    0    0  0.00000000000E+00  0.00000000000E+00 -0.68828536463E+03  0.15537034415E+04  0.13929313124E+04 0.  0.
        5    1    3    3  502    0  0.29402311346E+03 -0.36759711571E+03  0.22838958103E+03  0.52322186637E+03  0.46999998093E+01 0.  1.
       -5    1    3    3    0  502 -0.29402311346E+03  0.36759711571E+03 -0.91667494566E+03  0.10304815752E+04  0.46999998093E+01 0. -1.
</event>
<event>
 5   0  0.2660250E-04  0.1408595E+04  0.7818609E-02  0.8947620E-01
        3   -1    0    0  501    0  0.00000000000E+00  0.00000000000E+00  0.65476941545E+03  0.65476942324E+03  0.10100000352E+00 0.  1.
       -3   -1    0    0    0  501  0.00000000000E+00  0.00000000000E+00 -0.75757196377E+03  0.75757197050E+03  0.10100000352E+00 0. -1.
    10030    2    1    2    0    0  0.00000000000E+00  0.00000000000E+00 -0.10280254831E+03  0.14123413937E+04  0.14085949910E+04 0.  0.
        3    1    3    3  502    0  0.15977627481E+03  0.22795129567E+03 -0.70007225854E+03  0.75338663949E+03  0.10100000352E+00 0. -1.
       -3    1    3    3    0  502 -0.15977627481E+03 -0.22795129567E+03  0.59726971023E+03  0.65895475425E+03  0.10100000352E+00 0.  1.
</event>
<event>
 5   0  0.3907270E-04  0.1367531E+04  0.7818609E-02  0.8977662E-01
        1   -1    0    0  501    0  0.00000000000E+00  0.00000000000E+00  0.55176365562E+03  0.55176365564E+03  0.50400001928E-02 0.  1.
       -1   -1    0    0    0  501  0.00000000000E+00  0.00000000000E+00 -0.84734740439E+03  0.84734740440E+03  0.50400001928E-02 0. -1.
    10030    2    1    2    0    0  0.00000000000E+00  0.00000000000E+00 -0.29558374877E+03  0.13991110600E+04  0.13675313546E+04 0.  0.
        3    1    3    3  502    0  0.24155938664E+03  0.14300033881E+03 -0.78567626472E+03  0.83431842681E+03  0.10100000352E+00 0. -1.
       -3    1    3    3    0  502 -0.24155938664E+03 -0.14300033881E+03  0.49009251594E+03  0.56479263324E+03  0.10100000352E+00 0.  1.
</event>
<event>
 5   0  0.3977658E-04  0.1399722E+04  0.7818609E-02  0.8954020E-01
       -1   -1    0    0    0  501  0.00000000000E+00  0.00000000000E+00  0.45645541479E+03  0.45645541482E+03  0.50400001928E-02 0. -1.
        1   -1    0    0  501    0  0.00000000000E+00  0.00000000000E+00 -0.10730630500E+04  0.10730630500E+04  0.50400001928E-02 0.  1.
    10030    2    1    2    0    0  0.00000000000E+00  0.00000000000E+00 -0.61660763519E+03  0.15295184648E+04  0.13997220290E+04 0.  0.
        5    1    3    3  502    0  0.62432771786E+03  0.16922863550E+03 -0.16399780380E+02  0.64708150426E+03  0.46999998093E+01 0.  1.
       -5    1    3    3    0  502 -0.62432771786E+03 -0.16922863550E+03 -0.60020785481E+03  0.88243696055E+03  0.46999998093E+01 0. -1.
</event>
<event>
 5   0  0.7065539E-04  0.1397894E+04  0.7818609E-02  0.8955344E-01
       -2   -1    0    0    0  501  0.00000000000E+00  0.00000000000E+00  0.11246810561E+04  0.11246810561E+04  0.25500000920E-02 0.  1.
        2   -1    0    0  501    0  0.00000000000E+00  0.00000000000E+00 -0.43436958834E+03  0.43436958835E+03  0.25500000920E-02 0. -1.
    10030    2    1    2    0    0  0.00000000000E+00  0.00000000000E+00  0.69031146780E+03  0.15590506445E+04  0.13978944844E+04 0.  0.
        1    1    3    3  502    0 -0.37195914387E+03 -0.58905785377E+03  0.40809267193E+03  0.80739233877E+03  0.50400001928E-02 0. -1.
       -1    1    3    3    0  502  0.37195914387E+03  0.58905785377E+03  0.28221879588E+03  0.75165830573E+03  0.50400001928E-02 0.  1.
</event>
<event>
 5   0  0.6895048E-04  0.1398945E+04  0.7818609E-02  0.8954583E-01
        2   -1    0    0  501    0  0.00000000000E+00  0.00000000000E+00  0.97729088353E+03  0.97729088353E+03  0.25500000920E-02 0. -1.
       -2   -1    0    0    0  501  0.00000000000E+00  0.00000000000E+00 -0.50063034216E+03  0.50063034217E+03  0.25500000920E-02 0.  1.
    10030    2    1    2    0    0  0.00000000000E+00  0.00000000000E+00  0.47666054137E+03  0.14779212257E+04  0.13989445585E+04 0.  0.
        4    1    3    3  502    0  0.48868278231E+03 -0.41812904161E+03  0.52884007251E+03  0.83265610690E+03  0.12699999809E+01 0. -1.
       -4    1    3    3    0  502 -0.48868278231E+03  0.41812904161E+03 -0.52179531148E+02  0.64526511880E+03  0.12699999809E+01 0.  1.
</event>
<event>
 5   0  0.2660250E-04  0.1400438E+04  0.7818609E-02  0.8953502E-01
        4   -1    0    0  501    0  0.00000000000E+00  0.00000000000E+00  0.70356967349E+03  0.70357081972E+03  0.12699999809E+01 0.  1.
       -4   -1    0    0    0  501  0.00000000000E+00  0.00000000000E+00 -0.69688173184E+03  0.69688288907E+03  0.12699999809E+01 0. -1.
    10030    2    1    2    0    0  0.00000000000E+00  0.00000000000E+00  0.66879416510E+01  0.14004537088E+04  0.14004377394E+04 0.  0.
        1    1    3    3  502    0  0.20630423373E+03 -0.60857943919E+02 -0.66302789702E+03  0.69704455987E+03  0.50400001928E-02 0. -1.
       -1    1    3    3    0  502 -0.20630423373E+03  0.60857943919E+02  0.66971583867E+03  0.70340914892E+03  0.50400001928E-02 0.  1.
</event>
<event>
 5   0  0.3907093E-04  0.1403483E+04  0.7818609E-02  0.8951301E-01
       -1   -1    0    0    0  501  0.00000000000E+00  0.00000000000E+00  0.34578971101E+03  0.34578971105E+03  0.50400001928E-02 0. -1.
        1   -1    0    0  501    0  0.00000000000E+00  0.00000000000E+00 -0.14241052388E+04  0.14241052388E+04  0.50400001928E-02 0.  1.
    10030    2    1    2    0    0  0.00000000000E+00  0.00000000000E+00 -0.10783155278E+04  0.17698949499E+04  0.14034827238E+04 0.  0.
        4    1    3    3  502    0 -0.22894570706E+03  0.11738221179E+02  0.29723486093E+03  0.37537194631E+03  0.12699999809E+01 0. -1.
       -4    1    3    3    0  502  0.22894570706E+03 -0.11738221179E+02 -0.13755503887E+04  0.13945230036E+04  0.12699999809E+01 0.  1.
</event>
<event>
 5   0  0.7296966E-04  0.1450308E+04  0.7818609E-02  0.8918187E-01
        2   -1    0    0  501    0  0.00000000000E+00  0.00000000000E+00  0.59506740041E+03  0.59506740041E+03  0.25500000920E-02 0. -1.
       -2   -1    0    0    0  501  0.00000000000E+00  0.00000000000E+00 -0.88367834003E+03  0.88367834003E+03  0.25500000920E-02 0.  1.
    10030    2    1    2    0    0  0.00000000000E+00  0.00000000000E+00 -0.28861093962E+03  0.14787457404E+04  0.14503077916E+04 0.  0.
        3    1    3    3  502    0 -0.35513886393E+03  0.15128509642E+03 -0.77021318972E+03  0.86153302948E+03  0.10100000352E+00 0.  1.
       -3    1    3    3    0  502  0.35513886393E+03 -0.15128509642E+03  0.48160225010E+03  0.61721271096E+03  0.10100000352E+00 0. -1.
</event>
<event>
 5   0  0.3784219E-04  0.1401005E+04  0.7818609E-02  0.8953091E-01
       -1   -1    0    0    0  501  0.00000000000E+00  0.00000000000E+00  0.40724847910E+03  0.40724847913E+03  0.50400001928E-02 0.  1.
        1   -1    0    0  501    0  0.00000000000E+00  0.00000000000E+00 -0.12049254568E+04  0.12049254568E+04  0.50400001928E-02 0. -1.
    10030    2    1    2    0    0  0.00000000000E+00  0.00000000000E+00 -0.79767697771E+03  0.16121739359E+04  0.14010054386E+04 0.  0.
        1    1    3    3  502    0 -0.36923018211E+01 -0.61658833626E+03 -0.78137367697E+03  0.99535904707E+03  0.50400001928E-02 0. -1.
       -1    1    3    3    0  502  0.36923018211E+01  0.61658833626E+03 -0.16303300744E+02  0.61681488888E+03  0.50400001928E-02 0.  1.
</event>
<event>
 5   0  0.6959748E-04  0.1397456E+04  0.7818609E-02  0.8955662E-01
        2   -1    0    0  501    0  0.00000000000E+00  0.00000000000E+00  0.63960566232E+03  0.63960566232E+03  0.25500000920E-02 0. -1.
       -2   -1    0    0    0  501  0.00000000000E+00  0.00000000000E+00 -0.76331567915E+03  0.76331567915E+03  0.25500000920E-02 0.  1.
    10030    2    1    2    0    0  0.00000000000E+00  0.00000000000E+00 -0.12371001683E+03  0.14029213415E+04  0.13974563042E+04 0.  0.
        5    1    3    3  502    0  0.41918684205E+03 -0.48330440349E+03 -0.34384168719E+03  0.72632633907E+03  0.46999998093E+01 0.  1.
       -5    1    3    3    0  502 -0.41918684205E+03  0.48330440349E+03  0.22013167036E+03  0.67659500240E+03  0.46999998093E+01 0. -1.
</event>
<event>
 5   0  0.3756664E-04  0.1490557E+04  0.7818609E-02  0.8890757E-01
       -1   -1    0    0    0  501  0.00000000000E+00  0.00000000000E+00  0.53730802211E+03  0.53730802213E+03  0.50400001928E-02 0.  1.
        1   -1    0    0  501    0  0.00000000000E+00  0.00000000000E+00 -0.10337463773E+04  0.10337463773E+04  0.50400001928E-02 0. -1.
    10030    2    1    2    0    0  0.00000000000E+00  0.00000000000E+00 -0.49643835518E+03  0.15710543994E+04  0.14905572399E+04 0.  0.
        2    1    3    3  502    0  0.15438645919E+03 -0.60149772177E+03  0.18610947827E+03  0.64828344571E+03  0.25500000920E-02 0.  1.
       -2    1    3    3    0  502 -0.15438645919E+03  0.60149772177E+03 -0.68254783345E+03  0.92277095372E+03  0.25500000920E-02 0. -1.
</event>
<event>
 5   0  0.7065539E-04  0.1278980E+04  0.7818609E-02  0.9046402E-01
        2   -1    0    0  501    0  0.00000000000E+00  0.00000000000E+00  0.12668323974E+04  0.12668323974E+04  0.25500000920E-02 0.  1.
       -2   -1    0    0    0  501  0.00000000000E+00  0.00000000000E+00 -0.32281104435E+03  0.32281104436E+03  0.25500000920E-02 0. -1.
    10030    2    1    2    0    0  0.00000000000E+00  0.00000000000E+00  0.94402135301E+03  0.15896434417E+04  0.12789800455E+04 0.  0.
        1    1    3    3  502    0 -0.79864501760E+02 -0.92094780645E+02 -0.30823684012E+03  0.33146604184E+03  0.50400001928E-02 0. -1.
       -1    1    3    3    0  502  0.79864501760E+02  0.92094780645E+02  0.12522581931E+04  0.12581773999E+04  0.50400001928E-02 0.  1.
</event>
<event>
 5   0  0.6870835E-04  0.1426025E+04  0.7818609E-02  0.8935193E-01
       -2   -1    0    0    0  501  0.00000000000E+00  0.00000000000E+00  0.20988049524E+03  0.20988049526E+03  0.25500000920E-02 0. -1.
        2   -1    0    0  501    0  0.00000000000E+00  0.00000000000E+00 -0.24222675182E+04  0.24222675182E+04  0.25500000920E-02 0.  1.
    10030    2    1    2    0    0  0.00000000000E+00  0.00000000000E+00 -0.22123870230E+04  0.26321480135E+04  0.14260248334E+04 0.  0.
        2    1    3    3  502    0  0.25614022779E+03 -0.26242501724E+03  0.22478928583E+02  0.36739625503E+03  0.25500000920E-02 0. -1.
       -2    1    3    3    0  502 -0.25614022779E+03  0.26242501724E+03 -0.22348659516E+04  0.22647517585E+04  0.25500000920E-02 0.  1.
</event>
<event>
 5   0  0.2660250E-04  0.1405408E+04  0.7818609E-02  0.8949913E-01
       -3   -1    0    0    0  501  0.00000000000E+00  0.00000000000E+00  0.23295601984E+03  0.23295604173E+03  0.10100000352E+00 0. -1.
        3   -1    0    0  501    0  0.00000000000E+00  0.00000000000E+00 -0.21196836324E+04  0.21196836348E+04  0.10100000352E+00 0.  1.
    10030    2    1    2    0    0  0.00000000000E+00  0.00000000000E+00 -0.18867276125E+04  0.23526396765E+04  0.14054082551E+04 0.  0.
        2    1    3    3  502    0  0.44503389529E+03 -0.37440518296E+03 -0.16036010881E+04  0.17058050471E+04  0.25500000920E-02 0.  1.
       -2    1    3    3    0  502 -0.44503389529E+03  0.37440518296E+03 -0.28312652449E+03  0.64683462946E+03  0.25500000920E-02 0. -1.
</event>
<event>
 5   0  0.3907093E-04  0.1397430E+04  0.7818609E-02  0.8955681E-01
        1   -1    0    0  501    0  0.00000000000E+00  0.00000000000E+00  0.17337415623E+04  0.17337415623E+04  0.50400001928E-02 0. -1.
       -1   -1    0    0    0  501  0.00000000000E+00  0.00000000000E+00 -0.28158887536E+03  0.28158887541E+03  0.50400001928E-02 0.  1.
    10030    2    1    2    0    0  0.00000000000E+00  0.00000000000E+00  0.14521526869E+04  0.20153304377E+04  0.13974295499E+04 0.  0.
        4    1    3    3  502    0  0.11296725076E+03 -0.29551353663E+02 -0.26741612515E+03  0.29180109516E+03  0.12699999809E+01 0.  1.
       -4    1    3    3    0  502 -0.11296725076E+03  0.29551353663E+02  0.17195688121E+04  0.17235293425E+04  0.12699999809E+01 0. -1.
</event>
<event>
 5   0  0.2660250E-04  0.1397466E+04  0.7818609E-02  0.8955655E-01
        3   -1    0    0  501    0  0.00000000000E+00  0.00000000000E+00  0.53884974813E+03  0.53884975759E+03  0.10100000352E+00 0.  1.
       -3   -1    0    0    0  501  0.00000000000E+00  0.00000000000E+00 -0.90605517203E+03  0.90605517766E+03  0.10100000352E+00 0. -1.
    10030    2    1    2    0    0  0.00000000000E+00  0.00000000000E+00 -0.36720542390E+03  0.14449049352E+04  0.13974657236E+04 0.  0.
        1    1    3    3  502    0  0.31604166648E+03  0.11963336913E+03  0.44874091827E+03  0.56174984621E+03  0.50400001928E-02 0.  1.
       -1    1    3    3    0  502 -0.31604166648E+03 -0.11963336913E+03 -0.81594634217E+03  0.88315508904E+03  0.50400001928E-02 0. -1.
</event>
<event>
 5   0  0.6895048E-04  0.1399657E+04  0.7818609E-02  0.8954067E-01
        2   -1    0    0  501    0  0.00000000000E+00  0.00000000000E+00  0.14384331126E+04  0.14384331126E+04  0.25500000920E-02 0. -1.
       -2   -1    0    0    0  501  0.00000000000E+00  0.00000000000E+00 -0.34048142559E+03  0.34048142560E+03  0.25500000920E-02 0.  1.
    10030    2    1    2    0    0  0.00000000000E+00  0.00000000000E+00  0.10979516870E+04  0.17789145382E+04  0.13996567533E+04 0.  0.
        4    1    3    3  502    0 -0.13905226518E+03  0.23542934018E+03 -0.26978168427E+03  0.38411752985E+03  0.12699999809E+01 0.  1.
       -4    1    3    3    0  502  0.13905226518E+03 -0.23542934018E+03  0.13677333713E+04  0.13947970083E+04  0.12699999809E+01 0. -1.
</event>
<event>
 5   0  0.6959748E-04  0.1394732E+04  0.7818609E-02  0.8957640E-01
       -2   -1    0    0    0  501  0.00000000000E+00  0.00000000000E+00  0.41201168495E+03  0.41201168495E+03  0.25500000920E-02 0.  1.
        2   -1    0    0  501    0  0.00000000000E+00  0.00000000000E+00 -0.11803536459E+04  0.11803536459E+04  0.25500000920E-02 0. -1.
    10030    2    1    2    0    0  0.00000000000E+00  0.00000000000E+00 -0.76834196097E+03  0.15923653309E+04  0.13947322245E+04 0.  0.
        5    1    3    3  502    0 -0.11895340363E+03  0.29339851750E+01  0.40031784719E+03  0.41765415032E+03  0.46999998093E+01 0.  1.
       -5    1    3    3    0  502  0.11895340363E+03 -0.29339851750E+01 -0.11686598082E+04  0.11747111806E+04  0.46999998093E+01 0. -1.
</event>
<event>
 5   0  0.3784219E-04  0.1395777E+04  0.7818609E-02  0.8956881E-01
       -1   -1    0    0    0  501  0.00000000000E+00  0.00000000000E+00  0.44789393942E+03  0.44789393945E+03  0.50400001928E-02 0.  1.
        1   -1    0    0  501    0  0.00000000000E+00  0.00000000000E+00 -0.10874194505E+04  0.10874194505E+04  0.50400001928E-02 0. -1.
    10030    2    1    2    0    0  0.00000000000E+00  0.00000000000E+00 -0.63952551108E+03  0.15353133900E+04  0.13957773197E+04 0.  0.
        1    1    3    3  502    0  0.53284557191E+03  0.23650226407E+03  0.10224586013E+03  0.59187155731E+03  0.50400001928E-02 0.  1.
       -1    1    3    3    0  502 -0.53284557191E+03 -0.23650226407E+03 -0.74177137121E+03  0.94344183265E+03  0.50400001928E-02 0. -1.
</event>
<event>
 5   0  0.6895048E-04  0.1398355E+04  0.7818609E-02  0.8955010E-01
        2   -1    0    0  501    0  0.00000000000E+00  0.00000000000E+00  0.11559621934E+04  0.11559621934E+04  0.25500000920E-02 0. -1.
       -2   -1    0    0    0  501  0.00000000000E+00  0.00000000000E+00 -0.42289348366E+03  0.42289348366E+03  0.25500000920E-02 0.  1.
    10030    2    1    2    0    0  0.00000000000E+00  0.00000000000E+00  0.73306870975E+03  0.15788556771E+04  0.13983545744E+04 0.  0.
        4    1    3    3  502    0  0.54835009758E+03  0.40628497158E+03  0.53810994799E+03  0.86909104050E+03  0.12699999809E+01 0. -1.
       -4    1    3    3    0  502 -0.54835009758E+03 -0.40628497158E+03  0.19495876176E+03  0.70976463658E+03  0.12699999809E+01 0.  1.
</event>
<event>
 5   0  0.2660250E-04  0.1382904E+04  0.7818609E-02  0.8966287E-01
       -3   -1    0    0    0  501  0.00000000000E+00  0.00000000000E+00  0.83650497582E+03  0.83650498192E+03  0.10100000352E+00 0.  1.
        3   -1    0    0  501    0  0.00000000000E+00  0.00000000000E+00 -0.57155155134E+03  0.57155156026E+03  0.10100000352E+00 0. -1.
    10030    2    1    2    0    0  0.00000000000E+00  0.00000000000E+00  0.26495342448E+03  0.14080565422E+04  0.13829037959E+04 0.  0.
        1    1    3    3  502    0  0.33032139968E+03 -0.55382517988E+03  0.38655739027E+03  0.75183852851E+03  0.50400001928E-02 0.  1.
       -1    1    3    3    0  502 -0.33032139968E+03  0.55382517988E+03 -0.12160396578E+03  0.65621801367E+03  0.50400001928E-02 0. -1.
</event>
<event>
 5   0  0.3907270E-04  0.1386444E+04  0.7818609E-02  0.8963690E-01
       -1   -1    0    0    0  501  0.00000000000E+00  0.00000000000E+00  0.46796698928E+03  0.46796698931E+03  0.50400001928E-02 0. -1.
        1   -1    0    0  501    0  0.00000000000E+00  0.00000000000E+00 -0.10269038115E+04  0.10269038115E+04  0.50400001928E-02 0.  1.
    10030    2    1    2    0    0  0.00000000000E+00  0.00000000000E+00 -0.55893682219E+03  0.14948708008E+04  0.13864444958E+04 0.  0.
        3    1    3    3  502    0 -0.88394277690E+02  0.27684293330E+03 -0.95805367401E+03  0.10011605319E+04  0.10100000352E+00 0.  1.
       -3    1    3    3    0  502  0.88394277690E+02 -0.27684293330E+03  0.39911685182E+03  0.49371026894E+03  0.10100000352E+00 0. -1.
</event>
<event>
 5   0  0.3756664E-04  0.1402838E+04  0.7818609E-02  0.8951767E-01
       -1   -1    0    0    0  501  0.00000000000E+00  0.00000000000E+00  0.19501409578E+04  0.19501409578E+04  0.50400001928E-02 0. -1.
        1   -1    0    0  501    0  0.00000000000E+00  0.00000000000E+00 -0.25228357728E+03  0.25228357733E+03  0.50400001928E-02 0.  1.
    10030    2    1    2    0    0  0.00000000000E+00  0.00000000000E+00  0.16978573805E+04  0.22024245351E+04  0.14028378910E+04 0.  0.
        2    1    3    3  502    0 -0.41133507428E+03 -0.50845976506E+03  0.45094420407E+03  0.79440452617E+03  0.25500000920E-02 0.  1.
       -2    1    3    3    0  502  0.41133507428E+03  0.50845976506E+03  0.12469131764E+04  0.14080200089E+04  0.25500000920E-02 0. -1.
</event>
<event>
 5   0  0.3756664E-04  0.1398379E+04  0.7818609E-02  0.8954992E-01
        1   -1    0    0  501    0  0.00000000000E+00  0.00000000000E+00  0.46183432841E+03  0.46183432844E+03  0.50400001928E-02 0.  1.
       -1   -1    0    0    0  501  0.00000000000E+00  0.00000000000E+00 -0.10585316674E+04  0.10585316674E+04  0.50400001928E-02 0. -1.
    10030    2    1    2    0    0  0.00000000000E+00  0.00000000000E+00 -0.59669733894E+03  0.15203659958E+04  0.13983794360E+04 0.  0.
        2    1    3    3  502    0  0.58241971512E+03 -0.25851425553E+02  0.12130859251E+03  0.59548030646E+03  0.25500000920E-02 0.  1.
       -2    1    3    3    0  502 -0.58241971512E+03  0.25851425553E+02 -0.71800593144E+03  0.92488568934E+03  0.25500000920E-02 0. -1.
</event>
<event>
 5   0  0.3784219E-04  0.1404238E+04  0.7818609E-02  0.8950757E-01
        1   -1    0    0  501    0  0.00000000000E+00  0.00000000000E+00  0.60318465630E+03  0.60318465632E+03  0.50400001928E-02 0. -1.
       -1   -1    0    0    0  501  0.00000000000E+00  0.00000000000E+00 -0.81728063526E+03  0.81728063528E+03  0.50400001928E-02 0.  1.
    10030    2    1    2    0    0  0.00000000000E+00  0.00000000000E+00 -0.21409597896E+03  0.14204652916E+04  0.14042380697E+04 0.  0.
        1    1    3    3  502    0 -0.30205193016E+03 -0.55908131062E+03  0.19500581558E+03  0.66470636264E+03  0.50400001928E-02 0. -1.
       -1    1    3    3    0  502  0.30205193016E+03  0.55908131062E+03 -0.40910179454E+03  0.75575892897E+03  0.50400001928E-02 0.  1.
</event>
<event>
 5   0  0.3977658E-04  0.1370909E+04  0.7818609E-02  0.8975149E-01
        1   -1    0    0  501    0  0.00000000000E+00  0.00000000000E+00  0.16011749479E+04  0.16011749479E+04  0.50400001928E-02 0.  1.
       -1   -1    0    0    0  501  0.00000000000E+00  0.00000000000E+00 -0.29343963354E+03  0.29343963358E+03  0.50400001928E-02 0. -1.
    10030    2    1    2    0    0  0.00000000000E+00  0.00000000000E+00  0.13077353144E+04  0.18946145815E+04  0.13709094646E+04 0.  0.
        5    1    3    3  502    0 -0.97776556837E+02  0.59041363294E+03  0.11157114504E+04  0.12660895086E+04  0.46999998093E+01 0.  1.
       -5    1    3    3    0  502  0.97776556837E+02 -0.59041363294E+03  0.19202386396E+03  0.62852507298E+03  0.46999998093E+01 0. -1.
</event>
<event>
 5   0  0.3756664E-04  0.1414298E+04  0.7818609E-02  0.8943534E-01
       -1   -1    0    0    0  501  0.00000000000E+00  0.00000000000E+00  0.27284050434E+03  0.27284050438E+03  0.50400001928E-02 0. -1.
        1   -1    0    0  501    0  0.00000000000E+00  0.00000000000E+00 -0.18327902859E+04  0.18327902860E+04  0.50400001928E-02 0.  1.
    10030    2    1    2    0    0  0.00000000000E+00  0.00000000000E+00 -0.15599497816E+04  0.21056307903E+04  0.14142976010E+04 0.  0.
        2    1    3    3  502    0 -0.43730372759E+03 -0.51170704795E+03 -0.45727300998E+03  0.81374274728E+03  0.25500000920E-02 0. -1.
       -2    1    3    3    0  502  0.43730372759E+03  0.51170704795E+03 -0.11026767716E+04  0.12918880431E+04  0.25500000920E-02 0.  1.
</event>
<event>
 5   0  0.6895048E-04  0.1389138E+04  0.7818609E-02  0.8961719E-01
       -2   -1    0    0    0  501  0.00000000000E+00  0.00000000000E+00  0.59496671519E+03  0.59496671519E+03  0.25500000920E-02 0. -1.
        2   -1    0    0  501    0  0.00000000000E+00  0.00000000000E+00 -0.81084525840E+03  0.81084525840E+03  0.25500000920E-02 0.  1.
    10030    2    1    2    0    0  0.00000000000E+00  0.00000000000E+00 -0.21587854321E+03  0.14058119736E+04  0.13891377756E+04 0.  0.
        4    1    3    3  502    0 -0.29036833235E+03  0.52868146145E+03 -0.45646601508E+03  0.75642626338E+03  0.12699999809E+01 0.  1.
       -4    1    3    3    0  502  0.29036833235E+03 -0.52868146145E+03  0.24058747187E+03  0.64938571021E+03  0.12699999809E+01 0. -1.
</event>
<event>
 5   0  0.6895048E-04  0.1399441E+04  0.7818609E-02  0.8954223E-01
       -2   -1    0    0    0  501  0.00000000000E+00  0.00000000000E+00  0.34520904291E+03  0.34520904292E+03  0.25500000920E-02 0.  1.
        2   -1    0    0  501    0  0.00000000000E+00  0.00000000000E+00 -0.14182969466E+04  0.14182969466E+04  0.25500000920E-02 0. -1.
    10030    2    1    2    0    0  0.00000000000E+00  0.00000000000E+00 -0.10730879037E+04  0.17635059895E+04  0.13994412192E+04 0.  0.
        4    1    3    3  502    0 -0.61667475313E+03  0.15396723494E+03 -0.90526149758E+03  0.11061164733E+04  0.12699999809E+01 0. -1.
       -4    1    3    3    0  502  0.61667475313E+03 -0.15396723494E+03 -0.16782640612E+03  0.65738951625E+03  0.12699999809E+01 0.  1.
</event>
<event>
 5   0  0.7065539E-04  0.1400401E+04  0.7818609E-02  0.8953529E-01
       -2   -1    0    0    0  501  0.00000000000E+00  0.00000000000E+00  0.26736477109E+03  0.26736477110E+03  0.25500000920E-02 0. -1.
        2   -1    0    0  501    0  0.00000000000E+00  0.00000000000E+00 -0.18337510168E+04  0.18337510168E+04  0.25500000920E-02 0.  1.
    10030    2    1    2    0    0  0.00000000000E+00  0.00000000000E+00 -0.15663862457E+04  0.21011157879E+04  0.14004005439E+04 0.  0.
        1    1    3    3  502    0  0.16445073353E+03  0.67907837956E+03 -0.85176717504E+03  0.11016799943E+04  0.50400001928E-02 0.  1.
       -1    1    3    3    0  502 -0.16445073353E+03 -0.67907837956E+03 -0.71461907071E+03  0.99943579364E+03  0.50400001928E-02 0. -1.
</event>
<event>
 5   0  0.3907093E-04  0.1407622E+04  0.7818609E-02  0.8948320E-01
        1   -1    0    0  501    0  0.00000000000E+00  0.00000000000E+00  0.13018350134E+04  0.13018350134E+04  0.50400001928E-02 0.  1.
       -1   -1    0    0    0  501  0.00000000000E+00  0.00000000000E+00 -0.38050131832E+03  0.38050131835E+03  0.50400001928E-02 0. -1.
    10030    2    1    2    0    0  0.00000000000E+00  0.00000000000E+00  0.92133369508E+03  0.16823363318E+04  0.14076220215E+04 0.  0.
        4    1    3    3  502    0 -0.53853322929E+03 -0.20338972533E+03 -0.23282128975E+02  0.57613287517E+03  0.12699999809E+01 0. -1.
       -4    1    3    3    0  502  0.53853322929E+03  0.20338972533E+03  0.94461582406E+03  0.11062034566E+04  0.12699999809E+01 0.  1.
</event>
<event>
 5   0  0.3907093E-04  0.1401172E+04  0.7818609E-02  0.8952970E-01
       -1   -1    0    0    0  501  0.00000000000E+00  0.00000000000E+00  0.39533327864E+03  0.39533327867E+03  0.50400001928E-02 0.  1.
        1   -1    0    0  501    0  0.00000000000E+00  0.00000000000E+00 -0.12415374290E+04  0.12415374290E+04  0.50400001928E-02 0. -1.
    10030    2    1    2    0    0  0.00000000000E+00  0.00000000000E+00 -0.84620415032E+03  0.16368707076E+04  0.14011724553E+04 0.  0.
        4    1    3    3  502    0  0.43293650386E+03  0.49730337304E+03 -0.69973674425E+03  0.96144567468E+03  0.12699999809E+01 0. -1.
       -4    1    3    3    0  502 -0.43293650386E+03 -0.49730337304E+03 -0.14646740607E+03  0.67542503296E+03  0.12699999809E+01 0.  1.
</event>
<event>
 5   0  0.6959748E-04  0.1399166E+04  0.7818609E-02  0.8954423E-01
        2   -1    0    0  501    0  0.00000000000E+00  0.00000000000E+00  0.71049865794E+03  0.71049865794E+03  0.25500000920E-02 0. -1.
       -2   -1    0    0    0  501  0.00000000000E+00  0.00000000000E+00 -0.68883497195E+03  0.68883497195E+03  0.25500000920E-02 0.  1.
    10030    2    1    2    0    0  0.00000000000E+00  0.00000000000E+00  0.21663685989E+02  0.13993336299E+04  0.13991659274E+04 0.  0.
        5    1    3    3  502    0  0.67931856356E+03 -0.32984044732E+00  0.17794589671E+03  0.70225397951E+03  0.46999998093E+01 0. -1.
       -5    1    3    3    0  502 -0.67931856356E+03  0.32984044732E+00 -0.15628221072E+03  0.69707965038E+03  0.46999998093E+01 0.  1.
</event>
<event>
 5   0  0.3977658E-04  0.1405631E+04  0.7818609E-02  0.8949753E-01
       -1   -1    0    0    0  501  0.00000000000E+00  0.00000000000E+00  0.60307362163E+03  0.60307362165E+03  0.50400001928E-02 0. -1.
        1   -1    0    0  501    0  0.00000000000E+00  0.00000000000E+00 -0.81905337418E+03  0.81905337420E+03  0.50400001928E-02 0.  1.
    10030    2    1    2    0    0  0.00000000000E+00  0.00000000000E+00 -0.21597975256E+03  0.14221269958E+04  0.14056307975E+04 0.  0.
        5    1    3    3  502    0 -0.59923984912E+02 -0.52297752083E+03  0.36312609384E+03  0.63951467637E+03  0.46999998093E+01 0. -1.
       -5    1    3    3    0  502  0.59923984912E+02  0.52297752083E+03 -0.57910584640E+03  0.78261231948E+03  0.46999998093E+01 0.  1.
</event>
<event>
 5   0  0.3977658E-04  0.1403436E+04  0.7818609E-02  0.8951335E-01
       -1   -1    0    0    0  501  0.00000000000E+00  0.00000000000E+00  0.98421190892E+03  0.98421190893E+03  0.50400001928E-02 0.  1.
        1   -1    0    0  501    0  0.00000000000E+00  0.00000000000E+00 -0.50030670205E+03  0.50030670207E+03  0.50400001928E-02 0. -1.
    10030    2    1    2    0    0  0.00000000000E+00  0.00000000000E+00  0.48390520688E+03  0.14845186110E+04  0.14034355194E+04 0.  0.
        5    1    3    3  502    0 -0.31119409109E+03 -0.61363832316E+03  0.38772597353E+03  0.78977672448E+03  0.46999998093E+01 0.  1.
       -5    1    3    3    0  502  0.31119409109E+03  0.61363832316E+03  0.96179233345E+02  0.69474188653E+03  0.46999998093E+01 0. -1.
</event>
<event>
 5   0  0.6870835E-04  0.1405747E+04  0.7818609E-02  0.8949669E-01
       -2   -1    0    0    0  501  0.00000000000E+00  0.00000000000E+00  0.67842097847E+03  0.67842097847E+03  0.25500000920E-02 0.  1.
        2   -1    0    0  501    0  0.00000000000E+00  0.00000000000E+00 -0.72820762114E+03  0.72820762114E+03  0.25500000920E-02 0. -1.
    10030    2    1    2    0    0  0.00000000000E+00  0.00000000000E+00 -0.49786642669E+02  0.14066285996E+04  0.14057472417E+04 0.  0.
        2    1    3    3  502    0 -0.20306688536E+03 -0.26323471644E+03  0.59477085320E+03  0.68138171658E+03  0.25500000920E-02 0.  1.
       -2    1    3    3    0  502  0.20306688536E+03  0.26323471644E+03 -0.64455749587E+03  0.72524688304E+03  0.25500000920E-02 0. -1.
</event>
<event>
 5   0  0.3907270E-04  0.1392154E+04  0.7818609E-02  0.8959518E-01
        1   -1    0    0  501    0  0.00000000000E+00  0.00000000000E+00  0.81503247164E+03  0.81503247165E+03  0.50400001928E-02 0.  1.
       -1   -1    0    0    0  501  0.00000000000E+00  0.00000000000E+00 -0.59448332636E+03  0.59448332638E+03  0.50400001928E-02 0. -1.
    10030    2    1    2    0    0  0.00000000000E+00  0.00000000000E+00  0.22054914528E+03  0.14095157980E+04  0.13921540358E+04 0.  0.
        3    1    3    3  502    0  0.60819704783E+03 -0.21785538098E+03  0.37265620978E+03  0.74581316487E+03  0.10100000352E+00 0.  1.
       -3    1    3    3    0  502 -0.60819704783E+03  0.21785538098E+03 -0.15210706450E+03  0.66370263317E+03  0.10100000352E+00 0. -1.
</event>
<event>
 5   0  0.7296966E-04  0.1387583E+04  0.7818609E-02  0.8962856E-01
       -2   -1    0    0    0  501  0.00000000000E+00  0.00000000000E+00  0.18657504984E+03  0.18657504986E+03  0.25500000920E-02 0. -1.
        2   -1    0    0  501    0  0.00000000000E+00  0.00000000000E+00 -0.25799071913E+04  0.25799071913E+04  0.25500000920E-02 0.  1.
    10030    2    1    2    0    0  0.00000000000E+00  0.00000000000E+00 -0.23933321414E+04  0.27664822412E+04  0.13875825205E+04 0.  0.
        3    1    3    3  502    0 -0.12540328890E+03 -0.56746351944E+03 -0.19522010233E+04  0.20368676139E+04  0.10100000352E+00 0.  1.
       -3    1    3    3    0  502  0.12540328890E+03  0.56746351944E+03 -0.44113111812E+03  0.72961462728E+03  0.10100000352E+00 0. -1.
</event>
<event>
 5   0  0.2660250E-04  0.1399227E+04  0.7818609E-02  0.8954378E-01
        3   -1    0    0  501    0  0.00000000000E+00  0.00000000000E+00  0.50591129864E+03  0.50591130872E+03  0.10100000352E+00 0. -1.
       -3   -1    0    0    0  501  0.00000000000E+00  0.00000000000E+00 -0.96747999743E+03  0.96748000270E+03  0.10100000352E+00 0.  1.
    10030    2    1    2    0    0  0.00000000000E+00  0.00000000000E+00 -0.46156869878E+03  0.14733913114E+04  0.13992270341E+04 0.  0.
        1    1    3    3  502    0  0.17582802920E+03  0.21948432901E+02  0.48189139073E+03  0.51343601553E+03  0.50400001928E-02 0. -1.
       -1    1    3    3    0  502 -0.17582802920E+03 -0.21948432901E+02 -0.94346008952E+03  0.95995529589E+03  0.50400001928E-02 0.  1.
</event>
<event>
 5   0  0.6895048E-04  0.1399496E+04  0.7818609E-02  0.8954183E-01
       -2   -1    0    0    0  501  0.00000000000E+00  0.00000000000E+00  0.58540117374E+03  0.58540117374E+03  0.25500000920E-02 0. -1.
        2   -1    0    0  501    0  0.00000000000E+00  0.00000000000E+00 -0.83643074789E+03  0.83643074789E+03  0.25500000920E-02 0.  1.
    10030    2    1    2    0    0  0.00000000000E+00  0.00000000000E+00 -0.25102957415E+03  0.14218319216E+04  0.13994963974E+04 0.  0.
        4    1    3    3  502    0  0.40015300338E+03 -0.43381808631E+03  0.25641764814E+03  0.64348440642E+03  0.12699999809E+01 0. -1.
       -4    1    3    3    0  502 -0.40015300338E+03  0.43381808631E+03 -0.50744722229E+03  0.77834751521E+03  0.12699999809E+01 0.  1.
</event>
<event>
 5   0  0.6895048E-04  0.1408867E+04  0.7818609E-02  0.8947425E-01
       -2   -1    0    0    0  501  0.00000000000E+00  0.00000000000E+00  0.11174758758E+04  0.11174758758E+04  0.25500000920E-02 0.  1.
        2   -1    0    0  501    0  0.00000000000E+00  0.00000000000E+00 -0.44406007005E+03  0.44406007005E+03  0.25500000920E-02 0. -1.
    10030    2    1    2    0    0  0.00000000000E+00  0.00000000000E+00  0.67341580576E+03  0.15615359459E+04  0.14088668009E+04 0.  0.
        4    1    3    3  502    0 -0.50244442606E+02  0.40743485030E+03  0.97118854608E+03  0.10543891436E+04  0.12699999809E+01 0.  1.
       -4    1    3    3    0  502  0.50244442606E+02 -0.40743485030E+03 -0.29777274032E+03  0.50714680224E+03  0.12699999809E+01 0. -1.
</event>
<event>
 5   0  0.3756664E-04  0.1412043E+04  0.7818609E-02  0.8945147E-01
        1   -1    0    0  501    0  0.00000000000E+00  0.00000000000E+00  0.98773634303E+03  0.98773634304E+03  0.50400001928E-02 0.  1.
       -1   -1    0    0    0  501  0.00000000000E+00  0.00000000000E+00 -0.50465538287E+03  0.50465538289E+03  0.50400001928E-02 0. -1.
    10030    2    1    2    0    0  0.00000000000E+00  0.00000000000E+00  0.48308096016E+03  0.14923917259E+04  0.14120431472E+04 0.  0.
        2    1    3    3  502    0 -0.33139990330E+03  0.32997425001E+02 -0.41641984824E+03  0.53321685643E+03  0.25500000920E-02 0. -1.
       -2    1    3    3    0  502  0.33139990330E+03 -0.32997425001E+02  0.89950080841E+03  0.95917486951E+03  0.25500000920E-02 0.  1.
</event>
<event>
 5   0  0.7065539E-04  0.1412656E+04  0.7818609E-02  0.8944708E-01
        2   -1    0    0  501    0  0.00000000000E+00  0.00000000000E+00  0.83028777978E+03  0.83028777979E+03  0.25500000920E-02 0.  1.
       -2   -1    0    0    0  501  0.00000000000E+00  0.00000000000E+00 -0.60087515162E+03  0.60087515163E+03  0.25500000920E-02 0. -1.
    10030    2    1    2    0    0  0.00000000000E+00  0.00000000000E+00  0.22941262816E+03  0.14311629314E+04  0.14126560736E+04 0.  0.
        1    1    3    3  502    0  0.61065213518E+03  0.33960059153E+03  0.10034307404E+02  0.69880274707E+03  0.50400001928E-02 0. -1.
       -1    1    3    3    0  502 -0.61065213518E+03 -0.33960059153E+03  0.21937832076E+03  0.73236018434E+03  0.50400001928E-02 0.  1.
</event>
<event>
 5   0  0.3784219E-04  0.1409424E+04  0.7818609E-02  0.8947025E-01
       -1   -1    0    0    0  501  0.00000000000E+00  0.00000000000E+00  0.44236998999E+03  0.44236999001E+03  0.50400001928E-02 0.  1.
        1   -1    0    0  501    0  0.00000000000E+00  0.00000000000E+00 -0.11226328608E+04  0.11226328608E+04  0.50400001928E-02 0. -1.
    10030    2    1    2    0    0  0.00000000000E+00  0.00000000000E+00 -0.68026287082E+03  0.15650028508E+04  0.14094241199E+04 0.  0.
        1    1    3    3  502    0 -0.33831066166E+03 -0.40983813477E+03 -0.85403404363E+03  0.10058804841E+04  0.50400001928E-02 0. -1.
       -1    1    3    3    0  502  0.33831066166E+03  0.40983813477E+03  0.17377117280E+03  0.55912236678E+03  0.50400001928E-02 0.  1.
</event>
<event>
 5   0  0.3977658E-04  0.1421430E+04  0.7818609E-02  0.8938451E-01
       -1   -1    0    0    0  501  0.00000000000E+00  0.00000000000E+00  0.41316814377E+03  0.41316814380E+03  0.50400001928E-02 0. -1.
        1   -1    0    0  501    0  0.00000000000E+00  0.00000000000E+00 -0.12225426477E+04  0.12225426477E+04  0.50400001928E-02 0.  1.
    10030    2    1    2    0    0  0.00000000000E+00  0.00000000000E+00 -0.80937450388E+03  0.16357107915E+04  0.14214298104E+04 0.  0.
        5    1    3    3  502    0  0.65097035615E+03 -0.10746307295E+03 -0.70867460271E+03  0.96827294662E+03  0.46999998093E+01 0.  1.
       -5    1    3    3    0  502 -0.65097035615E+03  0.10746307295E+03 -0.10069990117E+03  0.66743784484E+03  0.46999998093E+01 0. -1.
</event>
<event>
 5   0  0.7065539E-04  0.1356184E+04  0.7818609E-02  0.8986160E-01
       -2   -1    0    0    0  501  0.00000000000E+00  0.00000000000E+00  0.97580687563E+03  0.97580687563E+03  0.25500000920E-02 0.  1.
        2   -1    0    0  501    0  0.00000000000E+00  0.00000000000E+00 -0.47120890681E+03  0.47120890681E+03  0.25500000920E-02 0. -1.
    10030    2    1    2    0    0  0.00000000000E+00  0.00000000000E+00  0.50459796883E+03  0.14470157824E+04  0.13561841927E+04 0.  0.
        1    1    3    3  502    0  0.52018785157E+03  0.39488446118E+03  0.57653365177E+02  0.65563179388E+03  0.50400001928E-02 0. -1.
       -1    1    3    3    0  502 -0.52018785157E+03 -0.39488446118E+03  0.44694460365E+03  0.79138398857E+03  0.50400001928E-02 0.  1.
</event>
<event>
 5   0  0.3977658E-04  0.1234298E+04  0.7818609E-02  0.9083354E-01
        1   -1    0    0  501    0  0.00000000000E+00  0.00000000000E+00  0.26059800121E+03  0.26059800125E+03  0.50400001928E-02 0. -1.
       -1   -1    0    0    0  501  0.00000000000E+00  0.00000000000E+00 -0.14615346744E+04  0.14615346744E+04  0.50400001928E-02 0.  1.
    10030    2    1    2    0    0  0.00000000000E+00  0.00000000000E+00 -0.12009366732E+04  0.17221326757E+04  0.12342982053E+04 0.  0.
        5    1    3    3  502    0 -0.55403578997E+03 -0.22765983211E+03 -0.39321049772E+03  0.71653418707E+03  0.46999998093E+01 0. -1.
       -5    1    3    3    0  502  0.55403578997E+03  0.22765983211E+03 -0.80772617549E+03  0.10055984886E+04  0.46999998093E+01 0.  1.
</event>
<event>
 5   0  0.3907270E-04  0.1400602E+04  0.7818609E-02  0.8953383E-01
        1   -1    0    0  501    0  0.00000000000E+00  0.00000000000E+00  0.84748902444E+03  0.84748902446E+03  0.50400001928E-02 0. -1.
       -1   -1    0    0    0  501  0.00000000000E+00  0.00000000000E+00 -0.57867604268E+03  0.57867604270E+03  0.50400001928E-02 0.  1.
    10030    2    1    2    0    0  0.00000000000E+00  0.00000000000E+00  0.26881298176E+03  0.14261650672E+04  0.14006021489E+04 0.  0.
        3    1    3    3  502    0  0.34629070106E+03 -0.97219850334E+02 -0.47743689001E+03  0.59775826476E+03  0.10100000352E+00 0.  1.
       -3    1    3    3    0  502 -0.34629070106E+03  0.97219850334E+02  0.74624987178E+03  0.82840680240E+03  0.10100000352E+00 0. -1.
</event>
<event>
 5   0  0.3907093E-04  0.1396177E+04  0.7818609E-02  0.8956590E-01
       -1   -1    0    0    0  501  0.00000000000E+00  0.00000000000E+00  0.89608353040E+03  0.89608353041E+03  0.50400001928E-02 0. -1.
        1   -1    0    0  501    0  0.00000000000E+00  0.00000000000E+00 -0.54384179966E+03  0.54384179968E+03  0.50400001928E-02 0.  1.
    10030    2    1    2    0    0  0.00000000000E+00  0.00000000000E+00  0.35224173074E+03  0.14399253301E+04  0.13961771805E+04 0.  0.
        4    1    3    3  502    0  0.47552027425E+03 -0.56357338352E+02  0.70000453653E+03  0.84811770697E+03  0.12699999809E+01 0. -1.
       -4    1    3    3    0  502 -0.47552027425E+03  0.56357338352E+02 -0.34776280579E+03  0.59180762313E+03  0.12699999809E+01 0.  1.
</event>
<event>
 5   0  0.6959748E-04  0.1364130E+04  0.7818609E-02  0.8980200E-01
       -2   -1    0    0    0  501  0.00000000000E+00  0.00000000000E+00  0.79565868637E+03  0.79565868638E+03  0.25500000920E-02 0.  1.
        2   -1    0    0  501    0  0.00000000000E+00  0.00000000000E+00 -0.58468905076E+03  0.58468905076E+03  0.25500000920E-02 0. -1.
    10030    2    1    2    0    0  0.00000000000E+00  0.00000000000E+00  0.21096963562E+03  0.13803477371E+04  0.13641303780E+04 0.  0.
        5    1    3    3  502    0 -0.22466682826E+03 -0.47267906116E+03 -0.33708208783E+03  0.62253281240E+03  0.46999998093E+01 0. -1.
       -5    1    3    3    0  502  0.22466682826E+03  0.47267906116E+03  0.54805172345E+03  0.75781492474E+03  0.46999998093E+01 0.  1.
</event>
<event>
 5   0  0.7065539E-04  0.1339870E+04  0.7818609E-02  0.8998532E-01
       -2   -1    0    0    0  501  0.00000000000E+00  0.00000000000E+00  0.40595972497E+03  0.40595972498E+03  0.25500000920E-02 0.  1.
        2   -1    0    0  501    0  0.00000000000E+00  0.00000000000E+00 -0.11055602291E+04  0.11055602291E+04  0.25500000920E-02 0. -1.
    10030    2    1    2    0    0  0.00000000000E+00  0.00000000000E+00 -0.69960050414E+03  0.15115199541E+04  0.13398700333E+04 0.  0.
        1    1    3    3  502    0  0.59114774139E+03 -0.19852993932E+03 -0.62599851722E+03  0.88359715513E+03  0.50400001928E-02 0. -1.
       -1    1    3    3    0  502 -0.59114774139E+03  0.19852993932E+03 -0.73601986919E+02  0.62792279897E+03  0.50400001928E-02 0.  1.
</event>
<event>
 5   0  0.3756664E-04  0.1402752E+04  0.7818609E-02  0.8951829E-01
        1   -1    0    0  501    0  0.00000000000E+00  0.00000000000E+00  0.82282955792E+03  0.82282955794E+03  0.50400001928E-02 0. -1.
       -1   -1    0    0    0  501  0.00000000000E+00  0.00000000000E+00 -0.59784947839E+03  0.59784947841E+03  0.50400001928E-02 0.  1.
    10030    2    1    2    0    0  0.00000000000E+00  0.00000000000E+00  0.22498007954E+03  0.14206790363E+04  0.14027518983E+04 0.  0.
        2    1    3    3  502    0  0.69055202047E+03 -0.39193363015E+02  0.23029515684E+03  0.72899524823E+03  0.25500000920E-02 0. -1.
       -2    1    3    3    0  502 -0.69055202047E+03  0.39193363015E+02 -0.53150773002E+01  0.69168378811E+03  0.25500000920E-02 0.  1.
</event>
<event>
 5   0  0.3977658E-04  0.1402702E+04  0.7818609E-02  0.8951865E-01
        1   -1    0    0  501    0  0.00000000000E+00  0.00000000000E+00  0.15579668423E+04  0.15579668423E+04  0.50400001928E-02 0. -1.
       -1   -1    0    0    0  501  0.00000000000E+00  0.00000000000E+00 -0.31572760075E+03  0.31572760079E+03  0.50400001928E-02 0.  1.
    10030    2    1    2    0    0  0.00000000000E+00  0.00000000000E+00  0.12422392415E+04  0.18736944431E+04  0.14027018688E+04 0.  0.
        5    1    3    3  502    0 -0.23776678496E+03  0.92596165617E+02  0.14937438269E+04  0.15153876746E+04  0.46999998093E+01 0. -1.
       -5    1    3    3    0  502  0.23776678496E+03 -0.92596165617E+02 -0.25150458534E+03  0.35830676852E+03  0.46999998093E+01 0.  1.
</event>
<event>
 5   0  0.7296966E-04  0.1400601E+04  0.7818609E-02  0.8953384E-01
        2   -1    0    0  501    0  0.00000000000E+00  0.00000000000E+00  0.78992563934E+03  0.78992563935E+03  0.25500000920E-02 0.  1.
       -2   -1    0    0    0  501  0.00000000000E+00  0.00000000000E+00 -0.62084385332E+03  0.62084385332E+03  0.25500000920E-02 0. -1.
    10030    2    1    2    0    0  0.00000000000E+00  0.00000000000E+00  0.16908178603E+03  0.14107694927E+04  0.14006005537E+04 0.  0.
        3    1    3    3  502    0  0.31998597301E+03  0.58608869928E+03  0.29709308286E+03  0.73085928634E+03  0.10100000352E+00 0.  1.
       -3    1    3    3    0  502 -0.31998597301E+03 -0.58608869928E+03 -0.12801129683E+03  0.67991020633E+03  0.10100000352E+00 0. -1.
</event>
<event>
 5   0  0.7065539E-04  0.1402563E+04  0.7818609E-02  0.8951965E-01
       -2   -1    0    0    0  501  0.00000000000E+00  0.00000000000E+00  0.43147470472E+03  0.43147470473E+03  0.25500000920E-02 0.  1.
        2   -1    0    0  501    0  0.00000000000E+00  0.00000000000E+00 -0.11398018506E+04  0.11398018506E+04  0.25500000920E-02 0. -1.
    10030    2    1    2    0    0  0.00000000000E+00  0.00000000000E+00 -0.70832714586E+03  0.15712765553E+04  0.14025628926E+04 0.  0.
        1    1    3    3  502    0  0.20039670833E+03 -0.66532201844E+03 -0.24798140874E+03  0.73777165033E+03  0.50400001928E-02 0.  1.
       -1    1    3    3    0  502 -0.20039670833E+03  0.66532201844E+03 -0.46034573713E+03  0.83350490499E+03  0.50400001928E-02 0. -1.
</event>
<event>
 5   0  0.2660250E-04  0.1386665E+04  0.7818609E-02  0.8963528E-01
       -3   -1    0    0    0  501  0.00000000000E+00  0.00000000000E+00  0.52451056153E+03  0.52451057126E+03  0.10100000352E+00 0. -1.
        3   -1    0    0  501    0  0.00000000000E+00  0.00000000000E+00 -0.91649283095E+03  0.91649283652E+03  0.10100000352E+00 0.  1.
    10030    2    1    2    0    0  0.00000000000E+00  0.00000000000E+00 -0.39198226942E+03  0.14410034078E+04  0.13866653243E+04 0.  0.
        5    1    3    3  502    0  0.12561387536E+02  0.15710833851E+03 -0.89761286674E+03  0.91135710181E+03  0.46999998093E+01 0.  1.
       -5    1    3    3    0  502 -0.12561387536E+02 -0.15710833851E+03  0.50563059732E+03  0.52964630597E+03  0.46999998093E+01 0. -1.
</event>
<event>
 5   0  0.3977658E-04  0.1398989E+04  0.7818609E-02  0.8954551E-01
        1   -1    0    0  501    0  0.00000000000E+00  0.00000000000E+00  0.77857466496E+03  0.77857466498E+03  0.50400001928E-02 0.  1.
       -1   -1    0    0    0  501  0.00000000000E+00  0.00000000000E+00 -0.62844624615E+03  0.62844624617E+03  0.50400001928E-02 0. -1.
    10030    2    1    2    0    0  0.00000000000E+00  0.00000000000E+00  0.15012841881E+03  0.14070209111E+04  0.13989886712E+04 0.  0.
        5    1    3    3  502    0 -0.51250736704E+03 -0.33075681882E+03  0.41938396837E+03  0.74024919952E+03  0.46999998093E+01 0.  1.
       -5    1    3    3    0  502  0.51250736704E+03  0.33075681882E+03 -0.26925554956E+03  0.66677171163E+03  0.46999998093E+01 0. -1.
</event>
<event>
 5   0  0.3756664E-04  0.1398488E+04  0.7818609E-02  0.8954914E-01
        1   -1    0    0  501    0  0.00000000000E+00  0.00000000000E+00  0.95238134612E+03  0.95238134613E+03  0.50400001928E-02 0. -1.
       -1   -1    0    0    0  501  0.00000000000E+00  0.00000000000E+00 -0.51338902533E+03  0.51338902536E+03  0.50400001928E-02 0.  1.
    10030    2    1    2    0    0  0.00000000000E+00  0.00000000000E+00  0.43899232079E+03  0.14657703715E+04  0.13984879421E+04 0.  0.
        2    1    3    3  502    0 -0.34938641287E+03 -0.14622888516E+03  0.83555746942E+03  0.91739306573E+03  0.25500000920E-02 0. -1.
       -2    1    3    3    0  502  0.34938641287E+03  0.14622888516E+03 -0.39656514863E+03  0.54837730576E+03  0.25500000920E-02 0.  1.
</event>
<event>
 5   0  0.3977658E-04  0.1402652E+04  0.7818609E-02  0.8951901E-01
        1   -1    0    0  501    0  0.00000000000E+00  0.00000000000E+00  0.90602187815E+03  0.90602187817E+03  0.50400001928E-02 0.  1.
       -1   -1    0    0    0  501  0.00000000000E+00  0.00000000000E+00 -0.54287644581E+03  0.54287644584E+03  0.50400001928E-02 0. -1.
    10030    2    1    2    0    0  0.00000000000E+00  0.00000000000E+00  0.36314543234E+03  0.14488983240E+04  0.14026516846E+04 0.  0.
        5    1    3    3  502    0  0.56244776268E+03 -0.95182556365E+02  0.60298006757E+03  0.83006882646E+03  0.46999998093E+01 0.  1.
       -5    1    3    3    0  502 -0.56244776268E+03  0.95182556365E+02 -0.23983463523E+03  0.61882949754E+03  0.46999998093E+01 0. -1.
</event>
<event>
 5   0  0.3756664E-04  0.1401223E+04  0.7818609E-02  0.8952934E-01
       -1   -1    0    0    0  501  0.00000000000E+00  0.00000000000E+00  0.57032633222E+03  0.57032633224E+03  0.50400001928E-02 0. -1.
        1   -1    0    0  501    0  0.00000000000E+00  0.00000000000E+00 -0.86065927965E+03  0.86065927966E+03  0.50400001928E-02 0.  1.
    10030    2    1    2    0    0  0.00000000000E+00  0.00000000000E+00 -0.29033294743E+03  0.14309856119E+04  0.14012232517E+04 0.  0.
        2    1    3    3  502    0  0.59341821669E+03  0.37213568874E+03 -0.16053603913E+03  0.71861114005E+03  0.25500000920E-02 0.  1.
       -2    1    3    3    0  502 -0.59341821669E+03 -0.37213568874E+03 -0.12979690830E+03  0.71237447185E+03  0.25500000920E-02 0. -1.
</event>
<event>
 5   0  0.3977658E-04  0.1454740E+04  0.7818609E-02  0.8915121E-01
        1   -1    0    0  501    0  0.00000000000E+00  0.00000000000E+00  0.61834416967E+03  0.61834416969E+03  0.50400001928E-02 0.  1.
       -1   -1    0    0    0  501  0.00000000000E+00  0.00000000000E+00 -0.85561864353E+03  0.85561864355E+03  0.50400001928E-02 0. -1.
    10030    2    1    2    0    0  0.00000000000E+00  0.00000000000E+00 -0.23727447386E+03  0.14739628132E+04  0.14547395639E+04 0.  0.
        5    1    3    3  502    0  0.45732589883E+03 -0.56551444650E+03 -0.12831026397E+03  0.73853854387E+03  0.46999998093E+01 0.  1.
       -5    1    3    3    0  502 -0.45732589883E+03  0.56551444650E+03 -0.10896420989E+03  0.73542426937E+03  0.46999998093E+01 0. -1.
</event>
<event>
 5   0  0.2660250E-04  0.1399078E+04  0.7818609E-02  0.8954486E-01
        4   -1    0    0  501    0  0.00000000000E+00  0.00000000000E+00  0.70992629045E+03  0.70992742641E+03  0.12699999809E+01 0.  1.
       -4   -1    0    0    0  501  0.00000000000E+00  0.00000000000E+00 -0.68930132586E+03  0.68930249581E+03  0.12699999809E+01 0. -1.
    10030    2    1    2    0    0  0.00000000000E+00  0.00000000000E+00  0.20624964595E+02  0.13992299222E+04  0.13990779056E+04 0.  0.
        5    1    3    3  502    0 -0.55450464121E+03  0.21726744329E+03  0.37730210105E+03  0.70502447085E+03  0.46999998093E+01 0.  1.
       -5    1    3    3    0  502  0.55450464121E+03 -0.21726744329E+03 -0.35667713646E+03  0.69420545137E+03  0.46999998093E+01 0. -1.
</event>
<event>
 5   0  0.7296966E-04  0.1392081E+04  0.7818609E-02  0.8959571E-01
        2   -1    0    0  501    0  0.00000000000E+00  0.00000000000E+00  0.12919359409E+04  0.12919359409E+04  0.25500000920E-02 0. -1.
       -2   -1    0    0    0  501  0.00000000000E+00  0.00000000000E+00 -0.37499697244E+03  0.37499697244E+03  0.25500000920E-02 0.  1.
    10030    2    1    2    0    0  0.00000000000E+00  0.00000000000E+00  0.91693896846E+03  0.16669329133E+04  0.13920805529E+04 0.  0.
        3    1    3    3  502    0 -0.66500631798E+03  0.37943801107E+02  0.21660166143E+03  0.70042089127E+03  0.10100000352E+00 0. -1.
       -3    1    3    3    0  502  0.66500631798E+03 -0.37943801107E+02  0.70033730703E+03  0.96651202207E+03  0.10100000352E+00 0.  1.
</event>
<event>
 5   0  0.6870835E-04  0.1403659E+04  0.7818609E-02  0.8951174E-01
       -2   -1    0    0    0  501  0.00000000000E+00  0.00000000000E+00  0.79303005218E+03  0.79303005218E+03  0.25500000920E-02 0.  1.
        2   -1    0    0  501    0  0.00000000000E+00  0.00000000000E+00 -0.62111717802E+03  0.62111717803E+03  0.25500000920E-02 0. -1.
    10030    2    1    2    0    0  0.00000000000E+00  0.00000000000E+00  0.17191287415E+03  0.14141472302E+04  0.14036589160E+04 0.  0.
        2    1    3    3  502    0  0.53904236426E+03  0.37540605936E+03 -0.16300989868E+03  0.67680765875E+03  0.25500000920E-02 0. -1.
       -2    1    3    3    0  502 -0.53904236426E+03 -0.37540605936E+03  0.33492277283E+03  0.73733957146E+03  0.25500000920E-02 0.  1.
</event>
<event>
 5   0  0.7065539E-04  0.1394482E+04  0.7818609E-02  0.8957822E-01
       -2   -1    0    0    0  501  0.00000000000E+00  0.00000000000E+00  0.62770140795E+03  0.62770140796E+03  0.25500000920E-02 0.  1.
        2   -1    0    0  501    0  0.00000000000E+00  0.00000000000E+00 -0.77448485330E+03  0.77448485331E+03  0.25500000920E-02 0. -1.
    10030    2    1    2    0    0  0.00000000000E+00  0.00000000000E+00 -0.14678344535E+03  0.14021862613E+04  0.13944823166E+04 0.  0.
        1    1    3    3  502    0 -0.71639958126E+02 -0.26144484798E+03  0.57254301550E+03  0.63347549026E+03  0.50400001928E-02 0.  1.
       -1    1    3    3    0  502  0.71639958126E+02  0.26144484798E+03 -0.71932646086E+03  0.76871077100E+03  0.50400001928E-02 0. -1.
</event>
<event>
 5   0  0.3756664E-04  0.1390601E+04  0.7818609E-02  0.8960651E-01
       -1   -1    0    0    0  501  0.00000000000E+00  0.00000000000E+00  0.22282501751E+03  0.22282501756E+03  0.50400001928E-02 0. -1.
        1   -1    0    0  501    0  0.00000000000E+00  0.00000000000E+00 -0.21696061759E+04  0.21696061759E+04  0.50400001928E-02 0.  1.
    10030    2    1    2    0    0  0.00000000000E+00  0.00000000000E+00 -0.19467811584E+04  0.23924311935E+04  0.13906006389E+04 0.  0.
        2    1    3    3  502    0  0.28227676453E+03 -0.36123586956E+02 -0.20648234182E+04  0.20843418227E+04  0.25500000920E-02 0.  1.
       -2    1    3    3    0  502 -0.28227676453E+03  0.36123586956E+02  0.11804225977E+03  0.30808937085E+03  0.25500000920E-02 0. -1.
</event>
<event>
 5   0  0.6895048E-04  0.1398637E+04  0.7818609E-02  0.8954806E-01
       -2   -1    0    0    0  501  0.00000000000E+00  0.00000000000E+00  0.88740058632E+03  0.88740058632E+03  0.25500000920E-02 0. -1.
        2   -1    0    0  501    0  0.00000000000E+00  0.00000000000E+00 -0.55109973733E+03  0.55109973734E+03  0.25500000920E-02 0.  1.
    10030    2    1    2    0    0  0.00000000000E+00  0.00000000000E+00  0.33630084899E+03  0.14385003237E+04  0.13986368078E+04 0.  0.
        4    1    3    3  502    0 -0.69207188566E+03  0.76027036156E+02  0.10069912257E+03  0.70348100994E+03  0.12699999809E+01 0.  1.
       -4    1    3    3    0  502  0.69207188566E+03 -0.76027036156E+02  0.23560172642E+03  0.73501931372E+03  0.12699999809E+01 0. -1.
</event>
<event>
 5   0  0.3784219E-04  0.1396686E+04  0.7818609E-02  0.8956221E-01
        1   -1    0    0  501    0  0.00000000000E+00  0.00000000000E+00  0.47337723168E+03  0.47337723171E+03  0.50400001928E-02 0. -1.
       -1   -1    0    0    0  501  0.00000000000E+00  0.00000000000E+00 -0.10302200708E+04  0.10302200708E+04  0.50400001928E-02 0.  1.
    10030    2    1    2    0    0  0.00000000000E+00  0.00000000000E+00 -0.55684283913E+03  0.15035973025E+04  0.13966856843E+04 0.  0.
        1    1    3    3  502    0  0.50603960218E+02 -0.59008849747E+03  0.11992634405E+03  0.60427437780E+03  0.50400001928E-02 0. -1.
       -1    1    3    3    0  502 -0.50603960218E+02  0.59008849747E+03 -0.67676918318E+03  0.89932292474E+03  0.50400001928E-02 0.  1.
</event>
<event>
 5   0  0.3756664E-04  0.1443304E+04  0.7818609E-02  0.8923056E-01
        1   -1    0    0  501    0  0.00000000000E+00  0.00000000000E+00  0.38310470232E+03  0.38310470235E+03  0.50400001928E-02 0.  1.
       -1   -1    0    0    0  501  0.00000000000E+00  0.00000000000E+00 -0.13593717533E+04  0.13593717533E+04  0.50400001928E-02 0. -1.
    10030    2    1    2    0    0  0.00000000000E+00  0.00000000000E+00 -0.97626705102E+03  0.17424764557E+04  0.14433041411E+04 0.  0.
        2    1    3    3  502    0  0.44540495163E+03 -0.40753892141E+03 -0.10824225012E+02  0.60381347058E+03  0.25500000920E-02 0. -1.
       -2    1    3    3    0  502 -0.44540495163E+03  0.40753892141E+03 -0.96544282601E+03  0.11386629851E+04  0.25500000920E-02 0.  1.
</event>
<event>
 5   0  0.7296966E-04  0.1392921E+04  0.7818609E-02  0.8958958E-01
       -2   -1    0    0    0  501  0.00000000000E+00  0.00000000000E+00  0.12288507401E+04  0.12288507401E+04  0.25500000920E-02 0.  1.
        2   -1    0    0  501    0  0.00000000000E+00  0.00000000000E+00 -0.39472443894E+03  0.39472443895E+03  0.25500000920E-02 0. -1.
    10030    2    1    2    0    0  0.00000000000E+00  0.00000000000E+00  0.83412630117E+03  0.16235751791E+04  0.13929212741E+04 0.  0.
        3    1    3    3  502    0  0.15858719987E+03 -0.18660012701E+03  0.11770134739E+04  0.12022188800E+04  0.10100000352E+00 0.  1.
       -3    1    3    3    0  502 -0.15858719987E+03  0.18660012701E+03 -0.34288717274E+03  0.42135629910E+03  0.10100000352E+00 0. -1.
</event>
<event>
 5   0  0.3977658E-04  0.1404069E+04  0.7818609E-02  0.8950878E-01
        1   -1    0    0  501    0  0.00000000000E+00  0.00000000000E+00  0.83954556366E+03  0.83954556367E+03  0.50400001928E-02 0. -1.
       -1   -1    0    0    0  501  0.00000000000E+00  0.00000000000E+00 -0.58704692246E+03  0.58704692248E+03  0.50400001928E-02 0.  1.
    10030    2    1    2    0    0  0.00000000000E+00  0.00000000000E+00  0.25249864119E+03  0.14265924862E+04  0.14040692852E+04 0.  0.
        5    1    3    3  502    0  0.49012756346E+03  0.41451054776E+03  0.41503846347E+03  0.76441025557E+03  0.46999998093E+01 0. -1.
       -5    1    3    3    0  502 -0.49012756346E+03 -0.41451054776E+03 -0.16253982228E+03  0.66218223058E+03  0.46999998093E+01 0.  1.
</event>
<event>
 5   0  0.7296966E-04  0.1381351E+04  0.7818609E-02  0.8967429E-01
       -2   -1    0    0    0  501  0.00000000000E+00  0.00000000000E+00  0.38753706704E+03  0.38753706705E+03  0.25500000920E-02 0. -1.
        2   -1    0    0  501    0  0.00000000000E+00  0.00000000000E+00 -0.12309342783E+04  0.12309342783E+04  0.25500000920E-02 0.  1.
    10030    2    1    2    0    0  0.00000000000E+00  0.00000000000E+00 -0.84339721123E+03  0.16184713453E+04  0.13813510197E+04 0.  0.
        3    1    3    3  502    0 -0.66319035608E+03  0.12879196893E+02 -0.64720958033E+03  0.92675108480E+03  0.10100000352E+00 0.  1.
       -3    1    3    3    0  502  0.66319035608E+03 -0.12879196893E+02 -0.19618763090E+03  0.69172026053E+03  0.10100000352E+00 0. -1.
</event>
<event>
 5   0  0.3907093E-04  0.1412963E+04  0.7818609E-02  0.8944488E-01
       -1   -1    0    0    0  501  0.00000000000E+00  0.00000000000E+00  0.78097349979E+03  0.78097349981E+03  0.50400001928E-02 0.  1.
        1   -1    0    0  501    0  0.00000000000E+00  0.00000000000E+00 -0.63909485353E+03  0.63909485355E+03  0.50400001928E-02 0. -1.
    10030    2    1    2    0    0  0.00000000000E+00  0.00000000000E+00  0.14187864626E+03  0.14200683534E+04  0.14129630490E+04 0.  0.
        4    1    3    3  502    0 -0.32340053937E+03  0.62709721918E+03  0.35042766255E+02  0.70644776136E+03  0.12699999809E+01 0.  1.
       -4    1    3    3    0  502  0.32340053937E+03 -0.62709721918E+03  0.10683588001E+03  0.71362059199E+03  0.12699999809E+01 0. -1.
</event>
<event>
 5   0  0.3977658E-04  0.1398095E+04  0.7818609E-02  0.8955199E-01
       -1   -1    0    0    0  501  0.00000000000E+00  0.00000000000E+00  0.66283221789E+03  0.66283221791E+03  0.50400001928E-02 0. -1.
        1   -1    0    0  501    0  0.00000000000E+00  0.00000000000E+00 -0.73724107017E+03  0.73724107019E+03  0.50400001928E-02 0.  1.
    10030    2    1    2    0    0  0.00000000000E+00  0.00000000000E+00 -0.74408852282E+02  0.14000732881E+04  0.13980946087E+04 0.  0.
        5    1    3    3  502    0  0.29722646604E+02 -0.35928549839E+03  0.56253843669E+03  0.66816247113E+03  0.46999998093E+01 0. -1.
       -5    1    3    3    0  502 -0.29722646604E+02  0.35928549839E+03 -0.63694728897E+03  0.73191081697E+03  0.46999998093E+01 0.  1.
</event>
<event>
 5   0  0.6959748E-04  0.1392932E+04  0.7818609E-02  0.8958951E-01
       -2   -1    0    0    0  501  0.00000000000E+00  0.00000000000E+00  0.10603720917E+04  0.10603720917E+04  0.25500000920E-02 0. -1.
        2   -1    0    0  501    0  0.00000000000E+00  0.00000000000E+00 -0.45744752045E+03  0.45744752046E+03  0.25500000920E-02 0.  1.
    10030    2    1    2    0    0  0.00000000000E+00  0.00000000000E+00  0.60292457128E+03  0.15178196122E+04  0.13929315620E+04 0.  0.
        5    1    3    3  502    0 -0.34904701340E+03 -0.45620856111E+03  0.73057528720E+03  0.92936667094E+03  0.46999998093E+01 0. -1.
       -5    1    3    3    0  502  0.34904701340E+03  0.45620856111E+03 -0.12765071592E+03  0.58845294125E+03  0.46999998093E+01 0.  1.
</event>
<event>
 5   0  0.3784219E-04  0.1491992E+04  0.7818609E-02  0.8889796E-01
       -1   -1    0    0    0  501  0.00000000000E+00  0.00000000000E+00  0.99396382661E+03  0.99396382662E+03  0.50400001928E-02 0.  1.
        1   -1    0    0  501    0  0.00000000000E+00  0.00000000000E+00 -0.55988964218E+03  0.55988964221E+03  0.50400001928E-02 0. -1.
    10030    2    1    2    0    0  0.00000000000E+00  0.00000000000E+00  0.43407418442E+03  0.15538534688E+04  0.14919920258E+04 0.  0.
        1    1    3    3  502    0 -0.27645616937E+03  0.45581056647E+03  0.76051556232E+03  0.92874927006E+03  0.50400001928E-02 0.  1.
       -1    1    3    3    0  502  0.27645616937E+03 -0.45581056647E+03 -0.32644137789E+03  0.62510419877E+03  0.50400001928E-02 0. -1.
</event>
<event>
 5   0  0.6959748E-04  0.1405204E+04  0.7818609E-02  0.8950061E-01
        2   -1    0    0  501    0  0.00000000000E+00  0.00000000000E+00  0.13428984779E+04  0.13428984779E+04  0.25500000920E-02 0.  1.
       -2   -1    0    0    0  501  0.00000000000E+00  0.00000000000E+00 -0.36759981863E+03  0.36759981864E+03  0.25500000920E-02 0. -1.
    10030    2    1    2    0    0  0.00000000000E+00  0.00000000000E+00  0.97529865926E+03  0.17104982965E+04  0.14052035254E+04 0.  0.
        5    1    3    3  502    0  0.38121212203E+03 -0.53171777626E+03  0.79937412205E+03  0.10329896188E+04  0.46999998093E+01 0.  1.
       -5    1    3    3    0  502 -0.38121212203E+03  0.53171777626E+03  0.17592453720E+03  0.67750867771E+03  0.46999998093E+01 0. -1.
</event>
<event>
 5   0  0.3756664E-04  0.1388191E+04  0.7818609E-02  0.8962411E-01
       -1   -1    0    0    0  501  0.00000000000E+00  0.00000000000E+00  0.82816659674E+03  0.82816659675E+03  0.50400001928E-02 0. -1.
        1   -1    0    0  501    0  0.00000000000E+00  0.00000000000E+00 -0.58172869716E+03  0.58172869718E+03  0.50400001928E-02 0.  1.
    10030    2    1    2    0    0  0.00000000000E+00  0.00000000000E+00  0.24643789958E+03  0.14098952939E+04  0.13881905854E+04 0.  0.
        2    1    3    3  502    0 -0.17508364802E+02  0.33950398449E+03 -0.49138622275E+03  0.59751980573E+03  0.25500000920E-02 0.  1.
       -2    1    3    3    0  502  0.17508364802E+02 -0.33950398449E+03  0.73782412233E+03  0.81237548820E+03  0.25500000920E-02 0. -1.
</event>
<event>
 5   0  0.3907270E-04  0.1261812E+04  0.7818609E-02  0.9060409E-01
        1   -1    0    0  501    0  0.00000000000E+00  0.00000000000E+00  0.63054728008E+03  0.63054728010E+03  0.50400001928E-02 0. -1.
       -1   -1    0    0    0  501  0.00000000000E+00  0.00000000000E+00 -0.63126528200E+03  0.63126528202E+03  0.50400001928E-02 0.  1.
    10030    2    1    2    0    0  0.00000000000E+00  0.00000000000E+00 -0.71800192812E+00  0.12618125621E+04  0.12618123578E+04 0.  0.
        3    1    3    3  502    0 -0.34010480906E+03 -0.44980543042E+02 -0.52983813820E+03  0.63120756752E+03  0.10100000352E+00 0.  1.
       -3    1    3    3    0  502  0.34010480906E+03  0.44980543042E+02  0.52912013628E+03  0.63060499460E+03  0.10100000352E+00 0. -1.
</event>
<event>
 5   0  0.3977658E-04  0.1396761E+04  0.7818609E-02  0.8956166E-01
       -1   -1    0    0    0  501  0.00000000000E+00  0.00000000000E+00  0.54245512469E+03  0.54245512471E+03  0.50400001928E-02 0. -1.
        1   -1    0    0  501    0  0.00000000000E+00  0.00000000000E+00 -0.89912598747E+03  0.89912598748E+03  0.50400001928E-02 0.  1.
    10030    2    1    2    0    0  0.00000000000E+00  0.00000000000E+00 -0.35667086278E+03  0.14415811122E+04  0.13967612533E+04 0.  0.
        5    1    3    3  502    0  0.50830614589E+03  0.29369655999E+03 -0.56873316196E+03  0.81738137170E+03  0.46999998093E+01 0.  1.
       -5    1    3    3    0  502 -0.50830614589E+03 -0.29369655999E+03  0.21206229918E+03  0.62419974049E+03  0.46999998093E+01 0. -1.
</event>
<event>
 5   0  0.6870835E-04  0.1393017E+04  0.7818609E-02  0.8958889E-01
        2   -1    0    0  501    0  0.00000000000E+00  0.00000000000E+00  0.10010659699E+04  0.10010659699E+04  0.25500000920E-02 0. -1.
       -2   -1    0    0    0  501  0.00000000000E+00  0.00000000000E+00 -0.48460741625E+03  0.48460741626E+03  0.25500000920E-02 0.  1.
    10030    2    1    2    0    0  0.00000000000E+00  0.00000000000E+00  0.51645855361E+03  0.14856733861E+04  0.13930168601E+04 0.  0.
        2    1    3    3  502    0 -0.71514103385E+02  0.64966681258E+03  0.15052268650E+01  0.65359276317E+03  0.25500000920E-02 0.  1.
       -2    1    3    3    0  502  0.71514103385E+02 -0.64966681258E+03  0.51495332674E+03  0.83208062295E+03  0.25500000920E-02 0. -1.
</event>
<event>
 5   0  0.7065539E-04  0.1400325E+04  0.7818609E-02  0.8953583E-01
        2   -1    0    0  501    0  0.00000000000E+00  0.00000000000E+00  0.10237576102E+04  0.10237576103E+04  0.25500000920E-02 0. -1.
       -2   -1    0    0    0  501  0.00000000000E+00  0.00000000000E+00 -0.47885132450E+03  0.47885132451E+03  0.25500000920E-02 0.  1.
    10030    2    1    2    0    0  0.00000000000E+00  0.00000000000E+00  0.54490628575E+03  0.15026089348E+04  0.14003252303E+04 0.  0.
        1    1    3    3  502    0  0.38198453737E+03  0.37206773493E+03 -0.21443062358E+03  0.57474087946E+03  0.50400001928E-02 0.  1.
       -1    1    3    3    0  502 -0.38198453737E+03 -0.37206773493E+03  0.75933690932E+03  0.92786805530E+03  0.50400001928E-02 0. -1.
</event>
<event>
 5   0  0.3784219E-04  0.1400198E+04  0.7818609E-02  0.8953675E-01
        1   -1    0    0  501    0  0.00000000000E+00  0.00000000000E+00  0.13286584914E+04  0.13286584914E+04  0.50400001928E-02 0. -1.
       -1   -1    0    0    0  501  0.00000000000E+00  0.00000000000E+00 -0.36889734630E+03  0.36889734633E+03  0.50400001928E-02 0.  1.
    10030    2    1    2    0    0  0.00000000000E+00  0.00000000000E+00  0.95976114509E+03  0.16975558377E+04  0.14001979741E+04 0.  0.
        1    1    3    3  502    0 -0.23069673027E+03 -0.40297691636E+03  0.11151051979E+04  0.12079201045E+04  0.50400001928E-02 0. -1.
       -1    1    3    3    0  502  0.23069673027E+03  0.40297691636E+03 -0.15534405281E+03  0.48963573322E+03  0.50400001928E-02 0.  1.
</event>
<event>
 5   0  0.3907270E-04  0.1440538E+04  0.7818609E-02  0.8924987E-01
        1   -1    0    0  501    0  0.00000000000E+00  0.00000000000E+00  0.95108155886E+03  0.95108155887E+03  0.50400001928E-02 0. -1.
       -1   -1    0    0    0  501  0.00000000000E+00  0.00000000000E+00 -0.54547079718E+03  0.54547079720E+03  0.50400001928E-02 0.  1.
    10030    2    1    2    0    0  0.00000000000E+00  0.00000000000E+00  0.40561076168E+03  0.14965523561E+04  0.14405376998E+04 0.  0.
        3    1    3    3  502    0 -0.60243658580E+03  0.24339009739E+03 -0.12011668057E+03  0.66075457363E+03  0.10100000352E+00 0.  1.
       -3    1    3    3    0  502  0.60243658580E+03 -0.24339009739E+03  0.52572744225E+03  0.83579778245E+03  0.10100000352E+00 0. -1.
</event>
<event>
 5   0  0.3907270E-04  0.1389833E+04  0.7818609E-02  0.8961211E-01
       -1   -1    0    0    0  501  0.00000000000E+00  0.00000000000E+00  0.43686290918E+03  0.43686290921E+03  0.50400001928E-02 0. -1.
        1   -1    0    0  501    0  0.00000000000E+00  0.00000000000E+00 -0.11054012658E+04  0.11054012658E+04  0.50400001928E-02 0.  1.
    10030    2    1    2    0    0  0.00000000000E+00  0.00000000000E+00 -0.66853835657E+03  0.15422641750E+04  0.13898328141E+04 0.  0.
        3    1    3    3  502    0  0.45096112891E+03 -0.25440884912E+03 -0.84858816239E+03  0.99407830770E+03  0.10100000352E+00 0.  1.
       -3    1    3    3    0  502 -0.45096112891E+03  0.25440884912E+03  0.18004980582E+03  0.54818586727E+03  0.10100000352E+00 0. -1.
</event>
<event>
 5   0  0.3756664E-04  0.1408869E+04  0.7818609E-02  0.8947424E-01
       -1   -1    0    0    0  501  0.00000000000E+00  0.00000000000E+00  0.48370795625E+03  0.48370795627E+03  0.50400001928E-02 0.  1.
        1   -1    0    0  501    0  0.00000000000E+00  0.00000000000E+00 -0.10258832043E+04  0.10258832043E+04  0.50400001928E-02 0. -1.
    10030    2    1    2    0    0  0.00000000000E+00  0.00000000000E+00 -0.54217524801E+03  0.15095911605E+04  0.14088688627E+04 0.  0.
        2    1    3    3  502    0  0.60975563387E+03  0.33225727585E+03 -0.14416657025E+03  0.70921141444E+03  0.25500000920E-02 0. -1.
       -2    1    3    3    0  502 -0.60975563387E+03 -0.33225727585E+03 -0.39800867776E+03  0.80037974610E+03  0.25500000920E-02 0.  1.
</event>
<event>
 5   0  0.7065539E-04  0.1401690E+04  0.7818609E-02  0.8952596E-01
       -2   -1    0    0    0  501  0.00000000000E+00  0.00000000000E+00  0.39324089751E+03  0.39324089752E+03  0.25500000920E-02 0. -1.
        2   -1    0    0  501    0  0.00000000000E+00  0.00000000000E+00 -0.12490650454E+04  0.12490650454E+04  0.25500000920E-02 0.  1.
    10030    2    1    2    0    0  0.00000000000E+00  0.00000000000E+00 -0.85582414788E+03  0.16423059429E+04  0.14016896368E+04 0.  0.
        1    1    3    3  502    0 -0.55372407112E+02 -0.20737087363E+03 -0.12096085592E+04  0.12285038255E+04  0.50400001928E-02 0.  1.
       -1    1    3    3    0  502  0.55372407112E+02  0.20737087363E+03  0.35378441130E+03  0.41380211745E+03  0.50400001928E-02 0. -1.
</event>
<event>
 5   0  0.7296966E-04  0.1401359E+04  0.7818609E-02  0.8952836E-01
       -2   -1    0    0    0  501  0.00000000000E+00  0.00000000000E+00  0.34228667515E+03  0.34228667516E+03  0.25500000920E-02 0.  1.
        2   -1    0    0  501    0  0.00000000000E+00  0.00000000000E+00 -0.14343283761E+04  0.14343283761E+04  0.25500000920E-02 0. -1.
    10030    2    1    2    0    0  0.00000000000E+00  0.00000000000E+00 -0.10920417009E+04  0.17766150513E+04  0.14013586135E+04 0.  0.
        3    1    3    3  502    0  0.43614077351E+03  0.87597860504E+02 -0.12323332092E+04  0.13101669009E+04  0.10100000352E+00 0. -1.
       -3    1    3    3    0  502 -0.43614077351E+03 -0.87597860504E+02  0.14029150827E+03  0.46644815036E+03  0.10100000352E+00 0.  1.
</event>
<event>
 5   0  0.3907270E-04  0.1396759E+04  0.7818609E-02  0.8956168E-01
        1   -1    0    0  501    0  0.00000000000E+00  0.00000000000E+00  0.40047630310E+03  0.40047630313E+03  0.50400001928E-02 0. -1.
       -1   -1    0    0    0  501  0.00000000000E+00  0.00000000000E+00 -0.12178838212E+04  0.12178838212E+04  0.50400001928E-02 0.  1.
    10030    2    1    2    0    0  0.00000000000E+00  0.00000000000E+00 -0.81740751810E+03  0.16183601243E+04  0.13967585480E+04 0.  0.
        3    1    3    3  502    0 -0.65338730363E+03 -0.10478690201E+03 -0.15003999004E+03  0.67853317693E+03  0.10100000352E+00 0. -1.
       -3    1    3    3    0  502  0.65338730363E+03  0.10478690201E+03 -0.66736752806E+03  0.93982694742E+03  0.10100000352E+00 0.  1.
</event>
<event>
 5   0  0.6895048E-04  0.1408639E+04  0.7818609E-02  0.8947589E-01
        2   -1    0    0  501    0  0.00000000000E+00  0.00000000000E+00  0.11197492621E+04  0.11197492621E+04  0.25500000920E-02 0.  1.
       -2   -1    0    0    0  501  0.00000000000E+00  0.00000000000E+00 -0.44301521068E+03  0.44301521069E+03  0.25500000920E-02 0. -1.
    10030    2    1    2    0    0  0.00000000000E+00  0.00000000000E+00  0.67673405140E+03  0.15627644728E+04  0.14086389960E+04 0.  0.
        4    1    3    3  502    0 -0.37195934592E+03  0.47332916703E+03  0.74397915912E+03  0.95702709339E+03  0.12699999809E+01 0.  1.
       -4    1    3    3    0  502  0.37195934592E+03 -0.47332916703E+03 -0.67245107718E+02  0.60573737939E+03  0.12699999809E+01 0. -1.
</event>
<event>
 5   0  0.3907270E-04  0.1411076E+04  0.7818609E-02  0.8945840E-01
       -1   -1    0    0    0  501  0.00000000000E+00  0.00000000000E+00  0.47778014701E+03  0.47778014703E+03  0.50400001928E-02 0.  1.
        1   -1    0    0  501    0  0.00000000000E+00  0.00000000000E+00 -0.10418673375E+04  0.10418673375E+04  0.50400001928E-02 0. -1.
    10030    2    1    2    0    0  0.00000000000E+00  0.00000000000E+00 -0.56408719051E+03  0.15196474846E+04  0.14110755185E+04 0.  0.
        3    1    3    3  502    0 -0.58734770387E+03  0.10236727016E+03  0.12424670484E+03  0.60901037521E+03  0.10100000352E+00 0.  1.
       -3    1    3    3    0  502  0.58734770387E+03 -0.10236727016E+03 -0.68833389536E+03  0.91063710936E+03  0.10100000352E+00 0. -1.
</event>
<event>
 5   0  0.3907270E-04  0.1398894E+04  0.7818609E-02  0.8954620E-01
        1   -1    0    0  501    0  0.00000000000E+00  0.00000000000E+00  0.13881692752E+04  0.13881692752E+04  0.50400001928E-02 0. -1.
       -1   -1    0    0    0  501  0.00000000000E+00  0.00000000000E+00 -0.35242532059E+03  0.35242532062E+03  0.50400001928E-02 0.  1.
    10030    2    1    2    0    0  0.00000000000E+00  0.00000000000E+00  0.10357439546E+04  0.17405945959E+04  0.13988938514E+04 0.  0.
        3    1    3    3  502    0 -0.32966225127E+03 -0.29650232951E+03  0.11909666021E+04  0.12708234688E+04  0.10100000352E+00 0. -1.
       -3    1    3    3    0  502  0.32966225127E+03  0.29650232951E+03 -0.15522264748E+03  0.46977112705E+03  0.10100000352E+00 0.  1.
</event>
<event>
 5   0  0.7296966E-04  0.1429910E+04  0.7818609E-02  0.8932448E-01
       -2   -1    0    0    0  501  0.00000000000E+00  0.00000000000E+00  0.12187200868E+04  0.12187200868E+04  0.25500000920E-02 0.  1.
        2   -1    0    0  501    0  0.00000000000E+00  0.00000000000E+00 -0.41942408716E+03  0.41942408717E+03  0.25500000920E-02 0. -1.
    10030    2    1    2    0    0  0.00000000000E+00  0.00000000000E+00  0.79929599964E+03  0.16381441740E+04  0.14299098712E+04 0.  0.
        3    1    3    3  502    0  0.23237761967E+03 -0.60515548724E+03  0.74514167429E+03  0.98764803793E+03  0.10100000352E+00 0.  1.
       -3    1    3    3    0  502 -0.23237761967E+03  0.60515548724E+03  0.54154325358E+02  0.65049613605E+03  0.10100000352E+00 0. -1.
</event>
<event>
 5   0  0.3907093E-04  0.1399277E+04  0.7818609E-02  0.8954342E-01
       -1   -1    0    0    0  501  0.00000000000E+00  0.00000000000E+00  0.33583296539E+03  0.33583296543E+03  0.50400001928E-02 0. -1.
        1   -1    0    0  501    0  0.00000000000E+00  0.00000000000E+00 -0.14575519646E+04  0.14575519647E+04  0.50400001928E-02 0.  1.
    10030    2    1    2    0    0  0.00000000000E+00  0.00000000000E+00 -0.11217189993E+04  0.17933849301E+04  0.13992769541E+04 0.  0.
        4    1    3    3  502    0  0.34130842613E+03  0.31721802394E+03  0.10802694571E+03  0.47832013376E+03  0.12699999809E+01 0. -1.
       -4    1    3    3    0  502 -0.34130842613E+03 -0.31721802394E+03 -0.12297459450E+04  0.13150647963E+04  0.12699999809E+01 0.  1.
</event>
<event>
 5   0  0.3907270E-04  0.1418750E+04  0.7818609E-02  0.8940357E-01
        1   -1    0    0  501    0  0.00000000000E+00  0.00000000000E+00  0.82376029897E+03  0.82376029899E+03  0.50400001928E-02 0.  1.
       -1   -1    0    0    0  501  0.00000000000E+00  0.00000000000E+00 -0.61087316957E+03  0.61087316959E+03  0.50400001928E-02 0. -1.
    10030    2    1    2    0    0  0.00000000000E+00  0.00000000000E+00  0.21288712940E+03  0.14346334686E+04  0.14187502456E+04 0.  0.
        3    1    3    3  502    0  0.21204460332E+03 -0.47292436838E+02 -0.57640419680E+03  0.61598806536E+03  0.10100000352E+00 0. -1.
       -3    1    3    3    0  502 -0.21204460332E+03  0.47292436838E+02  0.78929132620E+03  0.81864540321E+03  0.10100000352E+00 0.  1.
</event>
<event>
 5   0  0.6870835E-04  0.1375555E+04  0.7818609E-02  0.8971706E-01
       -2   -1    0    0    0  501  0.00000000000E+00  0.00000000000E+00  0.40963190210E+03  0.40963190211E+03  0.25500000920E-02 0. -1.
        2   -1    0    0  501    0  0.00000000000E+00  0.00000000000E+00 -0.11547879855E+04  0.11547879855E+04  0.25500000920E-02 0.  1.
    10030    2    1    2    0    0  0.00000000000E+00  0.00000000000E+00 -0.74515608335E+03  0.15644198876E+04  0.13755551592E+04 0.  0.
        2    1    3    3  502    0 -0.65353819389E+03  0.20187584226E+03 -0.45436864644E+03  0.82116800561E+03  0.25500000920E-02 0.  1.
       -2    1    3    3    0  502  0.65353819389E+03 -0.20187584226E+03 -0.29078743691E+03  0.74325188196E+03  0.25500000920E-02 0. -1.
</event>
<event>
 5   0  0.3907093E-04  0.1397923E+04  0.7818609E-02  0.8955323E-01
       -1   -1    0    0    0  501  0.00000000000E+00  0.00000000000E+00  0.55033821068E+03  0.55033821070E+03  0.50400001928E-02 0. -1.
        1   -1    0    0  501    0  0.00000000000E+00  0.00000000000E+00 -0.88772207391E+03  0.88772207393E+03  0.50400001928E-02 0.  1.
    10030    2    1    2    0    0  0.00000000000E+00  0.00000000000E+00 -0.33738386324E+03  0.14380602846E+04  0.13979232851E+04 0.  0.
        4    1    3    3  502    0 -0.65687266216E+03  0.71521436325E+02 -0.40315871430E+03  0.77403848222E+03  0.12699999809E+01 0.  1.
       -4    1    3    3    0  502  0.65687266216E+03 -0.71521436325E+02  0.65774851065E+02  0.66402180241E+03  0.12699999809E+01 0. -1.
</event>
<event>
 5   0  0.7065539E-04  0.1403989E+04  0.7818609E-02  0.8950936E-01
       -2   -1    0    0    0  501  0.00000000000E+00  0.00000000000E+00  0.73039674821E+03  0.73039674822E+03  0.25500000920E-02 0.  1.
        2   -1    0    0  501    0  0.00000000000E+00  0.00000000000E+00 -0.67469647006E+03  0.67469647006E+03  0.25500000920E-02 0. -1.
    10030    2    1    2    0    0  0.00000000000E+00  0.00000000000E+00  0.55700278151E+02  0.14050932183E+04  0.14039887575E+04 0.  0.
        1    1    3    3  502    0 -0.55293249442E+02  0.79736086831E+02  0.72365307964E+03  0.73012941776E+03  0.50400001928E-02 0.  1.
       -1    1    3    3    0  502  0.55293249442E+02 -0.79736086831E+02 -0.66795280149E+03  0.67496380052E+03  0.50400001928E-02 0. -1.
</event>
<event>
 5   0  0.3756664E-04  0.1385160E+04  0.7818609E-02  0.8964631E-01
       -1   -1    0    0    0  501  0.00000000000E+00  0.00000000000E+00  0.27645849951E+03  0.27645849956E+03  0.50400001928E-02 0.  1.
        1   -1    0    0  501    0  0.00000000000E+00  0.00000000000E+00 -0.17350419097E+04  0.17350419097E+04  0.50400001928E-02 0. -1.
    10030    2    1    2    0    0  0.00000000000E+00  0.00000000000E+00 -0.14585834102E+04  0.20115004093E+04  0.13851600384E+04 0.  0.
        2    1    3    3  502    0  0.51901662774E+03  0.24972868869E+03 -0.12878134515E+04  0.14107466689E+04  0.25500000920E-02 0. -1.
       -2    1    3    3    0  502 -0.51901662774E+03 -0.24972868869E+03 -0.17076995870E+03  0.60075374042E+03  0.25500000920E-02 0.  1.
</event>
<event>
 5   0  0.3907093E-04  0.1400729E+04  0.7818609E-02  0.8953291E-01
       -1   -1    0    0    0  501  0.00000000000E+00  0.00000000000E+00  0.63526015892E+03  0.63526015894E+03  0.50400001928E-02 0. -1.
        1   -1    0    0  501    0  0.00000000000E+00  0.00000000000E+00 -0.77214098847E+03  0.77214098848E+03  0.50400001928E-02 0.  1.
    10030    2    1    2    0    0  0.00000000000E+00  0.00000000000E+00 -0.13688082955E+03  0.14074011474E+04  0.14007289632E+04 0.  0.
        4    1    3    3  502    0 -0.60878639277E+02 -0.24777676075E+02  0.63215324230E+03  0.63556233101E+03  0.12699999809E+01 0. -1.
       -4    1    3    3    0  502  0.60878639277E+02  0.24777676075E+02 -0.76903407185E+03  0.77183881641E+03  0.12699999809E+01 0.  1.
</event>
<event>
 5   0  0.7296966E-04  0.1407872E+04  0.7818609E-02  0.8948140E-01
       -2   -1    0    0    0  501  0.00000000000E+00  0.00000000000E+00  0.27601476181E+03  0.27601476182E+03  0.25500000920E-02 0.  1.
        2   -1    0    0  501    0  0.00000000000E+00  0.00000000000E+00 -0.17952867410E+04  0.17952867410E+04  0.25500000920E-02 0. -1.
    10030    2    1    2    0    0  0.00000000000E+00  0.00000000000E+00 -0.15192719792E+04  0.20713015028E+04  0.14078716450E+04 0.  0.
        3    1    3    3  502    0 -0.82975168755E+02  0.68277050145E+03 -0.98014958050E+03  0.11973945242E+04  0.10100000352E+00 0. -1.
       -3    1    3    3    0  502  0.82975168755E+02 -0.68277050145E+03 -0.53912239867E+03  0.87390697859E+03  0.10100000352E+00 0.  1.
</event>
<event>
 5   0  0.3907270E-04  0.1401190E+04  0.7818609E-02  0.8952958E-01
       -1   -1    0    0    0  501  0.00000000000E+00  0.00000000000E+00  0.12535115883E+04  0.12535115883E+04  0.50400001928E-02 0.  1.
        1   -1    0    0  501    0  0.00000000000E+00  0.00000000000E+00 -0.39156662141E+03  0.39156662144E+03  0.50400001928E-02 0. -1.
    10030    2    1    2    0    0  0.00000000000E+00  0.00000000000E+00  0.86194496691E+03  0.16450782098E+04  0.14011899194E+04 0.  0.
        3    1    3    3  502    0 -0.65904074170E+03 -0.13723144823E+03  0.65883084785E+03  0.94192635905E+03  0.10100000352E+00 0. -1.
       -3    1    3    3    0  502  0.65904074170E+03  0.13723144823E+03  0.20311411906E+03  0.70315185072E+03  0.10100000352E+00 0.  1.
</event>
<event>
 5   0  0.6870835E-04  0.1399764E+04  0.7818609E-02  0.8953990E-01
       -2   -1    0    0    0  501  0.00000000000E+00  0.00000000000E+00  0.18328562382E+03  0.18328562383E+03  0.25500000920E-02 0. -1.
        2   -1    0    0  501    0  0.00000000000E+00  0.00000000000E+00 -0.26725209865E+04  0.26725209865E+04  0.25500000920E-02 0.  1.
    10030    2    1    2    0    0  0.00000000000E+00  0.00000000000E+00 -0.24892353627E+04  0.28558066104E+04  0.13997638032E+04 0.  0.
        2    1    3    3  502    0  0.22517223267E+03  0.64420910322E+03 -0.92771664737E+03  0.11516796781E+04  0.25500000920E-02 0. -1.
       -2    1    3    3    0  502 -0.22517223267E+03 -0.64420910322E+03 -0.15615187153E+04  0.17041269323E+04  0.25500000920E-02 0.  1.
</event>
<event>
 5   0  0.7296966E-04  0.1424479E+04  0.7818609E-02  0.8936288E-01
       -2   -1    0    0    0  501  0.00000000000E+00  0.00000000000E+00  0.41348144739E+03  0.41348144740E+03  0.25500000920E-02 0. -1.
        2   -1    0    0  501    0  0.00000000000E+00  0.00000000000E+00 -0.12268627827E+04  0.12268627827E+04  0.25500000920E-02 0.  1.
    10030    2    1    2    0    0  0.00000000000E+00  0.00000000000E+00 -0.81338133530E+03  0.16403442301E+04  0.14244788509E+04 0.  0.
        3    1    3    3  502    0  0.71204141066E+03  0.88009275157E+01 -0.42316059181E+03  0.82833889410E+03  0.10100000352E+00 0. -1.
       -3    1    3    3    0  502 -0.71204141066E+03 -0.88009275157E+01 -0.39022074348E+03  0.81200533599E+03  0.10100000352E+00 0.  1.
</event>
<event>
 5   0  0.6870835E-04  0.1408711E+04  0.7818609E-02  0.8947537E-01
        2   -1    0    0  501    0  0.00000000000E+00  0.00000000000E+00  0.10793580862E+04  0.10793580862E+04  0.25500000920E-02 0. -1.
       -2   -1    0    0    0  501  0.00000000000E+00  0.00000000000E+00 -0.45964065616E+03  0.45964065617E+03  0.25500000920E-02 0.  1.
    10030    2    1    2    0    0  0.00000000000E+00  0.00000000000E+00  0.61971743009E+03  0.15389987424E+04  0.14087112678E+04 0.  0.
        2    1    3    3  502    0  0.50527589104E+03  0.25300181298E+03 -0.14950993831E+03  0.58452276696E+03  0.25500000920E-02 0.  1.
       -2    1    3    3    0  502 -0.50527589104E+03 -0.25300181298E+03  0.76922736839E+03  0.95447597546E+03  0.25500000920E-02 0. -1.
</event>
<event>
 5   0  0.6870835E-04  0.1394402E+04  0.7818609E-02  0.8957881E-01
        2   -1    0    0  501    0  0.00000000000E+00  0.00000000000E+00  0.41892173107E+03  0.41892173108E+03  0.25500000920E-02 0.  1.
       -2   -1    0    0    0  501  0.00000000000E+00  0.00000000000E+00 -0.11603336258E+04  0.11603336259E+04  0.25500000920E-02 0. -1.
    10030    2    1    2    0    0  0.00000000000E+00  0.00000000000E+00 -0.74141189478E+03  0.15792553569E+04  0.13944016224E+04 0.  0.
        2    1    3    3  502    0  0.58141229576E+03  0.33863923815E+03 -0.16380772122E+03  0.69249531465E+03  0.25500000920E-02 0.  1.
       -2    1    3    3    0  502 -0.58141229576E+03 -0.33863923815E+03 -0.57760417356E+03  0.88676004228E+03  0.25500000920E-02 0. -1.
</event>
<event>
 5   0  0.3977658E-04  0.1428782E+04  0.7818609E-02  0.8933244E-01
        1   -1    0    0  501    0  0.00000000000E+00  0.00000000000E+00  0.91544272895E+03  0.91544272896E+03  0.50400001928E-02 0. -1.
       -1   -1    0    0    0  501  0.00000000000E+00  0.00000000000E+00 -0.55749459814E+03  0.55749459816E+03  0.50400001928E-02 0.  1.
    10030    2    1    2    0    0  0.00000000000E+00  0.00000000000E+00  0.35794813081E+03  0.14729373271E+04  0.14287818256E+04 0.  0.
        5    1    3    3  502    0 -0.65546121340E+03  0.19276161276E+03 -0.36151344373E+02  0.68418963112E+03  0.46999998093E+01 0. -1.
       -5    1    3    3    0  502  0.65546121340E+03 -0.19276161276E+03  0.39409947518E+03  0.78874769601E+03  0.46999998093E+01 0.  1.
</event>
<event>
 5   0  0.3907093E-04  0.1394303E+04  0.7818609E-02  0.8957952E-01
       -1   -1    0    0    0  501  0.00000000000E+00  0.00000000000E+00  0.49167290810E+03  0.49167290813E+03  0.50400001928E-02 0.  1.
        1   -1    0    0  501    0  0.00000000000E+00  0.00000000000E+00 -0.98850380237E+03  0.98850380239E+03  0.50400001928E-02 0. -1.
    10030    2    1    2    0    0  0.00000000000E+00  0.00000000000E+00 -0.49683089427E+03  0.14801767105E+04  0.13943034666E+04 0.  0.
        4    1    3    3  502    0 -0.43218686618E+03 -0.52160814688E+03 -0.42336312842E+03  0.79881067694E+03  0.12699999809E+01 0. -1.
       -4    1    3    3    0  502  0.43218686618E+03  0.52160814688E+03 -0.73467765855E+02  0.68136603358E+03  0.12699999809E+01 0.  1.
</event>
<event>
 5   0  0.6870835E-04  0.1396057E+04  0.7818609E-02  0.8956678E-01
        2   -1    0    0  501    0  0.00000000000E+00  0.00000000000E+00  0.18230327092E+04  0.18230327092E+04  0.25500000920E-02 0. -1.
       -2   -1    0    0    0  501  0.00000000000E+00  0.00000000000E+00 -0.26727083854E+03  0.26727083855E+03  0.25500000920E-02 0.  1.
    10030    2    1    2    0    0  0.00000000000E+00  0.00000000000E+00  0.15557618707E+04  0.20903035478E+04  0.13960565617E+04 0.  0.
        2    1    3    3  502    0 -0.49524626390E+02  0.79111789620E+02 -0.25788563267E+03  0.27425601802E+03  0.25500000920E-02 0.  1.
       -2    1    3    3    0  502  0.49524626390E+02 -0.79111789620E+02  0.18136475034E+04  0.18160475298E+04  0.25500000920E-02 0. -1.
</event>
<event>
 5   0  0.6870835E-04  0.1402775E+04  0.7818609E-02  0.8951813E-01
        2   -1    0    0  501    0  0.00000000000E+00  0.00000000000E+00  0.17782310796E+04  0.17782310796E+04  0.25500000920E-02 0. -1.
       -2   -1    0    0    0  501  0.00000000000E+00  0.00000000000E+00 -0.27664803608E+03  0.27664803609E+03  0.25500000920E-02 0.  1.
    10030    2    1    2    0    0  0.00000000000E+00  0.00000000000E+00  0.15015830435E+04  0.20548791157E+04  0.14027745876E+04 0.  0.
        2    1    3    3  502    0 -0.45267302673E+03 -0.21996805958E+03  0.35184078457E+02  0.50451633843E+03  0.25500000920E-02 0.  1.
       -2    1    3    3    0  502  0.45267302673E+03  0.21996805958E+03  0.14663989651E+04  0.15503627773E+04  0.25500000920E-02 0. -1.
</event>
<event>
 5   0  0.2660250E-04  0.1395559E+04  0.7818609E-02  0.8957040E-01
       -3   -1    0    0    0  501  0.00000000000E+00  0.00000000000E+00  0.55712833564E+03  0.55712834480E+03  0.10100000352E+00 0.  1.
        3   -1    0    0  501    0  0.00000000000E+00  0.00000000000E+00 -0.87393898226E+03  0.87393898809E+03  0.10100000352E+00 0. -1.
    10030    2    1    2    0    0  0.00000000000E+00  0.00000000000E+00 -0.31681064661E+03  0.14310673329E+04  0.13955589294E+04 0.  0.
        4    1    3    3  502    0  0.52393813445E+03 -0.15639985971E+03 -0.60293551213E+03  0.81394405799E+03  0.12699999809E+01 0. -1.
       -4    1    3    3    0  502 -0.52393813445E+03  0.15639985971E+03  0.28612486552E+03  0.61712327490E+03  0.12699999809E+01 0.  1.
</event>
<event>
 5   0  0.7296966E-04  0.1474111E+04  0.7818609E-02  0.8901853E-01
        2   -1    0    0  501    0  0.00000000000E+00  0.00000000000E+00  0.87350055343E+03  0.87350055343E+03  0.25500000920E-02 0.  1.
       -2   -1    0    0    0  501  0.00000000000E+00  0.00000000000E+00 -0.62192403910E+03  0.62192403911E+03  0.25500000920E-02 0. -1.
    10030    2    1    2    0    0  0.00000000000E+00  0.00000000000E+00  0.25157651433E+03  0.14954245925E+04  0.14741112473E+04 0.  0.
        3    1    3    3  502    0  0.65384165525E+03  0.33444276120E+03  0.62515715154E+02  0.73706790427E+03  0.10100000352E+00 0.  1.
       -3    1    3    3    0  502 -0.65384165525E+03 -0.33444276120E+03  0.18906079917E+03  0.75835668827E+03  0.10100000352E+00 0. -1.
</event>
<event>
 5   0  0.2660250E-04  0.1402495E+04  0.7818609E-02  0.8952015E-01
        4   -1    0    0  501    0  0.00000000000E+00  0.00000000000E+00  0.65018891010E+03  0.65019015043E+03  0.12699999809E+01 0. -1.
       -4   -1    0    0    0  501  0.00000000000E+00  0.00000000000E+00 -0.75631285242E+03  0.75631391871E+03  0.12699999809E+01 0.  1.
    10030    2    1    2    0    0  0.00000000000E+00  0.00000000000E+00 -0.10612394232E+03  0.14065040691E+04  0.14024947078E+04 0.  0.
        3    1    3    3  502    0  0.35773069678E+03  0.49479306238E+03  0.29282459572E+03  0.67715410363E+03  0.10100000352E+00 0. -1.
       -3    1    3    3    0  502 -0.35773069678E+03 -0.49479306238E+03 -0.39894853804E+03  0.72934996552E+03  0.10100000352E+00 0.  1.
</event>
<event>
 5   0  0.3784219E-04  0.1405190E+04  0.7818609E-02  0.8950070E-01
        1   -1    0    0  501    0  0.00000000000E+00  0.00000000000E+00  0.47660537512E+03  0.47660537514E+03  0.50400001928E-02 0. -1.
       -1   -1    0    0    0  501  0.00000000000E+00  0.00000000000E+00 -0.10357416876E+04  0.10357416876E+04  0.50400001928E-02 0.  1.
    10030    2    1    2    0    0  0.00000000000E+00  0.00000000000E+00 -0.55913631245E+03  0.15123470627E+04  0.14051904576E+04 0.  0.
        1    1    3    3  502    0  0.92548860165E+02 -0.25294222212E+03 -0.97797150918E+03  0.10143832274E+04  0.50400001928E-02 0.  1.
       -1    1    3    3    0  502 -0.92548860165E+02  0.25294222212E+03  0.41883519673E+03  0.49796383532E+03  0.50400001928E-02 0. -1.
</event>
<event>
 5   0  0.6870835E-04  0.1409795E+04  0.7818609E-02  0.8946759E-01
       -2   -1    0    0    0  501  0.00000000000E+00  0.00000000000E+00  0.14303252047E+04  0.14303252047E+04  0.25500000920E-02 0. -1.
        2   -1    0    0  501    0  0.00000000000E+00  0.00000000000E+00 -0.34738982180E+03  0.34738982181E+03  0.25500000920E-02 0.  1.
    10030    2    1    2    0    0  0.00000000000E+00  0.00000000000E+00  0.10829353829E+04  0.17777150265E+04  0.14097949042E+04 0.  0.
        2    1    3    3  502    0 -0.60975987965E+03  0.19754752007E+03  0.17157366734E+03  0.66352818844E+03  0.25500000920E-02 0.  1.
       -2    1    3    3    0  502  0.60975987965E+03 -0.19754752007E+03  0.91136171554E+03  0.11141868380E+04  0.25500000920E-02 0. -1.
</event>
<event>
 5   0  0.6959748E-04  0.1414394E+04  0.7818609E-02  0.8943465E-01
        2   -1    0    0  501    0  0.00000000000E+00  0.00000000000E+00  0.61582347262E+03  0.61582347262E+03  0.25500000920E-02 0. -1.
       -2   -1    0    0    0  501  0.00000000000E+00  0.00000000000E+00 -0.81212850693E+03  0.81212850693E+03  0.25500000920E-02 0.  1.
    10030    2    1    2    0    0  0.00000000000E+00  0.00000000000E+00 -0.19630503431E+03  0.14279519796E+04  0.14143942836E+04 0.  0.
        5    1    3    3  502    0  0.16680130535E+03 -0.46507897762E+03  0.41264644942E+03  0.64375485483E+03  0.46999998093E+01 0. -1.
       -5    1    3    3    0  502 -0.16680130535E+03  0.46507897762E+03 -0.60895148373E+03  0.78419712473E+03  0.46999998093E+01 0.  1.
</event>
<event>
 5   0  0.2660250E-04  0.1406735E+04  0.7818609E-02  0.8948958E-01
        4   -1    0    0  501    0  0.00000000000E+00  0.00000000000E+00  0.46607339060E+03  0.46607512090E+03  0.12699999809E+01 0.  1.
       -4   -1    0    0    0  501  0.00000000000E+00  0.00000000000E+00 -0.10614723781E+04  0.10614731378E+04  0.12699999809E+01 0. -1.
    10030    2    1    2    0    0  0.00000000000E+00  0.00000000000E+00 -0.59539898750E+03  0.15275482587E+04  0.14067351309E+04 0.  0.
        1    1    3    3  502    0  0.59645184085E+03 -0.13373098695E+03  0.80161138555E+02  0.61649378219E+03  0.50400001928E-02 0.  1.
       -1    1    3    3    0  502 -0.59645184085E+03  0.13373098695E+03 -0.67556012605E+03  0.91105447656E+03  0.50400001928E-02 0. -1.
</event>
<event>
 5   0  0.3977658E-04  0.1400539E+04  0.7818609E-02  0.8953429E-01
        1   -1    0    0  501    0  0.00000000000E+00  0.00000000000E+00  0.16659232763E+04  0.16659232763E+04  0.50400001928E-02 0.  1.
       -1   -1    0    0    0  501  0.00000000000E+00  0.00000000000E+00 -0.29435766268E+03  0.29435766272E+03  0.50400001928E-02 0. -1.
    10030    2    1    2    0    0  0.00000000000E+00  0.00000000000E+00  0.13715656136E+04  0.19602809390E+04  0.14005388704E+04 0.  0.
        5    1    3    3  502    0 -0.12762667855E+03  0.40909015911E+03  0.14609376027E+04  0.15224992927E+04  0.46999998093E+01 0.  1.
       -5    1    3    3    0  502  0.12762667855E+03 -0.40909015911E+03 -0.89371989127E+02  0.43778164625E+03  0.46999998093E+01 0. -1.
</event>
<event>
 5   0  0.6895048E-04  0.1403501E+04  0.7818609E-02  0.8951288E-01
        2   -1    0    0  501    0  0.00000000000E+00  0.00000000000E+00  0.38167748879E+03  0.38167748879E+03  0.25500000920E-02 0.  1.
       -2   -1    0    0    0  501  0.00000000000E+00  0.00000000000E+00 -0.12902358204E+04  0.12902358204E+04  0.25500000920E-02 0. -1.
    10030    2    1    2    0    0  0.00000000000E+00  0.00000000000E+00 -0.90855833159E+03  0.16719133092E+04  0.14035012902E+04 0.  0.
        4    1    3    3  502    0 -0.29122727615E+03 -0.48605748817E+03 -0.94744168589E+03  0.11039531554E+04  0.12699999809E+01 0. -1.
       -4    1    3    3    0  502  0.29122727615E+03  0.48605748817E+03  0.38883354297E+02  0.56796015381E+03  0.12699999809E+01 0.  1.
</event>
<event>
 5   0  0.3907270E-04  0.1395956E+04  0.7818609E-02  0.8956751E-01
        1   -1    0    0  501    0  0.00000000000E+00  0.00000000000E+00  0.67874073866E+03  0.67874073868E+03  0.50400001928E-02 0.  1.
       -1   -1    0    0    0  501  0.00000000000E+00  0.00000000000E+00 -0.71776062582E+03  0.71776062584E+03  0.50400001928E-02 0. -1.
    10030    2    1    2    0    0  0.00000000000E+00  0.00000000000E+00 -0.39019887158E+02  0.13965013645E+04  0.13959561274E+04 0.  0.
        3    1    3    3  502    0 -0.13714387092E+03  0.15167472798E+03 -0.68712335777E+03  0.71690458461E+03  0.10100000352E+00 0.  1.
       -3    1    3    3    0  502  0.13714387092E+03 -0.15167472798E+03  0.64810347061E+03  0.67959677991E+03  0.10100000352E+00 0. -1.
</event>
<event>
 5   0  0.3756664E-04  0.1409423E+04  0.7818609E-02  0.8947026E-01
        1   -1    0    0  501    0  0.00000000000E+00  0.00000000000E+00  0.71366376042E+03  0.71366376044E+03  0.50400001928E-02 0. -1.
       -1   -1    0    0    0  501  0.00000000000E+00  0.00000000000E+00 -0.69587191436E+03  0.69587191437E+03  0.50400001928E-02 0.  1.
    10030    2    1    2    0    0  0.00000000000E+00  0.00000000000E+00  0.17791846062E+02  0.14095356748E+04  0.14094233817E+04 0.  0.
        2    1    3    3  502    0  0.34844753377E+03  0.41928504362E+03 -0.43768521290E+03  0.69913087272E+03  0.25500000920E-02 0.  1.
       -2    1    3    3    0  502 -0.34844753377E+03 -0.41928504362E+03  0.45547705896E+03  0.71040480209E+03  0.25500000920E-02 0. -1.
</event>
<event>
 5   0  0.6870835E-04  0.1396606E+04  0.7818609E-02  0.8956279E-01
        2   -1    0    0  501    0  0.00000000000E+00  0.00000000000E+00  0.96502178649E+03  0.96502178650E+03  0.25500000920E-02 0.  1.
       -2   -1    0    0    0  501  0.00000000000E+00  0.00000000000E+00 -0.50530146110E+03  0.50530146111E+03  0.25500000920E-02 0. -1.
    10030    2    1    2    0    0  0.00000000000E+00  0.00000000000E+00  0.45972032539E+03  0.14703232476E+04  0.13966057693E+04 0.  0.
        2    1    3    3  502    0  0.50626771460E+03  0.71034282610E+02  0.73065099270E+03  0.89174197013E+03  0.25500000920E-02 0.  1.
       -2    1    3    3    0  502 -0.50626771460E+03 -0.71034282610E+02 -0.27093066731E+03  0.57858127748E+03  0.25500000920E-02 0. -1.
</event>
<event>
 5   0  0.6959748E-04  0.1401559E+04  0.7818609E-02  0.8952691E-01
       -2   -1    0    0    0  501  0.00000000000E+00  0.00000000000E+00  0.73787549072E+03  0.73787549073E+03  0.25500000920E-02 0. -1.
        2   -1    0    0  501    0  0.00000000000E+00  0.00000000000E+00 -0.66554862369E+03  0.66554862369E+03  0.25500000920E-02 0.  1.
    10030    2    1    2    0    0  0.00000000000E+00  0.00000000000E+00  0.72326867036E+02  0.14034241144E+04  0.14015591565E+04 0.  0.
        5    1    3    3  502    0  0.39248795888E+03 -0.57504313977E+03 -0.43620168539E+02  0.69760032939E+03  0.46999998093E+01 0. -1.
       -5    1    3    3    0  502 -0.39248795888E+03  0.57504313977E+03  0.11594703557E+03  0.70582378503E+03  0.46999998093E+01 0.  1.
</event>
<event>
 5   0  0.3907093E-04  0.1399927E+04  0.7818609E-02  0.8953871E-01
       -1   -1    0    0    0  501  0.00000000000E+00  0.00000000000E+00  0.83272484830E+03  0.83272484832E+03  0.50400001928E-02 0.  1.
        1   -1    0    0  501    0  0.00000000000E+00  0.00000000000E+00 -0.58836854009E+03  0.58836854012E+03  0.50400001928E-02 0. -1.
    10030    2    1    2    0    0  0.00000000000E+00  0.00000000000E+00  0.24435630821E+03  0.14210933884E+04  0.13999272886E+04 0.  0.
        4    1    3    3  502    0  0.85667379737E+02 -0.12454804915E+03 -0.57159962790E+03  0.59125194631E+03  0.12699999809E+01 0. -1.
       -4    1    3    3    0  502 -0.85667379737E+02  0.12454804915E+03  0.81595593611E+03  0.82984144213E+03  0.12699999809E+01 0.  1.
</event>
<event>
 5   0  0.6959748E-04  0.1396308E+04  0.7818609E-02  0.8956495E-01
       -2   -1    0    0    0  501  0.00000000000E+00  0.00000000000E+00  0.38835662448E+03  0.38835662449E+03  0.25500000920E-02 0. -1.
        2   -1    0    0  501    0  0.00000000000E+00  0.00000000000E+00 -0.12550813955E+04  0.12550813955E+04  0.25500000920E-02 0.  1.
    10030    2    1    2    0    0  0.00000000000E+00  0.00000000000E+00 -0.86672477097E+03  0.16434380200E+04  0.13963082385E+04 0.  0.
        5    1    3    3  502    0 -0.47504260163E+03  0.43458879228E+03 -0.11565368551E+03  0.65416416648E+03  0.46999998093E+01 0.  1.
       -5    1    3    3    0  502  0.47504260163E+03 -0.43458879228E+03 -0.75107108546E+03  0.98927385347E+03  0.46999998093E+01 0. -1.
</event>
<event>
 5   0  0.3907270E-04  0.1399763E+04  0.7818609E-02  0.8953990E-01
       -1   -1    0    0    0  501  0.00000000000E+00  0.00000000000E+00  0.74786835808E+03  0.74786835809E+03  0.50400001928E-02 0. -1.
        1   -1    0    0  501    0  0.00000000000E+00  0.00000000000E+00 -0.65497355388E+03  0.65497355390E+03  0.50400001928E-02 0.  1.
    10030    2    1    2    0    0  0.00000000000E+00  0.00000000000E+00  0.92894804192E+02  0.14028419120E+04  0.13997628318E+04 0.  0.
        3    1    3    3  502    0  0.28439547869E+03  0.80364929416E+02  0.68226763706E+03  0.74352434322E+03  0.10100000352E+00 0. -1.
       -3    1    3    3    0  502 -0.28439547869E+03 -0.80364929416E+02 -0.58937283287E+03  0.65931756878E+03  0.10100000352E+00 0.  1.
</event>
<event>
 5   0  0.6870835E-04  0.1408134E+04  0.7818609E-02  0.8947952E-01
        2   -1    0    0  501    0  0.00000000000E+00  0.00000000000E+00  0.12430404046E+04  0.12430404046E+04  0.25500000920E-02 0. -1.
       -2   -1    0    0    0  501  0.00000000000E+00  0.00000000000E+00 -0.39878866219E+03  0.39878866220E+03  0.25500000920E-02 0.  1.
    10030    2    1    2    0    0  0.00000000000E+00  0.00000000000E+00  0.84425174237E+03  0.16418290668E+04  0.14081341129E+04 0.  0.
        2    1    3    3  502    0  0.39963181558E+03 -0.24619175151E+03 -0.18974744639E+03  0.50628061385E+03  0.25500000920E-02 0.  1.
       -2    1    3    3    0  502 -0.39963181558E+03  0.24619175151E+03  0.10339991888E+04  0.11355484529E+04  0.25500000920E-02 0. -1.
</event>
<event>
 5   0  0.7296966E-04  0.1408470E+04  0.7818609E-02  0.8947710E-01
       -2   -1    0    0    0  501  0.00000000000E+00  0.00000000000E+00  0.47356281215E+03  0.47356281215E+03  0.25500000920E-02 0.  1.
        2   -1    0    0  501    0  0.00000000000E+00  0.00000000000E+00 -0.10472677029E+04  0.10472677029E+04  0.25500000920E-02 0. -1.
    10030    2    1    2    0    0  0.00000000000E+00  0.00000000000E+00 -0.57370489073E+03  0.15208305150E+04  0.14084701466E+04 0.  0.
        3    1    3    3  502    0 -0.40192027735E+03  0.20529659647E+03 -0.87059073118E+03  0.98061961702E+03  0.10100000352E+00 0. -1.
       -3    1    3    3    0  502  0.40192027735E+03 -0.20529659647E+03  0.29688584045E+03  0.54021089801E+03  0.10100000352E+00 0.  1.
</event>
<event>
 5   0  0.7065539E-04  0.1418420E+04  0.7818609E-02  0.8940592E-01
        2   -1    0    0  501    0  0.00000000000E+00  0.00000000000E+00  0.18477122585E+04  0.18477122585E+04  0.25500000920E-02 0.  1.
       -2   -1    0    0    0  501  0.00000000000E+00  0.00000000000E+00 -0.27221691821E+03  0.27221691822E+03  0.25500000920E-02 0. -1.
    10030    2    1    2    0    0  0.00000000000E+00  0.00000000000E+00  0.15754953403E+04  0.21199291767E+04  0.14184195948E+04 0.  0.
        1    1    3    3  502    0 -0.56502706370E+03  0.33911912066E+03  0.11795454054E+04  0.13511420074E+04  0.50400001928E-02 0.  1.
       -1    1    3    3    0  502  0.56502706370E+03 -0.33911912066E+03  0.39594993482E+03  0.76878716926E+03  0.50400001928E-02 0. -1.
</event>
<event>
 5   0  0.3784219E-04  0.1393140E+04  0.7818609E-02  0.8958799E-01
        1   -1    0    0  501    0  0.00000000000E+00  0.00000000000E+00  0.63193506852E+03  0.63193506854E+03  0.50400001928E-02 0. -1.
       -1   -1    0    0    0  501  0.00000000000E+00  0.00000000000E+00 -0.76781608533E+03  0.76781608535E+03  0.50400001928E-02 0.  1.
    10030    2    1    2    0    0  0.00000000000E+00  0.00000000000E+00 -0.13588101681E+03  0.13997511539E+04  0.13931402091E+04 0.  0.
        1    1    3    3  502    0  0.50749378502E+03 -0.10100760924E+03  0.40059567349E+03  0.65439236900E+03  0.50400001928E-02 0. -1.
       -1    1    3    3    0  502 -0.50749378502E+03  0.10100760924E+03 -0.53647669030E+03  0.74535878490E+03  0.50400001928E-02 0.  1.
</event>
<event>
 5   0  0.7296966E-04  0.1427841E+04  0.7818609E-02  0.8933909E-01
       -2   -1    0    0    0  501  0.00000000000E+00  0.00000000000E+00  0.88238804090E+03  0.88238804090E+03  0.25500000920E-02 0. -1.
        2   -1    0    0  501    0  0.00000000000E+00  0.00000000000E+00 -0.57761683109E+03  0.57761683109E+03  0.25500000920E-02 0.  1.
    10030    2    1    2    0    0  0.00000000000E+00  0.00000000000E+00  0.30477120981E+03  0.14600048720E+04  0.14278405849E+04 0.  0.
        3    1    3    3  502    0 -0.56897343107E+02 -0.10759291194E+03  0.87170131530E+03  0.88015722212E+03  0.10100000352E+00 0. -1.
       -3    1    3    3    0  502  0.56897343107E+02  0.10759291194E+03 -0.56693010549E+03  0.57984764988E+03  0.10100000352E+00 0.  1.
</event>
<event>
 5   0  0.3907093E-04  0.1386360E+04  0.7818609E-02  0.8963752E-01
       -1   -1    0    0    0  501  0.00000000000E+00  0.00000000000E+00  0.22656174538E+03  0.22656174543E+03  0.50400001928E-02 0. -1.
        1   -1    0    0  501    0  0.00000000000E+00  0.00000000000E+00 -0.21208275555E+04  0.21208275555E+04  0.50400001928E-02 0.  1.
    10030    2    1    2    0    0  0.00000000000E+00  0.00000000000E+00 -0.18942658101E+04  0.23473893009E+04  0.13863598273E+04 0.  0.
        4    1    3    3  502    0 -0.21381487998E+03 -0.62376507127E+03 -0.58517877533E+03  0.88160959559E+03  0.12699999809E+01 0. -1.
       -4    1    3    3    0  502  0.21381487998E+03  0.62376507127E+03 -0.13090870348E+04  0.14657797053E+04  0.12699999809E+01 0.  1.
</event>
<event>
 5   0  0.6959748E-04  0.1401054E+04  0.7818609E-02  0.8953056E-01
       -2   -1    0    0    0  501  0.00000000000E+00  0.00000000000E+00  0.38344714890E+03  0.38344714890E+03  0.25500000920E-02 0. -1.
        2   -1    0    0  501    0  0.00000000000E+00  0.00000000000E+00 -0.12798069259E+04  0.12798069259E+04  0.25500000920E-02 0.  1.
    10030    2    1    2    0    0  0.00000000000E+00  0.00000000000E+00 -0.89635977704E+03  0.16632540748E+04  0.14010543414E+04 0.  0.
        5    1    3    3  502    0  0.77574728341E+02 -0.44638654197E+03 -0.10824278608E+04  0.11734355318E+04  0.46999998093E+01 0.  1.
       -5    1    3    3    0  502 -0.77574728341E+02  0.44638654197E+03  0.18606808379E+03  0.48981854307E+03  0.46999998093E+01 0. -1.
</event>
<event>
 5   0  0.3907093E-04  0.1431207E+04  0.7818609E-02  0.8931534E-01
       -1   -1    0    0    0  501  0.00000000000E+00  0.00000000000E+00  0.29187095177E+03  0.29187095182E+03  0.50400001928E-02 0.  1.
        1   -1    0    0  501    0  0.00000000000E+00  0.00000000000E+00 -0.17545017842E+04  0.17545017842E+04  0.50400001928E-02 0. -1.
    10030    2    1    2    0    0  0.00000000000E+00  0.00000000000E+00 -0.14626308325E+04  0.20463727361E+04  0.14312066318E+04 0.  0.
        4    1    3    3  502    0  0.26437215797E+03 -0.66368294318E+03 -0.67203710679E+03  0.98081760424E+03  0.12699999809E+01 0.  1.
       -4    1    3    3    0  502 -0.26437215797E+03  0.66368294318E+03 -0.79059372568E+03  0.10655551318E+04  0.12699999809E+01 0. -1.
</event>
<event>
 5   0  0.3907270E-04  0.1425035E+04  0.7818609E-02  0.8935893E-01
       -1   -1    0    0    0  501  0.00000000000E+00  0.00000000000E+00  0.10433651245E+04  0.10433651245E+04  0.50400001928E-02 0.  1.
        1   -1    0    0  501    0  0.00000000000E+00  0.00000000000E+00 -0.48658077876E+03  0.48658077878E+03  0.50400001928E-02 0. -1.
    10030    2    1    2    0    0  0.00000000000E+00  0.00000000000E+00  0.55678434571E+03  0.15299459033E+04  0.14250353186E+04 0.  0.
        3    1    3    3  502    0  0.27400065823E+03  0.34412916945E+03 -0.32339070127E+03  0.54596959791E+03  0.10100000352E+00 0. -1.
       -3    1    3    3    0  502 -0.27400065823E+03 -0.34412916945E+03  0.88017504698E+03  0.98397630535E+03  0.10100000352E+00 0.  1.
</event>
<event>
 5   0  0.7065539E-04  0.1401429E+04  0.7818609E-02  0.8952785E-01
        2   -1    0    0  501    0  0.00000000000E+00  0.00000000000E+00  0.13903233306E+04  0.13903233306E+04  0.25500000920E-02 0.  1.
       -2   -1    0    0    0  501  0.00000000000E+00  0.00000000000E+00 -0.35315582950E+03  0.35315582951E+03  0.25500000920E-02 0. -1.
    10030    2    1    2    0    0  0.00000000000E+00  0.00000000000E+00  0.10371675011E+04  0.17434791601E+04  0.14014289695E+04 0.  0.
        1    1    3    3  502    0  0.18136765819E+03  0.30003906787E+03  0.12733606857E+04  0.13207441484E+04  0.50400001928E-02 0.  1.
       -1    1    3    3    0  502 -0.18136765819E+03 -0.30003906787E+03 -0.23619318456E+03  0.42273501173E+03  0.50400001928E-02 0. -1.
</event>
<event>
 5   0  0.6895048E-04  0.1400845E+04  0.7818609E-02  0.8953207E-01
       -2   -1    0    0    0  501  0.00000000000E+00  0.00000000000E+00  0.70610183363E+03  0.70610183364E+03  0.25500000920E-02 0.  1.
        2   -1    0    0  501    0  0.00000000000E+00  0.00000000000E+00 -0.69478891949E+03  0.69478891949E+03  0.25500000920E-02 0. -1.
    10030    2    1    2    0    0  0.00000000000E+00  0.00000000000E+00  0.11312914147E+02  0.14008907531E+04  0.14008450736E+04 0.  0.
        4    1    3    3  502    0 -0.33608362625E+03 -0.38076397835E+03  0.48801719298E+03  0.70434068787E+03  0.12699999809E+01 0.  1.
       -4    1    3    3    0  502  0.33608362625E+03  0.38076397835E+03 -0.47670427884E+03  0.69655006525E+03  0.12699999809E+01 0. -1.
</event>
<event>
 5   0  0.7296966E-04  0.1401064E+04  0.7818609E-02  0.8953048E-01
       -2   -1    0    0    0  501  0.00000000000E+00  0.00000000000E+00  0.27290822397E+03  0.27290822398E+03  0.25500000920E-02 0. -1.
        2   -1    0    0  501    0  0.00000000000E+00  0.00000000000E+00 -0.17982064370E+04  0.17982064370E+04  0.25500000920E-02 0.  1.
    10030    2    1    2    0    0  0.00000000000E+00  0.00000000000E+00 -0.15252982130E+04  0.20711146610E+04  0.14010643455E+04 0.  0.
        3    1    3    3  502    0 -0.35784403453E+03 -0.11088961428E+03  0.11238687935E+03  0.39112616948E+03  0.10100000352E+00 0. -1.
       -3    1    3    3    0  502  0.35784403453E+03  0.11088961428E+03 -0.16376850924E+04  0.16799884915E+04  0.10100000352E+00 0.  1.
</event>
<event>
 5   0  0.3756664E-04  0.1366981E+04  0.7818609E-02  0.8978072E-01
        1   -1    0    0  501    0  0.00000000000E+00  0.00000000000E+00  0.54472595701E+03  0.54472595703E+03  0.50400001928E-02 0. -1.
       -1   -1    0    0    0  501  0.00000000000E+00  0.00000000000E+00 -0.85760399000E+03  0.85760399001E+03  0.50400001928E-02 0.  1.
    10030    2    1    2    0    0  0.00000000000E+00  0.00000000000E+00 -0.31287803299E+03  0.14023299470E+04  0.13669808400E+04 0.  0.
        2    1    3    3  502    0 -0.50884898732E+03 -0.40801313111E+03  0.53190866125E+02  0.65439382279E+03  0.25500000920E-02 0.  1.
       -2    1    3    3    0  502  0.50884898732E+03  0.40801313111E+03 -0.36606889911E+03  0.74793612425E+03  0.25500000920E-02 0. -1.
</event>
<event>
 5   0  0.3756664E-04  0.1402679E+04  0.7818609E-02  0.8951882E-01
       -1   -1    0    0    0  501  0.00000000000E+00  0.00000000000E+00  0.29289291654E+03  0.29289291658E+03  0.50400001928E-02 0.  1.
        1   -1    0    0  501    0  0.00000000000E+00  0.00000000000E+00 -0.16793752677E+04  0.16793752677E+04  0.50400001928E-02 0. -1.
    10030    2    1    2    0    0  0.00000000000E+00  0.00000000000E+00 -0.13864823511E+04  0.19722681843E+04  0.14026790369E+04 0.  0.
        2    1    3    3  502    0  0.42316157422E+03  0.50891071763E+03 -0.36704062585E+03  0.75681877451E+03  0.25500000920E-02 0.  1.
       -2    1    3    3    0  502 -0.42316157422E+03 -0.50891071763E+03 -0.10194417253E+04  0.12154494097E+04  0.25500000920E-02 0. -1.
</event>
<event>
 5   0  0.6959748E-04  0.1408721E+04  0.7818609E-02  0.8947530E-01
        2   -1    0    0  501    0  0.00000000000E+00  0.00000000000E+00  0.12279032578E+04  0.12279032578E+04  0.25500000920E-02 0. -1.
       -2   -1    0    0    0  501  0.00000000000E+00  0.00000000000E+00 -0.40404119965E+03  0.40404119966E+03  0.25500000920E-02 0.  1.
    10030    2    1    2    0    0  0.00000000000E+00  0.00000000000E+00  0.82386205814E+03  0.16319444574E+04  0.14087207038E+04 0.  0.
        5    1    3    3  502    0  0.63757548319E+03 -0.29807520432E+03  0.44365864886E+03  0.83198942957E+03  0.46999998093E+01 0. -1.
       -5    1    3    3    0  502 -0.63757548319E+03  0.29807520432E+03  0.38020340928E+03  0.79995502788E+03  0.46999998093E+01 0.  1.
</event>
<event>
 5   0  0.3784219E-04  0.1399988E+04  0.7818609E-02  0.8953827E-01
       -1   -1    0    0    0  501  0.00000000000E+00  0.00000000000E+00  0.21384781885E+04  0.21384781885E+04  0.50400001928E-02 0.  1.
        1   -1    0    0  501    0  0.00000000000E+00  0.00000000000E+00 -0.22913106162E+03  0.22913106168E+03  0.50400001928E-02 0. -1.
    10030    2    1    2    0    0  0.00000000000E+00  0.00000000000E+00  0.19093471269E+04  0.23676092502E+04  0.13999882538E+04 0.  0.
        1    1    3    3  502    0 -0.27250628904E+02 -0.69924503107E+03  0.92511120090E+03  0.11599641996E+04  0.50400001928E-02 0.  1.
       -1    1    3    3    0  502  0.27250628904E+02  0.69924503107E+03  0.98423592601E+03  0.12076450506E+04  0.50400001928E-02 0. -1.
</event>
<event>
 5   0  0.7296966E-04  0.1372638E+04  0.7818609E-02  0.8973866E-01
       -2   -1    0    0    0  501  0.00000000000E+00  0.00000000000E+00  0.75456423645E+03  0.75456423646E+03  0.25500000920E-02 0.  1.
        2   -1    0    0  501    0  0.00000000000E+00  0.00000000000E+00 -0.62424577656E+03  0.62424577656E+03  0.25500000920E-02 0. -1.
    10030    2    1    2    0    0  0.00000000000E+00  0.00000000000E+00  0.13031845989E+03  0.13788100130E+04  0.13726376620E+04 0.  0.
        3    1    3    3  502    0 -0.19102221380E+03  0.59267492488E+03 -0.22472201257E+03  0.66200683220E+03  0.10100000352E+00 0.  1.
       -3    1    3    3    0  502  0.19102221380E+03 -0.59267492488E+03  0.35504047246E+03  0.71680318082E+03  0.10100000352E+00 0. -1.
</event>
<event>
 5   0  0.3756664E-04  0.1410747E+04  0.7818609E-02  0.8946076E-01
        1   -1    0    0  501    0  0.00000000000E+00  0.00000000000E+00  0.12343862203E+04  0.12343862203E+04  0.50400001928E-02 0.  1.
       -1   -1    0    0    0  501  0.00000000000E+00  0.00000000000E+00 -0.40307643808E+03  0.40307643811E+03  0.50400001928E-02 0. -1.
    10030    2    1    2    0    0  0.00000000000E+00  0.00000000000E+00  0.83130978221E+03  0.16374626584E+04  0.14107473210E+04 0.  0.
        2    1    3    3  502    0 -0.33826250463E+03 -0.22967587518E+03 -0.25150310808E+03  0.48002743990E+03  0.25500000920E-02 0. -1.
       -2    1    3    3    0  502  0.33826250463E+03  0.22967587518E+03  0.10828128903E+04  0.11574352185E+04  0.25500000920E-02 0.  1.
</event>
<event>
 5   0  0.3907093E-04  0.1380311E+04  0.7818609E-02  0.8968195E-01
        1   -1    0    0  501    0  0.00000000000E+00  0.00000000000E+00  0.69968320999E+03  0.69968321001E+03  0.50400001928E-02 0. -1.
       -1   -1    0    0    0  501  0.00000000000E+00  0.00000000000E+00 -0.68075763410E+03  0.68075763412E+03  0.50400001928E-02 0.  1.
    10030    2    1    2    0    0  0.00000000000E+00  0.00000000000E+00  0.18925575892E+02  0.13804408441E+04  0.13803111051E+04 0.  0.
        4    1    3    3  502    0  0.27057719020E+02 -0.20476588772E+03  0.66804718561E+03  0.69924948626E+03  0.12699999809E+01 0. -1.
       -4    1    3    3    0  502 -0.27057719020E+02  0.20476588772E+03 -0.64912160972E+03  0.68119135787E+03  0.12699999809E+01 0.  1.
</event>
<event>
 5   0  0.3977658E-04  0.1383171E+04  0.7818609E-02  0.8966091E-01
        1   -1    0    0  501    0  0.00000000000E+00  0.00000000000E+00  0.12469720739E+04  0.12469720739E+04  0.50400001928E-02 0.  1.
       -1   -1    0    0    0  501  0.00000000000E+00  0.00000000000E+00 -0.38356150273E+03  0.38356150276E+03  0.50400001928E-02 0. -1.
    10030    2    1    2    0    0  0.00000000000E+00  0.00000000000E+00  0.86341057116E+03  0.16305335767E+04  0.13831709693E+04 0.  0.
        5    1    3    3  502    0 -0.28884269099E+03  0.24044477979E+03  0.11160653876E+04  0.11776535279E+04  0.46999998093E+01 0.  1.
       -5    1    3    3    0  502  0.28884269099E+03 -0.24044477979E+03 -0.25265481649E+03  0.45288004875E+03  0.46999998093E+01 0. -1.
</event>
<event>
 5   0  0.6895048E-04  0.1421702E+04  0.7818609E-02  0.8938257E-01
        2   -1    0    0  501    0  0.00000000000E+00  0.00000000000E+00  0.34606764671E+03  0.34606764672E+03  0.25500000920E-02 0.  1.
       -2   -1    0    0    0  501  0.00000000000E+00  0.00000000000E+00 -0.14601465695E+04  0.14601465695E+04  0.25500000920E-02 0. -1.
    10030    2    1    2    0    0  0.00000000000E+00  0.00000000000E+00 -0.11140789228E+04  0.18062142162E+04  0.14217024825E+04 0.  0.
        4    1    3    3  502    0  0.65885667410E+03 -0.15343710848E+03 -0.83443272788E+03  0.10742041954E+04  0.12699999809E+01 0.  1.
       -4    1    3    3    0  502 -0.65885667410E+03  0.15343710848E+03 -0.27964619489E+03  0.73201002075E+03  0.12699999809E+01 0. -1.
</event>
<event>
 5   0  0.3977658E-04  0.1417444E+04  0.7818609E-02  0.8941287E-01
       -1   -1    0    0    0  501  0.00000000000E+00  0.00000000000E+00  0.10603290403E+04  0.10603290404E+04  0.50400001928E-02 0. -1.
        1   -1    0    0  501    0  0.00000000000E+00  0.00000000000E+00 -0.47370872295E+03  0.47370872298E+03  0.50400001928E-02 0.  1.
    10030    2    1    2    0    0  0.00000000000E+00  0.00000000000E+00  0.58662031739E+03  0.15340377633E+04  0.14174443420E+04 0.  0.
        5    1    3    3  502    0  0.58958153563E+03  0.30003964619E+03  0.18164030408E+02  0.66180223514E+03  0.46999998093E+01 0.  1.
       -5    1    3    3    0  502 -0.58958153563E+03 -0.30003964619E+03  0.56845628698E+03  0.87223552820E+03  0.46999998093E+01 0. -1.
</event>
<event>
 5   0  0.6870835E-04  0.1293659E+04  0.7818609E-02  0.9034609E-01
        2   -1    0    0  501    0  0.00000000000E+00  0.00000000000E+00  0.92791244797E+03  0.92791244798E+03  0.25500000920E-02 0. -1.
       -2   -1    0    0    0  501  0.00000000000E+00  0.00000000000E+00 -0.45089196413E+03  0.45089196414E+03  0.25500000920E-02 0.  1.
    10030    2    1    2    0    0  0.00000000000E+00  0.00000000000E+00  0.47702048384E+03  0.13788044121E+04  0.12936587900E+04 0.  0.
        2    1    3    3  502    0  0.64223189358E+02  0.63761703300E+03  0.14493553201E+03  0.65702846762E+03  0.25500000920E-02 0.  1.
       -2    1    3    3    0  502 -0.64223189358E+02 -0.63761703300E+03  0.33208495183E+03  0.72177594450E+03  0.25500000920E-02 0. -1.
</event>
<event>
 5   0  0.3756664E-04  0.1576533E+04  0.7818609E-02  0.8835096E-01
        1   -1    0    0  501    0  0.00000000000E+00  0.00000000000E+00  0.77568826296E+03  0.77568826298E+03  0.50400001928E-02 0. -1.
       -1   -1    0    0    0  501  0.00000000000E+00  0.00000000000E+00 -0.80104908728E+03  0.80104908730E+03  0.50400001928E-02 0.  1.
    10030    2    1    2    0    0  0.00000000000E+00  0.00000000000E+00 -0.25360824318E+02  0.15767373503E+04  0.15765333807E+04 0.  0.
        2    1    3    3  502    0 -0.51516934055E+03  0.59533451127E+03 -0.51950557126E+02  0.78900031061E+03  0.25500000920E-02 0. -1.
       -2    1    3    3    0  502  0.51516934055E+03 -0.59533451127E+03  0.26589732809E+02  0.78773703966E+03  0.25500000920E-02 0.  1.
</event>
<event>
 5   0  0.3784219E-04  0.1367285E+04  0.7818609E-02  0.8977845E-01
        1   -1    0    0  501    0  0.00000000000E+00  0.00000000000E+00  0.10514554137E+04  0.10514554137E+04  0.50400001928E-02 0. -1.
       -1   -1    0    0    0  501  0.00000000000E+00  0.00000000000E+00 -0.44449566612E+03  0.44449566615E+03  0.50400001928E-02 0.  1.
    10030    2    1    2    0    0  0.00000000000E+00  0.00000000000E+00  0.60695974754E+03  0.14959510798E+04  0.13672854486E+04 0.  0.
        1    1    3    3  502    0  0.64863473422E+03 -0.46901322911E+01  0.53971076553E+03  0.84382268649E+03  0.50400001928E-02 0. -1.
       -1    1    3    3    0  502 -0.64863473422E+03  0.46901322911E+01  0.67248982005E+02  0.65212839333E+03  0.50400001928E-02 0.  1.
</event>
<event>
 5   0  0.6870835E-04  0.1403162E+04  0.7818609E-02  0.8951533E-01
        2   -1    0    0  501    0  0.00000000000E+00  0.00000000000E+00  0.15284403052E+04  0.15284403052E+04  0.25500000920E-02 0. -1.
       -2   -1    0    0    0  501  0.00000000000E+00  0.00000000000E+00 -0.32203820210E+03  0.32203820211E+03  0.25500000920E-02 0.  1.
    10030    2    1    2    0    0  0.00000000000E+00  0.00000000000E+00  0.12064021031E+04  0.18504785073E+04  0.14031623825E+04 0.  0.
        2    1    3    3  502    0 -0.32513209523E+02 -0.19555674370E+03  0.14907355448E+04  0.15038590403E+04  0.25500000920E-02 0. -1.
       -2    1    3    3    0  502  0.32513209523E+02  0.19555674370E+03 -0.28433344168E+03  0.34661946695E+03  0.25500000920E-02 0.  1.
</event>
<event>
 5   0  0.6895048E-04  0.1407115E+04  0.7818609E-02  0.8948684E-01
        2   -1    0    0  501    0  0.00000000000E+00  0.00000000000E+00  0.93964890102E+03  0.93964890102E+03  0.25500000920E-02 0. -1.
       -2   -1    0    0    0  501  0.00000000000E+00  0.00000000000E+00 -0.52678521746E+03  0.52678521746E+03  0.25500000920E-02 0.  1.
    10030    2    1    2    0    0  0.00000000000E+00  0.00000000000E+00  0.41286368356E+03  0.14664341185E+04  0.14071149927E+04 0.  0.
        4    1    3    3  502    0 -0.69661104937E+03  0.75971464265E+02  0.14090911034E+03  0.71476961867E+03  0.12699999809E+01 0.  1.
       -4    1    3    3    0  502  0.69661104937E+03 -0.75971464265E+02  0.27195457323E+03  0.75166449982E+03  0.12699999809E+01 0. -1.
</event>
<event>
 5   0  0.3756664E-04  0.1395931E+04  0.7818609E-02  0.8956769E-01
        1   -1    0    0  501    0  0.00000000000E+00  0.00000000000E+00  0.10347645634E+04  0.10347645634E+04  0.50400001928E-02 0.  1.
       -1   -1    0    0    0  501  0.00000000000E+00  0.00000000000E+00 -0.47078923143E+03  0.47078923145E+03  0.50400001928E-02 0. -1.
    10030    2    1    2    0    0  0.00000000000E+00  0.00000000000E+00  0.56397533197E+03  0.15055537949E+04  0.13959312498E+04 0.  0.
        2    1    3    3  502    0 -0.38325290502E+03  0.25296110732E+03 -0.28491700995E+03  0.54041633357E+03  0.25500000920E-02 0. -1.
       -2    1    3    3    0  502  0.38325290502E+03 -0.25296110732E+03  0.84889234191E+03  0.96513746129E+03  0.25500000920E-02 0.  1.
</event>
<event>
 5   0  0.3784219E-04  0.1395988E+04  0.7818609E-02  0.8956728E-01
       -1   -1    0    0    0  501  0.00000000000E+00  0.00000000000E+00  0.13181913369E+04  0.13181913369E+04  0.50400001928E-02 0. -1.
        1   -1    0    0  501    0  0.00000000000E+00  0.00000000000E+00 -0.36959409866E+03  0.36959409869E+03  0.50400001928E-02 0.  1.
    10030    2    1    2    0    0  0.00000000000E+00  0.00000000000E+00  0.94859723828E+03  0.16877854356E+04  0.13959881648E+04 0.  0.
        1    1    3    3  502    0 -0.62483077935E+03  0.30573184894E+03  0.40473736724E+03  0.80479674623E+03  0.50400001928E-02 0.  1.
       -1    1    3    3    0  502  0.62483077935E+03 -0.30573184894E+03  0.54385987104E+03  0.88298868941E+03  0.50400001928E-02 0. -1.
</event>
<event>
 5   0  0.3907093E-04  0.1398925E+04  0.7818609E-02  0.8954597E-01
        1   -1    0    0  501    0  0.00000000000E+00  0.00000000000E+00  0.55830422065E+03  0.55830422068E+03  0.50400001928E-02 0. -1.
       -1   -1    0    0    0  501  0.00000000000E+00  0.00000000000E+00 -0.87631052805E+03  0.87631052806E+03  0.50400001928E-02 0.  1.
    10030    2    1    2    0    0  0.00000000000E+00  0.00000000000E+00 -0.31800630740E+03  0.14346147487E+04  0.13989251108E+04 0.  0.
        4    1    3    3  502    0 -0.42915269186E+03 -0.33057852380E+03 -0.61277585307E+03  0.81789366811E+03  0.12699999809E+01 0.  1.
       -4    1    3    3    0  502  0.42915269186E+03  0.33057852380E+03  0.29476954568E+03  0.61672108063E+03  0.12699999809E+01 0. -1.
</event>
<event>
 5   0  0.6895048E-04  0.1400322E+04  0.7818609E-02  0.8953585E-01
       -2   -1    0    0    0  501  0.00000000000E+00  0.00000000000E+00  0.86047528952E+03  0.86047528953E+03  0.25500000920E-02 0. -1.
        2   -1    0    0  501    0  0.00000000000E+00  0.00000000000E+00 -0.56971505442E+03  0.56971505442E+03  0.25500000920E-02 0.  1.
    10030    2    1    2    0    0  0.00000000000E+00  0.00000000000E+00  0.29076023510E+03  0.14301903440E+04  0.14003224292E+04 0.  0.
        4    1    3    3  502    0  0.20477310145E+02 -0.38046539529E+03  0.74531948911E+03  0.83706391093E+03  0.12699999809E+01 0. -1.
       -4    1    3    3    0  502 -0.20477310145E+02  0.38046539529E+03 -0.45455925401E+03  0.59312643302E+03  0.12699999809E+01 0.  1.
</event>
<event>
 5   0  0.3907270E-04  0.1394839E+04  0.7818609E-02  0.8957563E-01
       -1   -1    0    0    0  501  0.00000000000E+00  0.00000000000E+00  0.75513538574E+03  0.75513538576E+03  0.50400001928E-02 0.  1.
        1   -1    0    0  501    0  0.00000000000E+00  0.00000000000E+00 -0.64411513766E+03  0.64411513768E+03  0.50400001928E-02 0. -1.
    10030    2    1    2    0    0  0.00000000000E+00  0.00000000000E+00  0.11102024808E+03  0.13992505234E+04  0.13948392495E+04 0.  0.
        3    1    3    3  502    0 -0.14157538072E+03 -0.71293675310E+02  0.73682498587E+03  0.75368259006E+03  0.10100000352E+00 0.  1.
       -3    1    3    3    0  502  0.14157538072E+03  0.71293675310E+02 -0.62580473779E+03  0.64556793338E+03  0.10100000352E+00 0. -1.
</event>
<event>
 5   0  0.3784219E-04  0.1399519E+04  0.7818609E-02  0.8954166E-01
        1   -1    0    0  501    0  0.00000000000E+00  0.00000000000E+00  0.15522877481E+04  0.15522877481E+04  0.50400001928E-02 0.  1.
       -1   -1    0    0    0  501  0.00000000000E+00  0.00000000000E+00 -0.31544645586E+03  0.31544645590E+03  0.50400001928E-02 0. -1.
    10030    2    1    2    0    0  0.00000000000E+00  0.00000000000E+00  0.12368412922E+04  0.18677342040E+04  0.13995194442E+04 0.  0.
        1    1    3    3  502    0  0.19913070820E+03  0.18466081895E+03 -0.24224871903E+03  0.36391908290E+03  0.50400001928E-02 0. -1.
       -1    1    3    3    0  502 -0.19913070820E+03 -0.18466081895E+03  0.14790900112E+04  0.15038151211E+04  0.50400001928E-02 0.  1.
</event>
<event>
 5   0  0.3784219E-04  0.1396870E+04  0.7818609E-02  0.8956087E-01
        1   -1    0    0  501    0  0.00000000000E+00  0.00000000000E+00  0.13885352418E+04  0.13885352418E+04  0.50400001928E-02 0.  1.
       -1   -1    0    0    0  501  0.00000000000E+00  0.00000000000E+00 -0.35131377189E+03  0.35131377192E+03  0.50400001928E-02 0. -1.
    10030    2    1    2    0    0  0.00000000000E+00  0.00000000000E+00  0.10372214699E+04  0.17398490137E+04  0.13968701489E+04 0.  0.
        1    1    3    3  502    0 -0.54135943605E+02 -0.46832158207E+03 -0.12323901789E+03  0.48728191037E+03  0.50400001928E-02 0. -1.
       -1    1    3    3    0  502  0.54135943605E+02  0.46832158207E+03  0.11604604878E+04  0.12525671033E+04  0.50400001928E-02 0.  1.
</event>
<event>
 5   0  0.6895048E-04  0.1407868E+04  0.7818609E-02  0.8948143E-01
       -2   -1    0    0    0  501  0.00000000000E+00  0.00000000000E+00  0.23953354730E+03  0.23953354732E+03  0.25500000920E-02 0. -1.
        2   -1    0    0  501    0  0.00000000000E+00  0.00000000000E+00 -0.20687012324E+04  0.20687012324E+04  0.25500000920E-02 0.  1.
    10030    2    1    2    0    0  0.00000000000E+00  0.00000000000E+00 -0.18291676851E+04  0.23082347797E+04  0.14078683810E+04 0.  0.
        4    1    3    3  502    0  0.12910023142E+03  0.13092183592E+03  0.19946595576E+03  0.27128523233E+03  0.12699999809E+01 0. -1.
       -4    1    3    3    0  502 -0.12910023142E+03 -0.13092183592E+03 -0.20286336409E+04  0.20369495474E+04  0.12699999809E+01 0.  1.
</event>
<event>
 5   0  0.7296966E-04  0.1399344E+04  0.7818609E-02  0.8954294E-01
        2   -1    0    0  501    0  0.00000000000E+00  0.00000000000E+00  0.25760689350E+04  0.25760689350E+04  0.25500000920E-02 0. -1.
       -2   -1    0    0    0  501  0.00000000000E+00  0.00000000000E+00 -0.19003406443E+03  0.19003406445E+03  0.25500000920E-02 0.  1.
    10030    2    1    2    0    0  0.00000000000E+00  0.00000000000E+00  0.23860348706E+04  0.27661029995E+04  0.13993439177E+04 0.  0.
        3    1    3    3  502    0 -0.18217180145E+03  0.25584790853E+03  0.24288924839E+04  0.24491148250E+04  0.10100000352E+00 0. -1.
       -3    1    3    3    0  502  0.18217180145E+03 -0.25584790853E+03 -0.42857613287E+02  0.31698817448E+03  0.10100000352E+00 0.  1.
</event>
<event>
 5   0  0.6959748E-04  0.1398706E+04  0.7818609E-02  0.8954755E-01
        2   -1    0    0  501    0  0.00000000000E+00  0.00000000000E+00  0.16671972855E+04  0.16671972855E+04  0.25500000920E-02 0. -1.
       -2   -1    0    0    0  501  0.00000000000E+00  0.00000000000E+00 -0.29336358063E+03  0.29336358065E+03  0.25500000920E-02 0.  1.
    10030    2    1    2    0    0  0.00000000000E+00  0.00000000000E+00  0.13738337049E+04  0.19605608662E+04  0.13987064958E+04 0.  0.
        5    1    3    3  502    0 -0.69686623802E+02  0.35913772473E+03 -0.14851817203E+03  0.39486183442E+03  0.46999998093E+01 0.  1.
       -5    1    3    3    0  502  0.69686623802E+02 -0.35913772473E+03  0.15223518769E+04  0.15656990317E+04  0.46999998093E+01 0. -1.
</event>
<event>
 5   0  0.7296966E-04  0.1394160E+04  0.7818609E-02  0.8958057E-01
       -2   -1    0    0    0  501  0.00000000000E+00  0.00000000000E+00  0.62951385330E+03  0.62951385331E+03  0.25500000920E-02 0. -1.
        2   -1    0    0  501    0  0.00000000000E+00  0.00000000000E+00 -0.77189762893E+03  0.77189762893E+03  0.25500000920E-02 0.  1.
    10030    2    1    2    0    0  0.00000000000E+00  0.00000000000E+00 -0.14238377562E+03  0.14014114822E+04  0.13941596046E+04 0.  0.
        3    1    3    3  502    0  0.58687773177E+03 -0.32001938407E+03  0.12752902792E+03  0.68051564375E+03  0.10100000352E+00 0. -1.
       -3    1    3    3    0  502 -0.58687773177E+03  0.32001938407E+03 -0.26991280354E+03  0.72089583849E+03  0.10100000352E+00 0.  1.
</event>
<event>
 5   0  0.3977658E-04  0.1336693E+04  0.7818609E-02  0.9000963E-01
       -1   -1    0    0    0  501  0.00000000000E+00  0.00000000000E+00  0.20034005330E+03  0.20034005336E+03  0.50400001928E-02 0. -1.
        1   -1    0    0  501    0  0.00000000000E+00  0.00000000000E+00 -0.22296456051E+04  0.22296456052E+04  0.50400001928E-02 0.  1.
    10030    2    1    2    0    0  0.00000000000E+00  0.00000000000E+00 -0.20293055519E+04  0.24299856585E+04  0.13366934120E+04 0.  0.
        5    1    3    3  502    0  0.27566789512E+03 -0.17815540542E+03 -0.20730017423E+04  0.20988307341E+04  0.46999998093E+01 0.  1.
       -5    1    3    3    0  502 -0.27566789512E+03  0.17815540542E+03  0.43696190474E+02  0.33115492438E+03  0.46999998093E+01 0. -1.
</event>
<event>
 5   0  0.6959748E-04  0.1399895E+04  0.7818609E-02  0.8953895E-01
       -2   -1    0    0    0  501  0.00000000000E+00  0.00000000000E+00  0.59794105755E+03  0.59794105755E+03  0.25500000920E-02 0.  1.
        2   -1    0    0  501    0  0.00000000000E+00  0.00000000000E+00 -0.81935552243E+03  0.81935552244E+03  0.25500000920E-02 0. -1.
    10030    2    1    2    0    0  0.00000000000E+00  0.00000000000E+00 -0.22141446489E+03  0.14172965800E+04  0.13998947212E+04 0.  0.
        5    1    3    3  502    0  0.33677398758E+03 -0.55105471838E+03  0.16251068508E+03  0.66596534003E+03  0.46999998093E+01 0.  1.
       -5    1    3    3    0  502 -0.33677398758E+03  0.55105471838E+03 -0.38392514997E+03  0.75133123996E+03  0.46999998093E+01 0. -1.
</event>
<event>
 5   0  0.6870835E-04  0.1399273E+04  0.7818609E-02  0.8954345E-01
        2   -1    0    0  501    0  0.00000000000E+00  0.00000000000E+00  0.12926598779E+04  0.12926598779E+04  0.25500000920E-02 0.  1.
       -2   -1    0    0    0  501  0.00000000000E+00  0.00000000000E+00 -0.37866973530E+03  0.37866973531E+03  0.25500000920E-02 0. -1.
    10030    2    1    2    0    0  0.00000000000E+00  0.00000000000E+00  0.91399014255E+03  0.16713296132E+04  0.13992729166E+04 0.  0.
        2    1    3    3  502    0 -0.58891207895E+03  0.95184626224E+02  0.20393743985E+02  0.59690322047E+03  0.25500000920E-02 0. -1.
       -2    1    3    3    0  502  0.58891207895E+03 -0.95184626224E+02  0.89359639856E+03  0.10744263927E+04  0.25500000920E-02 0.  1.
</event>
<event>
 5   0  0.6959748E-04  0.1392503E+04  0.7818609E-02  0.8959263E-01
       -2   -1    0    0    0  501  0.00000000000E+00  0.00000000000E+00  0.58284277585E+03  0.58284277586E+03  0.25500000920E-02 0. -1.
        2   -1    0    0  501    0  0.00000000000E+00  0.00000000000E+00 -0.83172678731E+03  0.83172678732E+03  0.25500000920E-02 0.  1.
    10030    2    1    2    0    0  0.00000000000E+00  0.00000000000E+00 -0.24888401146E+03  0.14145695632E+04  0.13925027102E+04 0.  0.
        5    1    3    3  502    0  0.22115317605E+03  0.35577615777E+03 -0.68936474078E+03  0.80667914163E+03  0.46999998093E+01 0.  1.
       -5    1    3    3    0  502 -0.22115317605E+03 -0.35577615777E+03  0.44048072932E+03  0.60789042155E+03  0.46999998093E+01 0. -1.
</event>
<event>
 5   0  0.3784219E-04  0.1375017E+04  0.7818609E-02  0.8972104E-01
        1   -1    0    0  501    0  0.00000000000E+00  0.00000000000E+00  0.44861025725E+03  0.44861025728E+03  0.50400001928E-02 0. -1.
       -1   -1    0    0    0  501  0.00000000000E+00  0.00000000000E+00 -0.10536268944E+04  0.10536268944E+04  0.50400001928E-02 0.  1.
    10030    2    1    2    0    0  0.00000000000E+00  0.00000000000E+00 -0.60501663716E+03  0.15022371517E+04  0.13750168467E+04 0.  0.
        1    1    3    3  502    0 -0.39928103861E+03 -0.13075410308E+03 -0.89705136461E+03  0.99056707701E+03  0.50400001928E-02 0.  1.
       -1    1    3    3    0  502  0.39928103861E+03  0.13075410308E+03  0.29203472746E+03  0.51167007469E+03  0.50400001928E-02 0. -1.
</event>
<event>
 5   0  0.6870835E-04  0.1396479E+04  0.7818609E-02  0.8956371E-01
        2   -1    0    0  501    0  0.00000000000E+00  0.00000000000E+00  0.17653783989E+04  0.17653783989E+04  0.25500000920E-02 0.  1.
       -2   -1    0    0    0  501  0.00000000000E+00  0.00000000000E+00 -0.27616647137E+03  0.27616647138E+03  0.25500000920E-02 0. -1.
    10030    2    1    2    0    0  0.00000000000E+00  0.00000000000E+00  0.14892119275E+04  0.20415448702E+04  0.13964788907E+04 0.  0.
        2    1    3    3  502    0  0.56404478683E+03  0.15014287707E+02  0.14331929816E+03  0.58216180879E+03  0.25500000920E-02 0. -1.
       -2    1    3    3    0  502 -0.56404478683E+03 -0.15014287707E+02  0.13458926293E+04  0.14593830615E+04  0.25500000920E-02 0.  1.
</event>
<event>
 5   0  0.3977658E-04  0.1322169E+04  0.7818609E-02  0.9012167E-01
       -1   -1    0    0    0  501  0.00000000000E+00  0.00000000000E+00  0.79709869471E+03  0.79709869472E+03  0.50400001928E-02 0. -1.
        1   -1    0    0  501    0  0.00000000000E+00  0.00000000000E+00 -0.54827948031E+03  0.54827948034E+03  0.50400001928E-02 0.  1.
    10030    2    1    2    0    0  0.00000000000E+00  0.00000000000E+00  0.24881921439E+03  0.13453781751E+04  0.13221692148E+04 0.  0.
        5    1    3    3  502    0  0.40887139449E+02  0.61871248216E+03  0.35763565501E+03  0.71582277519E+03  0.46999998093E+01 0. -1.
       -5    1    3    3    0  502 -0.40887139449E+02 -0.61871248216E+03 -0.10881644062E+03  0.62955539986E+03  0.46999998093E+01 0.  1.
</event>
<event>
 5   0  0.3907270E-04  0.1397359E+04  0.7818609E-02  0.8955733E-01
        1   -1    0    0  501    0  0.00000000000E+00  0.00000000000E+00  0.70174522059E+03  0.70174522061E+03  0.50400001928E-02 0. -1.
       -1   -1    0    0    0  501  0.00000000000E+00  0.00000000000E+00 -0.69562685301E+03  0.69562685303E+03  0.50400001928E-02 0.  1.
    10030    2    1    2    0    0  0.00000000000E+00  0.00000000000E+00  0.61183675778E+01  0.13973720736E+04  0.13973586790E+04 0.  0.
        3    1    3    3  502    0 -0.65461790073E+03 -0.15230220894E+03  0.19393335412E+03  0.69952177582E+03  0.10100000352E+00 0.  1.
       -3    1    3    3    0  502  0.65461790073E+03  0.15230220894E+03 -0.18781498654E+03  0.69785029782E+03  0.10100000352E+00 0. -1.
</event>
<event>
 5   0  0.6895048E-04  0.1396150E+04  0.7818609E-02  0.8956610E-01
        2   -1    0    0  501    0  0.00000000000E+00  0.00000000000E+00  0.82746277910E+03  0.82746277910E+03  0.25500000920E-02 0.  1.
       -2   -1    0    0    0  501  0.00000000000E+00  0.00000000000E+00 -0.58891894041E+03  0.58891894041E+03  0.25500000920E-02 0. -1.
    10030    2    1    2    0    0  0.00000000000E+00  0.00000000000E+00  0.23854383869E+03  0.14163817195E+04  0.13961497099E+04 0.  0.
        4    1    3    3  502    0  0.14379539978E+03 -0.12148859069E+03  0.80122613606E+03  0.82304406241E+03  0.12699999809E+01 0.  1.
       -4    1    3    3    0  502 -0.14379539978E+03  0.12148859069E+03 -0.56268229737E+03  0.59333765710E+03  0.12699999809E+01 0. -1.
</event>
<event>
 5   0  0.3907270E-04  0.1413869E+04  0.7818609E-02  0.8943840E-01
        1   -1    0    0  501    0  0.00000000000E+00  0.00000000000E+00  0.10306702220E+04  0.10306702221E+04  0.50400001928E-02 0. -1.
       -1   -1    0    0    0  501  0.00000000000E+00  0.00000000000E+00 -0.48488491292E+03  0.48488491295E+03  0.50400001928E-02 0.  1.
    10030    2    1    2    0    0  0.00000000000E+00  0.00000000000E+00  0.54578530912E+03  0.15155551350E+04  0.14138690758E+04 0.  0.
        3    1    3    3  502    0  0.26439285831E+03  0.44518323173E+03  0.78882470917E+03  0.94357624246E+03  0.10100000352E+00 0. -1.
       -3    1    3    3    0  502 -0.26439285831E+03 -0.44518323173E+03 -0.24303940005E+03  0.57197889255E+03  0.10100000352E+00 0.  1.
</event>
<event>
 5   0  0.3907093E-04  0.1395317E+04  0.7818609E-02  0.8957216E-01
       -1   -1    0    0    0  501  0.00000000000E+00  0.00000000000E+00  0.28758138613E+03  0.28758138617E+03  0.50400001928E-02 0. -1.
        1   -1    0    0  501    0  0.00000000000E+00  0.00000000000E+00 -0.16924849419E+04  0.16924849419E+04  0.50400001928E-02 0.  1.
    10030    2    1    2    0    0  0.00000000000E+00  0.00000000000E+00 -0.14049035557E+04  0.19800663281E+04  0.13953166890E+04 0.  0.
        4    1    3    3  502    0  0.14607201078E+03  0.89975074307E+02 -0.16620826906E+04  0.16709138307E+04  0.12699999809E+01 0.  1.
       -4    1    3    3    0  502 -0.14607201078E+03 -0.89975074307E+02  0.25717913484E+03  0.30915249737E+03  0.12699999809E+01 0. -1.
</event>
<event>
 5   0  0.3907270E-04  0.1375744E+04  0.7818609E-02  0.8971566E-01
       -1   -1    0    0    0  501  0.00000000000E+00  0.00000000000E+00  0.26647909267E+03  0.26647909272E+03  0.50400001928E-02 0. -1.
        1   -1    0    0  501    0  0.00000000000E+00  0.00000000000E+00 -0.17756286845E+04  0.17756286845E+04  0.50400001928E-02 0.  1.
    10030    2    1    2    0    0  0.00000000000E+00  0.00000000000E+00 -0.15091495918E+04  0.20421077772E+04  0.13757440471E+04 0.  0.
        3    1    3    3  502    0  0.23100376486E+03 -0.46809096712E+03 -0.14195575688E+04  0.15124865600E+04  0.10100000352E+00 0.  1.
       -3    1    3    3    0  502 -0.23100376486E+03  0.46809096712E+03 -0.89592022981E+02  0.52962121716E+03  0.10100000352E+00 0. -1.
</event>
<event>
 5   0  0.6959748E-04  0.1399718E+04  0.7818609E-02  0.8954023E-01
       -2   -1    0    0    0  501  0.00000000000E+00  0.00000000000E+00  0.49888934866E+03  0.49888934867E+03  0.25500000920E-02 0.  1.
        2   -1    0    0  501    0  0.00000000000E+00  0.00000000000E+00 -0.98178632764E+03  0.98178632764E+03  0.25500000920E-02 0. -1.
    10030    2    1    2    0    0  0.00000000000E+00  0.00000000000E+00 -0.48289697898E+03  0.14806756763E+04  0.13997181738E+04 0.  0.
        5    1    3    3  502    0 -0.48353438730E+03 -0.49569147249E+03 -0.13427159098E+03  0.70538393074E+03  0.46999998093E+01 0. -1.
       -5    1    3    3    0  502  0.48353438730E+03  0.49569147249E+03 -0.34862538800E+03  0.77529174557E+03  0.46999998093E+01 0.  1.
</event>
<event>
 5   0  0.3907093E-04  0.1372689E+04  0.7818609E-02  0.8973828E-01
       -1   -1    0    0    0  501  0.00000000000E+00  0.00000000000E+00  0.60342743944E+03  0.60342743946E+03  0.50400001928E-02 0.  1.
        1   -1    0    0  501    0  0.00000000000E+00  0.00000000000E+00 -0.78065531191E+03  0.78065531193E+03  0.50400001928E-02 0. -1.
    10030    2    1    2    0    0  0.00000000000E+00  0.00000000000E+00 -0.17722787247E+03  0.13840827514E+04  0.13726890922E+04 0.  0.
        4    1    3    3  502    0 -0.17387399321E+03 -0.72517746237E+02  0.57684607290E+03  0.60683110809E+03  0.12699999809E+01 0.  1.
       -4    1    3    3    0  502  0.17387399321E+03  0.72517746237E+02 -0.75407394536E+03  0.77725164330E+03  0.12699999809E+01 0. -1.
</event>
<event>
 5   0  0.3977658E-04  0.1399890E+04  0.7818609E-02  0.8953898E-01
        1   -1    0    0  501    0  0.00000000000E+00  0.00000000000E+00  0.63828095040E+03  0.63828095042E+03  0.50400001928E-02 0. -1.
       -1   -1    0    0    0  501  0.00000000000E+00  0.00000000000E+00 -0.76756690482E+03  0.76756690484E+03  0.50400001928E-02 0.  1.
    10030    2    1    2    0    0  0.00000000000E+00  0.00000000000E+00 -0.12928595442E+03  0.14058478553E+04  0.13998904722E+04 0.  0.
        5    1    3    3  502    0  0.10774385999E+03 -0.28346895250E+03 -0.69815067075E+03  0.76118318128E+03  0.46999998093E+01 0.  1.
       -5    1    3    3    0  502 -0.10774385999E+03  0.28346895250E+03  0.56886471633E+03  0.64466467398E+03  0.46999998093E+01 0. -1.
</event>
<event>
 5   0  0.6959748E-04  0.1399516E+04  0.7818609E-02  0.8954169E-01
        2   -1    0    0  501    0  0.00000000000E+00  0.00000000000E+00  0.54102176042E+03  0.54102176042E+03  0.25500000920E-02 0.  1.
       -2   -1    0    0    0  501  0.00000000000E+00  0.00000000000E+00 -0.90506780719E+03  0.90506780720E+03  0.25500000920E-02 0. -1.
    10030    2    1    2    0    0  0.00000000000E+00  0.00000000000E+00 -0.36404604678E+03  0.14460895676E+04  0.13995161712E+04 0.  0.
        5    1    3    3  502    0 -0.32373564587E+03  0.38540298754E+02 -0.82177926698E+03  0.88410032047E+03  0.46999998093E+01 0. -1.
       -5    1    3    3    0  502  0.32373564587E+03 -0.38540298754E+02  0.45773322020E+03  0.56198924714E+03  0.46999998093E+01 0.  1.
</event>
<event>
 5   0  0.3977658E-04  0.1391162E+04  0.7818609E-02  0.8960241E-01
       -1   -1    0    0    0  501  0.00000000000E+00  0.00000000000E+00  0.32292868693E+03  0.32292868697E+03  0.50400001928E-02 0. -1.
        1   -1    0    0  501    0  0.00000000000E+00  0.00000000000E+00 -0.14982665356E+04  0.14982665356E+04  0.50400001928E-02 0.  1.
    10030    2    1    2    0    0  0.00000000000E+00  0.00000000000E+00 -0.11753378486E+04  0.18211952225E+04  0.13911624564E+04 0.  0.
        5    1    3    3  502    0 -0.24318261617E+03  0.26491129382E+03 -0.13671111709E+04  0.14136232957E+04  0.46999998093E+01 0.  1.
       -5    1    3    3    0  502  0.24318261617E+03 -0.26491129382E+03  0.19177332231E+03  0.40757192684E+03  0.46999998093E+01 0. -1.
</event>
<event>
 5   0  0.6895048E-04  0.1415814E+04  0.7818609E-02  0.8942451E-01
        2   -1    0    0  501    0  0.00000000000E+00  0.00000000000E+00  0.10170911874E+04  0.10170911874E+04  0.25500000920E-02 0.  1.
       -2   -1    0    0    0  501  0.00000000000E+00  0.00000000000E+00 -0.49271100768E+03  0.49271100769E+03  0.25500000920E-02 0. -1.
    10030    2    1    2    0    0  0.00000000000E+00  0.00000000000E+00  0.52438017975E+03  0.15098021951E+04  0.14158135808E+04 0.  0.
        4    1    3    3  502    0  0.17843300388E+03  0.13210337991E+03 -0.45462425315E+03  0.50593919033E+03  0.12699999809E+01 0. -1.
       -4    1    3    3    0  502 -0.17843300388E+03 -0.13210337991E+03  0.97900443290E+03  0.10038630048E+04  0.12699999809E+01 0.  1.
</event>
<event>
 5   0  0.3756664E-04  0.1394512E+04  0.7818609E-02  0.8957800E-01
        1   -1    0    0  501    0  0.00000000000E+00  0.00000000000E+00  0.71642943604E+03  0.71642943605E+03  0.50400001928E-02 0. -1.
       -1   -1    0    0    0  501  0.00000000000E+00  0.00000000000E+00 -0.67859601774E+03  0.67859601776E+03  0.50400001928E-02 0.  1.
    10030    2    1    2    0    0  0.00000000000E+00  0.00000000000E+00  0.37833418299E+02  0.13950254538E+04  0.13945123338E+04 0.  0.
        2    1    3    3  502    0  0.56291064438E+03  0.36510254169E+02  0.42890256294E+03  0.70863163965E+03  0.25500000920E-02 0. -1.
       -2    1    3    3    0  502 -0.56291064438E+03 -0.36510254169E+02 -0.39106914464E+03  0.68639381416E+03  0.25500000920E-02 0.  1.
</event>
<event>
 5   0  0.3756664E-04  0.1396603E+04  0.7818609E-02  0.8956281E-01
        1   -1    0    0  501    0  0.00000000000E+00  0.00000000000E+00  0.66042030796E+03  0.66042030798E+03  0.50400001928E-02 0. -1.
       -1   -1    0    0    0  501  0.00000000000E+00  0.00000000000E+00 -0.73835535408E+03  0.73835535409E+03  0.50400001928E-02 0.  1.
    10030    2    1    2    0    0  0.00000000000E+00  0.00000000000E+00 -0.77935046114E+02  0.13987756621E+04  0.13966028360E+04 0.  0.
        2    1    3    3  502    0  0.90080499826E+02 -0.31673405702E+03 -0.65570953680E+03  0.73375060885E+03  0.25500000920E-02 0.  1.
       -2    1    3    3    0  502 -0.90080499826E+02  0.31673405702E+03  0.57777449069E+03  0.66502505323E+03  0.25500000920E-02 0. -1.
</event>
<event>
 5   0  0.3784219E-04  0.1395677E+04  0.7818609E-02  0.8956954E-01
        1   -1    0    0  501    0  0.00000000000E+00  0.00000000000E+00  0.53609550816E+03  0.53609550818E+03  0.50400001928E-02 0.  1.
       -1   -1    0    0    0  501  0.00000000000E+00  0.00000000000E+00 -0.90837964963E+03  0.90837964965E+03  0.50400001928E-02 0. -1.
    10030    2    1    2    0    0  0.00000000000E+00  0.00000000000E+00 -0.37228414148E+03  0.14444751578E+04  0.13956765383E+04 0.  0.
        1    1    3    3  502    0 -0.15713977641E+03 -0.59293590506E+03  0.15822636657E+03  0.63348360669E+03  0.50400001928E-02 0.  1.
       -1    1    3    3    0  502  0.15713977641E+03  0.59293590506E+03 -0.53051050805E+03  0.81099155114E+03  0.50400001928E-02 0. -1.
</event>
<event>
 5   0  0.7296966E-04  0.1397747E+04  0.7818609E-02  0.8955451E-01
       -2   -1    0    0    0  501  0.00000000000E+00  0.00000000000E+00  0.19061986851E+03  0.19061986852E+03  0.25500000920E-02 0. -1.
        2   -1    0    0  501    0  0.00000000000E+00  0.00000000000E+00 -0.25622935277E+04  0.25622935277E+04  0.25500000920E-02 0.  1.
    10030    2    1    2    0    0  0.00000000000E+00  0.00000000000E+00 -0.23716736592E+04  0.27529133962E+04  0.13977468374E+04 0.  0.
        3    1    3    3  502    0 -0.19827225192E+03  0.49496793059E+03 -0.29600968923E+03  0.60985808555E+03  0.10100000352E+00 0. -1.
       -3    1    3    3    0  502  0.19827225192E+03 -0.49496793059E+03 -0.20756639700E+04  0.21430553107E+04  0.10100000352E+00 0.  1.
</event>
<event>
 5   0  0.3756664E-04  0.1405299E+04  0.7818609E-02  0.8949991E-01
        1   -1    0    0  501    0  0.00000000000E+00  0.00000000000E+00  0.79791883434E+03  0.79791883435E+03  0.50400001928E-02 0.  1.
       -1   -1    0    0    0  501  0.00000000000E+00  0.00000000000E+00 -0.61875541551E+03  0.61875541553E+03  0.50400001928E-02 0. -1.
    10030    2    1    2    0    0  0.00000000000E+00  0.00000000000E+00  0.17916341883E+03  0.14166742499E+04  0.14052993986E+04 0.  0.
        2    1    3    3  502    0 -0.14195012420E+03  0.67146529904E+03  0.24147015149E+03  0.72754609452E+03  0.25500000920E-02 0.  1.
       -2    1    3    3    0  502  0.14195012420E+03 -0.67146529904E+03 -0.62306732661E+02  0.68912815537E+03  0.25500000920E-02 0. -1.
</event>
<event>
 5   0  0.2660250E-04  0.1397104E+04  0.7818609E-02  0.8955918E-01
        3   -1    0    0  501    0  0.00000000000E+00  0.00000000000E+00  0.35709723932E+03  0.35709725361E+03  0.10100000352E+00 0.  1.
       -3   -1    0    0    0  501  0.00000000000E+00  0.00000000000E+00 -0.13665036212E+04  0.13665036249E+04  0.10100000352E+00 0. -1.
    10030    2    1    2    0    0  0.00000000000E+00  0.00000000000E+00 -0.10094063819E+04  0.17236008785E+04  0.13971036986E+04 0.  0.
        5    1    3    3  502    0  0.30271834775E+03 -0.41612450466E+03 -0.10874917013E+04  0.12031036081E+04  0.46999998093E+01 0. -1.
       -5    1    3    3    0  502 -0.30271834775E+03  0.41612450466E+03  0.78085319398E+02  0.52049727045E+03  0.46999998093E+01 0.  1.
</event>
<event>
 5   0  0.3756664E-04  0.1397277E+04  0.7818609E-02  0.8955792E-01
       -1   -1    0    0    0  501  0.00000000000E+00  0.00000000000E+00  0.53316065983E+03  0.53316065985E+03  0.50400001928E-02 0.  1.
        1   -1    0    0  501    0  0.00000000000E+00  0.00000000000E+00 -0.91547531081E+03  0.91547531083E+03  0.50400001928E-02 0. -1.
    10030    2    1    2    0    0  0.00000000000E+00  0.00000000000E+00 -0.38231465099E+03  0.14486359707E+04  0.13972765235E+04 0.  0.
        2    1    3    3  502    0 -0.28960507058E+03 -0.61026698243E+03 -0.62813613157E+01  0.67552671469E+03  0.25500000920E-02 0. -1.
       -2    1    3    3    0  502  0.28960507058E+03  0.61026698243E+03 -0.37603328967E+03  0.77310925599E+03  0.25500000920E-02 0.  1.
</event>
<event>
 5   0  0.6959748E-04  0.1405492E+04  0.7818609E-02  0.8949853E-01
       -2   -1    0    0    0  501  0.00000000000E+00  0.00000000000E+00  0.68959816800E+03  0.68959816800E+03  0.25500000920E-02 0. -1.
        2   -1    0    0  501    0  0.00000000000E+00  0.00000000000E+00 -0.71614427873E+03  0.71614427873E+03  0.25500000920E-02 0.  1.
    10030    2    1    2    0    0  0.00000000000E+00  0.00000000000E+00 -0.26546110731E+02  0.14057424467E+04  0.14054917753E+04 0.  0.
        5    1    3    3  502    0 -0.59486535347E+03  0.37148064458E+03  0.31086118407E+02  0.70203354251E+03  0.46999998093E+01 0. -1.
       -5    1    3    3    0  502  0.59486535347E+03 -0.37148064458E+03 -0.57632229138E+02  0.70370890423E+03  0.46999998093E+01 0.  1.
</event>
<event>
 5   0  0.6895048E-04  0.1398162E+04  0.7818609E-02  0.8955150E-01
       -2   -1    0    0    0  501  0.00000000000E+00  0.00000000000E+00  0.31497760271E+03  0.31497760272E+03  0.25500000920E-02 0. -1.
        2   -1    0    0  501    0  0.00000000000E+00  0.00000000000E+00 -0.15515838956E+04  0.15515838956E+04  0.25500000920E-02 0.  1.
    10030    2    1    2    0    0  0.00000000000E+00  0.00000000000E+00 -0.12366062929E+04  0.18665614983E+04  0.13981619017E+04 0.  0.
        4    1    3    3  502    0  0.34309257088E+03  0.48752577335E+03 -0.13085286284E+03  0.61034250752E+03  0.12699999809E+01 0. -1.
       -4    1    3    3    0  502 -0.34309257088E+03 -0.48752577335E+03 -0.11057534301E+04  0.12562189908E+04  0.12699999809E+01 0.  1.
</event>
<event>
 5   0  0.3756664E-04  0.1390543E+04  0.7818609E-02  0.8960693E-01
       -1   -1    0    0    0  501  0.00000000000E+00  0.00000000000E+00  0.22556454767E+03  0.22556454773E+03  0.50400001928E-02 0. -1.
        1   -1    0    0  501    0  0.00000000000E+00  0.00000000000E+00 -0.21430781806E+04  0.21430781806E+04  0.50400001928E-02 0.  1.
    10030    2    1    2    0    0  0.00000000000E+00  0.00000000000E+00 -0.19175136329E+04  0.23686427283E+04  0.13905430026E+04 0.  0.
        2    1    3    3  502    0 -0.56125801637E+03 -0.14516625094E+03 -0.16125554582E+04  0.17135982339E+04  0.25500000920E-02 0.  1.
       -2    1    3    3    0  502  0.56125801637E+03  0.14516625094E+03 -0.30495817468E+03  0.65504449441E+03  0.25500000920E-02 0. -1.
</event>
<event>
 5   0  0.3784219E-04  0.1370906E+04  0.7818609E-02  0.8975152E-01
       -1   -1    0    0    0  501  0.00000000000E+00  0.00000000000E+00  0.47095519292E+03  0.47095519295E+03  0.50400001928E-02 0.  1.
        1   -1    0    0  501    0  0.00000000000E+00  0.00000000000E+00 -0.99764402164E+03  0.99764402165E+03  0.50400001928E-02 0. -1.
    10030    2    1    2    0    0  0.00000000000E+00  0.00000000000E+00 -0.52668882871E+03  0.14685992146E+04  0.13709057338E+04 0.  0.
        1    1    3    3  502    0 -0.28788982905E+03 -0.61398209258E+03 -0.15626606253E+03  0.69589772669E+03  0.50400001928E-02 0. -1.
       -1    1    3    3    0  502  0.28788982905E+03  0.61398209258E+03 -0.37042276618E+03  0.77270148791E+03  0.50400001928E-02 0.  1.
</event>
<event>
 5   0  0.3907270E-04  0.1398954E+04  0.7818609E-02  0.8954576E-01
        1   -1    0    0  501    0  0.00000000000E+00  0.00000000000E+00  0.26006299427E+04  0.26006299428E+04  0.50400001928E-02 0.  1.
       -1   -1    0    0    0  501  0.00000000000E+00  0.00000000000E+00 -0.18813448402E+03  0.18813448408E+03  0.50400001928E-02 0. -1.
    10030    2    1    2    0    0  0.00000000000E+00  0.00000000000E+00  0.24124954587E+04  0.27887644268E+04  0.13989541415E+04 0.  0.
        3    1    3    3  502    0 -0.47777639499E+03 -0.49200033005E+03  0.14805468543E+04  0.16316720278E+04  0.10100000352E+00 0.  1.
       -3    1    3    3    0  502  0.47777639499E+03  0.49200033005E+03  0.93194860446E+03  0.11570923990E+04  0.10100000352E+00 0. -1.
</event>
<event>
 5   0  0.6870835E-04  0.1402704E+04  0.7818609E-02  0.8951864E-01
        2   -1    0    0  501    0  0.00000000000E+00  0.00000000000E+00  0.10968103519E+04  0.10968103519E+04  0.25500000920E-02 0. -1.
       -2   -1    0    0    0  501  0.00000000000E+00  0.00000000000E+00 -0.44847732504E+03  0.44847732505E+03  0.25500000920E-02 0.  1.
    10030    2    1    2    0    0  0.00000000000E+00  0.00000000000E+00  0.64833302681E+03  0.15452876769E+04  0.14027039213E+04 0.  0.
        2    1    3    3  502    0  0.60080982772E+03 -0.35462300837E+03  0.24499597658E+03  0.73942745127E+03  0.25500000920E-02 0. -1.
       -2    1    3    3    0  502 -0.60080982772E+03  0.35462300837E+03  0.40333705024E+03  0.80586022563E+03  0.25500000920E-02 0.  1.
</event>
<event>
 5   0  0.3784219E-04  0.1472387E+04  0.7818609E-02  0.8903026E-01
       -1   -1    0    0    0  501  0.00000000000E+00  0.00000000000E+00  0.87837915157E+03  0.87837915159E+03  0.50400001928E-02 0.  1.
        1   -1    0    0  501    0  0.00000000000E+00  0.00000000000E+00 -0.61702410057E+03  0.61702410059E+03  0.50400001928E-02 0. -1.
    10030    2    1    2    0    0  0.00000000000E+00  0.00000000000E+00  0.26135505101E+03  0.14954032522E+04  0.14723873213E+04 0.  0.
        1    1    3    3  502    0  0.71850319103E+02  0.22084375834E+03  0.84020126293E+03  0.87170671456E+03  0.50400001928E-02 0.  1.
       -1    1    3    3    0  502 -0.71850319103E+02 -0.22084375834E+03 -0.57884621192E+03  0.62369653762E+03  0.50400001928E-02 0. -1.
</event>
<event>
 5   0  0.6959748E-04  0.1396873E+04  0.7818609E-02  0.8956085E-01
       -2   -1    0    0    0  501  0.00000000000E+00  0.00000000000E+00  0.88009874594E+03  0.88009874594E+03  0.25500000920E-02 0.  1.
        2   -1    0    0  501    0  0.00000000000E+00  0.00000000000E+00 -0.55427145570E+03  0.55427145570E+03  0.25500000920E-02 0. -1.
    10030    2    1    2    0    0  0.00000000000E+00  0.00000000000E+00  0.32582729024E+03  0.14343702016E+04  0.13968730981E+04 0.  0.
        5    1    3    3  502    0 -0.40246884612E+03  0.37685471331E+03 -0.27730281253E+03  0.61718683304E+03  0.46999998093E+01 0. -1.
       -5    1    3    3    0  502  0.40246884612E+03 -0.37685471331E+03  0.60313010277E+03  0.81718336860E+03  0.46999998093E+01 0.  1.
</event>
<event>
 5   0  0.3784219E-04  0.1403280E+04  0.7818609E-02  0.8951448E-01
        1   -1    0    0  501    0  0.00000000000E+00  0.00000000000E+00  0.66177280658E+03  0.66177280660E+03  0.50400001928E-02 0.  1.
       -1   -1    0    0    0  501  0.00000000000E+00  0.00000000000E+00 -0.74390848105E+03  0.74390848107E+03  0.50400001928E-02 0. -1.
    10030    2    1    2    0    0  0.00000000000E+00  0.00000000000E+00 -0.82135674474E+02  0.14056812877E+04  0.14032795921E+04 0.  0.
        1    1    3    3  502    0 -0.49981266386E+03  0.20816804806E+03 -0.48809584873E+03  0.72896103652E+03  0.50400001928E-02 0. -1.
       -1    1    3    3    0  502  0.49981266386E+03 -0.20816804806E+03  0.40596017426E+03  0.67672025114E+03  0.50400001928E-02 0.  1.
</event>
<event>
 5   0  0.6870835E-04  0.1374964E+04  0.7818609E-02  0.8972143E-01
        2   -1    0    0  501    0  0.00000000000E+00  0.00000000000E+00  0.42411959857E+03  0.42411959858E+03  0.25500000920E-02 0. -1.
       -2   -1    0    0    0  501  0.00000000000E+00  0.00000000000E+00 -0.11143827014E+04  0.11143827014E+04  0.25500000920E-02 0.  1.
    10030    2    1    2    0    0  0.00000000000E+00  0.00000000000E+00 -0.69026310287E+03  0.15385023000E+04  0.13749640635E+04 0.  0.
        2    1    3    3  502    0  0.37562002461E+03 -0.11487047126E+03  0.28619847295E+03  0.48599917076E+03  0.25500000920E-02 0. -1.
       -2    1    3    3    0  502 -0.37562002461E+03  0.11487047126E+03 -0.97646157581E+03  0.10525031293E+04  0.25500000920E-02 0.  1.
</event>
<event>
 5   0  0.2660250E-04  0.1396435E+04  0.7818609E-02  0.8956403E-01
        3   -1    0    0  501    0  0.00000000000E+00  0.00000000000E+00  0.57589750196E+03  0.57589751082E+03  0.10100000352E+00 0. -1.
       -3   -1    0    0    0  501  0.00000000000E+00  0.00000000000E+00 -0.84651830523E+03  0.84651831125E+03  0.10100000352E+00 0.  1.
    10030    2    1    2    0    0  0.00000000000E+00  0.00000000000E+00 -0.27062080327E+03  0.14224158221E+04  0.13964351584E+04 0.  0.
        4    1    3    3  502    0  0.41839234211E+02  0.68965273043E+03 -0.23785496484E+03  0.73071746066E+03  0.12699999809E+01 0.  1.
       -4    1    3    3    0  502 -0.41839234211E+02 -0.68965273043E+03 -0.32765838429E+02  0.69169836141E+03  0.12699999809E+01 0. -1.
</event>
<event>
 5   0  0.6959748E-04  0.1405934E+04  0.7818609E-02  0.8949534E-01
       -2   -1    0    0    0  501  0.00000000000E+00  0.00000000000E+00  0.28564655591E+03  0.28564655592E+03  0.25500000920E-02 0.  1.
        2   -1    0    0  501    0  0.00000000000E+00  0.00000000000E+00 -0.17299794587E+04  0.17299794587E+04  0.25500000920E-02 0. -1.
    10030    2    1    2    0    0  0.00000000000E+00  0.00000000000E+00 -0.14443329028E+04  0.20156260146E+04  0.14059341011E+04 0.  0.
        5    1    3    3  502    0 -0.55296866357E+03  0.37313690579E+03 -0.10399569230E+04  0.12355314586E+04  0.46999998093E+01 0. -1.
       -5    1    3    3    0  502  0.55296866357E+03 -0.37313690579E+03 -0.40437597973E+03  0.78009455602E+03  0.46999998093E+01 0.  1.
</event>
<event>
 5   0  0.3784219E-04  0.1402213E+04  0.7818609E-02  0.8952218E-01
       -1   -1    0    0    0  501  0.00000000000E+00  0.00000000000E+00  0.49894413672E+03  0.49894413675E+03  0.50400001928E-02 0.  1.
        1   -1    0    0  501    0  0.00000000000E+00  0.00000000000E+00 -0.98518065384E+03  0.98518065385E+03  0.50400001928E-02 0. -1.
    10030    2    1    2    0    0  0.00000000000E+00  0.00000000000E+00 -0.48623651712E+03  0.14841247906E+04  0.14022126955E+04 0.  0.
        1    1    3    3  502    0 -0.98866345651E+02 -0.67066974581E+03 -0.53849127808E+02  0.68005307943E+03  0.50400001928E-02 0.  1.
       -1    1    3    3    0  502  0.98866345651E+02  0.67066974581E+03 -0.43238738931E+03  0.80407171117E+03  0.50400001928E-02 0. -1.
</event>
<event>
 5   0  0.3756664E-04  0.1392459E+04  0.7818609E-02  0.8959295E-01
        1   -1    0    0  501    0  0.00000000000E+00  0.00000000000E+00  0.11133591237E+04  0.11133591237E+04  0.50400001928E-02 0.  1.
       -1   -1    0    0    0  501  0.00000000000E+00  0.00000000000E+00 -0.43538124991E+03  0.43538124994E+03  0.50400001928E-02 0. -1.
    10030    2    1    2    0    0  0.00000000000E+00  0.00000000000E+00  0.67797787381E+03  0.15487403737E+04  0.13924592445E+04 0.  0.
        2    1    3    3  502    0  0.36477167709E+03  0.26972809208E+03 -0.24841806850E+03  0.51722640770E+03  0.25500000920E-02 0. -1.
       -2    1    3    3    0  502 -0.36477167709E+03 -0.26972809208E+03  0.92639594231E+03  0.10315139660E+04  0.25500000920E-02 0.  1.
</event>
<event>
 5   0  0.7296966E-04  0.1402737E+04  0.7818609E-02  0.8951840E-01
        2   -1    0    0  501    0  0.00000000000E+00  0.00000000000E+00  0.52282804115E+03  0.52282804116E+03  0.25500000920E-02 0. -1.
       -2   -1    0    0    0  501  0.00000000000E+00  0.00000000000E+00 -0.94087817517E+03  0.94087817517E+03  0.25500000920E-02 0.  1.
    10030    2    1    2    0    0  0.00000000000E+00  0.00000000000E+00 -0.41805013402E+03  0.14637062163E+04  0.14027366015E+04 0.  0.
        3    1    3    3  502    0  0.64996775344E+03 -0.48354006070E+02 -0.47936359461E+03  0.80906468001E+03  0.10100000352E+00 0.  1.
       -3    1    3    3    0  502 -0.64996775344E+03  0.48354006070E+02  0.61313460589E+02  0.65464153631E+03  0.10100000352E+00 0. -1.
</event>
<event>
 5   0  0.3907270E-04  0.1395976E+04  0.7818609E-02  0.8956737E-01
       -1   -1    0    0    0  501  0.00000000000E+00  0.00000000000E+00  0.28662247080E+03  0.28662247084E+03  0.50400001928E-02 0. -1.
        1   -1    0    0  501    0  0.00000000000E+00  0.00000000000E+00 -0.16997515218E+04  0.16997515218E+04  0.50400001928E-02 0.  1.
    10030    2    1    2    0    0  0.00000000000E+00  0.00000000000E+00 -0.14131290510E+04  0.19863739926E+04  0.13959756172E+04 0.  0.
        3    1    3    3  502    0 -0.41548519451E+03  0.23474716697E+02  0.90793771114E+02  0.42593723511E+03  0.10100000352E+00 0. -1.
       -3    1    3    3    0  502  0.41548519451E+03 -0.23474716697E+02 -0.15039228221E+04  0.15604367575E+04  0.10100000352E+00 0.  1.
</event>
<event>
 5   0  0.7065539E-04  0.1446123E+04  0.7818609E-02  0.8921093E-01
       -2   -1    0    0    0  501  0.00000000000E+00  0.00000000000E+00  0.57622278195E+03  0.57622278195E+03  0.25500000920E-02 0. -1.
        2   -1    0    0  501    0  0.00000000000E+00  0.00000000000E+00 -0.90731849501E+03  0.90731849502E+03  0.25500000920E-02 0.  1.
    10030    2    1    2    0    0  0.00000000000E+00  0.00000000000E+00 -0.33109571307E+03  0.14835412770E+04  0.14461225222E+04 0.  0.
        1    1    3    3  502    0 -0.88054851386E+02 -0.62506187216E+03  0.19622640948E+03  0.66103010876E+03  0.50400001928E-02 0. -1.
       -1    1    3    3    0  502  0.88054851386E+02  0.62506187216E+03 -0.52732212255E+03  0.82251116821E+03  0.50400001928E-02 0.  1.
</event>
<event>
 5   0  0.3784219E-04  0.1393338E+04  0.7818609E-02  0.8958655E-01
       -1   -1    0    0    0  501  0.00000000000E+00  0.00000000000E+00  0.70056927125E+03  0.70056927127E+03  0.50400001928E-02 0.  1.
        1   -1    0    0  501    0  0.00000000000E+00  0.00000000000E+00 -0.69279063381E+03  0.69279063383E+03  0.50400001928E-02 0. -1.
    10030    2    1    2    0    0  0.00000000000E+00  0.00000000000E+00  0.77786374370E+01  0.13933599051E+04  0.13933381922E+04 0.  0.
        1    1    3    3  502    0  0.45832666295E+03 -0.52449358153E+03  0.17709172965E+02  0.69675710393E+03  0.50400001928E-02 0. -1.
       -1    1    3    3    0  502 -0.45832666295E+03  0.52449358153E+03 -0.99305355279E+01  0.69660280117E+03  0.50400001928E-02 0.  1.
</event>
<event>
 5   0  0.6870835E-04  0.1365563E+04  0.7818609E-02  0.8979130E-01
        2   -1    0    0  501    0  0.00000000000E+00  0.00000000000E+00  0.12142897701E+04  0.12142897701E+04  0.25500000920E-02 0. -1.
       -2   -1    0    0    0  501  0.00000000000E+00  0.00000000000E+00 -0.38392051706E+03  0.38392051707E+03  0.25500000920E-02 0.  1.
    10030    2    1    2    0    0  0.00000000000E+00  0.00000000000E+00  0.83036925300E+03  0.15982102871E+04  0.13655632631E+04 0.  0.
        2    1    3    3  502    0  0.61515240770E+03  0.21728184077E+03  0.17945842111E+03  0.67663077667E+03  0.25500000920E-02 0.  1.
       -2    1    3    3    0  502 -0.61515240770E+03 -0.21728184077E+03  0.65091083188E+03  0.92157951046E+03  0.25500000920E-02 0. -1.
</event>
<event>
 5   0  0.3907270E-04  0.1397703E+04  0.7818609E-02  0.8955483E-01
        1   -1    0    0  501    0  0.00000000000E+00  0.00000000000E+00  0.16001620015E+04  0.16001620015E+04  0.50400001928E-02 0. -1.
       -1   -1    0    0    0  501  0.00000000000E+00  0.00000000000E+00 -0.30521481864E+03  0.30521481868E+03  0.50400001928E-02 0.  1.
    10030    2    1    2    0    0  0.00000000000E+00  0.00000000000E+00  0.12949471829E+04  0.19053768202E+04  0.13977026223E+04 0.  0.
        3    1    3    3  502    0  0.42814842799E+03 -0.87659666977E+02 -0.95947726901E+02  0.44743856573E+03  0.10100000352E+00 0.  1.
       -3    1    3    3    0  502 -0.42814842799E+03  0.87659666977E+02  0.13908949098E+04  0.14579382544E+04  0.10100000352E+00 0. -1.
</event>
<event>
 5   0  0.6895048E-04  0.1393561E+04  0.7818609E-02  0.8958493E-01
        2   -1    0    0  501    0  0.00000000000E+00  0.00000000000E+00  0.13714806429E+04  0.13714806429E+04  0.25500000920E-02 0.  1.
       -2   -1    0    0    0  501  0.00000000000E+00  0.00000000000E+00 -0.35399928147E+03  0.35399928148E+03  0.25500000920E-02 0. -1.
    10030    2    1    2    0    0  0.00000000000E+00  0.00000000000E+00  0.10174813614E+04  0.17254799243E+04  0.13935611391E+04 0.  0.
        4    1    3    3  502    0 -0.51851812157E+03 -0.14965942709E+03 -0.36961995031E+02  0.54094989462E+03  0.12699999809E+01 0. -1.
       -4    1    3    3    0  502  0.51851812157E+03  0.14965942709E+03  0.10544433564E+04  0.11845300297E+04  0.12699999809E+01 0.  1.
</event>
<event>
 5   0  0.7065539E-04  0.1418860E+04  0.7818609E-02  0.8940279E-01
        2   -1    0    0  501    0  0.00000000000E+00  0.00000000000E+00  0.10598259369E+04  0.10598259369E+04  0.25500000920E-02 0.  1.
       -2   -1    0    0    0  501  0.00000000000E+00  0.00000000000E+00 -0.47488088219E+03  0.47488088220E+03  0.25500000920E-02 0. -1.
    10030    2    1    2    0    0  0.00000000000E+00  0.00000000000E+00  0.58494505470E+03  0.15347068191E+04  0.14188602128E+04 0.  0.
        1    1    3    3  502    0 -0.64379749287E+03 -0.14777099071E+03  0.12537604430E+02  0.66065775487E+03  0.50400001928E-02 0. -1.
       -1    1    3    3    0  502  0.64379749287E+03  0.14777099071E+03  0.57240745027E+03  0.87404906422E+03  0.50400001928E-02 0.  1.
</event>
<event>
 5   0  0.3907270E-04  0.1390197E+04  0.7818609E-02  0.8960945E-01
        1   -1    0    0  501    0  0.00000000000E+00  0.00000000000E+00  0.51474938403E+03  0.51474938405E+03  0.50400001928E-02 0. -1.
       -1   -1    0    0    0  501  0.00000000000E+00  0.00000000000E+00 -0.93863477496E+03  0.93863477497E+03  0.50400001928E-02 0.  1.
    10030    2    1    2    0    0  0.00000000000E+00  0.00000000000E+00 -0.42388539093E+03  0.14533841590E+04  0.13901966368E+04 0.  0.
        3    1    3    3  502    0 -0.64677371868E+03 -0.25241232617E+03 -0.24713946318E+03  0.73695735972E+03  0.10100000352E+00 0.  1.
       -3    1    3    3    0  502  0.64677371868E+03  0.25241232617E+03 -0.17674592775E+03  0.71642679930E+03  0.10100000352E+00 0. -1.
</event>
<event>
 5   0  0.3977658E-04  0.1403413E+04  0.7818609E-02  0.8951352E-01
        1   -1    0    0  501    0  0.00000000000E+00  0.00000000000E+00  0.38810238325E+03  0.38810238328E+03  0.50400001928E-02 0. -1.
       -1   -1    0    0    0  501  0.00000000000E+00  0.00000000000E+00 -0.12687167767E+04  0.12687167767E+04  0.50400001928E-02 0.  1.
    10030    2    1    2    0    0  0.00000000000E+00  0.00000000000E+00 -0.88061439346E+03  0.16568191600E+04  0.14034129895E+04 0.  0.
        5    1    3    3  502    0  0.86182639159E+02  0.43992715435E+03  0.19698600126E+03  0.48968247173E+03  0.46999998093E+01 0. -1.
       -5    1    3    3    0  502 -0.86182639159E+02 -0.43992715435E+03 -0.10776003947E+04  0.11671366883E+04  0.46999998093E+01 0.  1.
</event>
<event>
 5   0  0.3907270E-04  0.1394783E+04  0.7818609E-02  0.8957604E-01
        1   -1    0    0  501    0  0.00000000000E+00  0.00000000000E+00  0.41170873925E+03  0.41170873929E+03  0.50400001928E-02 0. -1.
       -1   -1    0    0    0  501  0.00000000000E+00  0.00000000000E+00 -0.11813077318E+04  0.11813077319E+04  0.50400001928E-02 0.  1.
    10030    2    1    2    0    0  0.00000000000E+00  0.00000000000E+00 -0.76959899259E+03  0.15930164711E+04  0.13947827314E+04 0.  0.
        3    1    3    3  502    0  0.63436286131E+03  0.21452318161E+03 -0.60720112866E+03  0.90395224216E+03  0.10100000352E+00 0.  1.
       -3    1    3    3    0  502 -0.63436286131E+03 -0.21452318161E+03 -0.16239786394E+03  0.68906422899E+03  0.10100000352E+00 0. -1.
</event>
<event>
 5   0  0.3977658E-04  0.1287284E+04  0.7818609E-02  0.9039710E-01
       -1   -1    0    0    0  501  0.00000000000E+00  0.00000000000E+00  0.49776523928E+03  0.49776523930E+03  0.50400001928E-02 0. -1.
        1   -1    0    0  501    0  0.00000000000E+00  0.00000000000E+00 -0.83227023407E+03  0.83227023409E+03  0.50400001928E-02 0.  1.
    10030    2    1    2    0    0  0.00000000000E+00  0.00000000000E+00 -0.33450499480E+03  0.13300354734E+04  0.12872842611E+04 0.  0.
        5    1    3    3  502    0 -0.43520079227E+03  0.32227825009E+03 -0.52664059224E+03  0.75540413255E+03  0.46999998093E+01 0.  1.
       -5    1    3    3    0  502  0.43520079227E+03 -0.32227825009E+03  0.19213559744E+03  0.57463134084E+03  0.46999998093E+01 0. -1.
</event>
<event>
 5   0  0.6870835E-04  0.1401777E+04  0.7818609E-02  0.8952534E-01
       -2   -1    0    0    0  501  0.00000000000E+00  0.00000000000E+00  0.35543266958E+03  0.35543266959E+03  0.25500000920E-02 0. -1.
        2   -1    0    0  501    0  0.00000000000E+00  0.00000000000E+00 -0.13821025095E+04  0.13821025095E+04  0.25500000920E-02 0.  1.
    10030    2    1    2    0    0  0.00000000000E+00  0.00000000000E+00 -0.10266698399E+04  0.17375351791E+04  0.14017765651E+04 0.  0.
        2    1    3    3  502    0 -0.24376578142E+03 -0.60462542835E+03 -0.83237857471E+03  0.10572831960E+04  0.25500000920E-02 0.  1.
       -2    1    3    3    0  502  0.24376578142E+03  0.60462542835E+03 -0.19429126519E+03  0.68025198312E+03  0.25500000920E-02 0. -1.
</event>
<event>
 5   0  0.3907270E-04  0.1413248E+04  0.7818609E-02  0.8944284E-01
        1   -1    0    0  501    0  0.00000000000E+00  0.00000000000E+00  0.49860735158E+03  0.49860735160E+03  0.50400001928E-02 0. -1.
       -1   -1    0    0    0  501  0.00000000000E+00  0.00000000000E+00 -0.10014249127E+04  0.10014249127E+04  0.50400001928E-02 0.  1.
    10030    2    1    2    0    0  0.00000000000E+00  0.00000000000E+00 -0.50281756111E+03  0.15000322643E+04  0.14132484899E+04 0.  0.
        3    1    3    3  502    0 -0.64275238290E+02  0.53440208513E+03 -0.73734431802E+03  0.91290390972E+03  0.10100000352E+00 0.  1.
       -3    1    3    3    0  502  0.64275238290E+02 -0.53440208513E+03  0.23452675691E+03  0.58712835459E+03  0.10100000352E+00 0. -1.
</event>
<event>
 5   0  0.7065539E-04  0.1396780E+04  0.7818609E-02  0.8956152E-01
        2   -1    0    0  501    0  0.00000000000E+00  0.00000000000E+00  0.10612656851E+04  0.10612656851E+04  0.25500000920E-02 0. -1.
       -2   -1    0    0    0  501  0.00000000000E+00  0.00000000000E+00 -0.45959168419E+03  0.45959168420E+03  0.25500000920E-02 0.  1.
    10030    2    1    2    0    0  0.00000000000E+00  0.00000000000E+00  0.60167400091E+03  0.15208573693E+04  0.13967804174E+04 0.  0.
        1    1    3    3  502    0  0.67493197328E+03  0.17594911826E+03  0.33945017874E+03  0.77570463750E+03  0.50400001928E-02 0. -1.
       -1    1    3    3    0  502 -0.67493197328E+03 -0.17594911826E+03  0.26222382217E+03  0.74515273180E+03  0.50400001928E-02 0.  1.
</event>
<event>
 5   0  0.6895048E-04  0.1408978E+04  0.7818609E-02  0.8947345E-01
        2   -1    0    0  501    0  0.00000000000E+00  0.00000000000E+00  0.97333434019E+03  0.97333434019E+03  0.25500000920E-02 0.  1.
       -2   -1    0    0    0  501  0.00000000000E+00  0.00000000000E+00 -0.50990150508E+03  0.50990150509E+03  0.25500000920E-02 0. -1.
    10030    2    1    2    0    0  0.00000000000E+00  0.00000000000E+00  0.46343283511E+03  0.14832358453E+04  0.14089778494E+04 0.  0.
        4    1    3    3  502    0 -0.56243934186E+03 -0.36641738379E+03  0.66659496655E+01  0.67130154193E+03  0.12699999809E+01 0. -1.
       -4    1    3    3    0  502  0.56243934186E+03  0.36641738379E+03  0.45676688544E+03  0.81193430335E+03  0.12699999809E+01 0.  1.
</event>
<event>
 5   0  0.3907270E-04  0.1400134E+04  0.7818609E-02  0.8953721E-01
        1   -1    0    0  501    0  0.00000000000E+00  0.00000000000E+00  0.10284164834E+04  0.10284164834E+04  0.50400001928E-02 0.  1.
       -1   -1    0    0    0  501  0.00000000000E+00  0.00000000000E+00 -0.47655196477E+03  0.47655196479E+03  0.50400001928E-02 0. -1.
    10030    2    1    2    0    0  0.00000000000E+00  0.00000000000E+00  0.55186451861E+03  0.15049684482E+04  0.14001341304E+04 0.  0.
        3    1    3    3  502    0  0.68667301817E+03 -0.67632621763E+02  0.40311257886E+03  0.79912062096E+03  0.10100000352E+00 0.  1.
       -3    1    3    3    0  502 -0.68667301817E+03  0.67632621763E+02  0.14875193975E+03  0.70584782722E+03  0.10100000352E+00 0. -1.
</event>
<event>
 5   0  0.7296966E-04  0.1419277E+04  0.7818609E-02  0.8939982E-01
       -2   -1    0    0    0  501  0.00000000000E+00  0.00000000000E+00  0.45343044068E+03  0.45343044069E+03  0.25500000920E-02 0. -1.
        2   -1    0    0  501    0  0.00000000000E+00  0.00000000000E+00 -0.11106157075E+04  0.11106157075E+04  0.25500000920E-02 0.  1.
    10030    2    1    2    0    0  0.00000000000E+00  0.00000000000E+00 -0.65718526678E+03  0.15640461482E+04  0.14192772381E+04 0.  0.
        3    1    3    3  502    0  0.47937760761E+01  0.17773590727E+03  0.42848659169E+03  0.46391141663E+03  0.10100000352E+00 0. -1.
       -3    1    3    3    0  502 -0.47937760761E+01 -0.17773590727E+03 -0.10856718585E+04  0.11001347315E+04  0.10100000352E+00 0.  1.
</event>
<event>
 5   0  0.7065539E-04  0.1412267E+04  0.7818609E-02  0.8944986E-01
        2   -1    0    0  501    0  0.00000000000E+00  0.00000000000E+00  0.49256399584E+03  0.49256399584E+03  0.25500000920E-02 0.  1.
       -2   -1    0    0    0  501  0.00000000000E+00  0.00000000000E+00 -0.10123046552E+04  0.10123046552E+04  0.25500000920E-02 0. -1.
    10030    2    1    2    0    0  0.00000000000E+00  0.00000000000E+00 -0.51974065932E+03  0.15048686510E+04  0.14122674335E+04 0.  0.
        1    1    3    3  502    0 -0.51840548233E+03 -0.40131224673E+02 -0.76897388910E+03  0.92826483368E+03  0.50400001928E-02 0. -1.
       -1    1    3    3    0  502  0.51840548233E+03  0.40131224673E+02  0.24923322978E+03  0.57660381733E+03  0.50400001928E-02 0.  1.
</event>
<event>
 5   0  0.3756664E-04  0.1417513E+04  0.7818609E-02  0.8941239E-01
        1   -1    0    0  501    0  0.00000000000E+00  0.00000000000E+00  0.20028958480E+04  0.20028958480E+04  0.50400001928E-02 0. -1.
       -1   -1    0    0    0  501  0.00000000000E+00  0.00000000000E+00 -0.25080469718E+03  0.25080469723E+03  0.50400001928E-02 0.  1.
    10030    2    1    2    0    0  0.00000000000E+00  0.00000000000E+00  0.17520911509E+04  0.22537005453E+04  0.14175128736E+04 0.  0.
        2    1    3    3  502    0 -0.84634961875E+02  0.69415807951E+03  0.69257130077E+03  0.98421213302E+03  0.25500000920E-02 0.  1.
       -2    1    3    3    0  502  0.84634961875E+02 -0.69415807951E+03  0.10595198501E+04  0.12694884123E+04  0.25500000920E-02 0. -1.
</event>
<event>
 5   0  0.3977658E-04  0.1401954E+04  0.7818609E-02  0.8952405E-01
        1   -1    0    0  501    0  0.00000000000E+00  0.00000000000E+00  0.75732732074E+03  0.75732732076E+03  0.50400001928E-02 0.  1.
       -1   -1    0    0    0  501  0.00000000000E+00  0.00000000000E+00 -0.64881975240E+03  0.64881975242E+03  0.50400001928E-02 0. -1.
    10030    2    1    2    0    0  0.00000000000E+00  0.00000000000E+00  0.10850756834E+03  0.14061470732E+04  0.14019542428E+04 0.  0.
        5    1    3    3  502    0  0.59436132427E+03 -0.16393610106E+03 -0.28021978925E+03  0.67726335299E+03  0.46999998093E+01 0. -1.
       -5    1    3    3    0  502 -0.59436132427E+03  0.16393610106E+03  0.38872735759E+03  0.72888372019E+03  0.46999998093E+01 0.  1.
</event>
<event>
 5   0  0.3784219E-04  0.1239227E+04  0.7818609E-02  0.9079198E-01
       -1   -1    0    0    0  501  0.00000000000E+00  0.00000000000E+00  0.11295718440E+04  0.11295718440E+04  0.50400001928E-02 0.  1.
        1   -1    0    0  501    0  0.00000000000E+00  0.00000000000E+00 -0.33988166264E+03  0.33988166268E+03  0.50400001928E-02 0. -1.
    10030    2    1    2    0    0  0.00000000000E+00  0.00000000000E+00  0.78969018134E+03  0.14694535067E+04  0.12392267854E+04 0.  0.
        1    1    3    3  502    0 -0.49490100517E+03  0.37281854922E+03  0.39518225238E+03  0.73490794538E+03  0.50400001928E-02 0.  1.
       -1    1    3    3    0  502  0.49490100517E+03 -0.37281854922E+03  0.39450792897E+03  0.73454556129E+03  0.50400001928E-02 0. -1.
</event>
<event>
 5   0  0.6959748E-04  0.1407936E+04  0.7818609E-02  0.8948094E-01
        2   -1    0    0  501    0  0.00000000000E+00  0.00000000000E+00  0.77871175275E+03  0.77871175276E+03  0.25500000920E-02 0.  1.
       -2   -1    0    0    0  501  0.00000000000E+00  0.00000000000E+00 -0.63639806830E+03  0.63639806830E+03  0.25500000920E-02 0. -1.
    10030    2    1    2    0    0  0.00000000000E+00  0.00000000000E+00  0.14231368446E+03  0.14151098211E+04  0.14079355883E+04 0.  0.
        5    1    3    3  502    0  0.39410394875E+03 -0.27535171026E+03 -0.44567350108E+03  0.65557871101E+03  0.46999998093E+01 0. -1.
       -5    1    3    3    0  502 -0.39410394875E+03  0.27535171026E+03  0.58798718554E+03  0.75953111004E+03  0.46999998093E+01 0.  1.
</event>
<event>
 5   0  0.7296966E-04  0.1377831E+04  0.7818609E-02  0.8970024E-01
       -2   -1    0    0    0  501  0.00000000000E+00  0.00000000000E+00  0.45389326713E+03  0.45389326714E+03  0.25500000920E-02 0. -1.
        2   -1    0    0  501    0  0.00000000000E+00  0.00000000000E+00 -0.10456296420E+04  0.10456296420E+04  0.25500000920E-02 0.  1.
    10030    2    1    2    0    0  0.00000000000E+00  0.00000000000E+00 -0.59173637489E+03  0.14995229092E+04  0.13778305475E+04 0.  0.
        3    1    3    3  502    0 -0.36078640879E+03 -0.48952646526E+03  0.56454435059E+02  0.61072915961E+03  0.10100000352E+00 0. -1.
       -3    1    3    3    0  502  0.36078640879E+03  0.48952646526E+03 -0.64819080995E+03  0.88879374956E+03  0.10100000352E+00 0.  1.
</event>
<event>
 5   0  0.6895048E-04  0.1403697E+04  0.7818609E-02  0.8951147E-01
       -2   -1    0    0    0  501  0.00000000000E+00  0.00000000000E+00  0.21865418483E+03  0.21865418485E+03  0.25500000920E-02 0.  1.
        2   -1    0    0  501    0  0.00000000000E+00  0.00000000000E+00 -0.22528318032E+04  0.22528318032E+04  0.25500000920E-02 0. -1.
    10030    2    1    2    0    0  0.00000000000E+00  0.00000000000E+00 -0.20341776184E+04  0.24714859881E+04  0.14036966930E+04 0.  0.
        4    1    3    3  502    0 -0.13245158853E+03  0.21128853612E+03  0.13801929707E+03  0.28502141685E+03  0.12699999809E+01 0.  1.
       -4    1    3    3    0  502  0.13245158853E+03 -0.21128853612E+03 -0.21721969154E+04  0.21864645712E+04  0.12699999809E+01 0. -1.
</event>
<event>
 5   0  0.7296966E-04  0.1432905E+04  0.7818609E-02  0.8930339E-01
       -2   -1    0    0    0  501  0.00000000000E+00  0.00000000000E+00  0.35318707404E+03  0.35318707404E+03  0.25500000920E-02 0.  1.
        2   -1    0    0  501    0  0.00000000000E+00  0.00000000000E+00 -0.14533497362E+04  0.14533497362E+04  0.25500000920E-02 0. -1.
    10030    2    1    2    0    0  0.00000000000E+00  0.00000000000E+00 -0.11001626622E+04  0.18065368103E+04  0.14329052179E+04 0.  0.
        3    1    3    3  502    0 -0.12803774620E+03  0.44342598364E+03 -0.12409499925E+04  0.13240004386E+04  0.10100000352E+00 0. -1.
       -3    1    3    3    0  502  0.12803774620E+03 -0.44342598364E+03  0.14078733027E+03  0.48253637167E+03  0.10100000352E+00 0.  1.
</event>
<event>
 5   0  0.3977658E-04  0.1402295E+04  0.7818609E-02  0.8952159E-01
       -1   -1    0    0    0  501  0.00000000000E+00  0.00000000000E+00  0.59666581868E+03  0.59666581870E+03  0.50400001928E-02 0. -1.
        1   -1    0    0  501    0  0.00000000000E+00  0.00000000000E+00 -0.82392520994E+03  0.82392520996E+03  0.50400001928E-02 0.  1.
    10030    2    1    2    0    0  0.00000000000E+00  0.00000000000E+00 -0.22725939127E+03  0.14205910287E+04  0.14022952755E+04 0.  0.
        5    1    3    3  502    0  0.57974686659E+02  0.95354195440E+02  0.58759528918E+03  0.59811687884E+03  0.46999998093E+01 0. -1.
       -5    1    3    3    0  502 -0.57974686659E+02 -0.95354195440E+02 -0.81485468045E+03  0.82247414982E+03  0.46999998093E+01 0.  1.
</event>
<event>
 5   0  0.3907093E-04  0.1396791E+04  0.7818609E-02  0.8956145E-01
       -1   -1    0    0    0  501  0.00000000000E+00  0.00000000000E+00  0.49666316102E+03  0.49666316105E+03  0.50400001928E-02 0.  1.
        1   -1    0    0  501    0  0.00000000000E+00  0.00000000000E+00 -0.98206664469E+03  0.98206664470E+03  0.50400001928E-02 0. -1.
    10030    2    1    2    0    0  0.00000000000E+00  0.00000000000E+00 -0.48540348367E+03  0.14787298057E+04  0.13967910712E+04 0.  0.
        4    1    3    3  502    0  0.45078721627E+03 -0.50931282267E+03 -0.74824345388E+02  0.68425796397E+03  0.12699999809E+01 0.  1.
       -4    1    3    3    0  502 -0.45078721627E+03  0.50931282267E+03 -0.41057913828E+03  0.79447184178E+03  0.12699999809E+01 0. -1.
</event>
<event>
 5   0  0.3977658E-04  0.1406527E+04  0.7818609E-02  0.8949108E-01
       -1   -1    0    0    0  501  0.00000000000E+00  0.00000000000E+00  0.64305366845E+03  0.64305366847E+03  0.50400001928E-02 0. -1.
        1   -1    0    0  501    0  0.00000000000E+00  0.00000000000E+00 -0.76911073021E+03  0.76911073023E+03  0.50400001928E-02 0.  1.
    10030    2    1    2    0    0  0.00000000000E+00  0.00000000000E+00 -0.12605706176E+03  0.14121643987E+04  0.14065268949E+04 0.  0.
        5    1    3    3  502    0  0.11528725103E+03  0.33062197831E+03 -0.67535441580E+03  0.76074155910E+03  0.46999998093E+01 0.  1.
       -5    1    3    3    0  502 -0.11528725103E+03 -0.33062197831E+03  0.54929735404E+03  0.65142283960E+03  0.46999998093E+01 0. -1.
</event>
<event>
 5   0  0.3907093E-04  0.1391887E+04  0.7818609E-02  0.8959712E-01
       -1   -1    0    0    0  501  0.00000000000E+00  0.00000000000E+00  0.69717577471E+03  0.69717577473E+03  0.50400001928E-02 0.  1.
        1   -1    0    0  501    0  0.00000000000E+00  0.00000000000E+00 -0.69471302816E+03  0.69471302818E+03  0.50400001928E-02 0. -1.
    10030    2    1    2    0    0  0.00000000000E+00  0.00000000000E+00  0.24627465478E+01  0.13918888029E+04  0.13918866242E+04 0.  0.
        4    1    3    3  502    0 -0.41099110953E+03 -0.54625047668E+03  0.13173906910E+03  0.69617531600E+03  0.12699999809E+01 0.  1.
       -4    1    3    3    0  502  0.41099110953E+03  0.54625047668E+03 -0.12927632256E+03  0.69571348690E+03  0.12699999809E+01 0. -1.
</event>
<event>
 5   0  0.7296966E-04  0.1400706E+04  0.7818609E-02  0.8953308E-01
       -2   -1    0    0    0  501  0.00000000000E+00  0.00000000000E+00  0.58019505821E+03  0.58019505821E+03  0.25500000920E-02 0.  1.
        2   -1    0    0  501    0  0.00000000000E+00  0.00000000000E+00 -0.84539576814E+03  0.84539576814E+03  0.25500000920E-02 0. -1.
    10030    2    1    2    0    0  0.00000000000E+00  0.00000000000E+00 -0.26520070993E+03  0.14255908264E+04  0.14007061746E+04 0.  0.
        3    1    3    3  502    0  0.59307893853E+03  0.58502378732E+02  0.24180645227E+03  0.64314502735E+03  0.10100000352E+00 0.  1.
       -3    1    3    3    0  502 -0.59307893853E+03 -0.58502378732E+02 -0.50700716220E+03  0.78244579900E+03  0.10100000352E+00 0. -1.
</event>
<event>
 5   0  0.3907270E-04  0.1396422E+04  0.7818609E-02  0.8956412E-01
        1   -1    0    0  501    0  0.00000000000E+00  0.00000000000E+00  0.80061178027E+03  0.80061178029E+03  0.50400001928E-02 0.  1.
       -1   -1    0    0    0  501  0.00000000000E+00  0.00000000000E+00 -0.60890790840E+03  0.60890790842E+03  0.50400001928E-02 0. -1.
    10030    2    1    2    0    0  0.00000000000E+00  0.00000000000E+00  0.19170387187E+03  0.14095196887E+04  0.13964223496E+04 0.  0.
        3    1    3    3  502    0  0.23721009306E+03  0.32896802813E+02 -0.56615617869E+03  0.61472242252E+03  0.10100000352E+00 0. -1.
       -3    1    3    3    0  502 -0.23721009306E+03 -0.32896802813E+02  0.75786005056E+03  0.79479726618E+03  0.10100000352E+00 0.  1.
</event>
<event>
 5   0  0.6959748E-04  0.1409643E+04  0.7818609E-02  0.8946868E-01
       -2   -1    0    0    0  501  0.00000000000E+00  0.00000000000E+00  0.46684582264E+03  0.46684582264E+03  0.25500000920E-02 0. -1.
        2   -1    0    0  501    0  0.00000000000E+00  0.00000000000E+00 -0.10641064795E+04  0.10641064795E+04  0.25500000920E-02 0.  1.
    10030    2    1    2    0    0  0.00000000000E+00  0.00000000000E+00 -0.59726065686E+03  0.15309523021E+04  0.14096434511E+04 0.  0.
        5    1    3    3  502    0  0.66661154970E+03  0.10134322189E+03 -0.75763276089E+02  0.67853044944E+03  0.46999998093E+01 0. -1.
       -5    1    3    3    0  502 -0.66661154970E+03 -0.10134322189E+03 -0.52149738077E+03  0.85242185270E+03  0.46999998093E+01 0.  1.
</event>
<event>
 5   0  0.7296966E-04  0.1397740E+04  0.7818609E-02  0.8955456E-01
       -2   -1    0    0    0  501  0.00000000000E+00  0.00000000000E+00  0.69772884566E+03  0.69772884566E+03  0.25500000920E-02 0. -1.
        2   -1    0    0  501    0  0.00000000000E+00  0.00000000000E+00 -0.70001324104E+03  0.70001324104E+03  0.25500000920E-02 0.  1.
    10030    2    1    2    0    0  0.00000000000E+00  0.00000000000E+00 -0.22843953831E+01  0.13977420867E+04  0.13977402200E+04 0.  0.
        3    1    3    3  502    0 -0.40340099474E+03  0.53710701460E+03  0.19173914435E+03  0.69855580834E+03  0.10100000352E+00 0. -1.
       -3    1    3    3    0  502  0.40340099474E+03 -0.53710701460E+03 -0.19402353973E+03  0.69918627837E+03  0.10100000352E+00 0.  1.
</event>
<event>
 5   0  0.3907270E-04  0.1407325E+04  0.7818609E-02  0.8948533E-01
       -1   -1    0    0    0  501  0.00000000000E+00  0.00000000000E+00  0.50501266391E+03  0.50501266393E+03  0.50400001928E-02 0. -1.
        1   -1    0    0  501    0  0.00000000000E+00  0.00000000000E+00 -0.98045258730E+03  0.98045258731E+03  0.50400001928E-02 0.  1.
    10030    2    1    2    0    0  0.00000000000E+00  0.00000000000E+00 -0.47543992339E+03  0.14854652512E+04  0.14073250839E+04 0.  0.
        3    1    3    3  502    0  0.16272233491E+03 -0.62524727426E+03 -0.53199777139E+03  0.83691956078E+03  0.10100000352E+00 0. -1.
       -3    1    3    3    0  502 -0.16272233491E+03  0.62524727426E+03  0.56557848000E+02  0.64854569047E+03  0.10100000352E+00 0.  1.
</event>
<event>
 5   0  0.6895048E-04  0.1423947E+04  0.7818609E-02  0.8936665E-01
        2   -1    0    0  501    0  0.00000000000E+00  0.00000000000E+00  0.91049264339E+03  0.91049264339E+03  0.25500000920E-02 0. -1.
       -2   -1    0    0    0  501  0.00000000000E+00  0.00000000000E+00 -0.55673856687E+03  0.55673856688E+03  0.25500000920E-02 0.  1.
    10030    2    1    2    0    0  0.00000000000E+00  0.00000000000E+00  0.35375407652E+03  0.14672312103E+04  0.14239471471E+04 0.  0.
        4    1    3    3  502    0  0.90324080116E+02  0.39526595479E+03  0.77991137100E+03  0.87900908640E+03  0.12699999809E+01 0. -1.
       -4    1    3    3    0  502 -0.90324080116E+02 -0.39526595479E+03 -0.42615729448E+03  0.58822212387E+03  0.12699999809E+01 0.  1.
</event>
<event>
 5   0  0.6959748E-04  0.1404888E+04  0.7818609E-02  0.8950288E-01
        2   -1    0    0  501    0  0.00000000000E+00  0.00000000000E+00  0.82798165231E+03  0.82798165231E+03  0.25500000920E-02 0. -1.
       -2   -1    0    0    0  501  0.00000000000E+00  0.00000000000E+00 -0.59594007247E+03  0.59594007247E+03  0.25500000920E-02 0.  1.
    10030    2    1    2    0    0  0.00000000000E+00  0.00000000000E+00  0.23204157984E+03  0.14239217248E+04  0.14048878188E+04 0.  0.
        5    1    3    3  502    0 -0.32015190113E+03 -0.56096591245E+03  0.39585075258E+03  0.75756181467E+03  0.46999998093E+01 0. -1.
       -5    1    3    3    0  502  0.32015190113E+03  0.56096591245E+03 -0.16380917274E+03  0.66635991011E+03  0.46999998093E+01 0.  1.
</event>
<event>
 5   0  0.3756664E-04  0.1406228E+04  0.7818609E-02  0.8949323E-01
       -1   -1    0    0    0  501  0.00000000000E+00  0.00000000000E+00  0.11269880155E+04  0.11269880155E+04  0.50400001928E-02 0. -1.
        1   -1    0    0  501    0  0.00000000000E+00  0.00000000000E+00 -0.43866406516E+03  0.43866406518E+03  0.50400001928E-02 0.  1.
    10030    2    1    2    0    0  0.00000000000E+00  0.00000000000E+00  0.68832395036E+03  0.15656520807E+04  0.14062277828E+04 0.  0.
        2    1    3    3  502    0 -0.87823722378E+02 -0.50833581111E+03 -0.18775736212E+03  0.54897279541E+03  0.25500000920E-02 0.  1.
       -2    1    3    3    0  502  0.87823722378E+02  0.50833581111E+03  0.87608131248E+03  0.10166792853E+04  0.25500000920E-02 0. -1.
</event>
<event>
 5   0  0.3907093E-04  0.1388420E+04  0.7818609E-02  0.8962243E-01
       -1   -1    0    0    0  501  0.00000000000E+00  0.00000000000E+00  0.49887518661E+03  0.49887518664E+03  0.50400001928E-02 0. -1.
        1   -1    0    0  501    0  0.00000000000E+00  0.00000000000E+00 -0.96602889319E+03  0.96602889321E+03  0.50400001928E-02 0.  1.
    10030    2    1    2    0    0  0.00000000000E+00  0.00000000000E+00 -0.46715370658E+03  0.14649040798E+04  0.13884204614E+04 0.  0.
        4    1    3    3  502    0 -0.13883700231E+03 -0.43436738034E+03 -0.78583743381E+03  0.90856635399E+03  0.12699999809E+01 0.  1.
       -4    1    3    3    0  502  0.13883700231E+03  0.43436738034E+03  0.31868372723E+03  0.55633772586E+03  0.12699999809E+01 0. -1.
</event>
<event>
 5   0  0.3907270E-04  0.1402829E+04  0.7818609E-02  0.8951773E-01
        1   -1    0    0  501    0  0.00000000000E+00  0.00000000000E+00  0.21172945889E+03  0.21172945895E+03  0.50400001928E-02 0.  1.
       -1   -1    0    0    0  501  0.00000000000E+00  0.00000000000E+00 -0.23236370366E+04  0.23236370367E+04  0.50400001928E-02 0. -1.
    10030    2    1    2    0    0  0.00000000000E+00  0.00000000000E+00 -0.21119075778E+04  0.25353664956E+04  0.14028291593E+04 0.  0.
        3    1    3    3  502    0 -0.28308907596E+03 -0.59970127789E+03 -0.14688841815E+04  0.16116456796E+04  0.10100000352E+00 0. -1.
       -3    1    3    3    0  502  0.28308907596E+03  0.59970127789E+03 -0.64302339624E+03  0.92372081602E+03  0.10100000352E+00 0.  1.
</event>
<event>
 5   0  0.3977658E-04  0.1409099E+04  0.7818609E-02  0.8947258E-01
        1   -1    0    0  501    0  0.00000000000E+00  0.00000000000E+00  0.13306879087E+04  0.13306879087E+04  0.50400001928E-02 0.  1.
       -1   -1    0    0    0  501  0.00000000000E+00  0.00000000000E+00 -0.37303285106E+03  0.37303285110E+03  0.50400001928E-02 0. -1.
    10030    2    1    2    0    0  0.00000000000E+00  0.00000000000E+00  0.95765505762E+03  0.17037207598E+04  0.14090994351E+04 0.  0.
        5    1    3    3  502    0  0.54950771610E+03  0.32607428033E+03  0.83767333293E+03  0.10535662623E+04  0.46999998093E+01 0.  1.
       -5    1    3    3    0  502 -0.54950771610E+03 -0.32607428033E+03  0.11998172469E+03  0.65015449749E+03  0.46999998093E+01 0. -1.
</event>
<event>
 5   0  0.7065539E-04  0.1400009E+04  0.7818609E-02  0.8953812E-01
       -2   -1    0    0    0  501  0.00000000000E+00  0.00000000000E+00  0.49620166328E+03  0.49620166329E+03  0.25500000920E-02 0. -1.
        2   -1    0    0  501    0  0.00000000000E+00  0.00000000000E+00 -0.98751507020E+03  0.98751507020E+03  0.25500000920E-02 0.  1.
    10030    2    1    2    0    0  0.00000000000E+00  0.00000000000E+00 -0.49131340692E+03  0.14837167335E+04  0.14000094576E+04 0.  0.
        1    1    3    3  502    0 -0.65879413505E+03  0.19589655368E+03 -0.38633944535E+03  0.78844361827E+03  0.50400001928E-02 0.  1.
       -1    1    3    3    0  502  0.65879413505E+03 -0.19589655368E+03 -0.10497396156E+03  0.69527311523E+03  0.50400001928E-02 0. -1.
</event>
<event>
 5   0  0.3784219E-04  0.1400251E+04  0.7818609E-02  0.8953637E-01
       -1   -1    0    0    0  501  0.00000000000E+00  0.00000000000E+00  0.40431551387E+03  0.40431551390E+03  0.50400001928E-02 0.  1.
        1   -1    0    0  501    0  0.00000000000E+00  0.00000000000E+00 -0.12123593389E+04  0.12123593389E+04  0.50400001928E-02 0. -1.
    10030    2    1    2    0    0  0.00000000000E+00  0.00000000000E+00 -0.80804382506E+03  0.16166748528E+04  0.14002509620E+04 0.  0.
        1    1    3    3  502    0  0.30190004098E+03  0.40659338526E+03 -0.96218234939E+03  0.10873162784E+04  0.50400001928E-02 0. -1.
       -1    1    3    3    0  502 -0.30190004098E+03 -0.40659338526E+03  0.15413852433E+03  0.52935857449E+03  0.50400001928E-02 0.  1.
</event>
<event>
 5   0  0.7065539E-04  0.1397458E+04  0.7818609E-02  0.8955661E-01
        2   -1    0    0  501    0  0.00000000000E+00  0.00000000000E+00  0.24301435717E+04  0.24301435717E+04  0.25500000920E-02 0.  1.
       -2   -1    0    0    0  501  0.00000000000E+00  0.00000000000E+00 -0.20090258123E+03  0.20090258125E+03  0.25500000920E-02 0. -1.
    10030    2    1    2    0    0  0.00000000000E+00  0.00000000000E+00  0.22292409905E+04  0.26310461530E+04  0.13974578582E+04 0.  0.
        1    1    3    3  502    0 -0.31414714087E+03  0.55728996306E+03  0.16436716677E+04  0.17637792040E+04  0.50400001928E-02 0.  1.
       -1    1    3    3    0  502  0.31414714087E+03 -0.55728996306E+03  0.58556932277E+03  0.86726694901E+03  0.50400001928E-02 0. -1.
</event>
<event>
 5   0  0.3907270E-04  0.1370931E+04  0.7818609E-02  0.8975133E-01
       -1   -1    0    0    0  501  0.00000000000E+00  0.00000000000E+00  0.53748379797E+03  0.53748379800E+03  0.50400001928E-02 0. -1.
        1   -1    0    0  501    0  0.00000000000E+00  0.00000000000E+00 -0.87418993956E+03  0.87418993957E+03  0.50400001928E-02 0.  1.
    10030    2    1    2    0    0  0.00000000000E+00  0.00000000000E+00 -0.33670614158E+03  0.14116737376E+04  0.13709309667E+04 0.  0.
        3    1    3    3  502    0  0.57156624971E+03 -0.10123578978E+03 -0.54377888795E+03  0.79538176502E+03  0.10100000352E+00 0.  1.
       -3    1    3    3    0  502 -0.57156624971E+03  0.10123578978E+03  0.20707274637E+03  0.61629197255E+03  0.10100000352E+00 0. -1.
</event>
<event>
 5   0  0.3756664E-04  0.1373593E+04  0.7818609E-02  0.8973158E-01
       -1   -1    0    0    0  501  0.00000000000E+00  0.00000000000E+00  0.65096093434E+03  0.65096093436E+03  0.50400001928E-02 0. -1.
        1   -1    0    0  501    0  0.00000000000E+00  0.00000000000E+00 -0.72460480639E+03  0.72460480641E+03  0.50400001928E-02 0.  1.
    10030    2    1    2    0    0  0.00000000000E+00  0.00000000000E+00 -0.73643872059E+02  0.13755657408E+04  0.13735929846E+04 0.  0.
        2    1    3    3  502    0  0.26120277365E+03  0.46743358598E+03  0.39387524386E+03  0.66472457003E+03  0.25500000920E-02 0. -1.
       -2    1    3    3    0  502 -0.26120277365E+03 -0.46743358598E+03 -0.46751911592E+03  0.71084117074E+03  0.25500000920E-02 0.  1.
</event>
<event>
 5   0  0.3977658E-04  0.1393014E+04  0.7818609E-02  0.8958891E-01
       -1   -1    0    0    0  501  0.00000000000E+00  0.00000000000E+00  0.76733166597E+03  0.76733166598E+03  0.50400001928E-02 0.  1.
        1   -1    0    0  501    0  0.00000000000E+00  0.00000000000E+00 -0.63221980409E+03  0.63221980411E+03  0.50400001928E-02 0. -1.
    10030    2    1    2    0    0  0.00000000000E+00  0.00000000000E+00  0.13511186187E+03  0.13995514701E+04  0.13930143941E+04 0.  0.
        5    1    3    3  502    0  0.42574066027E+03 -0.18865462540E+03 -0.45280752013E+03  0.64954015870E+03  0.46999998093E+01 0. -1.
       -5    1    3    3    0  502 -0.42574066027E+03  0.18865462540E+03  0.58791938200E+03  0.75001131139E+03  0.46999998093E+01 0.  1.
</event>
<event>
 5   0  0.6959748E-04  0.1401044E+04  0.7818609E-02  0.8953063E-01
       -2   -1    0    0    0  501  0.00000000000E+00  0.00000000000E+00  0.54706802853E+03  0.54706802853E+03  0.25500000920E-02 0. -1.
        2   -1    0    0  501    0  0.00000000000E+00  0.00000000000E+00 -0.89701982159E+03  0.89701982159E+03  0.25500000920E-02 0.  1.
    10030    2    1    2    0    0  0.00000000000E+00  0.00000000000E+00 -0.34995179306E+03  0.14440878501E+04  0.14010437043E+04 0.  0.
        5    1    3    3  502    0  0.45027990932E+02  0.31000691389E+03 -0.82078526341E+03  0.87854558519E+03  0.46999998093E+01 0.  1.
       -5    1    3    3    0  502 -0.45027990932E+02 -0.31000691389E+03  0.47083347035E+03  0.56554226494E+03  0.46999998093E+01 0. -1.
</event>
<event>
 5   0  0.6959748E-04  0.1391109E+04  0.7818609E-02  0.8960279E-01
       -2   -1    0    0    0  501  0.00000000000E+00  0.00000000000E+00  0.26708993917E+03  0.26708993918E+03  0.25500000920E-02 0. -1.
        2   -1    0    0  501    0  0.00000000000E+00  0.00000000000E+00 -0.18113608053E+04  0.18113608053E+04  0.25500000920E-02 0.  1.
    10030    2    1    2    0    0  0.00000000000E+00  0.00000000000E+00 -0.15442708661E+04  0.20784507445E+04  0.13911092658E+04 0.  0.
        5    1    3    3  502    0 -0.38179897080E+03 -0.57955746405E+03 -0.70339323055E+03  0.98815051233E+03  0.46999998093E+01 0. -1.
       -5    1    3    3    0  502  0.38179897080E+03  0.57955746405E+03 -0.84087763560E+03  0.10903002322E+04  0.46999998093E+01 0.  1.
</event>
<event>
 5   0  0.6959748E-04  0.1408574E+04  0.7818609E-02  0.8947636E-01
       -2   -1    0    0    0  501  0.00000000000E+00  0.00000000000E+00  0.32148807744E+03  0.32148807745E+03  0.25500000920E-02 0.  1.
        2   -1    0    0  501    0  0.00000000000E+00  0.00000000000E+00 -0.15428873957E+04  0.15428873957E+04  0.25500000920E-02 0. -1.
    10030    2    1    2    0    0  0.00000000000E+00  0.00000000000E+00 -0.12213993182E+04  0.18643754731E+04  0.14085736084E+04 0.  0.
        5    1    3    3  502    0  0.43777749540E+03  0.24482911811E+03  0.43651674173E+02  0.50350570127E+03  0.46999998093E+01 0.  1.
       -5    1    3    3    0  502 -0.43777749540E+03 -0.24482911811E+03 -0.12650509924E+04  0.13608697718E+04  0.46999998093E+01 0. -1.
</event>
<event>
 5   0  0.3907093E-04  0.1399363E+04  0.7818609E-02  0.8954280E-01
       -1   -1    0    0    0  501  0.00000000000E+00  0.00000000000E+00  0.36494608982E+03  0.36494608986E+03  0.50400001928E-02 0.  1.
        1   -1    0    0  501    0  0.00000000000E+00  0.00000000000E+00 -0.13414426768E+04  0.13414426768E+04  0.50400001928E-02 0. -1.
    10030    2    1    2    0    0  0.00000000000E+00  0.00000000000E+00 -0.97649658698E+03  0.17063887667E+04  0.13993630832E+04 0.  0.
        4    1    3    3  502    0  0.15995770041E+03  0.29151478431E+03  0.26243847290E+03  0.42360701169E+03  0.12699999809E+01 0.  1.
       -4    1    3    3    0  502 -0.15995770041E+03 -0.29151478431E+03 -0.12389350599E+04  0.12827817550E+04  0.12699999809E+01 0. -1.
</event>
<event>
 5   0  0.6870835E-04  0.1399468E+04  0.7818609E-02  0.8954204E-01
        2   -1    0    0  501    0  0.00000000000E+00  0.00000000000E+00  0.92305141216E+03  0.92305141216E+03  0.25500000920E-02 0.  1.
       -2   -1    0    0    0  501  0.00000000000E+00  0.00000000000E+00 -0.53044447182E+03  0.53044447182E+03  0.25500000920E-02 0. -1.
    10030    2    1    2    0    0  0.00000000000E+00  0.00000000000E+00  0.39260694034E+03  0.14534958840E+04  0.13994677828E+04 0.  0.
        2    1    3    3  502    0 -0.68009888474E+01 -0.99690273753E+02 -0.52299644404E+03  0.53245627484E+03  0.25500000920E-02 0. -1.
       -2    1    3    3    0  502  0.68009888474E+01  0.99690273753E+02  0.91560338438E+03  0.92103960915E+03  0.25500000920E-02 0.  1.
</event>
<event>
 5   0  0.7296966E-04  0.1399821E+04  0.7818609E-02  0.8953948E-01
        2   -1    0    0  501    0  0.00000000000E+00  0.00000000000E+00  0.15262628202E+04  0.15262628203E+04  0.25500000920E-02 0. -1.
       -2   -1    0    0    0  501  0.00000000000E+00  0.00000000000E+00 -0.32096369616E+03  0.32096369617E+03  0.25500000920E-02 0.  1.
    10030    2    1    2    0    0  0.00000000000E+00  0.00000000000E+00  0.12052991241E+04  0.18472265164E+04  0.13998213545E+04 0.  0.
        3    1    3    3  502    0 -0.28304656483E+03  0.31968618438E+03  0.13344837601E+04  0.14011286631E+04  0.10100000352E+00 0. -1.
       -3    1    3    3    0  502  0.28304656483E+03 -0.31968618438E+03 -0.12918463603E+03  0.44609785331E+03  0.10100000352E+00 0.  1.
</event>
<event>
 5   0  0.3784219E-04  0.1394847E+04  0.7818609E-02  0.8957557E-01
        1   -1    0    0  501    0  0.00000000000E+00  0.00000000000E+00  0.78221930315E+03  0.78221930317E+03  0.50400001928E-02 0. -1.
       -1   -1    0    0    0  501  0.00000000000E+00  0.00000000000E+00 -0.62182026207E+03  0.62182026209E+03  0.50400001928E-02 0.  1.
    10030    2    1    2    0    0  0.00000000000E+00  0.00000000000E+00  0.16039904108E+03  0.14040395653E+04  0.13948473925E+04 0.  0.
        1    1    3    3  502    0 -0.60423164065E+03  0.34828709722E+03  0.80386291893E+02  0.70204111960E+03  0.50400001928E-02 0.  1.
       -1    1    3    3    0  502  0.60423164065E+03 -0.34828709722E+03  0.80012749189E+02  0.70199844566E+03  0.50400001928E-02 0. -1.
</event>
<event>
 5   0  0.7296966E-04  0.1400354E+04  0.7818609E-02  0.8953563E-01
       -2   -1    0    0    0  501  0.00000000000E+00  0.00000000000E+00  0.26644455120E+03  0.26644455121E+03  0.25500000920E-02 0. -1.
        2   -1    0    0  501    0  0.00000000000E+00  0.00000000000E+00 -0.18399609224E+04  0.18399609224E+04  0.25500000920E-02 0.  1.
    10030    2    1    2    0    0  0.00000000000E+00  0.00000000000E+00 -0.15735163712E+04  0.21064054736E+04  0.14003536156E+04 0.  0.
        3    1    3    3  502    0  0.24355994602E+03  0.30614089365E+03  0.86716905959E+02  0.40070378842E+03  0.10100000352E+00 0. -1.
       -3    1    3    3    0  502 -0.24355994602E+03 -0.30614089365E+03 -0.16602332772E+04  0.17057016852E+04  0.10100000352E+00 0.  1.
</event>
<event>
 5   0  0.3907093E-04  0.1393407E+04  0.7818609E-02  0.8958605E-01
       -1   -1    0    0    0  501  0.00000000000E+00  0.00000000000E+00  0.33552130235E+03  0.33552130239E+03  0.50400001928E-02 0. -1.
        1   -1    0    0  501    0  0.00000000000E+00  0.00000000000E+00 -0.14466912306E+04  0.14466912306E+04  0.50400001928E-02 0.  1.
    10030    2    1    2    0    0  0.00000000000E+00  0.00000000000E+00 -0.11111699282E+04  0.17822125330E+04  0.13934069410E+04 0.  0.
        4    1    3    3  502    0 -0.27494336332E+02 -0.11997614857E+03  0.32150291291E+03  0.34426145684E+03  0.12699999809E+01 0. -1.
       -4    1    3    3    0  502  0.27494336332E+02  0.11997614857E+03 -0.14326728411E+04  0.14379510761E+04  0.12699999809E+01 0.  1.
</event>
<event>
 5   0  0.6959748E-04  0.1402460E+04  0.7818609E-02  0.8952040E-01
        2   -1    0    0  501    0  0.00000000000E+00  0.00000000000E+00  0.14431740025E+04  0.14431740025E+04  0.25500000920E-02 0. -1.
       -2   -1    0    0    0  501  0.00000000000E+00  0.00000000000E+00 -0.34072359187E+03  0.34072359188E+03  0.25500000920E-02 0.  1.
    10030    2    1    2    0    0  0.00000000000E+00  0.00000000000E+00  0.11024504106E+04  0.17838975944E+04  0.14024598816E+04 0.  0.
        5    1    3    3  502    0 -0.26893698509E+03 -0.14035760055E+03  0.13553665869E+04  0.13889089361E+04  0.46999998093E+01 0. -1.
       -5    1    3    3    0  502  0.26893698509E+03  0.14035760055E+03 -0.25291617623E+03  0.39498865829E+03  0.46999998093E+01 0.  1.
</event>
<event>
 5   0  0.3907270E-04  0.1407459E+04  0.7818609E-02  0.8948437E-01
       -1   -1    0    0    0  501  0.00000000000E+00  0.00000000000E+00  0.76274657998E+03  0.76274657999E+03  0.50400001928E-02 0. -1.
        1   -1    0    0  501    0  0.00000000000E+00  0.00000000000E+00 -0.64927873785E+03  0.64927873787E+03  0.50400001928E-02 0.  1.
    10030    2    1    2    0    0  0.00000000000E+00  0.00000000000E+00  0.11346784213E+03  0.14120253179E+04  0.14074588971E+04 0.  0.
        3    1    3    3  502    0 -0.68361928206E+03  0.53680916151E+02 -0.10195056583E+03  0.69326105591E+03  0.10100000352E+00 0. -1.
       -3    1    3    3    0  502  0.68361928206E+03 -0.53680916151E+02  0.21541840796E+03  0.71876426195E+03  0.10100000352E+00 0.  1.
</event>
<event>
 5   0  0.6870835E-04  0.1401914E+04  0.7818609E-02  0.8952434E-01
        2   -1    0    0  501    0  0.00000000000E+00  0.00000000000E+00  0.13455284458E+04  0.13455284458E+04  0.25500000920E-02 0.  1.
       -2   -1    0    0    0  501  0.00000000000E+00  0.00000000000E+00 -0.36516554477E+03  0.36516554478E+03  0.25500000920E-02 0. -1.
    10030    2    1    2    0    0  0.00000000000E+00  0.00000000000E+00  0.98036290102E+03  0.17106939906E+04  0.14019138746E+04 0.  0.
        2    1    3    3  502    0  0.70873267316E+02 -0.66136669094E+03  0.76005319115E+03  0.10100048383E+04  0.25500000920E-02 0.  1.
       -2    1    3    3    0  502 -0.70873267316E+02  0.66136669094E+03  0.22030970987E+03  0.70068915232E+03  0.25500000920E-02 0. -1.
</event>
<event>
 5   0  0.3977658E-04  0.1391785E+04  0.7818609E-02  0.8959787E-01
        1   -1    0    0  501    0  0.00000000000E+00  0.00000000000E+00  0.10528974616E+04  0.10528974616E+04  0.50400001928E-02 0.  1.
       -1   -1    0    0    0  501  0.00000000000E+00  0.00000000000E+00 -0.45993673224E+03  0.45993673227E+03  0.50400001928E-02 0. -1.
    10030    2    1    2    0    0  0.00000000000E+00  0.00000000000E+00  0.59296072934E+03  0.15128341939E+04  0.13917847792E+04 0.  0.
        5    1    3    3  502    0  0.11548792697E+02 -0.58179346951E+03 -0.11832118295E+03  0.59383415876E+03  0.46999998093E+01 0. -1.
       -5    1    3    3    0  502 -0.11548792697E+02  0.58179346951E+03  0.71128191228E+03  0.91900003510E+03  0.46999998093E+01 0.  1.
</event>
<event>
 5   0  0.3756664E-04  0.1396140E+04  0.7818609E-02  0.8956617E-01
        1   -1    0    0  501    0  0.00000000000E+00  0.00000000000E+00  0.67865738949E+03  0.67865738951E+03  0.50400001928E-02 0. -1.
       -1   -1    0    0    0  501  0.00000000000E+00  0.00000000000E+00 -0.71803784402E+03  0.71803784404E+03  0.50400001928E-02 0.  1.
    10030    2    1    2    0    0  0.00000000000E+00  0.00000000000E+00 -0.39380454529E+02  0.13966952335E+04  0.13961399483E+04 0.  0.
        2    1    3    3  502    0  0.17335621208E+03 -0.36532829820E+03 -0.58893723450E+03  0.71439779389E+03  0.25500000920E-02 0.  1.
       -2    1    3    3    0  502 -0.17335621208E+03  0.36532829820E+03  0.54955677997E+03  0.68229743965E+03  0.25500000920E-02 0. -1.
</event>
<event>
 5   0  0.3977658E-04  0.1399346E+04  0.7818609E-02  0.8954292E-01
       -1   -1    0    0    0  501  0.00000000000E+00  0.00000000000E+00  0.31289076548E+03  0.31289076552E+03  0.50400001928E-02 0.  1.
        1   -1    0    0  501    0  0.00000000000E+00  0.00000000000E+00 -0.15645791627E+04  0.15645791628E+04  0.50400001928E-02 0. -1.
    10030    2    1    2    0    0  0.00000000000E+00  0.00000000000E+00 -0.12516883973E+04  0.18774699283E+04  0.13993460929E+04 0.  0.
        5    1    3    3  502    0 -0.19958987943E+03 -0.62482502796E+03 -0.95250277014E+03  0.11565146141E+04  0.46999998093E+01 0. -1.
       -5    1    3    3    0  502  0.19958987943E+03  0.62482502796E+03 -0.29918562712E+03  0.72095531415E+03  0.46999998093E+01 0.  1.
</event>
<event>
 5   0  0.6959748E-04  0.1392480E+04  0.7818609E-02  0.8959280E-01
        2   -1    0    0  501    0  0.00000000000E+00  0.00000000000E+00  0.65241376177E+03  0.65241376177E+03  0.25500000920E-02 0. -1.
       -2   -1    0    0    0  501  0.00000000000E+00  0.00000000000E+00 -0.74301048781E+03  0.74301048782E+03  0.25500000920E-02 0.  1.
    10030    2    1    2    0    0  0.00000000000E+00  0.00000000000E+00 -0.90596726049E+02  0.13954242496E+04  0.13924801864E+04 0.  0.
        5    1    3    3  502    0  0.19587849479E+03 -0.12662215410E+03 -0.70267815421E+03  0.74039194555E+03  0.46999998093E+01 0.  1.
       -5    1    3    3    0  502 -0.19587849479E+03  0.12662215410E+03  0.61208142816E+03  0.65503230404E+03  0.46999998093E+01 0. -1.
</event>
<event>
 5   0  0.3977658E-04  0.1401378E+04  0.7818609E-02  0.8952822E-01
        1   -1    0    0  501    0  0.00000000000E+00  0.00000000000E+00  0.29670347480E+03  0.29670347485E+03  0.50400001928E-02 0.  1.
       -1   -1    0    0    0  501  0.00000000000E+00  0.00000000000E+00 -0.16547325409E+04  0.16547325409E+04  0.50400001928E-02 0. -1.
    10030    2    1    2    0    0  0.00000000000E+00  0.00000000000E+00 -0.13580290661E+04  0.19514360158E+04  0.14013777432E+04 0.  0.
        5    1    3    3  502    0 -0.20127871978E+03 -0.48657564732E+03 -0.13227015636E+04  0.14236679739E+04  0.46999998093E+01 0. -1.
       -5    1    3    3    0  502  0.20127871978E+03  0.48657564732E+03 -0.35327502546E+02  0.52776804189E+03  0.46999998093E+01 0.  1.
</event>
<event>
 5   0  0.7065539E-04  0.1425277E+04  0.7818609E-02  0.8935722E-01
       -2   -1    0    0    0  501  0.00000000000E+00  0.00000000000E+00  0.46610185621E+03  0.46610185622E+03  0.25500000920E-02 0. -1.
        2   -1    0    0  501    0  0.00000000000E+00  0.00000000000E+00 -0.10895762859E+04  0.10895762859E+04  0.25500000920E-02 0.  1.
    10030    2    1    2    0    0  0.00000000000E+00  0.00000000000E+00 -0.62347442969E+03  0.15556781421E+04  0.14252768564E+04 0.  0.
        1    1    3    3  502    0  0.20734615776E+03 -0.21741970159E+03  0.39359779985E+03  0.49515955393E+03  0.50400001928E-02 0. -1.
       -1    1    3    3    0  502 -0.20734615776E+03  0.21741970159E+03 -0.10170722295E+04  0.10605185882E+04  0.50400001928E-02 0.  1.
</event>
<event>
 5   0  0.6959748E-04  0.1415262E+04  0.7818609E-02  0.8942845E-01
       -2   -1    0    0    0  501  0.00000000000E+00  0.00000000000E+00  0.56680360130E+03  0.56680360130E+03  0.25500000920E-02 0. -1.
        2   -1    0    0  501    0  0.00000000000E+00  0.00000000000E+00 -0.88344830541E+03  0.88344830542E+03  0.25500000920E-02 0.  1.
    10030    2    1    2    0    0  0.00000000000E+00  0.00000000000E+00 -0.31664470411E+03  0.14502519067E+04  0.14152620691E+04 0.  0.
        5    1    3    3  502    0  0.34062626082E+03  0.25244320703E+03  0.42222271139E+03  0.59837106410E+03  0.46999998093E+01 0. -1.
       -5    1    3    3    0  502 -0.34062626082E+03 -0.25244320703E+03 -0.73886741550E+03  0.85188084262E+03  0.46999998093E+01 0.  1.
</event>
<event>
 5   0  0.6959748E-04  0.1385646E+04  0.7818609E-02  0.8964275E-01
        2   -1    0    0  501    0  0.00000000000E+00  0.00000000000E+00  0.97305441307E+03  0.97305441307E+03  0.25500000920E-02 0.  1.
       -2   -1    0    0    0  501  0.00000000000E+00  0.00000000000E+00 -0.49329585555E+03  0.49329585555E+03  0.25500000920E-02 0. -1.
    10030    2    1    2    0    0  0.00000000000E+00  0.00000000000E+00  0.47975855752E+03  0.14663502686E+04  0.13856459998E+04 0.  0.
        5    1    3    3  502    0 -0.49264343676E+03 -0.12736192257E+03  0.73743699351E+03  0.89596541479E+03  0.46999998093E+01 0.  1.
       -5    1    3    3    0  502  0.49264343676E+03  0.12736192257E+03 -0.25767843599E+03  0.57038485383E+03  0.46999998093E+01 0. -1.
</event>
<event>
 5   0  0.3907270E-04  0.1395073E+04  0.7818609E-02  0.8957392E-01
       -1   -1    0    0    0  501  0.00000000000E+00  0.00000000000E+00  0.12652235928E+04  0.12652235929E+04  0.50400001928E-02 0.  1.
        1   -1    0    0  501    0  0.00000000000E+00  0.00000000000E+00 -0.38456243751E+03  0.38456243754E+03  0.50400001928E-02 0. -1.
    10030    2    1    2    0    0  0.00000000000E+00  0.00000000000E+00  0.88066115534E+03  0.16497860304E+04  0.13950734302E+04 0.  0.
        3    1    3    3  502    0 -0.17521925919E+03  0.34906128272E+03  0.11237880852E+04  0.11897248583E+04  0.10100000352E+00 0.  1.
       -3    1    3    3    0  502  0.17521925919E+03 -0.34906128272E+03 -0.24312692982E+03  0.46006117212E+03  0.10100000352E+00 0. -1.
</event>
<event>
 5   0  0.3977658E-04  0.1388493E+04  0.7818609E-02  0.8962191E-01
       -1   -1    0    0    0  501  0.00000000000E+00  0.00000000000E+00  0.77201958605E+03  0.77201958607E+03  0.50400001928E-02 0.  1.
        1   -1    0    0  501    0  0.00000000000E+00  0.00000000000E+00 -0.62430780997E+03  0.62430780999E+03  0.50400001928E-02 0. -1.
    10030    2    1    2    0    0  0.00000000000E+00  0.00000000000E+00  0.14771177608E+03  0.13963273961E+04  0.13884925020E+04 0.  0.
        5    1    3    3  502    0  0.81422936769E+02 -0.68050704451E+03 -0.37385812906E+02  0.68639589252E+03  0.46999998093E+01 0. -1.
       -5    1    3    3    0  502 -0.81422936769E+02  0.68050704451E+03  0.18509758899E+03  0.70993150354E+03  0.46999998093E+01 0.  1.
</event>
<event>
 5   0  0.6959748E-04  0.1396960E+04  0.7818609E-02  0.8956022E-01
       -2   -1    0    0    0  501  0.00000000000E+00  0.00000000000E+00  0.25187935961E+03  0.25187935962E+03  0.25500000920E-02 0. -1.
        2   -1    0    0  501    0  0.00000000000E+00  0.00000000000E+00 -0.19369369511E+04  0.19369369511E+04  0.25500000920E-02 0.  1.
    10030    2    1    2    0    0  0.00000000000E+00  0.00000000000E+00 -0.16850575915E+04  0.21888163107E+04  0.13969601839E+04 0.  0.
        5    1    3    3  502    0  0.68987422252E+03 -0.39041911371E+02 -0.10023285458E+04  0.12174297998E+04  0.46999998093E+01 0.  1.
       -5    1    3    3    0  502 -0.68987422252E+03  0.39041911371E+02 -0.68272904564E+03  0.97138651087E+03  0.46999998093E+01 0. -1.
</event>
<event>
 5   0  0.3756664E-04  0.1403346E+04  0.7818609E-02  0.8951400E-01
       -1   -1    0    0    0  501  0.00000000000E+00  0.00000000000E+00  0.41623870209E+03  0.41623870212E+03  0.50400001928E-02 0.  1.
        1   -1    0    0  501    0  0.00000000000E+00  0.00000000000E+00 -0.11828422293E+04  0.11828422293E+04  0.50400001928E-02 0. -1.
    10030    2    1    2    0    0  0.00000000000E+00  0.00000000000E+00 -0.76660352720E+03  0.15990809314E+04  0.14033455944E+04 0.  0.
        2    1    3    3  502    0  0.44949959644E+03 -0.20530306291E+03  0.18431994011E+03  0.52742115541E+03  0.25500000920E-02 0.  1.
       -2    1    3    3    0  502 -0.44949959644E+03  0.20530306291E+03 -0.95092346730E+03  0.10716597760E+04  0.25500000920E-02 0. -1.
</event>
<event>
 5   0  0.7065539E-04  0.1412594E+04  0.7818609E-02  0.8944753E-01
        2   -1    0    0  501    0  0.00000000000E+00  0.00000000000E+00  0.23941182107E+03  0.23941182108E+03  0.25500000920E-02 0. -1.
       -2   -1    0    0    0  501  0.00000000000E+00  0.00000000000E+00 -0.20836702233E+04  0.20836702233E+04  0.25500000920E-02 0.  1.
    10030    2    1    2    0    0  0.00000000000E+00  0.00000000000E+00 -0.18442584022E+04  0.23230820444E+04  0.14125937600E+04 0.  0.
        1    1    3    3  502    0  0.41196780719E+03 -0.35767296719E+03 -0.18444627377E+03  0.57590611522E+03  0.50400001928E-02 0. -1.
       -1    1    3    3    0  502 -0.41196780719E+03  0.35767296719E+03 -0.16598121284E+04  0.17471759291E+04  0.50400001928E-02 0.  1.
</event>
<event>
 5   0  0.3977658E-04  0.1400782E+04  0.7818609E-02  0.8953253E-01
       -1   -1    0    0    0  501  0.00000000000E+00  0.00000000000E+00  0.26192290614E+03  0.26192290619E+03  0.50400001928E-02 0. -1.
        1   -1    0    0  501    0  0.00000000000E+00  0.00000000000E+00 -0.18728702689E+04  0.18728702689E+04  0.50400001928E-02 0.  1.
    10030    2    1    2    0    0  0.00000000000E+00  0.00000000000E+00 -0.16109473628E+04  0.21347931751E+04  0.14007821011E+04 0.  0.
        5    1    3    3  502    0 -0.10302426642E+03  0.53311424892E+03 -0.13128501601E+03  0.55864357805E+03  0.46999998093E+01 0. -1.
       -5    1    3    3    0  502  0.10302426642E+03 -0.53311424892E+03 -0.14796623468E+04  0.15761495971E+04  0.46999998093E+01 0.  1.
</event>
<event>
 5   0  0.3784219E-04  0.1397853E+04  0.7818609E-02  0.8955374E-01
        1   -1    0    0  501    0  0.00000000000E+00  0.00000000000E+00  0.39361803890E+03  0.39361803893E+03  0.50400001928E-02 0. -1.
       -1   -1    0    0    0  501  0.00000000000E+00  0.00000000000E+00 -0.12410466486E+04  0.12410466486E+04  0.50400001928E-02 0.  1.
    10030    2    1    2    0    0  0.00000000000E+00  0.00000000000E+00 -0.84742860973E+03  0.16346646876E+04  0.13978531368E+04 0.  0.
        1    1    3    3  502    0 -0.63215341161E+02 -0.44893059017E+03 -0.10457743969E+04  0.11398153110E+04  0.50400001928E-02 0.  1.
       -1    1    3    3    0  502  0.63215341161E+02  0.44893059017E+03  0.19834578713E+03  0.49484937652E+03  0.50400001928E-02 0. -1.
</event>
<event>
 5   0  0.3784219E-04  0.1388527E+04  0.7818609E-02  0.8962165E-01
        1   -1    0    0  501    0  0.00000000000E+00  0.00000000000E+00  0.62193243342E+03  0.62193243344E+03  0.50400001928E-02 0. -1.
       -1   -1    0    0    0  501  0.00000000000E+00  0.00000000000E+00 -0.77500718609E+03  0.77500718611E+03  0.50400001928E-02 0.  1.
    10030    2    1    2    0    0  0.00000000000E+00  0.00000000000E+00 -0.15307475267E+03  0.13969396195E+04  0.13885274289E+04 0.  0.
        1    1    3    3  502    0  0.29832275634E+03  0.21322843240E+02  0.55379730313E+03  0.62939858879E+03  0.50400001928E-02 0. -1.
       -1    1    3    3    0  502 -0.29832275634E+03 -0.21322843240E+02 -0.70687205580E+03  0.76754103075E+03  0.50400001928E-02 0.  1.
</event>
<event>
 5   0  0.3907093E-04  0.1399919E+04  0.7818609E-02  0.8953877E-01
        1   -1    0    0  501    0  0.00000000000E+00  0.00000000000E+00  0.66914265161E+03  0.66914265163E+03  0.50400001928E-02 0. -1.
       -1   -1    0    0    0  501  0.00000000000E+00  0.00000000000E+00 -0.73219516277E+03  0.73219516278E+03  0.50400001928E-02 0.  1.
    10030    2    1    2    0    0  0.00000000000E+00  0.00000000000E+00 -0.63052511158E+02  0.14013378144E+04  0.13999185873E+04 0.  0.
        4    1    3    3  502    0 -0.26843269055E+03 -0.43569763830E+02 -0.67715063767E+03  0.72971846124E+03  0.12699999809E+01 0.  1.
       -4    1    3    3    0  502  0.26843269055E+03  0.43569763830E+02  0.61409812651E+03  0.67161935318E+03  0.12699999809E+01 0. -1.
</event>
<event>
 5   0  0.6895048E-04  0.1381180E+04  0.7818609E-02  0.8967555E-01
        2   -1    0    0  501    0  0.00000000000E+00  0.00000000000E+00  0.12137955046E+04  0.12137955046E+04  0.25500000920E-02 0. -1.
       -2   -1    0    0    0  501  0.00000000000E+00  0.00000000000E+00 -0.39291198679E+03  0.39291198680E+03  0.25500000920E-02 0.  1.
    10030    2    1    2    0    0  0.00000000000E+00  0.00000000000E+00  0.82088351781E+03  0.16067074914E+04  0.13811803695E+04 0.  0.
        4    1    3    3  502    0 -0.10140245149E+03  0.51078129321E+03 -0.11719933978E+03  0.53377643710E+03  0.12699999809E+01 0.  1.
       -4    1    3    3    0  502  0.10140245149E+03 -0.51078129321E+03  0.93808285759E+03  0.10729310543E+04  0.12699999809E+01 0. -1.
</event>
<event>
 5   0  0.7065539E-04  0.1402186E+04  0.7818609E-02  0.8952238E-01
        2   -1    0    0  501    0  0.00000000000E+00  0.00000000000E+00  0.39807659950E+03  0.39807659950E+03  0.25500000920E-02 0. -1.
       -2   -1    0    0    0  501  0.00000000000E+00  0.00000000000E+00 -0.12347653277E+04  0.12347653277E+04  0.25500000920E-02 0.  1.
    10030    2    1    2    0    0  0.00000000000E+00  0.00000000000E+00 -0.83668872817E+03  0.16328419272E+04  0.14021856979E+04 0.  0.
        1    1    3    3  502    0  0.20230986764E+02 -0.63698453698E+03 -0.75859413223E+03  0.99076922169E+03  0.50400001928E-02 0.  1.
       -1    1    3    3    0  502 -0.20230986764E+02  0.63698453698E+03 -0.78094595938E+02  0.64207270548E+03  0.50400001928E-02 0. -1.
</event>
<event>
 5   0  0.3907093E-04  0.1407201E+04  0.7818609E-02  0.8948622E-01
        1   -1    0    0  501    0  0.00000000000E+00  0.00000000000E+00  0.19883362260E+04  0.19883362260E+04  0.50400001928E-02 0.  1.
       -1   -1    0    0    0  501  0.00000000000E+00  0.00000000000E+00 -0.24897899205E+03  0.24897899210E+03  0.50400001928E-02 0. -1.
    10030    2    1    2    0    0  0.00000000000E+00  0.00000000000E+00  0.17393572340E+04  0.22373152181E+04  0.14072014063E+04 0.  0.
        4    1    3    3  502    0 -0.49385565614E+03 -0.32278403618E+03  0.14791935738E+04  0.15925131663E+04  0.12699999809E+01 0.  1.
       -4    1    3    3    0  502  0.49385565614E+03  0.32278403618E+03  0.26016366021E+03  0.64480205187E+03  0.12699999809E+01 0. -1.
</event>
<event>
 5   0  0.6959748E-04  0.1352353E+04  0.7818609E-02  0.8989049E-01
        2   -1    0    0  501    0  0.00000000000E+00  0.00000000000E+00  0.13250880957E+04  0.13250880957E+04  0.25500000920E-02 0.  1.
       -2   -1    0    0    0  501  0.00000000000E+00  0.00000000000E+00 -0.34504463716E+03  0.34504463717E+03  0.25500000920E-02 0. -1.
    10030    2    1    2    0    0  0.00000000000E+00  0.00000000000E+00  0.98004345855E+03  0.16701327329E+04  0.13523528256E+04 0.  0.
        5    1    3    3  502    0 -0.12029366696E+03 -0.77662833147E+02  0.13061300056E+04  0.13139633798E+04  0.46999998093E+01 0.  1.
       -5    1    3    3    0  502  0.12029366696E+03  0.77662833147E+02 -0.32608654700E+03  0.35616935311E+03  0.46999998093E+01 0. -1.
</event>
<event>
 5   0  0.7296966E-04  0.1386811E+04  0.7818609E-02  0.8963421E-01
       -2   -1    0    0    0  501  0.00000000000E+00  0.00000000000E+00  0.82126166410E+03  0.82126166410E+03  0.25500000920E-02 0.  1.
        2   -1    0    0  501    0  0.00000000000E+00  0.00000000000E+00 -0.58545405130E+03  0.58545405131E+03  0.25500000920E-02 0. -1.
    10030    2    1    2    0    0  0.00000000000E+00  0.00000000000E+00  0.23580761280E+03  0.14067157154E+04  0.13868106842E+04 0.  0.
        3    1    3    3  502    0  0.12793972792E+03 -0.66334672638E+03  0.27639466806E+03  0.72992566478E+03  0.10100000352E+00 0.  1.
       -3    1    3    3    0  502 -0.12793972792E+03  0.66334672638E+03 -0.40587055259E+02  0.67679005063E+03  0.10100000352E+00 0. -1.
</event>
<event>
 5   0  0.6895048E-04  0.1391376E+04  0.7818609E-02  0.8960085E-01
        2   -1    0    0  501    0  0.00000000000E+00  0.00000000000E+00  0.87404668163E+03  0.87404668164E+03  0.25500000920E-02 0.  1.
       -2   -1    0    0    0  501  0.00000000000E+00  0.00000000000E+00 -0.55372501656E+03  0.55372501657E+03  0.25500000920E-02 0. -1.
    10030    2    1    2    0    0  0.00000000000E+00  0.00000000000E+00  0.32032166507E+03  0.14277716982E+04  0.13913755974E+04 0.  0.
        4    1    3    3  502    0 -0.12422611374E+03 -0.49518011227E+03 -0.32479473457E+03  0.60508569924E+03  0.12699999809E+01 0.  1.
       -4    1    3    3    0  502  0.12422611374E+03  0.49518011227E+03  0.64511639963E+03  0.82268599897E+03  0.12699999809E+01 0. -1.
</event>
<event>
 5   0  0.6870835E-04  0.1401058E+04  0.7818609E-02  0.8953053E-01
        2   -1    0    0  501    0  0.00000000000E+00  0.00000000000E+00  0.16010958493E+04  0.16010958493E+04  0.25500000920E-02 0.  1.
       -2   -1    0    0    0  501  0.00000000000E+00  0.00000000000E+00 -0.30650311449E+03  0.30650311450E+03  0.25500000920E-02 0. -1.
    10030    2    1    2    0    0  0.00000000000E+00  0.00000000000E+00  0.12945927348E+04  0.19075989638E+04  0.14010579780E+04 0.  0.
        2    1    3    3  502    0  0.30748813041E+03 -0.47966425383E+03  0.92371429295E+02  0.57719946960E+03  0.25500000920E-02 0. -1.
       -2    1    3    3    0  502 -0.30748813041E+03  0.47966425383E+03  0.12022213055E+04  0.13303994942E+04  0.25500000920E-02 0.  1.
</event>
<event>
 5   0  0.6870835E-04  0.1385802E+04  0.7818609E-02  0.8964161E-01
       -2   -1    0    0    0  501  0.00000000000E+00  0.00000000000E+00  0.10899889782E+04  0.10899889782E+04  0.25500000920E-02 0.  1.
        2   -1    0    0  501    0  0.00000000000E+00  0.00000000000E+00 -0.44047378263E+03  0.44047378264E+03  0.25500000920E-02 0. -1.
    10030    2    1    2    0    0  0.00000000000E+00  0.00000000000E+00  0.64951519555E+03  0.15304627608E+04  0.13858016716E+04 0.  0.
        2    1    3    3  502    0  0.97955335798E+02 -0.58871707578E+03  0.71354065142E+03  0.93022755515E+03  0.25500000920E-02 0.  1.
       -2    1    3    3    0  502 -0.97955335798E+02  0.58871707578E+03 -0.64025455868E+02  0.60023520568E+03  0.25500000920E-02 0. -1.
</event>
<event>
 5   0  0.6870835E-04  0.1304191E+04  0.7818609E-02  0.9026248E-01
       -2   -1    0    0    0  501  0.00000000000E+00  0.00000000000E+00  0.28354825139E+03  0.28354825140E+03  0.25500000920E-02 0. -1.
        2   -1    0    0  501    0  0.00000000000E+00  0.00000000000E+00 -0.14996699197E+04  0.14996699197E+04  0.25500000920E-02 0.  1.
    10030    2    1    2    0    0  0.00000000000E+00  0.00000000000E+00 -0.12161216683E+04  0.17832181711E+04  0.13041913715E+04 0.  0.
        2    1    3    3  502    0  0.35015705968E+03  0.40666111115E+03 -0.11145991550E+04  0.12370588111E+04  0.25500000920E-02 0.  1.
       -2    1    3    3    0  502 -0.35015705968E+03 -0.40666111115E+03 -0.10152251327E+03  0.54615935997E+03  0.25500000920E-02 0. -1.
</event>
<event>
 5   0  0.7296966E-04  0.1405316E+04  0.7818609E-02  0.8949980E-01
        2   -1    0    0  501    0  0.00000000000E+00  0.00000000000E+00  0.32290446169E+03  0.32290446170E+03  0.25500000920E-02 0.  1.
       -2   -1    0    0    0  501  0.00000000000E+00  0.00000000000E+00 -0.15290227379E+04  0.15290227379E+04  0.25500000920E-02 0. -1.
    10030    2    1    2    0    0  0.00000000000E+00  0.00000000000E+00 -0.12061182762E+04  0.18519271996E+04  0.14053159988E+04 0.  0.
        3    1    3    3  502    0  0.51800203776E+03  0.40619546167E+03 -0.92694721030E+03  0.11369045717E+04  0.10100000352E+00 0.  1.
       -3    1    3    3    0  502 -0.51800203776E+03 -0.40619546167E+03 -0.27917106591E+03  0.71502262793E+03  0.10100000352E+00 0. -1.
</event>
<event>
 5   0  0.6895048E-04  0.1342399E+04  0.7818609E-02  0.8996602E-01
       -2   -1    0    0    0  501  0.00000000000E+00  0.00000000000E+00  0.21707995311E+04  0.21707995311E+04  0.25500000920E-02 0. -1.
        2   -1    0    0  501    0  0.00000000000E+00  0.00000000000E+00 -0.20753119340E+03  0.20753119342E+03  0.25500000920E-02 0.  1.
    10030    2    1    2    0    0  0.00000000000E+00  0.00000000000E+00  0.19632683377E+04  0.23783307245E+04  0.13423987744E+04 0.  0.
        4    1    3    3  502    0  0.64443992592E+03  0.13947295822E+03  0.12039914658E+04  0.13727172275E+04  0.12699999809E+01 0. -1.
       -4    1    3    3    0  502 -0.64443992592E+03 -0.13947295822E+03  0.75927687192E+03  0.10056134970E+04  0.12699999809E+01 0.  1.
</event>
<event>
 5   0  0.7065539E-04  0.1410697E+04  0.7818609E-02  0.8946112E-01
        2   -1    0    0  501    0  0.00000000000E+00  0.00000000000E+00  0.80700361457E+03  0.80700361457E+03  0.25500000920E-02 0.  1.
       -2   -1    0    0    0  501  0.00000000000E+00  0.00000000000E+00 -0.61649806231E+03  0.61649806232E+03  0.25500000920E-02 0. -1.
    10030    2    1    2    0    0  0.00000000000E+00  0.00000000000E+00  0.19050555226E+03  0.14235016769E+04  0.14106965154E+04 0.  0.
        1    1    3    3  502    0  0.56061599396E+02 -0.45198839634E+03  0.63873218791E+03  0.78448404780E+03  0.50400001928E-02 0.  1.
       -1    1    3    3    0  502 -0.56061599396E+02  0.45198839634E+03 -0.44822663565E+03  0.63901762909E+03  0.50400001928E-02 0. -1.
</event>
<event>
 5   0  0.3784219E-04  0.1397910E+04  0.7818609E-02  0.8955333E-01
       -1   -1    0    0    0  501  0.00000000000E+00  0.00000000000E+00  0.46897570612E+03  0.46897570615E+03  0.50400001928E-02 0. -1.
        1   -1    0    0  501    0  0.00000000000E+00  0.00000000000E+00 -0.10417126440E+04  0.10417126441E+04  0.50400001928E-02 0.  1.
    10030    2    1    2    0    0  0.00000000000E+00  0.00000000000E+00 -0.57273693792E+03  0.15106883502E+04  0.13979097580E+04 0.  0.
        1    1    3    3  502    0 -0.28773219284E+03  0.24697038991E+03  0.34815871617E+03  0.51478022491E+03  0.50400001928E-02 0. -1.
       -1    1    3    3    0  502  0.28773219284E+03 -0.24697038991E+03 -0.92089565409E+03  0.99590812530E+03  0.50400001928E-02 0.  1.
</event>
<event>
 5   0  0.3907270E-04  0.1396216E+04  0.7818609E-02  0.8956562E-01
       -1   -1    0    0    0  501  0.00000000000E+00  0.00000000000E+00  0.61374495426E+03  0.61374495428E+03  0.50400001928E-02 0. -1.
        1   -1    0    0  501    0  0.00000000000E+00  0.00000000000E+00 -0.79406713924E+03  0.79406713925E+03  0.50400001928E-02 0.  1.
    10030    2    1    2    0    0  0.00000000000E+00  0.00000000000E+00 -0.18032218498E+03  0.14078120935E+04  0.13962158860E+04 0.  0.
        3    1    3    3  502    0 -0.16845313873E+03  0.26444048769E+03 -0.71907981571E+03  0.78446225087E+03  0.10100000352E+00 0.  1.
       -3    1    3    3    0  502  0.16845313873E+03 -0.26444048769E+03  0.53875763073E+03  0.62334984266E+03  0.10100000352E+00 0. -1.
</event>
<event>
 5   0  0.3784219E-04  0.1420586E+04  0.7818609E-02  0.8939050E-01
        1   -1    0    0  501    0  0.00000000000E+00  0.00000000000E+00  0.95648289654E+03  0.95648289655E+03  0.50400001928E-02 0.  1.
       -1   -1    0    0    0  501  0.00000000000E+00  0.00000000000E+00 -0.52747036148E+03  0.52747036150E+03  0.50400001928E-02 0. -1.
    10030    2    1    2    0    0  0.00000000000E+00  0.00000000000E+00  0.42901253506E+03  0.14839532581E+04  0.14205863285E+04 0.  0.
        1    1    3    3  502    0  0.66760768582E+02 -0.75757574767E+02 -0.51993446672E+03  0.52964899704E+03  0.50400001928E-02 0. -1.
       -1    1    3    3    0  502 -0.66760768582E+02  0.75757574767E+02  0.94894700178E+03  0.95430426101E+03  0.50400001928E-02 0.  1.
</event>
<event>
 5   0  0.6895048E-04  0.1403186E+04  0.7818609E-02  0.8951515E-01
       -2   -1    0    0    0  501  0.00000000000E+00  0.00000000000E+00  0.11895129915E+04  0.11895129915E+04  0.25500000920E-02 0.  1.
        2   -1    0    0  501    0  0.00000000000E+00  0.00000000000E+00 -0.41381060025E+03  0.41381060026E+03  0.25500000920E-02 0. -1.
    10030    2    1    2    0    0  0.00000000000E+00  0.00000000000E+00  0.77570239127E+03  0.16033235918E+04  0.14031864951E+04 0.  0.
        4    1    3    3  502    0 -0.66431001572E+03 -0.22565089786E+03  0.38520891495E+03  0.80038343670E+03  0.12699999809E+01 0.  1.
       -4    1    3    3    0  502  0.66431001572E+03  0.22565089786E+03  0.39049347632E+03  0.80294015508E+03  0.12699999809E+01 0. -1.
</event>
<event>
 5   0  0.6870835E-04  0.1388977E+04  0.7818609E-02  0.8961837E-01
       -2   -1    0    0    0  501  0.00000000000E+00  0.00000000000E+00  0.41619641243E+03  0.41619641243E+03  0.25500000920E-02 0. -1.
        2   -1    0    0  501    0  0.00000000000E+00  0.00000000000E+00 -0.11588616468E+04  0.11588616468E+04  0.25500000920E-02 0.  1.
    10030    2    1    2    0    0  0.00000000000E+00  0.00000000000E+00 -0.74266523438E+03  0.15750580592E+04  0.13889766879E+04 0.  0.
        2    1    3    3  502    0 -0.43297253330E+03 -0.52555742630E+03 -0.21652082972E+03  0.71453277926E+03  0.25500000920E-02 0. -1.
       -2    1    3    3    0  502  0.43297253330E+03  0.52555742630E+03 -0.52614440466E+03  0.86052527998E+03  0.25500000920E-02 0.  1.
</event>
<event>
 5   0  0.6870835E-04  0.1277217E+04  0.7818609E-02  0.9047830E-01
        2   -1    0    0  501    0  0.00000000000E+00  0.00000000000E+00  0.99498146023E+03  0.99498146023E+03  0.25500000920E-02 0. -1.
       -2   -1    0    0    0  501  0.00000000000E+00  0.00000000000E+00 -0.40987796715E+03  0.40987796716E+03  0.25500000920E-02 0.  1.
    10030    2    1    2    0    0  0.00000000000E+00  0.00000000000E+00  0.58510349308E+03  0.14048594274E+04  0.12772172537E+04 0.  0.
        2    1    3    3  502    0 -0.32793698304E+03 -0.12574006695E+03  0.87920922542E+03  0.94676401038E+03  0.25500000920E-02 0. -1.
       -2    1    3    3    0  502  0.32793698304E+03  0.12574006695E+03 -0.29410573235E+03  0.45809541701E+03  0.25500000920E-02 0.  1.
</event>
<event>
 5   0  0.7065539E-04  0.1399691E+04  0.7818609E-02  0.8954043E-01
        2   -1    0    0  501    0  0.00000000000E+00  0.00000000000E+00  0.60577560386E+03  0.60577560386E+03  0.25500000920E-02 0. -1.
       -2   -1    0    0    0  501  0.00000000000E+00  0.00000000000E+00 -0.80852281831E+03  0.80852281832E+03  0.25500000920E-02 0.  1.
    10030    2    1    2    0    0  0.00000000000E+00  0.00000000000E+00 -0.20274721446E+03  0.14142984222E+04  0.13996905351E+04 0.  0.
        1    1    3    3  502    0 -0.26819864477E+03 -0.50143729244E+03 -0.51356919990E+03  0.76623964555E+03  0.50400001928E-02 0.  1.
       -1    1    3    3    0  502  0.26819864477E+03  0.50143729244E+03  0.31082198544E+03  0.64805877663E+03  0.50400001928E-02 0. -1.
</event>
<event>
 5   0  0.6959748E-04  0.1400220E+04  0.7818609E-02  0.8953659E-01
       -2   -1    0    0    0  501  0.00000000000E+00  0.00000000000E+00  0.36540338569E+03  0.36540338570E+03  0.25500000920E-02 0. -1.
        2   -1    0    0  501    0  0.00000000000E+00  0.00000000000E+00 -0.13414059548E+04  0.13414059548E+04  0.25500000920E-02 0.  1.
    10030    2    1    2    0    0  0.00000000000E+00  0.00000000000E+00 -0.97600256910E+03  0.17068093405E+04  0.14002203791E+04 0.  0.
        5    1    3    3  502    0  0.45011696275E+03  0.49285484410E+03 -0.23051250147E+03  0.70616519373E+03  0.46999998093E+01 0. -1.
       -5    1    3    3    0  502 -0.45011696275E+03 -0.49285484410E+03 -0.74549006763E+03  0.10006441468E+04  0.46999998093E+01 0.  1.
</event>
<event>
 5   0  0.3756664E-04  0.1405038E+04  0.7818609E-02  0.8950179E-01
       -1   -1    0    0    0  501  0.00000000000E+00  0.00000000000E+00  0.52920616392E+03  0.52920616394E+03  0.50400001928E-02 0.  1.
        1   -1    0    0  501    0  0.00000000000E+00  0.00000000000E+00 -0.93259172462E+03  0.93259172463E+03  0.50400001928E-02 0. -1.
    10030    2    1    2    0    0  0.00000000000E+00  0.00000000000E+00 -0.40338556070E+03  0.14617978886E+04  0.14050384893E+04 0.  0.
        2    1    3    3  502    0  0.39094053141E+03 -0.32460272210E+03 -0.70639995115E+03  0.87017372822E+03  0.25500000920E-02 0. -1.
       -2    1    3    3    0  502 -0.39094053141E+03  0.32460272210E+03  0.30301439045E+03  0.59162416036E+03  0.25500000920E-02 0.  1.
</event>
<event>
 5   0  0.3907270E-04  0.1391632E+04  0.7818609E-02  0.8959898E-01
        1   -1    0    0  501    0  0.00000000000E+00  0.00000000000E+00  0.54685055140E+03  0.54685055142E+03  0.50400001928E-02 0. -1.
       -1   -1    0    0    0  501  0.00000000000E+00  0.00000000000E+00 -0.88536098809E+03  0.88536098811E+03  0.50400001928E-02 0.  1.
    10030    2    1    2    0    0  0.00000000000E+00  0.00000000000E+00 -0.33851043670E+03  0.14322115395E+04  0.13916323430E+04 0.  0.
        3    1    3    3  502    0 -0.68161514582E+03 -0.25420274311E+02 -0.31079639717E+03  0.74955974282E+03  0.10100000352E+00 0. -1.
       -3    1    3    3    0  502  0.68161514582E+03  0.25420274311E+02 -0.27714039532E+02  0.68265179671E+03  0.10100000352E+00 0.  1.
</event>
<event>
 5   0  0.3784219E-04  0.1398931E+04  0.7818609E-02  0.8954593E-01
        1   -1    0    0  501    0  0.00000000000E+00  0.00000000000E+00  0.50905263457E+03  0.50905263460E+03  0.50400001928E-02 0. -1.
       -1   -1    0    0    0  501  0.00000000000E+00  0.00000000000E+00 -0.96110253772E+03  0.96110253773E+03  0.50400001928E-02 0.  1.
    10030    2    1    2    0    0  0.00000000000E+00  0.00000000000E+00 -0.45204990315E+03  0.14701551723E+04  0.13989307044E+04 0.  0.
        1    1    3    3  502    0 -0.47906649317E+03 -0.49703431866E+03 -0.34447535239E+03  0.77149924642E+03  0.50400001928E-02 0. -1.
       -1    1    3    3    0  502  0.47906649317E+03  0.49703431866E+03 -0.10757455076E+03  0.69865592590E+03  0.50400001928E-02 0.  1.
</event>
<event>
 5   0  0.3756664E-04  0.1288642E+04  0.7818609E-02  0.9038621E-01
        1   -1    0    0  501    0  0.00000000000E+00  0.00000000000E+00  0.21307076415E+04  0.21307076415E+04  0.50400001928E-02 0.  1.
       -1   -1    0    0    0  501  0.00000000000E+00  0.00000000000E+00 -0.19484125282E+03  0.19484125289E+03  0.50400001928E-02 0. -1.
    10030    2    1    2    0    0  0.00000000000E+00  0.00000000000E+00  0.19358663887E+04  0.23255488944E+04  0.12886423031E+04 0.  0.
        2    1    3    3  502    0  0.51377170891E+03 -0.28920638851E+03  0.49890443379E+03  0.77233887517E+03  0.25500000920E-02 0. -1.
       -2    1    3    3    0  502 -0.51377170891E+03  0.28920638851E+03  0.14369619549E+04  0.15532100192E+04  0.25500000920E-02 0.  1.
</event>
<event>
 5   0  0.7296966E-04  0.1404951E+04  0.7818609E-02  0.8950243E-01
        2   -1    0    0  501    0  0.00000000000E+00  0.00000000000E+00  0.11979115662E+04  0.11979115662E+04  0.25500000920E-02 0.  1.
       -2   -1    0    0    0  501  0.00000000000E+00  0.00000000000E+00 -0.41194340171E+03  0.41194340172E+03  0.25500000920E-02 0. -1.
    10030    2    1    2    0    0  0.00000000000E+00  0.00000000000E+00  0.78596816449E+03  0.16098549679E+04  0.14049509109E+04 0.  0.
        3    1    3    3  502    0 -0.30272005556E+03 -0.56315139108E+03  0.59520098094E+02  0.64212270914E+03  0.10100000352E+00 0.  1.
       -3    1    3    3    0  502  0.30272005556E+03  0.56315139108E+03  0.72644806639E+03  0.96773225878E+03  0.10100000352E+00 0. -1.
</event>
<event>
 5   0  0.3756664E-04  0.1461818E+04  0.7818609E-02  0.8910248E-01
        1   -1    0    0  501    0  0.00000000000E+00  0.00000000000E+00  0.12425437144E+04  0.12425437144E+04  0.50400001928E-02 0.  1.
       -1   -1    0    0    0  501  0.00000000000E+00  0.00000000000E+00 -0.42994723204E+03  0.42994723207E+03  0.50400001928E-02 0. -1.
    10030    2    1    2    0    0  0.00000000000E+00  0.00000000000E+00  0.81259648235E+03  0.16724909465E+04  0.14618183618E+04 0.  0.
        2    1    3    3  502    0 -0.26616560470E+02  0.68208184746E+03  0.70527008768E+03  0.98150394014E+03  0.25500000920E-02 0.  1.
       -2    1    3    3    0  502  0.26616560470E+02 -0.68208184746E+03  0.10732639467E+03  0.69098700634E+03  0.25500000920E-02 0. -1.
</event>
<event>
 5   0  0.6959748E-04  0.1385635E+04  0.7818609E-02  0.8964283E-01
        2   -1    0    0  501    0  0.00000000000E+00  0.00000000000E+00  0.98155194696E+03  0.98155194697E+03  0.25500000920E-02 0. -1.
       -2   -1    0    0    0  501  0.00000000000E+00  0.00000000000E+00 -0.48901717150E+03  0.48901717150E+03  0.25500000920E-02 0.  1.
    10030    2    1    2    0    0  0.00000000000E+00  0.00000000000E+00  0.49253477547E+03  0.14705691185E+04  0.13856345215E+04 0.  0.
        5    1    3    3  502    0  0.23243114951E+03 -0.65224321538E+03  0.27065910208E+03  0.74345402737E+03  0.46999998093E+01 0.  1.
       -5    1    3    3    0  502 -0.23243114951E+03  0.65224321538E+03  0.22187567339E+03  0.72711509110E+03  0.46999998093E+01 0. -1.
</event>
<event>
 5   0  0.6895048E-04  0.1398005E+04  0.7818609E-02  0.8955264E-01
       -2   -1    0    0    0  501  0.00000000000E+00  0.00000000000E+00  0.26444304285E+03  0.26444304287E+03  0.25500000920E-02 0.  1.
        2   -1    0    0  501    0  0.00000000000E+00  0.00000000000E+00 -0.18476742109E+04  0.18476742109E+04  0.25500000920E-02 0. -1.
    10030    2    1    2    0    0  0.00000000000E+00  0.00000000000E+00 -0.15832311680E+04  0.21121172537E+04  0.13980051367E+04 0.  0.
        4    1    3    3  502    0 -0.25185563533E+03  0.50008883267E+03 -0.14237815241E+04  0.15299266462E+04  0.12699999809E+01 0. -1.
       -4    1    3    3    0  502  0.25185563533E+03 -0.50008883267E+03 -0.15944964393E+03  0.58219060750E+03  0.12699999809E+01 0.  1.
</event>
<event>
 5   0  0.3977658E-04  0.1387346E+04  0.7818609E-02  0.8963029E-01
        1   -1    0    0  501    0  0.00000000000E+00  0.00000000000E+00  0.18044010729E+04  0.18044010729E+04  0.50400001928E-02 0. -1.
       -1   -1    0    0    0  501  0.00000000000E+00  0.00000000000E+00 -0.26667147210E+03  0.26667147214E+03  0.50400001928E-02 0.  1.
    10030    2    1    2    0    0  0.00000000000E+00  0.00000000000E+00  0.15377296008E+04  0.20710725450E+04  0.13873460858E+04 0.  0.
        5    1    3    3  502    0  0.16005542460E+03 -0.19853375957E+03  0.17318582783E+04  0.17505395108E+04  0.46999998093E+01 0. -1.
       -5    1    3    3    0  502 -0.16005542460E+03  0.19853375957E+03 -0.19412867751E+03  0.32053303427E+03  0.46999998093E+01 0.  1.
</event>
<event>
 5   0  0.3907270E-04  0.1455205E+04  0.7818609E-02  0.8914800E-01
       -1   -1    0    0    0  501  0.00000000000E+00  0.00000000000E+00  0.32206906220E+03  0.32206906224E+03  0.50400001928E-02 0.  1.
        1   -1    0    0  501    0  0.00000000000E+00  0.00000000000E+00 -0.16437641736E+04  0.16437641736E+04  0.50400001928E-02 0. -1.
    10030    2    1    2    0    0  0.00000000000E+00  0.00000000000E+00 -0.13216951114E+04  0.19658332359E+04  0.14552052583E+04 0.  0.
        3    1    3    3  502    0 -0.31839361237E+03 -0.32923752855E+03  0.10289804475E+03  0.46942503173E+03  0.10100000352E+00 0.  1.
       -3    1    3    3    0  502  0.31839361237E+03  0.32923752855E+03 -0.14245931562E+04  0.14964082042E+04  0.10100000352E+00 0. -1.
</event>
<event>
 5   0  0.3907093E-04  0.1393922E+04  0.7818609E-02  0.8958230E-01
        1   -1    0    0  501    0  0.00000000000E+00  0.00000000000E+00  0.18096401224E+04  0.18096401224E+04  0.50400001928E-02 0.  1.
       -1   -1    0    0    0  501  0.00000000000E+00  0.00000000000E+00 -0.26842626625E+03  0.26842626629E+03  0.50400001928E-02 0. -1.
    10030    2    1    2    0    0  0.00000000000E+00  0.00000000000E+00  0.15412138561E+04  0.20780663887E+04  0.13939224388E+04 0.  0.
        4    1    3    3  502    0  0.60616217119E+03 -0.24980862473E+03  0.41808152584E+03  0.77758002927E+03  0.12699999809E+01 0. -1.
       -4    1    3    3    0  502 -0.60616217119E+03  0.24980862473E+03  0.11231323303E+04  0.13004863594E+04  0.12699999809E+01 0.  1.
</event>
<event>
 5   0  0.3977658E-04  0.1452298E+04  0.7818609E-02  0.8916809E-01
       -1   -1    0    0    0  501  0.00000000000E+00  0.00000000000E+00  0.73026214641E+03  0.73026214643E+03  0.50400001928E-02 0. -1.
        1   -1    0    0  501    0  0.00000000000E+00  0.00000000000E+00 -0.72205947216E+03  0.72205947218E+03  0.50400001928E-02 0.  1.
    10030    2    1    2    0    0  0.00000000000E+00  0.00000000000E+00  0.82026742496E+01  0.14523216186E+04  0.14522984542E+04 0.  0.
        5    1    3    3  502    0 -0.15854769691E+02  0.44678831781E+03  0.57629875026E+03  0.72939256522E+03  0.46999998093E+01 0. -1.
       -5    1    3    3    0  502  0.15854769691E+02 -0.44678831781E+03 -0.56809607601E+03  0.72292905339E+03  0.46999998093E+01 0.  1.
</event>
<event>
 5   0  0.6870835E-04  0.1392267E+04  0.7818609E-02  0.8959435E-01
        2   -1    0    0  501    0  0.00000000000E+00  0.00000000000E+00  0.41084800183E+03  0.41084800183E+03  0.25500000920E-02 0.  1.
       -2   -1    0    0    0  501  0.00000000000E+00  0.00000000000E+00 -0.11795165403E+04  0.11795165403E+04  0.25500000920E-02 0. -1.
    10030    2    1    2    0    0  0.00000000000E+00  0.00000000000E+00 -0.76866853848E+03  0.15903645421E+04  0.13922672354E+04 0.  0.
        2    1    3    3  502    0 -0.25362241141E+03 -0.52597783531E+03  0.48567246786E+02  0.58594862255E+03  0.25500000920E-02 0. -1.
       -2    1    3    3    0  502  0.25362241141E+03  0.52597783531E+03 -0.81723578527E+03  0.10044159196E+04  0.25500000920E-02 0.  1.
</event>
<event>
 5   0  0.3756664E-04  0.1387542E+04  0.7818609E-02  0.8962886E-01
       -1   -1    0    0    0  501  0.00000000000E+00  0.00000000000E+00  0.48245705797E+03  0.48245705799E+03  0.50400001928E-02 0. -1.
        1   -1    0    0  501    0  0.00000000000E+00  0.00000000000E+00 -0.99763980713E+03  0.99763980715E+03  0.50400001928E-02 0.  1.
    10030    2    1    2    0    0  0.00000000000E+00  0.00000000000E+00 -0.51518274917E+03  0.14800968651E+04  0.13875422391E+04 0.  0.
        2    1    3    3  502    0 -0.14914234666E+03  0.38086734950E+03 -0.85534072864E+03  0.94810924453E+03  0.25500000920E-02 0.  1.
       -2    1    3    3    0  502  0.14914234666E+03 -0.38086734950E+03  0.34015797947E+03  0.53198762061E+03  0.25500000920E-02 0. -1.
</event>
<event>
 5   0  0.6959748E-04  0.1441279E+04  0.7818609E-02  0.8924469E-01
       -2   -1    0    0    0  501  0.00000000000E+00  0.00000000000E+00  0.59051162343E+03  0.59051162344E+03  0.25500000920E-02 0.  1.
        2   -1    0    0  501    0  0.00000000000E+00  0.00000000000E+00 -0.87944326776E+03  0.87944326777E+03  0.25500000920E-02 0. -1.
    10030    2    1    2    0    0  0.00000000000E+00  0.00000000000E+00 -0.28893164433E+03  0.14699548912E+04  0.14412792537E+04 0.  0.
        5    1    3    3  502    0  0.78923037633E+02  0.71364772480E+03 -0.20714969990E+03  0.74729847394E+03  0.46999998093E+01 0. -1.
       -5    1    3    3    0  502 -0.78923037633E+02 -0.71364772480E+03 -0.81781944428E+02  0.72265641727E+03  0.46999998093E+01 0.  1.
</event>
<event>
 5   0  0.3784219E-04  0.1386902E+04  0.7818609E-02  0.8963354E-01
       -1   -1    0    0    0  501  0.00000000000E+00  0.00000000000E+00  0.53750169090E+03  0.53750169092E+03  0.50400001928E-02 0.  1.
        1   -1    0    0  501    0  0.00000000000E+00  0.00000000000E+00 -0.89464704570E+03  0.89464704571E+03  0.50400001928E-02 0. -1.
    10030    2    1    2    0    0  0.00000000000E+00  0.00000000000E+00 -0.35714535480E+03  0.14321487366E+04  0.13869020151E+04 0.  0.
        1    1    3    3  502    0 -0.33581148028E+03 -0.81298011612E+02  0.44228755417E+03  0.56124593324E+03  0.50400001928E-02 0.  1.
       -1    1    3    3    0  502  0.33581148028E+03  0.81298011612E+02 -0.79943290897E+03  0.87090280339E+03  0.50400001928E-02 0. -1.
</event>
<event>
 5   0  0.7296966E-04  0.1399151E+04  0.7818609E-02  0.8954433E-01
       -2   -1    0    0    0  501  0.00000000000E+00  0.00000000000E+00  0.26582946766E+03  0.26582946767E+03  0.25500000920E-02 0. -1.
        2   -1    0    0  501    0  0.00000000000E+00  0.00000000000E+00 -0.18410520371E+04  0.18410520371E+04  0.25500000920E-02 0.  1.
    10030    2    1    2    0    0  0.00000000000E+00  0.00000000000E+00 -0.15752225694E+04  0.21068815048E+04  0.13991510040E+04 0.  0.
        3    1    3    3  502    0  0.27231280447E+03  0.28170480915E+03  0.85112177597E+02  0.40094383141E+03  0.10100000352E+00 0. -1.
       -3    1    3    3    0  502 -0.27231280447E+03 -0.28170480915E+03 -0.16603347470E+04  0.17059376733E+04  0.10100000352E+00 0.  1.
</event>
<event>
 5   0  0.6959748E-04  0.1400306E+04  0.7818609E-02  0.8953597E-01
        2   -1    0    0  501    0  0.00000000000E+00  0.00000000000E+00  0.14056266773E+04  0.14056266773E+04  0.25500000920E-02 0.  1.
       -2   -1    0    0    0  501  0.00000000000E+00  0.00000000000E+00 -0.34875160803E+03  0.34875160804E+03  0.25500000920E-02 0. -1.
    10030    2    1    2    0    0  0.00000000000E+00  0.00000000000E+00  0.10568750692E+04  0.17543782853E+04  0.14003064864E+04 0.  0.
        5    1    3    3  502    0 -0.65496917575E+03  0.19482997457E+03  0.71946839484E+03  0.99227022597E+03  0.46999998093E+01 0.  1.
       -5    1    3    3    0  502  0.65496917575E+03 -0.19482997457E+03  0.33740667439E+03  0.76210805933E+03  0.46999998093E+01 0. -1.
</event>
<event>
 5   0  0.6959748E-04  0.1402519E+04  0.7818609E-02  0.8951997E-01
       -2   -1    0    0    0  501  0.00000000000E+00  0.00000000000E+00  0.73679302152E+03  0.73679302152E+03  0.25500000920E-02 0. -1.
        2   -1    0    0  501    0  0.00000000000E+00  0.00000000000E+00 -0.66743959874E+03  0.66743959875E+03  0.25500000920E-02 0.  1.
    10030    2    1    2    0    0  0.00000000000E+00  0.00000000000E+00  0.69353422779E+02  0.14042326203E+04  0.14025189320E+04 0.  0.
        5    1    3    3  502    0  0.69860888696E+03 -0.36998471447E+02 -0.13543164903E+02  0.69973478629E+03  0.46999998093E+01 0.  1.
       -5    1    3    3    0  502 -0.69860888696E+03  0.36998471447E+02  0.82896587682E+02  0.70449783398E+03  0.46999998093E+01 0. -1.
</event>
<event>
 5   0  0.7296966E-04  0.1401545E+04  0.7818609E-02  0.8952701E-01
       -2   -1    0    0    0  501  0.00000000000E+00  0.00000000000E+00  0.37322382809E+03  0.37322382810E+03  0.25500000920E-02 0. -1.
        2   -1    0    0  501    0  0.00000000000E+00  0.00000000000E+00 -0.13157841511E+04  0.13157841511E+04  0.25500000920E-02 0.  1.
    10030    2    1    2    0    0  0.00000000000E+00  0.00000000000E+00 -0.94256032303E+03  0.16890079792E+04  0.14015448588E+04 0.  0.
        3    1    3    3  502    0  0.69993414776E+03  0.10452822735E+02 -0.51060637717E+03  0.86645020360E+03  0.10100000352E+00 0.  1.
       -3    1    3    3    0  502 -0.69993414776E+03 -0.10452822735E+02 -0.43195394587E+03  0.82255777563E+03  0.10100000352E+00 0. -1.
</event>
<event>
 5   0  0.3784219E-04  0.1403817E+04  0.7818609E-02  0.8951060E-01
       -1   -1    0    0    0  501  0.00000000000E+00  0.00000000000E+00  0.68447911135E+03  0.68447911137E+03  0.50400001928E-02 0.  1.
        1   -1    0    0  501    0  0.00000000000E+00  0.00000000000E+00 -0.71978199039E+03  0.71978199041E+03  0.50400001928E-02 0. -1.
    10030    2    1    2    0    0  0.00000000000E+00  0.00000000000E+00 -0.35302879045E+02  0.14042611018E+04  0.14038172775E+04 0.  0.
        1    1    3    3  502    0 -0.31262436884E+03 -0.21900552848E+03  0.57158344776E+03  0.68731728865E+03  0.50400001928E-02 0.  1.
       -1    1    3    3    0  502  0.31262436884E+03  0.21900552848E+03 -0.60688632680E+03  0.71694381313E+03  0.50400001928E-02 0. -1.
</event>
<event>
 5   0  0.3756664E-04  0.1403113E+04  0.7818609E-02  0.8951568E-01
       -1   -1    0    0    0  501  0.00000000000E+00  0.00000000000E+00  0.63630131868E+03  0.63630131870E+03  0.50400001928E-02 0. -1.
        1   -1    0    0  501    0  0.00000000000E+00  0.00000000000E+00 -0.77350356802E+03  0.77350356804E+03  0.50400001928E-02 0.  1.
    10030    2    1    2    0    0  0.00000000000E+00  0.00000000000E+00 -0.13720224934E+03  0.14098048867E+04  0.14031127401E+04 0.  0.
        2    1    3    3  502    0  0.53089157786E+03 -0.16387364639E+03  0.36178858153E+03  0.66301690564E+03  0.25500000920E-02 0. -1.
       -2    1    3    3    0  502 -0.53089157786E+03  0.16387364639E+03 -0.49899083087E+03  0.74678798110E+03  0.25500000920E-02 0.  1.
</event>
<event>
 5   0  0.3977658E-04  0.1397671E+04  0.7818609E-02  0.8955506E-01
        1   -1    0    0  501    0  0.00000000000E+00  0.00000000000E+00  0.54592880266E+03  0.54592880269E+03  0.50400001928E-02 0. -1.
       -1   -1    0    0    0  501  0.00000000000E+00  0.00000000000E+00 -0.89456867765E+03  0.89456867766E+03  0.50400001928E-02 0.  1.
    10030    2    1    2    0    0  0.00000000000E+00  0.00000000000E+00 -0.34863987498E+03  0.14404974803E+04  0.13976706438E+04 0.  0.
        5    1    3    3  502    0 -0.61438231492E+03  0.97253382950E+01 -0.51736803290E+03  0.80327578238E+03  0.46999998093E+01 0.  1.
       -5    1    3    3    0  502  0.61438231492E+03 -0.97253382950E+01  0.16872815792E+03  0.63722169797E+03  0.46999998093E+01 0. -1.
</event>
<event>
 5   0  0.6870835E-04  0.1398917E+04  0.7818609E-02  0.8954603E-01
       -2   -1    0    0    0  501  0.00000000000E+00  0.00000000000E+00  0.32221926909E+03  0.32221926910E+03  0.25500000920E-02 0.  1.
        2   -1    0    0  501    0  0.00000000000E+00  0.00000000000E+00 -0.15183525843E+04  0.15183525843E+04  0.25500000920E-02 0. -1.
    10030    2    1    2    0    0  0.00000000000E+00  0.00000000000E+00 -0.11961333152E+04  0.18405718534E+04  0.13989173813E+04 0.  0.
        2    1    3    3  502    0  0.85333700661E+02 -0.34602824811E+03  0.19379618250E+03  0.40567764212E+03  0.25500000920E-02 0.  1.
       -2    1    3    3    0  502 -0.85333700661E+02  0.34602824811E+03 -0.13899294977E+04  0.14348942113E+04  0.25500000920E-02 0. -1.
</event>
<event>
 5   0  0.3907270E-04  0.1400413E+04  0.7818609E-02  0.8953520E-01
        1   -1    0    0  501    0  0.00000000000E+00  0.00000000000E+00  0.14249035466E+04  0.14249035466E+04  0.50400001928E-02 0.  1.
       -1   -1    0    0    0  501  0.00000000000E+00  0.00000000000E+00 -0.34408573183E+03  0.34408573186E+03  0.50400001928E-02 0. -1.
    10030    2    1    2    0    0  0.00000000000E+00  0.00000000000E+00  0.10808178148E+04  0.17689892785E+04  0.14004127672E+04 0.  0.
        3    1    3    3  502    0 -0.51379866083E+03 -0.35865741051E+03  0.14564439962E+03  0.64330125394E+03  0.10100000352E+00 0. -1.
       -3    1    3    3    0  502  0.51379866083E+03  0.35865741051E+03  0.93517341518E+03  0.11256880246E+04  0.10100000352E+00 0.  1.
</event>
<event>
 5   0  0.3907093E-04  0.1400473E+04  0.7818609E-02  0.8953476E-01
       -1   -1    0    0    0  501  0.00000000000E+00  0.00000000000E+00  0.81514112398E+03  0.81514112400E+03  0.50400001928E-02 0.  1.
        1   -1    0    0  501    0  0.00000000000E+00  0.00000000000E+00 -0.60152886898E+03  0.60152886900E+03  0.50400001928E-02 0. -1.
    10030    2    1    2    0    0  0.00000000000E+00  0.00000000000E+00  0.21361225500E+03  0.14166699930E+04  0.14004726608E+04 0.  0.
        4    1    3    3  502    0 -0.13860654060E+03 -0.63253161552E+03  0.37638653858E+03  0.74898361601E+03  0.12699999809E+01 0.  1.
       -4    1    3    3    0  502  0.13860654060E+03  0.63253161552E+03 -0.16277428359E+03  0.66768637699E+03  0.12699999809E+01 0. -1.
</event>
<event>
 5   0  0.6895048E-04  0.1386552E+04  0.7818609E-02  0.8963611E-01
        2   -1    0    0  501    0  0.00000000000E+00  0.00000000000E+00  0.63047326924E+03  0.63047326924E+03  0.25500000920E-02 0. -1.
       -2   -1    0    0    0  501  0.00000000000E+00  0.00000000000E+00 -0.76233483166E+03  0.76233483167E+03  0.25500000920E-02 0.  1.
    10030    2    1    2    0    0  0.00000000000E+00  0.00000000000E+00 -0.13186156243E+03  0.13928081009E+04  0.13865521751E+04 0.  0.
        4    1    3    3  502    0 -0.61117419166E+03 -0.27572991605E+03 -0.24299075404E+03  0.71316687991E+03  0.12699999809E+01 0.  1.
       -4    1    3    3    0  502  0.61117419166E+03  0.27572991605E+03  0.11112919162E+03  0.67964122100E+03  0.12699999809E+01 0. -1.
</event>
<event>
 5   0  0.3907093E-04  0.1230192E+04  0.7818609E-02  0.9086832E-01
       -1   -1    0    0    0  501  0.00000000000E+00  0.00000000000E+00  0.64250712435E+03  0.64250712437E+03  0.50400001928E-02 0.  1.
        1   -1    0    0  501    0  0.00000000000E+00  0.00000000000E+00 -0.58885442706E+03  0.58885442708E+03  0.50400001928E-02 0. -1.
    10030    2    1    2    0    0  0.00000000000E+00  0.00000000000E+00  0.53652697287E+02  0.12313615514E+04  0.12301921226E+04 0.  0.
        4    1    3    3  502    0  0.18720798084E+03  0.50125077918E+03 -0.27684692213E+03  0.60244917039E+03  0.12699999809E+01 0. -1.
       -4    1    3    3    0  502 -0.18720798084E+03 -0.50125077918E+03  0.33049961941E+03  0.62891238106E+03  0.12699999809E+01 0.  1.
</event>
<event>
 5   0  0.3907093E-04  0.1390769E+04  0.7818609E-02  0.8960528E-01
       -1   -1    0    0    0  501  0.00000000000E+00  0.00000000000E+00  0.38794052179E+03  0.38794052182E+03  0.50400001928E-02 0.  1.
        1   -1    0    0  501    0  0.00000000000E+00  0.00000000000E+00 -0.12464781822E+04  0.12464781823E+04  0.50400001928E-02 0. -1.
    10030    2    1    2    0    0  0.00000000000E+00  0.00000000000E+00 -0.85853766046E+03  0.16344187041E+04  0.13907687032E+04 0.  0.
        4    1    3    3  502    0 -0.41276226397E+03  0.48067604348E+03 -0.76607049742E+03  0.99412663442E+03  0.12699999809E+01 0. -1.
       -4    1    3    3    0  502  0.41276226397E+03 -0.48067604348E+03 -0.92467163038E+02  0.64029206967E+03  0.12699999809E+01 0.  1.
</event>
<event>
 5   0  0.3784219E-04  0.1433994E+04  0.7818609E-02  0.8929573E-01
       -1   -1    0    0    0  501  0.00000000000E+00  0.00000000000E+00  0.35676304988E+03  0.35676304992E+03  0.50400001928E-02 0.  1.
        1   -1    0    0  501    0  0.00000000000E+00  0.00000000000E+00 -0.14409688148E+04  0.14409688149E+04  0.50400001928E-02 0. -1.
    10030    2    1    2    0    0  0.00000000000E+00  0.00000000000E+00 -0.10842057650E+04  0.17977318648E+04  0.14339936251E+04 0.  0.
        1    1    3    3  502    0 -0.27433718507E+03 -0.32032944697E+03 -0.12690196348E+04  0.13372668691E+04  0.50400001928E-02 0. -1.
       -1    1    3    3    0  502  0.27433718507E+03  0.32032944697E+03  0.18481386984E+03  0.46046499565E+03  0.50400001928E-02 0.  1.
</event>
<event>
 5   0  0.7065539E-04  0.1421577E+04  0.7818609E-02  0.8938346E-01
       -2   -1    0    0    0  501  0.00000000000E+00  0.00000000000E+00  0.15750054908E+04  0.15750054908E+04  0.25500000920E-02 0.  1.
        2   -1    0    0  501    0  0.00000000000E+00  0.00000000000E+00 -0.32077366518E+03  0.32077366519E+03  0.25500000920E-02 0. -1.
    10030    2    1    2    0    0  0.00000000000E+00  0.00000000000E+00  0.12542318256E+04  0.18957791560E+04  0.14215769891E+04 0.  0.
        1    1    3    3  502    0  0.39496121511E+03  0.20169514868E+03  0.13678743522E+04  0.14379692409E+04  0.50400001928E-02 0.  1.
       -1    1    3    3    0  502 -0.39496121511E+03 -0.20169514868E+03 -0.11364252659E+03  0.45780991505E+03  0.50400001928E-02 0. -1.
</event>
<event>
 5   0  0.3907270E-04  0.1396125E+04  0.7818609E-02  0.8956628E-01
       -1   -1    0    0    0  501  0.00000000000E+00  0.00000000000E+00  0.98083189298E+03  0.98083189299E+03  0.50400001928E-02 0.  1.
        1   -1    0    0  501    0  0.00000000000E+00  0.00000000000E+00 -0.49681459192E+03  0.49681459195E+03  0.50400001928E-02 0. -1.
    10030    2    1    2    0    0  0.00000000000E+00  0.00000000000E+00  0.48401730106E+03  0.14776464849E+04  0.13961254910E+04 0.  0.
        3    1    3    3  502    0  0.23046081243E+03 -0.46875999221E+03  0.73212873704E+03  0.89936678512E+03  0.10100000352E+00 0. -1.
       -3    1    3    3    0  502 -0.23046081243E+03  0.46875999221E+03 -0.24811143598E+03  0.57827969983E+03  0.10100000352E+00 0.  1.
</event>
<event>
 5   0  0.6870835E-04  0.1398694E+04  0.7818609E-02  0.8954765E-01
       -2   -1    0    0    0  501  0.00000000000E+00  0.00000000000E+00  0.12843547009E+04  0.12843547009E+04  0.25500000920E-02 0.  1.
        2   -1    0    0  501    0  0.00000000000E+00  0.00000000000E+00 -0.38080292931E+03  0.38080292932E+03  0.25500000920E-02 0. -1.
    10030    2    1    2    0    0  0.00000000000E+00  0.00000000000E+00  0.90355177157E+03  0.16651576302E+04  0.13986937226E+04 0.  0.
        2    1    3    3  502    0 -0.71323774886E+02  0.65666111073E+03  0.17823031490E+03  0.68414687046E+03  0.25500000920E-02 0. -1.
       -2    1    3    3    0  502  0.71323774886E+02 -0.65666111073E+03  0.72532145667E+03  0.98101075974E+03  0.25500000920E-02 0.  1.
</event>
<event>
 5   0  0.7296966E-04  0.1401322E+04  0.7818609E-02  0.8952862E-01
       -2   -1    0    0    0  501  0.00000000000E+00  0.00000000000E+00  0.41630851922E+03  0.41630851923E+03  0.25500000920E-02 0.  1.
        2   -1    0    0  501    0  0.00000000000E+00  0.00000000000E+00 -0.11792360056E+04  0.11792360056E+04  0.25500000920E-02 0. -1.
    10030    2    1    2    0    0  0.00000000000E+00  0.00000000000E+00 -0.76292748636E+03  0.15955445248E+04  0.14013222260E+04 0.  0.
        3    1    3    3  502    0  0.49772691135E+03  0.43744832557E+02  0.17781955029E+03  0.53034469105E+03  0.10100000352E+00 0.  1.
       -3    1    3    3    0  502 -0.49772691135E+03 -0.43744832557E+02 -0.94074703666E+03  0.10651998338E+04  0.10100000352E+00 0. -1.
</event>
<event>
 5   0  0.2660250E-04  0.1405907E+04  0.7818609E-02  0.8949553E-01
        3   -1    0    0  501    0  0.00000000000E+00  0.00000000000E+00  0.85426916996E+03  0.85426917593E+03  0.10100000352E+00 0. -1.
       -3   -1    0    0    0  501  0.00000000000E+00  0.00000000000E+00 -0.57844057253E+03  0.57844058135E+03  0.10100000352E+00 0.  1.
    10030    2    1    2    0    0  0.00000000000E+00  0.00000000000E+00  0.27582859743E+03  0.14327097573E+04  0.14059074768E+04 0.  0.
        4    1    3    3  502    0  0.19949745179E+02  0.12232435284E+03 -0.56721697986E+03  0.58060137338E+03  0.12699999809E+01 0.  1.
       -4    1    3    3    0  502 -0.19949745179E+02 -0.12232435284E+03  0.84304557729E+03  0.85210838390E+03  0.12699999809E+01 0. -1.
</event>
<event>
 5   0  0.3977658E-04  0.1385373E+04  0.7818609E-02  0.8964475E-01
        1   -1    0    0  501    0  0.00000000000E+00  0.00000000000E+00  0.11046822814E+04  0.11046822814E+04  0.50400001928E-02 0. -1.
       -1   -1    0    0    0  501  0.00000000000E+00  0.00000000000E+00 -0.43434636819E+03  0.43434636822E+03  0.50400001928E-02 0.  1.
    10030    2    1    2    0    0  0.00000000000E+00  0.00000000000E+00  0.67033591321E+03  0.15390286496E+04  0.13853732161E+04 0.  0.
        5    1    3    3  502    0 -0.35059092586E+03  0.29576783286E+03 -0.24143749525E+03  0.51836933007E+03  0.46999998093E+01 0.  1.
       -5    1    3    3    0  502  0.35059092586E+03 -0.29576783286E+03  0.91177340845E+03  0.10206593196E+04  0.46999998093E+01 0. -1.
</event>
<event>
 5   0  0.6895048E-04  0.1406960E+04  0.7818609E-02  0.8948796E-01
       -2   -1    0    0    0  501  0.00000000000E+00  0.00000000000E+00  0.88540496557E+03  0.88540496557E+03  0.25500000920E-02 0.  1.
        2   -1    0    0  501    0  0.00000000000E+00  0.00000000000E+00 -0.55893541711E+03  0.55893541712E+03  0.25500000920E-02 0. -1.
    10030    2    1    2    0    0  0.00000000000E+00  0.00000000000E+00  0.32646954846E+03  0.14443403827E+04  0.14069601185E+04 0.  0.
        4    1    3    3  502    0 -0.17428597482E+03 -0.28485075175E+03  0.79885125066E+03  0.86584091228E+03  0.12699999809E+01 0.  1.
       -4    1    3    3    0  502  0.17428597482E+03  0.28485075175E+03 -0.47238170220E+03  0.57849947041E+03  0.12699999809E+01 0. -1.
</event>
<event>
 5   0  0.6895048E-04  0.1398600E+04  0.7818609E-02  0.8954833E-01
        2   -1    0    0  501    0  0.00000000000E+00  0.00000000000E+00  0.53641144896E+03  0.53641144897E+03  0.25500000920E-02 0.  1.
       -2   -1    0    0    0  501  0.00000000000E+00  0.00000000000E+00 -0.91165175503E+03  0.91165175503E+03  0.25500000920E-02 0. -1.
    10030    2    1    2    0    0  0.00000000000E+00  0.00000000000E+00 -0.37524030607E+03  0.14480632040E+04  0.13985999269E+04 0.  0.
        4    1    3    3  502    0  0.30975387473E+03  0.10857154051E+03 -0.82693982846E+03  0.88970013775E+03  0.12699999809E+01 0. -1.
       -4    1    3    3    0  502 -0.30975387473E+03 -0.10857154051E+03  0.45169952240E+03  0.55836306625E+03  0.12699999809E+01 0.  1.
</event>
<event>
 5   0  0.6870835E-04  0.1405629E+04  0.7818609E-02  0.8949754E-01
       -2   -1    0    0    0  501  0.00000000000E+00  0.00000000000E+00  0.19384857834E+03  0.19384857836E+03  0.25500000920E-02 0.  1.
        2   -1    0    0  501    0  0.00000000000E+00  0.00000000000E+00 -0.25481153048E+04  0.25481153049E+04  0.25500000920E-02 0. -1.
    10030    2    1    2    0    0  0.00000000000E+00  0.00000000000E+00 -0.23542667265E+04  0.27419638832E+04  0.14056294381E+04 0.  0.
        2    1    3    3  502    0  0.25517702322E+03 -0.40645374502E+03 -0.21787167733E+04  0.22309474978E+04  0.25500000920E-02 0. -1.
       -2    1    3    3    0  502 -0.25517702322E+03  0.40645374502E+03 -0.17554995323E+03  0.51101638536E+03  0.25500000920E-02 0.  1.
</event>
<event>
 5   0  0.3907270E-04  0.1404498E+04  0.7818609E-02  0.8950569E-01
        1   -1    0    0  501    0  0.00000000000E+00  0.00000000000E+00  0.14013737330E+04  0.14013737330E+04  0.50400001928E-02 0.  1.
       -1   -1    0    0    0  501  0.00000000000E+00  0.00000000000E+00 -0.35190723563E+03  0.35190723567E+03  0.50400001928E-02 0. -1.
    10030    2    1    2    0    0  0.00000000000E+00  0.00000000000E+00  0.10494664974E+04  0.17532809687E+04  0.14044978555E+04 0.  0.
        3    1    3    3  502    0  0.49749120616E+03 -0.48444686772E+03  0.65546463711E+03  0.95489275239E+03  0.10100000352E+00 0.  1.
       -3    1    3    3    0  502 -0.49749120616E+03  0.48444686772E+03  0.39400186030E+03  0.79838821633E+03  0.10100000352E+00 0. -1.
</event>
<event>
 5   0  0.7296966E-04  0.1388740E+04  0.7818609E-02  0.8962010E-01
       -2   -1    0    0    0  501  0.00000000000E+00  0.00000000000E+00  0.39982073500E+03  0.39982073501E+03  0.25500000920E-02 0.  1.
        2   -1    0    0  501    0  0.00000000000E+00  0.00000000000E+00 -0.12059139843E+04  0.12059139843E+04  0.25500000920E-02 0. -1.
    10030    2    1    2    0    0  0.00000000000E+00  0.00000000000E+00 -0.80609324927E+03  0.16057347193E+04  0.13887395948E+04 0.  0.
        3    1    3    3  502    0  0.53746675076E+03  0.43836039289E+03 -0.36436717636E+03  0.78344992925E+03  0.10100000352E+00 0.  1.
       -3    1    3    3    0  502 -0.53746675076E+03 -0.43836039289E+03 -0.44172607291E+03  0.82228479003E+03  0.10100000352E+00 0. -1.
</event>
<event>
 5   0  0.3977658E-04  0.1395189E+04  0.7818609E-02  0.8957308E-01
       -1   -1    0    0    0  501  0.00000000000E+00  0.00000000000E+00  0.33466155783E+03  0.33466155787E+03  0.50400001928E-02 0. -1.
        1   -1    0    0  501    0  0.00000000000E+00  0.00000000000E+00 -0.14541197015E+04  0.14541197015E+04  0.50400001928E-02 0.  1.
    10030    2    1    2    0    0  0.00000000000E+00  0.00000000000E+00 -0.11194581437E+04  0.17887812594E+04  0.13951888254E+04 0.  0.
        5    1    3    3  502    0  0.60970180336E+03 -0.15196864186E+03 -0.94815693993E+03  0.11374772217E+04  0.46999998093E+01 0.  1.
       -5    1    3    3    0  502 -0.60970180336E+03  0.15196864186E+03 -0.17130120376E+03  0.65130403771E+03  0.46999998093E+01 0. -1.
</event>
<event>
 5   0  0.3907270E-04  0.1397570E+04  0.7818609E-02  0.8955580E-01
       -1   -1    0    0    0  501  0.00000000000E+00  0.00000000000E+00  0.21199946112E+03  0.21199946118E+03  0.50400001928E-02 0.  1.
        1   -1    0    0  501    0  0.00000000000E+00  0.00000000000E+00 -0.23033085729E+04  0.23033085729E+04  0.50400001928E-02 0. -1.
    10030    2    1    2    0    0  0.00000000000E+00  0.00000000000E+00 -0.20913091118E+04  0.25153080341E+04  0.13975695708E+04 0.  0.
        3    1    3    3  502    0 -0.14072348124E+03  0.41024054716E+03 -0.20317589934E+04  0.20775333986E+04  0.10100000352E+00 0. -1.
       -3    1    3    3    0  502  0.14072348124E+03 -0.41024054716E+03 -0.59550118376E+02  0.43777463552E+03  0.10100000352E+00 0.  1.
</event>
<event>
 5   0  0.2660250E-04  0.1402761E+04  0.7818609E-02  0.8951823E-01
       -3   -1    0    0    0  501  0.00000000000E+00  0.00000000000E+00  0.97686886652E+03  0.97686887174E+03  0.10100000352E+00 0.  1.
        3   -1    0    0  501    0  0.00000000000E+00  0.00000000000E+00 -0.50358273621E+03  0.50358274634E+03  0.10100000352E+00 0. -1.
    10030    2    1    2    0    0  0.00000000000E+00  0.00000000000E+00  0.47328613031E+03  0.14804516181E+04  0.14027605756E+04 0.  0.
        2    1    3    3  502    0 -0.76946614704E+02 -0.53588336394E+03  0.70725758892E+03  0.89067674178E+03  0.25500000920E-02 0.  1.
       -2    1    3    3    0  502  0.76946614704E+02  0.53588336394E+03 -0.23397145861E+03  0.58977487630E+03  0.25500000920E-02 0. -1.
</event>
<event>
 5   0  0.6895048E-04  0.1407270E+04  0.7818609E-02  0.8948573E-01
        2   -1    0    0  501    0  0.00000000000E+00  0.00000000000E+00  0.24146041442E+04  0.24146041442E+04  0.25500000920E-02 0. -1.
       -2   -1    0    0    0  501  0.00000000000E+00  0.00000000000E+00 -0.20504492311E+03  0.20504492313E+03  0.25500000920E-02 0.  1.
    10030    2    1    2    0    0  0.00000000000E+00  0.00000000000E+00  0.22095592211E+04  0.26196490674E+04  0.14072701533E+04 0.  0.
        4    1    3    3  502    0  0.69316699307E+03 -0.72657954075E+02  0.12846929977E+04  0.14615735937E+04  0.12699999809E+01 0.  1.
       -4    1    3    3    0  502 -0.69316699307E+03  0.72657954075E+02  0.92486622347E+03  0.11580754737E+04  0.12699999809E+01 0. -1.
</event>
<event>
 5   0  0.3907093E-04  0.1392993E+04  0.7818609E-02  0.8958907E-01
       -1   -1    0    0    0  501  0.00000000000E+00  0.00000000000E+00  0.67353229558E+03  0.67353229560E+03  0.50400001928E-02 0.  1.
        1   -1    0    0  501    0  0.00000000000E+00  0.00000000000E+00 -0.72024325385E+03  0.72024325387E+03  0.50400001928E-02 0. -1.
    10030    2    1    2    0    0  0.00000000000E+00  0.00000000000E+00 -0.46710958267E+02  0.13937755495E+04  0.13929925946E+04 0.  0.
        4    1    3    3  502    0 -0.18516832971E+03  0.47099352808E+03 -0.50214639964E+03  0.71293396145E+03  0.12699999809E+01 0. -1.
       -4    1    3    3    0  502  0.18516832971E+03 -0.47099352808E+03  0.45543544137E+03  0.68084158802E+03  0.12699999809E+01 0.  1.
</event>
<event>
 5   0  0.3907270E-04  0.1405057E+04  0.7818609E-02  0.8950167E-01
        1   -1    0    0  501    0  0.00000000000E+00  0.00000000000E+00  0.74178800169E+03  0.74178800170E+03  0.50400001928E-02 0. -1.
       -1   -1    0    0    0  501  0.00000000000E+00  0.00000000000E+00 -0.66534636603E+03  0.66534636605E+03  0.50400001928E-02 0.  1.
    10030    2    1    2    0    0  0.00000000000E+00  0.00000000000E+00  0.76441635656E+02  0.14071343678E+04  0.14050565132E+04 0.  0.
        3    1    3    3  502    0 -0.72278497679E+02 -0.12937927086E+03 -0.64951356908E+03  0.66620647218E+03  0.10100000352E+00 0.  1.
       -3    1    3    3    0  502  0.72278497679E+02  0.12937927086E+03  0.72595520474E+03  0.74092789557E+03  0.10100000352E+00 0. -1.
</event>
<event>
 5   0  0.6870835E-04  0.1383228E+04  0.7818609E-02  0.8966049E-01
       -2   -1    0    0    0  501  0.00000000000E+00  0.00000000000E+00  0.11971714673E+04  0.11971714673E+04  0.25500000920E-02 0. -1.
        2   -1    0    0  501    0  0.00000000000E+00  0.00000000000E+00 -0.39954991922E+03  0.39954991923E+03  0.25500000920E-02 0.  1.
    10030    2    1    2    0    0  0.00000000000E+00  0.00000000000E+00  0.79762154804E+03  0.15967213865E+04  0.13832277658E+04 0.  0.
        2    1    3    3  502    0 -0.60266682768E+03 -0.11405334131E+03  0.29936207608E+02  0.61409416736E+03  0.25500000920E-02 0. -1.
       -2    1    3    3    0  502  0.60266682768E+03  0.11405334131E+03  0.76768534043E+03  0.98262721913E+03  0.25500000920E-02 0.  1.
</event>
<event>
 5   0  0.3907270E-04  0.1396687E+04  0.7818609E-02  0.8956220E-01
       -1   -1    0    0    0  501  0.00000000000E+00  0.00000000000E+00  0.61065071684E+03  0.61065071686E+03  0.50400001928E-02 0.  1.
        1   -1    0    0  501    0  0.00000000000E+00  0.00000000000E+00 -0.79862975955E+03  0.79862975957E+03  0.50400001928E-02 0. -1.
    10030    2    1    2    0    0  0.00000000000E+00  0.00000000000E+00 -0.18797904271E+03  0.14092804764E+04  0.13966872738E+04 0.  0.
        3    1    3    3  502    0 -0.16571031394E+03 -0.93069799339E+02  0.58405298317E+03  0.61419849645E+03  0.10100000352E+00 0.  1.
       -3    1    3    3    0  502  0.16571031394E+03  0.93069799339E+02 -0.77203202588E+03  0.79508197998E+03  0.10100000352E+00 0. -1.
</event>
<event>
 5   0  0.6895048E-04  0.1370304E+04  0.7818609E-02  0.8975599E-01
        2   -1    0    0  501    0  0.00000000000E+00  0.00000000000E+00  0.99661625662E+03  0.99661625662E+03  0.25500000920E-02 0. -1.
       -2   -1    0    0    0  501  0.00000000000E+00  0.00000000000E+00 -0.47102723877E+03  0.47102723877E+03  0.25500000920E-02 0.  1.
    10030    2    1    2    0    0  0.00000000000E+00  0.00000000000E+00  0.52558901785E+03  0.14676434954E+04  0.13703042049E+04 0.  0.
        4    1    3    3  502    0  0.48561969987E+03  0.41597575132E+03  0.52638544815E+03  0.82821831151E+03  0.12699999809E+01 0. -1.
       -4    1    3    3    0  502 -0.48561969987E+03 -0.41597575132E+03 -0.79643030122E+00  0.63942518389E+03  0.12699999809E+01 0.  1.
</event>
<event>
 5   0  0.7065539E-04  0.1398887E+04  0.7818609E-02  0.8954625E-01
        2   -1    0    0  501    0  0.00000000000E+00  0.00000000000E+00  0.11147574106E+04  0.11147574106E+04  0.25500000920E-02 0.  1.
       -2   -1    0    0    0  501  0.00000000000E+00  0.00000000000E+00 -0.43885872695E+03  0.43885872695E+03  0.25500000920E-02 0. -1.
    10030    2    1    2    0    0  0.00000000000E+00  0.00000000000E+00  0.67589868366E+03  0.15536161376E+04  0.13988867261E+04 0.  0.
        1    1    3    3  502    0 -0.43780634238E+03 -0.11944974483E+03  0.92905877748E+03  0.10339694614E+04  0.50400001928E-02 0. -1.
       -1    1    3    3    0  502  0.43780634238E+03  0.11944974483E+03 -0.25316009382E+03  0.51964667621E+03  0.50400001928E-02 0.  1.
</event>
<event>
 5   0  0.7065539E-04  0.1413553E+04  0.7818609E-02  0.8944066E-01
       -2   -1    0    0    0  501  0.00000000000E+00  0.00000000000E+00  0.23853731823E+04  0.23853731823E+04  0.25500000920E-02 0. -1.
        2   -1    0    0  501    0  0.00000000000E+00  0.00000000000E+00 -0.20941498594E+03  0.20941498596E+03  0.25500000920E-02 0.  1.
    10030    2    1    2    0    0  0.00000000000E+00  0.00000000000E+00  0.21759581963E+04  0.25947881682E+04  0.14135528168E+04 0.  0.
        1    1    3    3  502    0  0.44962084671E+03 -0.31653230901E+03  0.27285691457E+03  0.61384240999E+03  0.50400001928E-02 0.  1.
       -1    1    3    3    0  502 -0.44962084671E+03  0.31653230901E+03  0.19031012818E+04  0.19809457582E+04  0.50400001928E-02 0. -1.
</event>
<event>
 5   0  0.7296966E-04  0.1400408E+04  0.7818609E-02  0.8953523E-01
        2   -1    0    0  501    0  0.00000000000E+00  0.00000000000E+00  0.93718965522E+03  0.93718965523E+03  0.25500000920E-02 0. -1.
       -2   -1    0    0    0  501  0.00000000000E+00  0.00000000000E+00 -0.52314469717E+03  0.52314469718E+03  0.25500000920E-02 0.  1.
    10030    2    1    2    0    0  0.00000000000E+00  0.00000000000E+00  0.41404495805E+03  0.14603343524E+04  0.14004082239E+04 0.  0.
        3    1    3    3  502    0 -0.56659030067E+03  0.10771034590E+03  0.62107744524E+03  0.84756314846E+03  0.10100000352E+00 0. -1.
       -3    1    3    3    0  502  0.56659030067E+03 -0.10771034590E+03 -0.20703248719E+03  0.61277120395E+03  0.10100000352E+00 0.  1.
</event>
<event>
 5   0  0.6959748E-04  0.1393915E+04  0.7818609E-02  0.8958235E-01
        2   -1    0    0  501    0  0.00000000000E+00  0.00000000000E+00  0.99006323824E+03  0.99006323824E+03  0.25500000920E-02 0. -1.
       -2   -1    0    0    0  501  0.00000000000E+00  0.00000000000E+00 -0.49062468874E+03  0.49062468875E+03  0.25500000920E-02 0.  1.
    10030    2    1    2    0    0  0.00000000000E+00  0.00000000000E+00  0.49943854950E+03  0.14806879270E+04  0.13939145858E+04 0.  0.
        5    1    3    3  502    0  0.42311007805E+03  0.59159098402E+02 -0.33519991271E+03  0.54304972936E+03  0.46999998093E+01 0.  1.
       -5    1    3    3    0  502 -0.42311007805E+03 -0.59159098402E+02  0.83463846221E+03  0.93763819764E+03  0.46999998093E+01 0. -1.
</event>
<event>
 5   0  0.3907270E-04  0.1425461E+04  0.7818609E-02  0.8935592E-01
       -1   -1    0    0    0  501  0.00000000000E+00  0.00000000000E+00  0.44642662362E+03  0.44642662365E+03  0.50400001928E-02 0.  1.
        1   -1    0    0  501    0  0.00000000000E+00  0.00000000000E+00 -0.11378901477E+04  0.11378901477E+04  0.50400001928E-02 0. -1.
    10030    2    1    2    0    0  0.00000000000E+00  0.00000000000E+00 -0.69146352410E+03  0.15843167714E+04  0.14254605666E+04 0.  0.
        3    1    3    3  502    0  0.49452363836E+03 -0.51190708868E+03 -0.38704916421E+03  0.81019106515E+03  0.10100000352E+00 0.  1.
       -3    1    3    3    0  502 -0.49452363836E+03  0.51190708868E+03 -0.30441435989E+03  0.77412570623E+03  0.10100000352E+00 0. -1.
</event>
<event>
 5   0  0.3907093E-04  0.1280718E+04  0.7818609E-02  0.9044997E-01
       -1   -1    0    0    0  501  0.00000000000E+00  0.00000000000E+00  0.96230227279E+03  0.96230227280E+03  0.50400001928E-02 0.  1.
        1   -1    0    0  501    0  0.00000000000E+00  0.00000000000E+00 -0.42612353786E+03  0.42612353789E+03  0.50400001928E-02 0. -1.
    10030    2    1    2    0    0  0.00000000000E+00  0.00000000000E+00  0.53617873492E+03  0.13884258107E+04  0.12807180002E+04 0.  0.
        4    1    3    3  502    0 -0.69477093015E+02  0.63637610476E+03  0.28544928274E+03  0.70091691311E+03  0.12699999809E+01 0.  1.
       -4    1    3    3    0  502  0.69477093015E+02 -0.63637610476E+03  0.25072945218E+03  0.68750889758E+03  0.12699999809E+01 0. -1.
</event>
<event>
 5   0  0.6895048E-04  0.1391745E+04  0.7818609E-02  0.8959816E-01
       -2   -1    0    0    0  501  0.00000000000E+00  0.00000000000E+00  0.34826998527E+03  0.34826998528E+03  0.25500000920E-02 0. -1.
        2   -1    0    0  501    0  0.00000000000E+00  0.00000000000E+00 -0.13904105165E+04  0.13904105165E+04  0.25500000920E-02 0.  1.
    10030    2    1    2    0    0  0.00000000000E+00  0.00000000000E+00 -0.10421405312E+04  0.17386805018E+04  0.13917445888E+04 0.  0.
        4    1    3    3  502    0  0.20840871511E+03  0.25028157152E+03  0.24717332223E+03  0.40886589696E+03  0.12699999809E+01 0. -1.
       -4    1    3    3    0  502 -0.20840871511E+03 -0.25028157152E+03 -0.12893138535E+04  0.13298146048E+04  0.12699999809E+01 0.  1.
</event>
<event>
 5   0  0.3907270E-04  0.1400526E+04  0.7818609E-02  0.8953438E-01
        1   -1    0    0  501    0  0.00000000000E+00  0.00000000000E+00  0.12052681190E+04  0.12052681190E+04  0.50400001928E-02 0.  1.
       -1   -1    0    0    0  501  0.00000000000E+00  0.00000000000E+00 -0.40685386026E+03  0.40685386030E+03  0.50400001928E-02 0. -1.
    10030    2    1    2    0    0  0.00000000000E+00  0.00000000000E+00  0.79841425872E+03  0.16121219793E+04  0.14005255969E+04 0.  0.
        3    1    3    3  502    0  0.54228178503E+02  0.20691774769E+03 -0.36832682705E+03  0.42593463275E+03  0.10100000352E+00 0. -1.
       -3    1    3    3    0  502 -0.54228178503E+02 -0.20691774769E+03  0.11667410858E+04  0.11861873465E+04  0.10100000352E+00 0.  1.
</event>
<event>
 5   0  0.3756664E-04  0.1361602E+04  0.7818609E-02  0.8982092E-01
        1   -1    0    0  501    0  0.00000000000E+00  0.00000000000E+00  0.11213029236E+04  0.11213029236E+04  0.50400001928E-02 0. -1.
       -1   -1    0    0    0  501  0.00000000000E+00  0.00000000000E+00 -0.41334954583E+03  0.41334954586E+03  0.50400001928E-02 0.  1.
    10030    2    1    2    0    0  0.00000000000E+00  0.00000000000E+00  0.70795337781E+03  0.15346524695E+04  0.13616020773E+04 0.  0.
        2    1    3    3  502    0 -0.37867281132E+03 -0.56570631550E+03  0.34432566344E+03  0.76287410229E+03  0.25500000920E-02 0.  1.
       -2    1    3    3    0  502  0.37867281132E+03  0.56570631550E+03  0.36362771437E+03  0.77177836721E+03  0.25500000920E-02 0. -1.
</event>
<event>
 5   0  0.3907270E-04  0.1420550E+04  0.7818609E-02  0.8939077E-01
       -1   -1    0    0    0  501  0.00000000000E+00  0.00000000000E+00  0.37361466590E+03  0.37361466593E+03  0.50400001928E-02 0.  1.
        1   -1    0    0  501    0  0.00000000000E+00  0.00000000000E+00 -0.13502958714E+04  0.13502958714E+04  0.50400001928E-02 0. -1.
    10030    2    1    2    0    0  0.00000000000E+00  0.00000000000E+00 -0.97668120550E+03  0.17239105373E+04  0.14205496695E+04 0.  0.
        3    1    3    3  502    0  0.23876205561E+03 -0.28741587712E+03  0.24470404861E+03  0.44664895302E+03  0.10100000352E+00 0.  1.
       -3    1    3    3    0  502 -0.23876205561E+03  0.28741587712E+03 -0.12213852541E+04  0.12772615843E+04  0.10100000352E+00 0. -1.
</event>
<event>
 5   0  0.3907270E-04  0.1363440E+04  0.7818609E-02  0.8980716E-01
        1   -1    0    0  501    0  0.00000000000E+00  0.00000000000E+00  0.15236398810E+04  0.15236398810E+04  0.50400001928E-02 0. -1.
       -1   -1    0    0    0  501  0.00000000000E+00  0.00000000000E+00 -0.30502117404E+03  0.30502117408E+03  0.50400001928E-02 0.  1.
    10030    2    1    2    0    0  0.00000000000E+00  0.00000000000E+00  0.12186187070E+04  0.18286610551E+04  0.13634403916E+04 0.  0.
        3    1    3    3  502    0 -0.45411684900E+03  0.45370951510E+03  0.30150809938E+03  0.70921194352E+03  0.10100000352E+00 0.  1.
       -3    1    3    3    0  502  0.45411684900E+03 -0.45370951510E+03  0.91711060759E+03  0.11194491116E+04  0.10100000352E+00 0. -1.
</event>
<event>
 5   0  0.3977658E-04  0.1404674E+04  0.7818609E-02  0.8950442E-01
        1   -1    0    0  501    0  0.00000000000E+00  0.00000000000E+00  0.80835118020E+03  0.80835118022E+03  0.50400001928E-02 0.  1.
       -1   -1    0    0    0  501  0.00000000000E+00  0.00000000000E+00 -0.61022633219E+03  0.61022633221E+03  0.50400001928E-02 0. -1.
    10030    2    1    2    0    0  0.00000000000E+00  0.00000000000E+00  0.19812484801E+03  0.14185775124E+04  0.14046738779E+04 0.  0.
        5    1    3    3  502    0  0.16090986382E+02  0.63564454418E+03  0.40026304410E+03  0.75135577515E+03  0.46999998093E+01 0. -1.
       -5    1    3    3    0  502 -0.16090986382E+02 -0.63564454418E+03 -0.20213819609E+03  0.66722173728E+03  0.46999998093E+01 0.  1.
</event>
<event>
 5   0  0.3756664E-04  0.1406640E+04  0.7818609E-02  0.8949026E-01
        1   -1    0    0  501    0  0.00000000000E+00  0.00000000000E+00  0.51709633566E+03  0.51709633569E+03  0.50400001928E-02 0.  1.
       -1   -1    0    0    0  501  0.00000000000E+00  0.00000000000E+00 -0.95660865886E+03  0.95660865887E+03  0.50400001928E-02 0. -1.
    10030    2    1    2    0    0  0.00000000000E+00  0.00000000000E+00 -0.43951232320E+03  0.14737049946E+04  0.14066397295E+04 0.  0.
        2    1    3    3  502    0 -0.60651275162E+02  0.14684446448E+03  0.49804980384E+03  0.52277670284E+03  0.25500000920E-02 0.  1.
       -2    1    3    3    0  502  0.60651275162E+02 -0.14684446448E+03 -0.93756212704E+03  0.95092829172E+03  0.25500000920E-02 0. -1.
</event>
<event>
 5   0  0.2660250E-04  0.1399375E+04  0.7818609E-02  0.8954271E-01
        3   -1    0    0  501    0  0.00000000000E+00  0.00000000000E+00  0.77268666111E+03  0.77268666771E+03  0.10100000352E+00 0. -1.
       -3   -1    0    0    0  501  0.00000000000E+00  0.00000000000E+00 -0.63358530019E+03  0.63358530824E+03  0.10100000352E+00 0.  1.
    10030    2    1    2    0    0  0.00000000000E+00  0.00000000000E+00  0.13910136092E+03  0.14062719760E+04  0.13993754613E+04 0.  0.
        1    1    3    3  502    0  0.59376204370E+03  0.37014642511E+03  0.68459119735E+02  0.70302801627E+03  0.50400001928E-02 0.  1.
       -1    1    3    3    0  502 -0.59376204370E+03 -0.37014642511E+03  0.70642241182E+02  0.70324395968E+03  0.50400001928E-02 0. -1.
</event>
<event>
 5   0  0.2660250E-04  0.1346946E+04  0.7818609E-02  0.8993143E-01
        4   -1    0    0  501    0  0.00000000000E+00  0.00000000000E+00  0.28607583947E+03  0.28607865847E+03  0.12699999809E+01 0. -1.
       -4   -1    0    0    0  501  0.00000000000E+00  0.00000000000E+00 -0.15854639959E+04  0.15854645046E+04  0.12699999809E+01 0.  1.
    10030    2    1    2    0    0  0.00000000000E+00  0.00000000000E+00 -0.12993881565E+04  0.18715431631E+04  0.13469462610E+04 0.  0.
        5    1    3    3  502    0  0.89103671357E+02  0.63538626714E+03 -0.36531443099E+03  0.73833047899E+03  0.46999998093E+01 0. -1.
       -5    1    3    3    0  502 -0.89103671357E+02 -0.63538626714E+03 -0.93407372549E+03  0.11332126841E+04  0.46999998093E+01 0.  1.
</event>
<event>
 5   0  0.6959748E-04  0.1389562E+04  0.7818609E-02  0.8961409E-01
       -2   -1    0    0    0  501  0.00000000000E+00  0.00000000000E+00  0.31021191989E+03  0.31021191990E+03  0.25500000920E-02 0. -1.
        2   -1    0    0  501    0  0.00000000000E+00  0.00000000000E+00 -0.15561000265E+04  0.15561000265E+04  0.25500000920E-02 0.  1.
    10030    2    1    2    0    0  0.00000000000E+00  0.00000000000E+00 -0.12458881066E+04  0.18663119464E+04  0.13895621998E+04 0.  0.
        5    1    3    3  502    0 -0.68036990036E+02 -0.58597687938E+03 -0.11158808676E+04  0.12622242811E+04  0.46999998093E+01 0.  1.
       -5    1    3    3    0  502  0.68036990036E+02  0.58597687938E+03 -0.13000723903E+03  0.60408766531E+03  0.46999998093E+01 0. -1.
</event>
<event>
 5   0  0.3784219E-04  0.1410381E+04  0.7818609E-02  0.8946339E-01
       -1   -1    0    0    0  501  0.00000000000E+00  0.00000000000E+00  0.57120083995E+03  0.57120083997E+03  0.50400001928E-02 0.  1.
        1   -1    0    0  501    0  0.00000000000E+00  0.00000000000E+00 -0.87061040799E+03  0.87061040800E+03  0.50400001928E-02 0. -1.
    10030    2    1    2    0    0  0.00000000000E+00  0.00000000000E+00 -0.29940956804E+03  0.14418112480E+04  0.14103806526E+04 0.  0.
        1    1    3    3  502    0 -0.12688223599E+03 -0.68096170829E+03 -0.14525410655E+02  0.69283398989E+03  0.50400001928E-02 0. -1.
       -1    1    3    3    0  502  0.12688223599E+03  0.68096170829E+03 -0.28488415738E+03  0.74897725808E+03  0.50400001928E-02 0.  1.
</event>
<event>
 5   0  0.6959748E-04  0.1336978E+04  0.7818609E-02  0.9000745E-01
        2   -1    0    0  501    0  0.00000000000E+00  0.00000000000E+00  0.10478857977E+04  0.10478857977E+04  0.25500000920E-02 0.  1.
       -2   -1    0    0    0  501  0.00000000000E+00  0.00000000000E+00 -0.42645606635E+03  0.42645606636E+03  0.25500000920E-02 0. -1.
    10030    2    1    2    0    0  0.00000000000E+00  0.00000000000E+00  0.62142973131E+03  0.14743418640E+04  0.13369775694E+04 0.  0.
        5    1    3    3  502    0  0.97785380314E+01  0.41743134113E+03  0.88637452061E+03  0.97980938205E+03  0.46999998093E+01 0.  1.
       -5    1    3    3    0  502 -0.97785380314E+01 -0.41743134113E+03 -0.26494478930E+03  0.49453248198E+03  0.46999998093E+01 0. -1.
</event>
<event>
 5   0  0.3907270E-04  0.1409220E+04  0.7818609E-02  0.8947171E-01
        1   -1    0    0  501    0  0.00000000000E+00  0.00000000000E+00  0.92714637769E+03  0.92714637770E+03  0.50400001928E-02 0. -1.
       -1   -1    0    0    0  501  0.00000000000E+00  0.00000000000E+00 -0.53548779881E+03  0.53548779883E+03  0.50400001928E-02 0.  1.
    10030    2    1    2    0    0  0.00000000000E+00  0.00000000000E+00  0.39165857888E+03  0.14626341765E+04  0.14092204554E+04 0.  0.
        3    1    3    3  502    0  0.10006486378E+03 -0.48156151231E+03 -0.32783480177E+03  0.59109232321E+03  0.10100000352E+00 0.  1.
       -3    1    3    3    0  502 -0.10006486378E+03  0.48156151231E+03  0.71949338065E+03  0.87154185333E+03  0.10100000352E+00 0. -1.
</event>
<event>
 5   0  0.6895048E-04  0.1403179E+04  0.7818609E-02  0.8951520E-01
        2   -1    0    0  501    0  0.00000000000E+00  0.00000000000E+00  0.20252690199E+04  0.20252690199E+04  0.25500000920E-02 0. -1.
       -2   -1    0    0    0  501  0.00000000000E+00  0.00000000000E+00 -0.24304326149E+03  0.24304326151E+03  0.25500000920E-02 0.  1.
    10030    2    1    2    0    0  0.00000000000E+00  0.00000000000E+00  0.17822257584E+04  0.22683122814E+04  0.14031792302E+04 0.  0.
        4    1    3    3  502    0  0.80149987910E+02 -0.26357527953E+03  0.19341716331E+04  0.19536932891E+04  0.12699999809E+01 0. -1.
       -4    1    3    3    0  502 -0.80149987910E+02  0.26357527953E+03 -0.15194587477E+03  0.31461899227E+03  0.12699999809E+01 0.  1.
</event>
<event>
 5   0  0.3907093E-04  0.1396636E+04  0.7818609E-02  0.8956257E-01
       -1   -1    0    0    0  501  0.00000000000E+00  0.00000000000E+00  0.19462535883E+03  0.19462535890E+03  0.50400001928E-02 0. -1.
        1   -1    0    0  501    0  0.00000000000E+00  0.00000000000E+00 -0.25055745051E+04  0.25055745051E+04  0.50400001928E-02 0.  1.
    10030    2    1    2    0    0  0.00000000000E+00  0.00000000000E+00 -0.23109491462E+04  0.27001998640E+04  0.13966364412E+04 0.  0.
        4    1    3    3  502    0 -0.84716654313E+02  0.34029341130E+03 -0.23229901493E+04  0.23493108275E+04  0.12699999809E+01 0.  1.
       -4    1    3    3    0  502  0.84716654313E+02 -0.34029341130E+03  0.12041003077E+02  0.35088903652E+03  0.12699999809E+01 0. -1.
</event>
<event>
 5   0  0.6895048E-04  0.1399001E+04  0.7818609E-02  0.8954542E-01
        2   -1    0    0  501    0  0.00000000000E+00  0.00000000000E+00  0.16605883298E+04  0.16605883298E+04  0.25500000920E-02 0.  1.
       -2   -1    0    0    0  501  0.00000000000E+00  0.00000000000E+00 -0.29465510168E+03  0.29465510169E+03  0.25500000920E-02 0. -1.
    10030    2    1    2    0    0  0.00000000000E+00  0.00000000000E+00  0.13659332282E+04  0.19552434315E+04  0.13990008194E+04 0.  0.
        4    1    3    3  502    0 -0.60734197171E+03 -0.34619163745E+03  0.71680729224E+03  0.10012628164E+04  0.12699999809E+01 0. -1.
       -4    1    3    3    0  502  0.60734197171E+03  0.34619163745E+03  0.64912593592E+03  0.95398061512E+03  0.12699999809E+01 0.  1.
</event>
<event>
 5   0  0.6870835E-04  0.1408293E+04  0.7818609E-02  0.8947837E-01
       -2   -1    0    0    0  501  0.00000000000E+00  0.00000000000E+00  0.95521227056E+03  0.95521227057E+03  0.25500000920E-02 0. -1.
        2   -1    0    0  501    0  0.00000000000E+00  0.00000000000E+00 -0.51907041720E+03  0.51907041721E+03  0.25500000920E-02 0.  1.
    10030    2    1    2    0    0  0.00000000000E+00  0.00000000000E+00  0.43614185336E+03  0.14742826878E+04  0.14082931965E+04 0.  0.
        2    1    3    3  502    0  0.15321468270E+03  0.24955344070E+03 -0.45230296661E+03  0.53882244976E+03  0.25500000920E-02 0.  1.
       -2    1    3    3    0  502 -0.15321468270E+03 -0.24955344070E+03  0.88844481997E+03  0.93546023801E+03  0.25500000920E-02 0. -1.
</event>
<event>
 5   0  0.3784219E-04  0.1401813E+04  0.7818609E-02  0.8952507E-01
       -1   -1    0    0    0  501  0.00000000000E+00  0.00000000000E+00  0.82801180748E+03  0.82801180749E+03  0.50400001928E-02 0.  1.
        1   -1    0    0  501    0  0.00000000000E+00  0.00000000000E+00 -0.59331306070E+03  0.59331306072E+03  0.50400001928E-02 0. -1.
    10030    2    1    2    0    0  0.00000000000E+00  0.00000000000E+00  0.23469874678E+03  0.14213248682E+04  0.14018134253E+04 0.  0.
        1    1    3    3  502    0 -0.51772992985E+03  0.33479731043E+03  0.45536119476E+03  0.76647722539E+03  0.50400001928E-02 0. -1.
       -1    1    3    3    0  502  0.51772992985E+03 -0.33479731043E+03 -0.22066244798E+03  0.65484764282E+03  0.50400001928E-02 0.  1.
</event>
<event>
 5   0  0.2660250E-04  0.1395961E+04  0.7818609E-02  0.8956747E-01
       -3   -1    0    0    0  501  0.00000000000E+00  0.00000000000E+00  0.19339784870E+04  0.19339784897E+04  0.10100000352E+00 0. -1.
        3   -1    0    0  501    0  0.00000000000E+00  0.00000000000E+00 -0.25190394768E+03  0.25190396793E+03  0.10100000352E+00 0.  1.
    10030    2    1    2    0    0  0.00000000000E+00  0.00000000000E+00  0.16820745393E+04  0.21858824576E+04  0.13959610892E+04 0.  0.
        2    1    3    3  502    0  0.21396134299E+03 -0.66401913808E+03  0.80687532093E+03  0.10666530155E+04  0.25500000920E-02 0.  1.
       -2    1    3    3    0  502 -0.21396134299E+03  0.66401913808E+03  0.87519921841E+03  0.11192294420E+04  0.25500000920E-02 0. -1.
</event>
<event>
 5   0  0.3784219E-04  0.1408919E+04  0.7818609E-02  0.8947388E-01
       -1   -1    0    0    0  501  0.00000000000E+00  0.00000000000E+00  0.92457917952E+03  0.92457917953E+03  0.50400001928E-02 0.  1.
        1   -1    0    0  501    0  0.00000000000E+00  0.00000000000E+00 -0.53674514058E+03  0.53674514060E+03  0.50400001928E-02 0. -1.
    10030    2    1    2    0    0  0.00000000000E+00  0.00000000000E+00  0.38783403894E+03  0.14613243201E+04  0.14089192762E+04 0.  0.
        1    1    3    3  502    0 -0.64417700486E+03 -0.42422196718E+02  0.48636142329E+03  0.80827661754E+03  0.50400001928E-02 0.  1.
       -1    1    3    3    0  502  0.64417700486E+03  0.42422196718E+02 -0.98527384353E+02  0.65304770259E+03  0.50400001928E-02 0. -1.
</event>
<event>
 5   0  0.6959748E-04  0.1421672E+04  0.7818609E-02  0.8938279E-01
        2   -1    0    0  501    0  0.00000000000E+00  0.00000000000E+00  0.42335230419E+03  0.42335230420E+03  0.25500000920E-02 0.  1.
       -2   -1    0    0    0  501  0.00000000000E+00  0.00000000000E+00 -0.11935395570E+04  0.11935395570E+04  0.25500000920E-02 0. -1.
    10030    2    1    2    0    0  0.00000000000E+00  0.00000000000E+00 -0.77018725281E+03  0.16168918612E+04  0.14216718631E+04 0.  0.
        5    1    3    3  502    0  0.48521958001E+03 -0.51821251606E+03 -0.42583719533E+03  0.82785364622E+03  0.46999998093E+01 0.  1.
       -5    1    3    3    0  502 -0.48521958001E+03  0.51821251606E+03 -0.34435005748E+03  0.78903821499E+03  0.46999998093E+01 0. -1.
</event>
<event>
 5   0  0.7296966E-04  0.1412941E+04  0.7818609E-02  0.8944504E-01
       -2   -1    0    0    0  501  0.00000000000E+00  0.00000000000E+00  0.39133060635E+03  0.39133060636E+03  0.25500000920E-02 0.  1.
        2   -1    0    0  501    0  0.00000000000E+00  0.00000000000E+00 -0.12753929686E+04  0.12753929686E+04  0.25500000920E-02 0. -1.
    10030    2    1    2    0    0  0.00000000000E+00  0.00000000000E+00 -0.88406236226E+03  0.16667235750E+04  0.14129406269E+04 0.  0.
        3    1    3    3  502    0  0.69689908994E+03 -0.84072064102E+02 -0.34792908607E+03  0.78344821952E+03  0.10100000352E+00 0.  1.
       -3    1    3    3    0  502 -0.69689908994E+03  0.84072064102E+02 -0.53613327618E+03  0.88327535546E+03  0.10100000352E+00 0. -1.
</event>
<event>
 5   0  0.6959748E-04  0.1400076E+04  0.7818609E-02  0.8953763E-01
        2   -1    0    0  501    0  0.00000000000E+00  0.00000000000E+00  0.13342946859E+04  0.13342946859E+04  0.25500000920E-02 0. -1.
       -2   -1    0    0    0  501  0.00000000000E+00  0.00000000000E+00 -0.36727530439E+03  0.36727530440E+03  0.25500000920E-02 0.  1.
    10030    2    1    2    0    0  0.00000000000E+00  0.00000000000E+00  0.96701938149E+03  0.17015699903E+04  0.14000764078E+04 0.  0.
        5    1    3    3  502    0 -0.60064282783E+02 -0.18404436888E+03  0.13010929908E+04  0.13154258278E+04  0.46999998093E+01 0. -1.
       -5    1    3    3    0  502  0.60064282783E+02  0.18404436888E+03 -0.33407360931E+03  0.38614416248E+03  0.46999998093E+01 0.  1.
</event>
<event>
 5   0  0.3756664E-04  0.1405355E+04  0.7818609E-02  0.8949951E-01
        1   -1    0    0  501    0  0.00000000000E+00  0.00000000000E+00  0.13943863683E+04  0.13943863683E+04  0.50400001928E-02 0.  1.
       -1   -1    0    0    0  501  0.00000000000E+00  0.00000000000E+00 -0.35410269690E+03  0.35410269693E+03  0.50400001928E-02 0. -1.
    10030    2    1    2    0    0  0.00000000000E+00  0.00000000000E+00  0.10402836714E+04  0.17484890652E+04  0.14053554334E+04 0.  0.
        2    1    3    3  502    0 -0.15158972564E+03 -0.17454849974E+03 -0.30543157548E+03  0.38306014018E+03  0.25500000920E-02 0. -1.
       -2    1    3    3    0  502  0.15158972564E+03  0.17454849974E+03  0.13457152468E+04  0.13654289250E+04  0.25500000920E-02 0.  1.
</event>
<event>
 5   0  0.6895048E-04  0.1402600E+04  0.7818609E-02  0.8951938E-01
       -2   -1    0    0    0  501  0.00000000000E+00  0.00000000000E+00  0.47094587635E+03  0.47094587636E+03  0.25500000920E-02 0.  1.
        2   -1    0    0  501    0  0.00000000000E+00  0.00000000000E+00 -0.10443280066E+04  0.10443280066E+04  0.25500000920E-02 0. -1.
    10030    2    1    2    0    0  0.00000000000E+00  0.00000000000E+00 -0.57338213022E+03  0.15152738829E+04  0.14026003968E+04 0.  0.
        4    1    3    3  502    0  0.14487713374E+03  0.24359721797E+03  0.40631581216E+03  0.49540199898E+03  0.12699999809E+01 0.  1.
       -4    1    3    3    0  502 -0.14487713374E+03 -0.24359721797E+03 -0.97969794238E+03  0.10198718840E+04  0.12699999809E+01 0. -1.
</event>
<event>
 5   0  0.3784219E-04  0.1399323E+04  0.7818609E-02  0.8954309E-01
       -1   -1    0    0    0  501  0.00000000000E+00  0.00000000000E+00  0.26337370192E+03  0.26337370197E+03  0.50400001928E-02 0. -1.
        1   -1    0    0  501    0  0.00000000000E+00  0.00000000000E+00 -0.18586758831E+04  0.18586758831E+04  0.50400001928E-02 0.  1.
    10030    2    1    2    0    0  0.00000000000E+00  0.00000000000E+00 -0.15953021812E+04  0.21220495851E+04  0.13993231908E+04 0.  0.
        1    1    3    3  502    0  0.23028814414E+03  0.24222174990E+03 -0.17297914541E+04  0.17617838914E+04  0.50400001928E-02 0.  1.
       -1    1    3    3    0  502 -0.23028814414E+03 -0.24222174990E+03  0.13448927292E+03  0.36026569364E+03  0.50400001928E-02 0. -1.
</event>
<event>
 5   0  0.7296966E-04  0.1402860E+04  0.7818609E-02  0.8951751E-01
       -2   -1    0    0    0  501  0.00000000000E+00  0.00000000000E+00  0.72357065184E+03  0.72357065185E+03  0.25500000920E-02 0.  1.
        2   -1    0    0  501    0  0.00000000000E+00  0.00000000000E+00 -0.67996691823E+03  0.67996691824E+03  0.25500000920E-02 0. -1.
    10030    2    1    2    0    0  0.00000000000E+00  0.00000000000E+00  0.43603733608E+02  0.14035375701E+04  0.14028600875E+04 0.  0.
        3    1    3    3  502    0  0.52520618164E+03  0.42276177290E+03 -0.17177295572E+03  0.69575499163E+03  0.10100000352E+00 0. -1.
       -3    1    3    3    0  502 -0.52520618164E+03 -0.42276177290E+03  0.21537668932E+03  0.70778257846E+03  0.10100000352E+00 0.  1.
</event>
<event>
 5   0  0.3784219E-04  0.1397605E+04  0.7818609E-02  0.8955554E-01
       -1   -1    0    0    0  501  0.00000000000E+00  0.00000000000E+00  0.84805757322E+03  0.84805757323E+03  0.50400001928E-02 0.  1.
        1   -1    0    0  501    0  0.00000000000E+00  0.00000000000E+00 -0.57581569471E+03  0.57581569473E+03  0.50400001928E-02 0. -1.
    10030    2    1    2    0    0  0.00000000000E+00  0.00000000000E+00  0.27224187851E+03  0.14238732680E+04  0.13976048951E+04 0.  0.
        1    1    3    3  502    0  0.32203653325E+03  0.34482937873E+03 -0.38903816504E+03  0.61152720550E+03  0.50400001928E-02 0. -1.
       -1    1    3    3    0  502 -0.32203653325E+03 -0.34482937873E+03  0.66128004355E+03  0.81234606246E+03  0.50400001928E-02 0.  1.
</event>
<event>
 5   0  0.6959748E-04  0.1386736E+04  0.7818609E-02  0.8963476E-01
        2   -1    0    0  501    0  0.00000000000E+00  0.00000000000E+00  0.15216818734E+04  0.15216818734E+04  0.25500000920E-02 0.  1.
       -2   -1    0    0    0  501  0.00000000000E+00  0.00000000000E+00 -0.31593951762E+03  0.31593951763E+03  0.25500000920E-02 0. -1.
    10030    2    1    2    0    0  0.00000000000E+00  0.00000000000E+00  0.12057423557E+04  0.18376213910E+04  0.13867363658E+04 0.  0.
        5    1    3    3  502    0  0.39248559681E+03 -0.55269370732E+03  0.40982731622E+03  0.79214632293E+03  0.46999998093E+01 0.  1.
       -5    1    3    3    0  502 -0.39248559681E+03  0.55269370732E+03  0.79591503952E+03  0.10454750681E+04  0.46999998093E+01 0. -1.
</event>
<event>
 5   0  0.2660250E-04  0.1483263E+04  0.7818609E-02  0.8895660E-01
       -3   -1    0    0    0  501  0.00000000000E+00  0.00000000000E+00  0.73159225739E+03  0.73159226437E+03  0.10100000352E+00 0.  1.
        3   -1    0    0  501    0  0.00000000000E+00  0.00000000000E+00 -0.75180882555E+03  0.75180883233E+03  0.10100000352E+00 0. -1.
    10030    2    1    2    0    0  0.00000000000E+00  0.00000000000E+00 -0.20216568153E+02  0.14834010967E+04  0.14832633293E+04 0.  0.
        4    1    3    3  502    0  0.93583955075E+02  0.17906481491E+03  0.70353612461E+03  0.73197462806E+03  0.12699999809E+01 0.  1.
       -4    1    3    3    0  502 -0.93583955075E+02 -0.17906481491E+03 -0.72375269277E+03  0.75142646864E+03  0.12699999809E+01 0. -1.
</event>
<event>
 5   0  0.3907093E-04  0.1398863E+04  0.7818609E-02  0.8954642E-01
        1   -1    0    0  501    0  0.00000000000E+00  0.00000000000E+00  0.61741769432E+03  0.61741769434E+03  0.50400001928E-02 0.  1.
       -1   -1    0    0    0  501  0.00000000000E+00  0.00000000000E+00 -0.79233901511E+03  0.79233901512E+03  0.50400001928E-02 0. -1.
    10030    2    1    2    0    0  0.00000000000E+00  0.00000000000E+00 -0.17492132079E+03  0.14097567095E+04  0.13988625777E+04 0.  0.
        4    1    3    3  502    0  0.52244818947E+03 -0.21292929433E+03  0.32917341441E+03  0.65318278048E+03  0.12699999809E+01 0.  1.
       -4    1    3    3    0  502 -0.52244818947E+03  0.21292929433E+03 -0.50409473520E+03  0.75657392898E+03  0.12699999809E+01 0. -1.
</event>
<event>
 5   0  0.6870835E-04  0.1365174E+04  0.7818609E-02  0.8979421E-01
        2   -1    0    0  501    0  0.00000000000E+00  0.00000000000E+00  0.91216858854E+03  0.91216858855E+03  0.25500000920E-02 0. -1.
       -2   -1    0    0    0  501  0.00000000000E+00  0.00000000000E+00 -0.51078816154E+03  0.51078816154E+03  0.25500000920E-02 0.  1.
    10030    2    1    2    0    0  0.00000000000E+00  0.00000000000E+00  0.40138042701E+03  0.14229567501E+04  0.13651738591E+04 0.  0.
        2    1    3    3  502    0 -0.34425526135E+03  0.26337339638E+03  0.75031129035E+03  0.86651270234E+03  0.25500000920E-02 0. -1.
       -2    1    3    3    0  502  0.34425526135E+03 -0.26337339638E+03 -0.34893086334E+03  0.55644404776E+03  0.25500000920E-02 0.  1.
</event>
<event>
 5   0  0.7296966E-04  0.1404043E+04  0.7818609E-02  0.8950897E-01
        2   -1    0    0  501    0  0.00000000000E+00  0.00000000000E+00  0.18646217946E+04  0.18646217946E+04  0.25500000920E-02 0.  1.
       -2   -1    0    0    0  501  0.00000000000E+00  0.00000000000E+00 -0.26430771796E+03  0.26430771797E+03  0.25500000920E-02 0. -1.
    10030    2    1    2    0    0  0.00000000000E+00  0.00000000000E+00  0.16003140766E+04  0.21289295126E+04  0.14040426367E+04 0.  0.
        3    1    3    3  502    0 -0.39824693480E+03  0.49693979886E+03  0.12481267445E+04  0.14012031135E+04  0.10100000352E+00 0.  1.
       -3    1    3    3    0  502  0.39824693480E+03 -0.49693979886E+03  0.35218733213E+03  0.72772639906E+03  0.10100000352E+00 0. -1.
</event>
<event>
 5   0  0.3907270E-04  0.1403364E+04  0.7818609E-02  0.8951387E-01
        1   -1    0    0  501    0  0.00000000000E+00  0.00000000000E+00  0.12688257229E+04  0.12688257229E+04  0.50400001928E-02 0. -1.
       -1   -1    0    0    0  501  0.00000000000E+00  0.00000000000E+00 -0.38804188920E+03  0.38804188924E+03  0.50400001928E-02 0.  1.
    10030    2    1    2    0    0  0.00000000000E+00  0.00000000000E+00  0.88078383373E+03  0.16568676122E+04  0.14033638596E+04 0.  0.
        3    1    3    3  502    0 -0.40127582316E+03  0.80168563951E+02  0.11133652886E+04  0.11861836118E+04  0.10100000352E+00 0. -1.
       -3    1    3    3    0  502  0.40127582316E+03 -0.80168563951E+02 -0.23258145483E+03  0.47068400040E+03  0.10100000352E+00 0.  1.
</event>
<event>
 5   0  0.2660250E-04  0.1400868E+04  0.7818609E-02  0.8953191E-01
        4   -1    0    0  501    0  0.00000000000E+00  0.00000000000E+00  0.36856810663E+03  0.36857029469E+03  0.12699999809E+01 0.  1.
       -4   -1    0    0    0  501  0.00000000000E+00  0.00000000000E+00 -0.13311118190E+04  0.13311124249E+04  0.12699999809E+01 0. -1.
    10030    2    1    2    0    0  0.00000000000E+00  0.00000000000E+00 -0.96254371238E+03  0.16996827195E+04  0.14008679270E+04 0.  0.
        2    1    3    3  502    0  0.48674013382E+03 -0.42628016511E+03 -0.80678425685E+03  0.10341815963E+04  0.25500000920E-02 0. -1.
       -2    1    3    3    0  502 -0.48674013382E+03  0.42628016511E+03 -0.15575945554E+03  0.66550112324E+03  0.25500000920E-02 0.  1.
</event>
<event>
 5   0  0.6895048E-04  0.1291746E+04  0.7818609E-02  0.9036136E-01
        2   -1    0    0  501    0  0.00000000000E+00  0.00000000000E+00  0.17694288519E+04  0.17694288519E+04  0.25500000920E-02 0.  1.
       -2   -1    0    0    0  501  0.00000000000E+00  0.00000000000E+00 -0.23575528679E+03  0.23575528680E+03  0.25500000920E-02 0. -1.
    10030    2    1    2    0    0  0.00000000000E+00  0.00000000000E+00  0.15336735652E+04  0.20051841387E+04  0.12917464247E+04 0.  0.
        4    1    3    3  502    0 -0.44718627807E+03  0.88760783774E+02  0.56673806719E+02  0.45942091517E+03  0.12699999809E+01 0. -1.
       -4    1    3    3    0  502  0.44718627807E+03 -0.88760783774E+02  0.14769997584E+04  0.15457632236E+04  0.12699999809E+01 0.  1.
</event>
<event>
 5   0  0.6870835E-04  0.1392697E+04  0.7818609E-02  0.8959122E-01
        2   -1    0    0  501    0  0.00000000000E+00  0.00000000000E+00  0.61702499834E+03  0.61702499835E+03  0.25500000920E-02 0.  1.
       -2   -1    0    0    0  501  0.00000000000E+00  0.00000000000E+00 -0.78586979575E+03  0.78586979575E+03  0.25500000920E-02 0. -1.
    10030    2    1    2    0    0  0.00000000000E+00  0.00000000000E+00 -0.16884479741E+03  0.14028947941E+04  0.13926971091E+04 0.  0.
        2    1    3    3  502    0  0.18280154405E+03 -0.51647215445E+03  0.34854038442E+03  0.64933834817E+03  0.25500000920E-02 0.  1.
       -2    1    3    3    0  502 -0.18280154405E+03  0.51647215445E+03 -0.51738518182E+03  0.75355644593E+03  0.25500000920E-02 0. -1.
</event>
<event>
 5   0  0.3756664E-04  0.1446507E+04  0.7818609E-02  0.8920826E-01
       -1   -1    0    0    0  501  0.00000000000E+00  0.00000000000E+00  0.72292660300E+03  0.72292660302E+03  0.50400001928E-02 0.  1.
        1   -1    0    0  501    0  0.00000000000E+00  0.00000000000E+00 -0.72358078001E+03  0.72358078002E+03  0.50400001928E-02 0. -1.
    10030    2    1    2    0    0  0.00000000000E+00  0.00000000000E+00 -0.65417700554E+00  0.14465073830E+04  0.14465072351E+04 0.  0.
        2    1    3    3  502    0  0.29938652083E+03  0.63683457529E+03  0.16672151483E+03  0.72317814448E+03  0.25500000920E-02 0.  1.
       -2    1    3    3    0  502 -0.29938652083E+03 -0.63683457529E+03 -0.16737569183E+03  0.72332923856E+03  0.25500000920E-02 0. -1.
</event>
<event>
 5   0  0.6870835E-04  0.1399555E+04  0.7818609E-02  0.8954140E-01
       -2   -1    0    0    0  501  0.00000000000E+00  0.00000000000E+00  0.44110620397E+03  0.44110620398E+03  0.25500000920E-02 0. -1.
        2   -1    0    0  501    0  0.00000000000E+00  0.00000000000E+00 -0.11101380961E+04  0.11101380961E+04  0.25500000920E-02 0.  1.
    10030    2    1    2    0    0  0.00000000000E+00  0.00000000000E+00 -0.66903189212E+03  0.15512443001E+04  0.13995553600E+04 0.  0.
        2    1    3    3  502    0  0.46225934498E+03  0.36307054293E+03 -0.75538789152E+03  0.95713885504E+03  0.25500000920E-02 0.  1.
       -2    1    3    3    0  502 -0.46225934498E+03 -0.36307054293E+03  0.86355999408E+02  0.59410544502E+03  0.25500000920E-02 0. -1.
</event>
<event>
 5   0  0.6959748E-04  0.1351127E+04  0.7818609E-02  0.8989975E-01
        2   -1    0    0  501    0  0.00000000000E+00  0.00000000000E+00  0.65023253880E+03  0.65023253880E+03  0.25500000920E-02 0. -1.
       -2   -1    0    0    0  501  0.00000000000E+00  0.00000000000E+00 -0.70188134863E+03  0.70188134863E+03  0.25500000920E-02 0.  1.
    10030    2    1    2    0    0  0.00000000000E+00  0.00000000000E+00 -0.51648809833E+02  0.13521138874E+04  0.13511270721E+04 0.  0.
        5    1    3    3  502    0  0.44003952009E+03 -0.33260120996E+03  0.36446769525E+03  0.66114834567E+03  0.46999998093E+01 0. -1.
       -5    1    3    3    0  502 -0.44003952009E+03  0.33260120996E+03 -0.41611650508E+03  0.69096554176E+03  0.46999998093E+01 0.  1.
</event>
<event>
 5   0  0.6895048E-04  0.1398339E+04  0.7818609E-02  0.8955022E-01
        2   -1    0    0  501    0  0.00000000000E+00  0.00000000000E+00  0.50166653868E+03  0.50166653869E+03  0.25500000920E-02 0. -1.
       -2   -1    0    0    0  501  0.00000000000E+00  0.00000000000E+00 -0.97442836788E+03  0.97442836788E+03  0.25500000920E-02 0.  1.
    10030    2    1    2    0    0  0.00000000000E+00  0.00000000000E+00 -0.47276182920E+03  0.14760949066E+04  0.13983391670E+04 0.  0.
        4    1    3    3  502    0 -0.52156289618E+03 -0.13447442089E+03 -0.70695532442E+03  0.88876243629E+03  0.12699999809E+01 0.  1.
       -4    1    3    3    0  502  0.52156289618E+03  0.13447442089E+03  0.23419349522E+03  0.58733247028E+03  0.12699999809E+01 0. -1.
</event>
<event>
 5   0  0.6870835E-04  0.1400580E+04  0.7818609E-02  0.8953399E-01
       -2   -1    0    0    0  501  0.00000000000E+00  0.00000000000E+00  0.63800574968E+03  0.63800574969E+03  0.25500000920E-02 0. -1.
        2   -1    0    0  501    0  0.00000000000E+00  0.00000000000E+00 -0.76865464248E+03  0.76865464248E+03  0.25500000920E-02 0.  1.
    10030    2    1    2    0    0  0.00000000000E+00  0.00000000000E+00 -0.13064889279E+03  0.14066603922E+04  0.14005799962E+04 0.  0.
        2    1    3    3  502    0 -0.26180438500E+03 -0.20147649121E+03  0.55482829019E+03  0.64573117016E+03  0.25500000920E-02 0. -1.
       -2    1    3    3    0  502  0.26180438500E+03  0.20147649121E+03 -0.68547718298E+03  0.76092922201E+03  0.25500000920E-02 0.  1.
</event>
<event>
 5   0  0.6959748E-04  0.1414037E+04  0.7818609E-02  0.8943720E-01
        2   -1    0    0  501    0  0.00000000000E+00  0.00000000000E+00  0.63344976424E+03  0.63344976425E+03  0.25500000920E-02 0.  1.
       -2   -1    0    0    0  501  0.00000000000E+00  0.00000000000E+00 -0.78913203976E+03  0.78913203976E+03  0.25500000920E-02 0. -1.
    10030    2    1    2    0    0  0.00000000000E+00  0.00000000000E+00 -0.15568227552E+03  0.14225818040E+04  0.14140374883E+04 0.  0.
        5    1    3    3  502    0  0.34487284902E+03 -0.33863046385E+03 -0.59694887012E+03  0.76810019957E+03  0.46999998093E+01 0. -1.
       -5    1    3    3    0  502 -0.34487284902E+03  0.33863046385E+03  0.44126659460E+03  0.65448160444E+03  0.46999998093E+01 0.  1.
</event>
<event>
 5   0  0.3784219E-04  0.1452218E+04  0.7818609E-02  0.8916864E-01
       -1   -1    0    0    0  501  0.00000000000E+00  0.00000000000E+00  0.63940729922E+03  0.63940729924E+03  0.50400001928E-02 0.  1.
        1   -1    0    0  501    0  0.00000000000E+00  0.00000000000E+00 -0.82456681540E+03  0.82456681541E+03  0.50400001928E-02 0. -1.
    10030    2    1    2    0    0  0.00000000000E+00  0.00000000000E+00 -0.18515951617E+03  0.14639741147E+04  0.14522176703E+04 0.  0.
        1    1    3    3  502    0 -0.33392006511E+03  0.44649984819E+03 -0.56150057959E+03  0.79129490407E+03  0.50400001928E-02 0. -1.
       -1    1    3    3    0  502  0.33392006511E+03 -0.44649984819E+03  0.37634106341E+03  0.67267921058E+03  0.50400001928E-02 0.  1.
</event>
<event>
 5   0  0.7296966E-04  0.1401923E+04  0.7818609E-02  0.8952428E-01
        2   -1    0    0  501    0  0.00000000000E+00  0.00000000000E+00  0.22620727753E+04  0.22620727753E+04  0.25500000920E-02 0. -1.
       -2   -1    0    0    0  501  0.00000000000E+00  0.00000000000E+00 -0.21721108027E+03  0.21721108029E+03  0.25500000920E-02 0.  1.
    10030    2    1    2    0    0  0.00000000000E+00  0.00000000000E+00  0.20448616950E+04  0.24792838556E+04  0.14019233520E+04 0.  0.
        3    1    3    3  502    0  0.41754050623E+03 -0.50084107330E+03  0.14773324568E+04  0.16148353022E+04  0.10100000352E+00 0.  1.
       -3    1    3    3    0  502 -0.41754050623E+03  0.50084107330E+03  0.56752923825E+03  0.86444855342E+03  0.10100000352E+00 0. -1.
</event>
<event>
 5   0  0.3784219E-04  0.1403682E+04  0.7818609E-02  0.8951158E-01
        1   -1    0    0  501    0  0.00000000000E+00  0.00000000000E+00  0.59113280132E+03  0.59113280135E+03  0.50400001928E-02 0. -1.
       -1   -1    0    0    0  501  0.00000000000E+00  0.00000000000E+00 -0.83328273526E+03  0.83328273527E+03  0.50400001928E-02 0.  1.
    10030    2    1    2    0    0  0.00000000000E+00  0.00000000000E+00 -0.24214993393E+03  0.14244155366E+04  0.14036819549E+04 0.  0.
        1    1    3    3  502    0 -0.42221012170E+03  0.54290018402E+02  0.44517441190E+03  0.61594565507E+03  0.50400001928E-02 0. -1.
       -1    1    3    3    0  502  0.42221012170E+03 -0.54290018402E+02 -0.68732434584E+03  0.80846988155E+03  0.50400001928E-02 0.  1.
</event>
<event>
 5   0  0.6870835E-04  0.1404842E+04  0.7818609E-02  0.8950321E-01
        2   -1    0    0  501    0  0.00000000000E+00  0.00000000000E+00  0.12292097690E+04  0.12292097690E+04  0.25500000920E-02 0.  1.
       -2   -1    0    0    0  501  0.00000000000E+00  0.00000000000E+00 -0.40139225195E+03  0.40139225195E+03  0.25500000920E-02 0. -1.
    10030    2    1    2    0    0  0.00000000000E+00  0.00000000000E+00  0.82781751708E+03  0.16306020210E+04  0.14048420229E+04 0.  0.
        2    1    3    3  502    0  0.63233608379E+03  0.21626416067E+02  0.59792774469E+02  0.63552482297E+03  0.25500000920E-02 0. -1.
       -2    1    3    3    0  502 -0.63233608379E+03 -0.21626416067E+02  0.76802474261E+03  0.99507719801E+03  0.25500000920E-02 0.  1.
</event>
<event>
 5   0  0.6959748E-04  0.1408327E+04  0.7818609E-02  0.8947813E-01
       -2   -1    0    0    0  501  0.00000000000E+00  0.00000000000E+00  0.25900637776E+03  0.25900637777E+03  0.25500000920E-02 0. -1.
        2   -1    0    0  501    0  0.00000000000E+00  0.00000000000E+00 -0.19144174451E+04  0.19144174451E+04  0.25500000920E-02 0.  1.
    10030    2    1    2    0    0  0.00000000000E+00  0.00000000000E+00 -0.16554110674E+04  0.21734238229E+04  0.14083271324E+04 0.  0.
        5    1    3    3  502    0  0.58906472643E+03  0.37764101057E+03 -0.94936204249E+03  0.11793728683E+04  0.46999998093E+01 0.  1.
       -5    1    3    3    0  502 -0.58906472643E+03 -0.37764101057E+03 -0.70604902487E+03  0.99405095458E+03  0.46999998093E+01 0. -1.
</event>
<event>
 5   0  0.3784219E-04  0.1397294E+04  0.7818609E-02  0.8955779E-01
       -1   -1    0    0    0  501  0.00000000000E+00  0.00000000000E+00  0.85856108138E+03  0.85856108139E+03  0.50400001928E-02 0. -1.
        1   -1    0    0  501    0  0.00000000000E+00  0.00000000000E+00 -0.56851844756E+03  0.56851844758E+03  0.50400001928E-02 0.  1.
    10030    2    1    2    0    0  0.00000000000E+00  0.00000000000E+00  0.29004263382E+03  0.14270795290E+04  0.13972942613E+04 0.  0.
        1    1    3    3  502    0 -0.35673879342E+03 -0.13860986266E+03  0.74197402094E+03  0.83486568293E+03  0.50400001928E-02 0. -1.
       -1    1    3    3    0  502  0.35673879342E+03  0.13860986266E+03 -0.45193138712E+03  0.59221384604E+03  0.50400001928E-02 0.  1.
</event>
<event>
 5   0  0.3907093E-04  0.1391400E+04  0.7818609E-02  0.8960067E-01
        1   -1    0    0  501    0  0.00000000000E+00  0.00000000000E+00  0.15160592658E+04  0.15160592658E+04  0.50400001928E-02 0. -1.
       -1   -1    0    0    0  501  0.00000000000E+00  0.00000000000E+00 -0.31924776871E+03  0.31924776875E+03  0.50400001928E-02 0.  1.
    10030    2    1    2    0    0  0.00000000000E+00  0.00000000000E+00  0.11968114971E+04  0.18353070346E+04  0.13914000688E+04 0.  0.
        4    1    3    3  502    0 -0.27199382984E+03 -0.48518468193E+03  0.11495862985E+04  0.12770806904E+04  0.12699999809E+01 0. -1.
       -4    1    3    3    0  502  0.27199382984E+03  0.48518468193E+03  0.47225198549E+02  0.55822634417E+03  0.12699999809E+01 0.  1.
</event>
<event>
 5   0  0.3907270E-04  0.1419437E+04  0.7818609E-02  0.8939868E-01
        1   -1    0    0  501    0  0.00000000000E+00  0.00000000000E+00  0.91812174672E+03  0.91812174673E+03  0.50400001928E-02 0.  1.
       -1   -1    0    0    0  501  0.00000000000E+00  0.00000000000E+00 -0.54862061992E+03  0.54862061995E+03  0.50400001928E-02 0. -1.
    10030    2    1    2    0    0  0.00000000000E+00  0.00000000000E+00  0.36950112680E+03  0.14667423667E+04  0.14194372432E+04 0.  0.
        3    1    3    3  502    0 -0.56773423069E+02 -0.42126220078E+03 -0.40253494860E+03  0.58542246149E+03  0.10100000352E+00 0. -1.
       -3    1    3    3    0  502  0.56773423069E+02  0.42126220078E+03  0.77203607539E+03  0.88131990519E+03  0.10100000352E+00 0.  1.
</event>
<event>
 5   0  0.2660250E-04  0.1400210E+04  0.7818609E-02  0.8953666E-01
        3   -1    0    0  501    0  0.00000000000E+00  0.00000000000E+00  0.43132515363E+03  0.43132516546E+03  0.10100000352E+00 0.  1.
       -3   -1    0    0    0  501  0.00000000000E+00  0.00000000000E+00 -0.11363751177E+04  0.11363751222E+04  0.10100000352E+00 0. -1.
    10030    2    1    2    0    0  0.00000000000E+00  0.00000000000E+00 -0.70504996411E+03  0.15677002877E+04  0.14002102485E+04 0.  0.
        4    1    3    3  502    0  0.56365831774E+03 -0.55562573741E+02  0.10821871537E+03  0.57663749619E+03  0.12699999809E+01 0.  1.
       -4    1    3    3    0  502 -0.56365831774E+03  0.55562573741E+02 -0.81326867948E+03  0.99106279149E+03  0.12699999809E+01 0. -1.
</event>
<event>
 5   0  0.3977658E-04  0.1407536E+04  0.7818609E-02  0.8948381E-01
        1   -1    0    0  501    0  0.00000000000E+00  0.00000000000E+00  0.13083724688E+04  0.13083724688E+04  0.50400001928E-02 0.  1.
       -1   -1    0    0    0  501  0.00000000000E+00  0.00000000000E+00 -0.37855402363E+03  0.37855402366E+03  0.50400001928E-02 0. -1.
    10030    2    1    2    0    0  0.00000000000E+00  0.00000000000E+00  0.92981844513E+03  0.16869264924E+04  0.14075363761E+04 0.  0.
        5    1    3    3  502    0  0.70883982730E+02  0.32087953957E+03 -0.28093598605E+03  0.43236019264E+03  0.46999998093E+01 0. -1.
       -5    1    3    3    0  502 -0.70883982730E+02 -0.32087953957E+03  0.12107544312E+04  0.12545662998E+04  0.46999998093E+01 0.  1.
</event>
<event>
 5   0  0.3907270E-04  0.1403081E+04  0.7818609E-02  0.8951592E-01
       -1   -1    0    0    0  501  0.00000000000E+00  0.00000000000E+00  0.41186922523E+03  0.41186922526E+03  0.50400001928E-02 0.  1.
        1   -1    0    0  501    0  0.00000000000E+00  0.00000000000E+00 -0.11949398591E+04  0.11949398591E+04  0.50400001928E-02 0. -1.
    10030    2    1    2    0    0  0.00000000000E+00  0.00000000000E+00 -0.78307063384E+03  0.16068090843E+04  0.14030808302E+04 0.  0.
        3    1    3    3  502    0  0.13842273381E+03  0.63765453409E+03 -0.96449338166E+02  0.65959581799E+03  0.10100000352E+00 0.  1.
       -3    1    3    3    0  502 -0.13842273381E+03 -0.63765453409E+03 -0.68662129567E+03  0.94721326635E+03  0.10100000352E+00 0. -1.
</event>
<event>
 5   0  0.6959748E-04  0.1400835E+04  0.7818609E-02  0.8953215E-01
       -2   -1    0    0    0  501  0.00000000000E+00  0.00000000000E+00  0.74562554440E+03  0.74562554440E+03  0.25500000920E-02 0.  1.
        2   -1    0    0  501    0  0.00000000000E+00  0.00000000000E+00 -0.65795015298E+03  0.65795015299E+03  0.25500000920E-02 0. -1.
    10030    2    1    2    0    0  0.00000000000E+00  0.00000000000E+00  0.87675391416E+02  0.14035756974E+04  0.14008346669E+04 0.  0.
        5    1    3    3  502    0 -0.16708897492E+03 -0.67965496153E+03  0.17087914479E+02  0.70011690388E+03  0.46999998093E+01 0. -1.
       -5    1    3    3    0  502  0.16708897492E+03  0.67965496153E+03  0.70587476938E+02  0.70345879352E+03  0.46999998093E+01 0.  1.
</event>
<event>
 5   0  0.3977658E-04  0.1401580E+04  0.7818609E-02  0.8952675E-01
       -1   -1    0    0    0  501  0.00000000000E+00  0.00000000000E+00  0.53068557145E+03  0.53068557147E+03  0.50400001928E-02 0.  1.
        1   -1    0    0  501    0  0.00000000000E+00  0.00000000000E+00 -0.92541969963E+03  0.92541969964E+03  0.50400001928E-02 0. -1.
    10030    2    1    2    0    0  0.00000000000E+00  0.00000000000E+00 -0.39473412818E+03  0.14561052711E+04  0.14015803682E+04 0.  0.
        5    1    3    3  502    0 -0.48860032331E+03  0.22789719990E+03  0.26772878249E+03  0.60197026558E+03  0.46999998093E+01 0.  1.
       -5    1    3    3    0  502  0.48860032331E+03 -0.22789719990E+03 -0.66246291067E+03  0.85413500554E+03  0.46999998093E+01 0. -1.
</event>
<event>
 5   0  0.6959748E-04  0.1404459E+04  0.7818609E-02  0.8950597E-01
       -2   -1    0    0    0  501  0.00000000000E+00  0.00000000000E+00  0.29768556818E+03  0.29768556819E+03  0.25500000920E-02 0.  1.
        2   -1    0    0  501    0  0.00000000000E+00  0.00000000000E+00 -0.16565341058E+04  0.16565341058E+04  0.25500000920E-02 0. -1.
    10030    2    1    2    0    0  0.00000000000E+00  0.00000000000E+00 -0.13588485377E+04  0.19542196740E+04  0.14044590368E+04 0.  0.
        5    1    3    3  502    0  0.91454883537E+02 -0.71957037601E+02 -0.16430022444E+04  0.16471248514E+04  0.46999998093E+01 0. -1.
       -5    1    3    3    0  502 -0.91454883537E+02  0.71957037601E+02  0.28415370679E+03  0.30709482259E+03  0.46999998093E+01 0.  1.
</event>
<event>
 5   0  0.3907093E-04  0.1402469E+04  0.7818609E-02  0.8952034E-01
       -1   -1    0    0    0  501  0.00000000000E+00  0.00000000000E+00  0.54081070628E+03  0.54081070630E+03  0.50400001928E-02 0.  1.
        1   -1    0    0  501    0  0.00000000000E+00  0.00000000000E+00 -0.90924521471E+03  0.90924521472E+03  0.50400001928E-02 0. -1.
    10030    2    1    2    0    0  0.00000000000E+00  0.00000000000E+00 -0.36843450843E+03  0.14500559210E+04  0.14024686047E+04 0.  0.
        4    1    3    3  502    0 -0.59088745804E+03 -0.37751345243E+03 -0.17597564703E+03  0.72293390852E+03  0.12699999809E+01 0.  1.
       -4    1    3    3    0  502  0.59088745804E+03  0.37751345243E+03 -0.19245886140E+03  0.72712201251E+03  0.12699999809E+01 0. -1.
</event>
<event>
 5   0  0.3977658E-04  0.1366053E+04  0.7818609E-02  0.8978765E-01
        1   -1    0    0  501    0  0.00000000000E+00  0.00000000000E+00  0.10276972067E+04  0.10276972067E+04  0.50400001928E-02 0. -1.
       -1   -1    0    0    0  501  0.00000000000E+00  0.00000000000E+00 -0.45395185734E+03  0.45395185737E+03  0.50400001928E-02 0.  1.
    10030    2    1    2    0    0  0.00000000000E+00  0.00000000000E+00  0.57374534939E+03  0.14816490641E+04  0.13660527893E+04 0.  0.
        5    1    3    3  502    0 -0.27175759783E+03 -0.61689450100E+03  0.16760410459E+03  0.69463964990E+03  0.46999998093E+01 0.  1.
       -5    1    3    3    0  502  0.27175759783E+03  0.61689450100E+03  0.40614124480E+03  0.78700941422E+03  0.46999998093E+01 0. -1.
</event>
<event>
 5   0  0.7296966E-04  0.1377870E+04  0.7818609E-02  0.8969995E-01
       -2   -1    0    0    0  501  0.00000000000E+00  0.00000000000E+00  0.21979417705E+03  0.21979417707E+03  0.25500000920E-02 0. -1.
        2   -1    0    0  501    0  0.00000000000E+00  0.00000000000E+00 -0.21594347738E+04  0.21594347738E+04  0.25500000920E-02 0.  1.
    10030    2    1    2    0    0  0.00000000000E+00  0.00000000000E+00 -0.19396405967E+04  0.23792289509E+04  0.13778696441E+04 0.  0.
        3    1    3    3  502    0  0.54469756258E+03  0.12659094195E+03 -0.16646295304E+04  0.17560501659E+04  0.10100000352E+00 0.  1.
       -3    1    3    3    0  502 -0.54469756258E+03 -0.12659094195E+03 -0.27501106630E+03  0.62317878498E+03  0.10100000352E+00 0. -1.
</event>
<event>
 5   0  0.6959748E-04  0.1397875E+04  0.7818609E-02  0.8955358E-01
       -2   -1    0    0    0  501  0.00000000000E+00  0.00000000000E+00  0.52688643460E+03  0.52688643461E+03  0.25500000920E-02 0.  1.
        2   -1    0    0  501    0  0.00000000000E+00  0.00000000000E+00 -0.92717003131E+03  0.92717003132E+03  0.25500000920E-02 0. -1.
    10030    2    1    2    0    0  0.00000000000E+00  0.00000000000E+00 -0.40028359671E+03  0.14540564659E+04  0.13978745467E+04 0.  0.
        5    1    3    3  502    0  0.44476040964E+03  0.19644172437E+03  0.32212320650E+03  0.58325519562E+03  0.46999998093E+01 0.  1.
       -5    1    3    3    0  502 -0.44476040964E+03 -0.19644172437E+03 -0.72240680321E+03  0.87080127031E+03  0.46999998093E+01 0. -1.
</event>
<event>
 5   0  0.2660250E-04  0.1392608E+04  0.7818609E-02  0.8959187E-01
        3   -1    0    0  501    0  0.00000000000E+00  0.00000000000E+00  0.74608786583E+03  0.74608787267E+03  0.10100000352E+00 0.  1.
       -3   -1    0    0    0  501  0.00000000000E+00  0.00000000000E+00 -0.64984220722E+03  0.64984221506E+03  0.10100000352E+00 0. -1.
    10030    2    1    2    0    0  0.00000000000E+00  0.00000000000E+00  0.96245658617E+02  0.13959300877E+04  0.13926081944E+04 0.  0.
        2    1    3    3  502    0 -0.11216651324E+03 -0.38037010115E+03  0.62183120970E+03  0.73752070744E+03  0.25500000920E-02 0.  1.
       -2    1    3    3    0  502  0.11216651324E+03  0.38037010115E+03 -0.52558555108E+03  0.65840938029E+03  0.25500000920E-02 0. -1.
</event>
<event>
 5   0  0.6895048E-04  0.1418307E+04  0.7818609E-02  0.8940673E-01
        2   -1    0    0  501    0  0.00000000000E+00  0.00000000000E+00  0.55875837569E+03  0.55875837569E+03  0.25500000920E-02 0.  1.
       -2   -1    0    0    0  501  0.00000000000E+00  0.00000000000E+00 -0.90002831194E+03  0.90002831195E+03  0.25500000920E-02 0. -1.
    10030    2    1    2    0    0  0.00000000000E+00  0.00000000000E+00 -0.34126993625E+03  0.14587866876E+04  0.14183065362E+04 0.  0.
        4    1    3    3  502    0 -0.67603697664E+03  0.86408609894E+02  0.30928411459E+02  0.68223941632E+03  0.12699999809E+01 0.  1.
       -4    1    3    3    0  502  0.67603697664E+03 -0.86408609894E+02 -0.37219834771E+03  0.77654727132E+03  0.12699999809E+01 0. -1.
</event>
<event>
 5   0  0.3784219E-04  0.1401277E+04  0.7818609E-02  0.8952894E-01
        1   -1    0    0  501    0  0.00000000000E+00  0.00000000000E+00  0.66890397967E+03  0.66890397969E+03  0.50400001928E-02 0.  1.
       -1   -1    0    0    0  501  0.00000000000E+00  0.00000000000E+00 -0.73387892319E+03  0.73387892321E+03  0.50400001928E-02 0. -1.
    10030    2    1    2    0    0  0.00000000000E+00  0.00000000000E+00 -0.64974943517E+02  0.14027829029E+04  0.14012773207E+04 0.  0.
        1    1    3    3  502    0  0.36889224154E+03 -0.52919956658E+03  0.24123063681E+03  0.68871321121E+03  0.50400001928E-02 0.  1.
       -1    1    3    3    0  502 -0.36889224154E+03  0.52919956658E+03 -0.30620558033E+03  0.71406969169E+03  0.50400001928E-02 0. -1.
</event>
<event>
 5   0  0.3756664E-04  0.1398603E+04  0.7818609E-02  0.8954830E-01
        1   -1    0    0  501    0  0.00000000000E+00  0.00000000000E+00  0.99656770765E+03  0.99656770766E+03  0.50400001928E-02 0. -1.
       -1   -1    0    0    0  501  0.00000000000E+00  0.00000000000E+00 -0.49070695643E+03  0.49070695645E+03  0.50400001928E-02 0.  1.
    10030    2    1    2    0    0  0.00000000000E+00  0.00000000000E+00  0.50586075122E+03  0.14872746641E+04  0.13986031699E+04 0.  0.
        2    1    3    3  502    0 -0.27769934352E+03 -0.47601148154E+03  0.71071001286E+03  0.89934007936E+03  0.25500000920E-02 0. -1.
       -2    1    3    3    0  502  0.27769934352E+03  0.47601148154E+03 -0.20484926164E+03  0.58793458475E+03  0.25500000920E-02 0.  1.
</event>
<event>
 5   0  0.3907093E-04  0.1388652E+04  0.7818609E-02  0.8962074E-01
        1   -1    0    0  501    0  0.00000000000E+00  0.00000000000E+00  0.51054432092E+03  0.51054432094E+03  0.50400001928E-02 0.  1.
       -1   -1    0    0    0  501  0.00000000000E+00  0.00000000000E+00 -0.94426458569E+03  0.94426458570E+03  0.50400001928E-02 0. -1.
    10030    2    1    2    0    0  0.00000000000E+00  0.00000000000E+00 -0.43372026477E+03  0.14548089066E+04  0.13886524716E+04 0.  0.
        4    1    3    3  502    0  0.50899260923E+02 -0.53986136838E+03  0.23744197302E+03  0.59196396451E+03  0.12699999809E+01 0.  1.
       -4    1    3    3    0  502 -0.50899260923E+02  0.53986136838E+03 -0.67116223779E+03  0.86284494213E+03  0.12699999809E+01 0. -1.
</event>
<event>
 5   0  0.3907093E-04  0.1392783E+04  0.7818609E-02  0.8959059E-01
       -1   -1    0    0    0  501  0.00000000000E+00  0.00000000000E+00  0.61036683148E+03  0.61036683150E+03  0.50400001928E-02 0. -1.
        1   -1    0    0  501    0  0.00000000000E+00  0.00000000000E+00 -0.79453997309E+03  0.79453997311E+03  0.50400001928E-02 0.  1.
    10030    2    1    2    0    0  0.00000000000E+00  0.00000000000E+00 -0.18417314161E+03  0.14049068046E+04  0.13927826046E+04 0.  0.
        4    1    3    3  502    0  0.37595499796E+03  0.42023191592E+03  0.32015453474E+03  0.64841156888E+03  0.12699999809E+01 0. -1.
       -4    1    3    3    0  502 -0.37595499796E+03 -0.42023191592E+03 -0.50432767635E+03  0.75649523573E+03  0.12699999809E+01 0.  1.
</event>
<event>
 5   0  0.3784219E-04  0.1435642E+04  0.7818609E-02  0.8928416E-01
        1   -1    0    0  501    0  0.00000000000E+00  0.00000000000E+00  0.10891172276E+04  0.10891172276E+04  0.50400001928E-02 0. -1.
       -1   -1    0    0    0  501  0.00000000000E+00  0.00000000000E+00 -0.47310514558E+03  0.47310514560E+03  0.50400001928E-02 0.  1.
    10030    2    1    2    0    0  0.00000000000E+00  0.00000000000E+00  0.61601208198E+03  0.15622223732E+04  0.14356419672E+04 0.  0.
        1    1    3    3  502    0  0.15844235240E+03  0.28068621514E+03  0.10059448736E+04  0.10563208883E+04  0.50400001928E-02 0. -1.
       -1    1    3    3    0  502 -0.15844235240E+03 -0.28068621514E+03 -0.38993279159E+03  0.50590148486E+03  0.50400001928E-02 0.  1.
</event>
<event>
 5   0  0.3977658E-04  0.1396931E+04  0.7818609E-02  0.8956043E-01
       -1   -1    0    0    0  501  0.00000000000E+00  0.00000000000E+00  0.44497383330E+03  0.44497383333E+03  0.50400001928E-02 0. -1.
        1   -1    0    0  501    0  0.00000000000E+00  0.00000000000E+00 -0.10963655510E+04  0.10963655510E+04  0.50400001928E-02 0.  1.
    10030    2    1    2    0    0  0.00000000000E+00  0.00000000000E+00 -0.65139171766E+03  0.15413393843E+04  0.13969308958E+04 0.  0.
        5    1    3    3  502    0 -0.26827748201E+03 -0.64385213930E+03 -0.36568477194E+03  0.78756956966E+03  0.46999998093E+01 0.  1.
       -5    1    3    3    0  502  0.26827748201E+03  0.64385213930E+03 -0.28570694573E+03  0.75376981464E+03  0.46999998093E+01 0. -1.
</event>
<event>
 5   0  0.6895048E-04  0.1437343E+04  0.7818609E-02  0.8927223E-01
       -2   -1    0    0    0  501  0.00000000000E+00  0.00000000000E+00  0.30558054376E+03  0.30558054378E+03  0.25500000920E-02 0. -1.
        2   -1    0    0  501    0  0.00000000000E+00  0.00000000000E+00 -0.16901879870E+04  0.16901879870E+04  0.25500000920E-02 0.  1.
    10030    2    1    2    0    0  0.00000000000E+00  0.00000000000E+00 -0.13846074433E+04  0.19957685308E+04  0.14373427763E+04 0.  0.
        4    1    3    3  502    0 -0.52379378724E+03  0.24646964863E+03 -0.10095427102E+03  0.58762283566E+03  0.12699999809E+01 0. -1.
       -4    1    3    3    0  502  0.52379378724E+03 -0.24646964863E+03 -0.12836531723E+04  0.14081456952E+04  0.12699999809E+01 0.  1.
</event>
<event>
 5   0  0.3977658E-04  0.1315982E+04  0.7818609E-02  0.9016986E-01
       -1   -1    0    0    0  501  0.00000000000E+00  0.00000000000E+00  0.38121206710E+03  0.38121206714E+03  0.50400001928E-02 0.  1.
        1   -1    0    0  501    0  0.00000000000E+00  0.00000000000E+00 -0.11357253193E+04  0.11357253194E+04  0.50400001928E-02 0. -1.
    10030    2    1    2    0    0  0.00000000000E+00  0.00000000000E+00 -0.75451325224E+03  0.15169373865E+04  0.13159820617E+04 0.  0.
        5    1    3    3  502    0 -0.33651382641E+03 -0.92666696540E+02 -0.10201940306E+04  0.10782609249E+04  0.46999998093E+01 0. -1.
       -5    1    3    3    0  502  0.33651382641E+03  0.92666696540E+02  0.26568077835E+03  0.43867646164E+03  0.46999998093E+01 0.  1.
</event>
<event>
 5   0  0.6895048E-04  0.1443547E+04  0.7818609E-02  0.8922887E-01
        2   -1    0    0  501    0  0.00000000000E+00  0.00000000000E+00  0.14750992767E+04  0.14750992767E+04  0.25500000920E-02 0. -1.
       -2   -1    0    0    0  501  0.00000000000E+00  0.00000000000E+00 -0.35316725468E+03  0.35316725469E+03  0.25500000920E-02 0.  1.
    10030    2    1    2    0    0  0.00000000000E+00  0.00000000000E+00  0.11219320220E+04  0.18282665314E+04  0.14435466905E+04 0.  0.
        4    1    3    3  502    0  0.88179550811E+02  0.66452953217E+03  0.89981373384E+03  0.11220701853E+04  0.12699999809E+01 0.  1.
       -4    1    3    3    0  502 -0.88179550811E+02 -0.66452953217E+03  0.22211828814E+03  0.70619634602E+03  0.12699999809E+01 0. -1.
</event>
<event>
 5   0  0.3784219E-04  0.1409579E+04  0.7818609E-02  0.8946914E-01
        1   -1    0    0  501    0  0.00000000000E+00  0.00000000000E+00  0.59352762849E+03  0.59352762851E+03  0.50400001928E-02 0. -1.
       -1   -1    0    0    0  501  0.00000000000E+00  0.00000000000E+00 -0.83690808193E+03  0.83690808195E+03  0.50400001928E-02 0.  1.
    10030    2    1    2    0    0  0.00000000000E+00  0.00000000000E+00 -0.24338045344E+03  0.14304357105E+04  0.14095787586E+04 0.  0.
        1    1    3    3  502    0 -0.24612968548E+03 -0.34505656218E+03  0.44974407845E+03  0.61799157705E+03  0.50400001928E-02 0. -1.
       -1    1    3    3    0  502  0.24612968548E+03  0.34505656218E+03 -0.69312453189E+03  0.81244413341E+03  0.50400001928E-02 0.  1.
</event>
<event>
 5   0  0.7065539E-04  0.1401997E+04  0.7818609E-02  0.8952374E-01
        2   -1    0    0  501    0  0.00000000000E+00  0.00000000000E+00  0.10436061718E+04  0.10436061718E+04  0.25500000920E-02 0. -1.
       -2   -1    0    0    0  501  0.00000000000E+00  0.00000000000E+00 -0.47086626929E+03  0.47086626930E+03  0.25500000920E-02 0.  1.
    10030    2    1    2    0    0  0.00000000000E+00  0.00000000000E+00  0.57273990255E+03  0.15144724411E+04  0.14019970681E+04 0.  0.
        1    1    3    3  502    0 -0.44197970729E+03 -0.54385898516E+03  0.30412930298E+03  0.76395241367E+03  0.50400001928E-02 0. -1.
       -1    1    3    3    0  502  0.44197970729E+03  0.54385898516E+03  0.26861059957E+03  0.75052002747E+03  0.50400001928E-02 0.  1.
</event>
<event>
 5   0  0.3907270E-04  0.1397081E+04  0.7818609E-02  0.8955934E-01
        1   -1    0    0  501    0  0.00000000000E+00  0.00000000000E+00  0.89551373438E+03  0.89551373439E+03  0.50400001928E-02 0. -1.
       -1   -1    0    0    0  501  0.00000000000E+00  0.00000000000E+00 -0.54489285351E+03  0.54489285353E+03  0.50400001928E-02 0.  1.
    10030    2    1    2    0    0  0.00000000000E+00  0.00000000000E+00  0.35062088087E+03  0.14404065879E+04  0.13970812920E+04 0.  0.
        3    1    3    3  502    0  0.31722267854E+03 -0.18502105239E+03  0.78795675402E+03  0.86933243009E+03  0.10100000352E+00 0. -1.
       -3    1    3    3    0  502 -0.31722267854E+03  0.18502105239E+03 -0.43733587314E+03  0.57107415783E+03  0.10100000352E+00 0.  1.
</event>
<event>
 5   0  0.6870835E-04  0.1399373E+04  0.7818609E-02  0.8954272E-01
        2   -1    0    0  501    0  0.00000000000E+00  0.00000000000E+00  0.66924362187E+03  0.66924362188E+03  0.25500000920E-02 0.  1.
       -2   -1    0    0    0  501  0.00000000000E+00  0.00000000000E+00 -0.73151427708E+03  0.73151427708E+03  0.25500000920E-02 0. -1.
    10030    2    1    2    0    0  0.00000000000E+00  0.00000000000E+00 -0.62270655204E+02  0.14007578990E+04  0.13993730943E+04 0.  0.
        2    1    3    3  502    0 -0.26484882337E+03  0.55165500980E+03 -0.37072481170E+03  0.71547539098E+03  0.25500000920E-02 0. -1.
       -2    1    3    3    0  502  0.26484882337E+03 -0.55165500980E+03  0.30845415650E+03  0.68528250798E+03  0.25500000920E-02 0.  1.
</event>
<event>
 5   0  0.3784219E-04  0.1390910E+04  0.7818609E-02  0.8960425E-01
       -1   -1    0    0    0  501  0.00000000000E+00  0.00000000000E+00  0.10118812671E+04  0.10118812671E+04  0.50400001928E-02 0.  1.
        1   -1    0    0  501    0  0.00000000000E+00  0.00000000000E+00 -0.47797871363E+03  0.47797871366E+03  0.50400001928E-02 0. -1.
    10030    2    1    2    0    0  0.00000000000E+00  0.00000000000E+00  0.53390255344E+03  0.14898599807E+04  0.13909100710E+04 0.  0.
        1    1    3    3  502    0  0.15187164657E+03  0.15492110674E+03 -0.44080604265E+03  0.49129982048E+03  0.50400001928E-02 0. -1.
       -1    1    3    3    0  502 -0.15187164657E+03 -0.15492110674E+03  0.97470859609E+03  0.99856016026E+03  0.50400001928E-02 0.  1.
</event>
<event>
 5   0  0.3907270E-04  0.1397961E+04  0.7818609E-02  0.8955296E-01
       -1   -1    0    0    0  501  0.00000000000E+00  0.00000000000E+00  0.40768834905E+03  0.40768834908E+03  0.50400001928E-02 0. -1.
        1   -1    0    0  501    0  0.00000000000E+00  0.00000000000E+00 -0.11983997465E+04  0.11983997465E+04  0.50400001928E-02 0.  1.
    10030    2    1    2    0    0  0.00000000000E+00  0.00000000000E+00 -0.79071139746E+03  0.16060880956E+04  0.13979608209E+04 0.  0.
        3    1    3    3  502    0 -0.61824732435E+03 -0.22312876004E+03 -0.66857986260E+03  0.93755812646E+03  0.10100000352E+00 0.  1.
       -3    1    3    3    0  502  0.61824732435E+03  0.22312876004E+03 -0.12213153486E+03  0.66852996913E+03  0.10100000352E+00 0. -1.
</event>
<event>
 5   0  0.3784219E-04  0.1404156E+04  0.7818609E-02  0.8950815E-01
       -1   -1    0    0    0  501  0.00000000000E+00  0.00000000000E+00  0.78494581252E+03  0.78494581254E+03  0.50400001928E-02 0. -1.
        1   -1    0    0  501    0  0.00000000000E+00  0.00000000000E+00 -0.62795907028E+03  0.62795907030E+03  0.50400001928E-02 0.  1.
    10030    2    1    2    0    0  0.00000000000E+00  0.00000000000E+00  0.15698674224E+03  0.14129048828E+04  0.14041564623E+04 0.  0.
        1    1    3    3  502    0  0.36814407853E+03 -0.13886212193E+03  0.66358072206E+03  0.77146103348E+03  0.50400001928E-02 0. -1.
       -1    1    3    3    0  502 -0.36814407853E+03  0.13886212193E+03 -0.50659397982E+03  0.64144384936E+03  0.50400001928E-02 0.  1.
</event>
<event>
 5   0  0.6959748E-04  0.1386269E+04  0.7818609E-02  0.8963818E-01
        2   -1    0    0  501    0  0.00000000000E+00  0.00000000000E+00  0.19099542581E+04  0.19099542581E+04  0.25500000920E-02 0. -1.
       -2   -1    0    0    0  501  0.00000000000E+00  0.00000000000E+00 -0.25154279749E+03  0.25154279750E+03  0.25500000920E-02 0.  1.
    10030    2    1    2    0    0  0.00000000000E+00  0.00000000000E+00  0.16584114606E+04  0.21614970556E+04  0.13862687145E+04 0.  0.
        5    1    3    3  502    0  0.70645093441E+02 -0.68191804257E+03  0.98829349766E+03  0.12028088267E+04  0.46999998093E+01 0.  1.
       -5    1    3    3    0  502 -0.70645093441E+02  0.68191804257E+03  0.67011796291E+03  0.95868822890E+03  0.46999998093E+01 0. -1.
</event>
<event>
 5   0  0.7296966E-04  0.1395623E+04  0.7818609E-02  0.8956993E-01
       -2   -1    0    0    0  501  0.00000000000E+00  0.00000000000E+00  0.33379908060E+03  0.33379908061E+03  0.25500000920E-02 0. -1.
        2   -1    0    0  501    0  0.00000000000E+00  0.00000000000E+00 -0.14587839397E+04  0.14587839397E+04  0.25500000920E-02 0.  1.
    10030    2    1    2    0    0  0.00000000000E+00  0.00000000000E+00 -0.11249848591E+04  0.17925830203E+04  0.13956227827E+04 0.  0.
        3    1    3    3  502    0 -0.31008195551E+03 -0.26104694759E+03 -0.12920730569E+04  0.13541599324E+04  0.10100000352E+00 0.  1.
       -3    1    3    3    0  502  0.31008195551E+03  0.26104694759E+03  0.16708819778E+03  0.43842308792E+03  0.10100000352E+00 0. -1.
</event>
<event>
 5   0  0.7065539E-04  0.1399978E+04  0.7818609E-02  0.8953835E-01
       -2   -1    0    0    0  501  0.00000000000E+00  0.00000000000E+00  0.35058086524E+03  0.35058086525E+03  0.25500000920E-02 0.  1.
        2   -1    0    0  501    0  0.00000000000E+00  0.00000000000E+00 -0.13976357341E+04  0.13976357341E+04  0.25500000920E-02 0. -1.
    10030    2    1    2    0    0  0.00000000000E+00  0.00000000000E+00 -0.10470548689E+04  0.17482165994E+04  0.13999776355E+04 0.  0.
        1    1    3    3  502    0 -0.41003839313E+03  0.34796659731E+03  0.36005727928E+02  0.53898854269E+03  0.50400001928E-02 0.  1.
       -1    1    3    3    0  502  0.41003839313E+03 -0.34796659731E+03 -0.10830605968E+04  0.12092280567E+04  0.50400001928E-02 0. -1.
</event>
<event>
 5   0  0.3756664E-04  0.1409741E+04  0.7818609E-02  0.8946797E-01
       -1   -1    0    0    0  501  0.00000000000E+00  0.00000000000E+00  0.35494992504E+03  0.35494992508E+03  0.50400001928E-02 0. -1.
        1   -1    0    0  501    0  0.00000000000E+00  0.00000000000E+00 -0.13997539016E+04  0.13997539016E+04  0.50400001928E-02 0.  1.
    10030    2    1    2    0    0  0.00000000000E+00  0.00000000000E+00 -0.10448039765E+04  0.17547038267E+04  0.14097411713E+04 0.  0.
        2    1    3    3  502    0 -0.20641805712E+03 -0.33301314279E+03  0.20692846584E+03  0.44308639965E+03  0.25500000920E-02 0. -1.
       -2    1    3    3    0  502  0.20641805712E+03  0.33301314279E+03 -0.12517324424E+04  0.13116174270E+04  0.25500000920E-02 0.  1.
</event>
<event>
 5   0  0.3784219E-04  0.1396067E+04  0.7818609E-02  0.8956670E-01
        1   -1    0    0  501    0  0.00000000000E+00  0.00000000000E+00  0.51313711155E+03  0.51313711158E+03  0.50400001928E-02 0.  1.
       -1   -1    0    0    0  501  0.00000000000E+00  0.00000000000E+00 -0.94955284270E+03  0.94955284272E+03  0.50400001928E-02 0. -1.
    10030    2    1    2    0    0  0.00000000000E+00  0.00000000000E+00 -0.43641573115E+03  0.14626899543E+04  0.13960670514E+04 0.  0.
        1    1    3    3  502    0  0.47511377182E+03  0.28296227037E+03  0.22808974301E+03  0.59818531704E+03  0.50400001928E-02 0.  1.
       -1    1    3    3    0  502 -0.47511377182E+03 -0.28296227037E+03 -0.66450547416E+03  0.86450463726E+03  0.50400001928E-02 0. -1.
</event>
<event>
 5   0  0.6959748E-04  0.1406399E+04  0.7818609E-02  0.8949199E-01
       -2   -1    0    0    0  501  0.00000000000E+00  0.00000000000E+00  0.81813817058E+03  0.81813817058E+03  0.25500000920E-02 0.  1.
        2   -1    0    0  501    0  0.00000000000E+00  0.00000000000E+00 -0.60440876926E+03  0.60440876927E+03  0.25500000920E-02 0. -1.
    10030    2    1    2    0    0  0.00000000000E+00  0.00000000000E+00  0.21372940131E+03  0.14225469398E+04  0.14063994948E+04 0.  0.
        5    1    3    3  502    0 -0.19141723812E+03 -0.40224062972E+02  0.79005226467E+03  0.81391842662E+03  0.46999998093E+01 0.  1.
       -5    1    3    3    0  502  0.19141723812E+03  0.40224062972E+02 -0.57632286336E+03  0.60862851323E+03  0.46999998093E+01 0. -1.
</event>
<event>
 5   0  0.3907270E-04  0.1401599E+04  0.7818609E-02  0.8952662E-01
        1   -1    0    0  501    0  0.00000000000E+00  0.00000000000E+00  0.68888140445E+03  0.68888140446E+03  0.50400001928E-02 0.  1.
       -1   -1    0    0    0  501  0.00000000000E+00  0.00000000000E+00 -0.71292392698E+03  0.71292392700E+03  0.50400001928E-02 0. -1.
    10030    2    1    2    0    0  0.00000000000E+00  0.00000000000E+00 -0.24042522533E+02  0.14018053315E+04  0.14015991383E+04 0.  0.
        3    1    3    3  502    0  0.25639261381E+03  0.60928707366E+03 -0.24476156604E+03  0.70489442115E+03  0.10100000352E+00 0. -1.
       -3    1    3    3    0  502 -0.25639261381E+03 -0.60928707366E+03  0.22071904351E+03  0.69691091032E+03  0.10100000352E+00 0.  1.
</event>
<event>
 5   0  0.3907093E-04  0.1390056E+04  0.7818609E-02  0.8961048E-01
        1   -1    0    0  501    0  0.00000000000E+00  0.00000000000E+00  0.10282364120E+04  0.10282364120E+04  0.50400001928E-02 0. -1.
       -1   -1    0    0    0  501  0.00000000000E+00  0.00000000000E+00 -0.46979858035E+03  0.46979858038E+03  0.50400001928E-02 0.  1.
    10030    2    1    2    0    0  0.00000000000E+00  0.00000000000E+00  0.55843783161E+03  0.14980349924E+04  0.13900561235E+04 0.  0.
        4    1    3    3  502    0 -0.48876425884E+03  0.42411276175E+03  0.55249144843E+03  0.85088809422E+03  0.12699999809E+01 0. -1.
       -4    1    3    3    0  502  0.48876425884E+03 -0.42411276175E+03  0.59463831831E+01  0.64714689814E+03  0.12699999809E+01 0.  1.
</event>
<event>
 5   0  0.6959748E-04  0.1401912E+04  0.7818609E-02  0.8952436E-01
       -2   -1    0    0    0  501  0.00000000000E+00  0.00000000000E+00  0.79047669100E+03  0.79047669101E+03  0.25500000920E-02 0. -1.
        2   -1    0    0  501    0  0.00000000000E+00  0.00000000000E+00 -0.62157300171E+03  0.62157300172E+03  0.25500000920E-02 0.  1.
    10030    2    1    2    0    0  0.00000000000E+00  0.00000000000E+00  0.16890368929E+03  0.14120496927E+04  0.14019115088E+04 0.  0.
        5    1    3    3  502    0 -0.68007368209E+03  0.16559261055E+03  0.12208180846E+03  0.71052599087E+03  0.46999998093E+01 0. -1.
       -5    1    3    3    0  502  0.68007368209E+03 -0.16559261055E+03  0.46821880837E+02  0.70152370186E+03  0.46999998093E+01 0.  1.
</event>
<event>
 5   0  0.3977658E-04  0.1411691E+04  0.7818609E-02  0.8945399E-01
       -1   -1    0    0    0  501  0.00000000000E+00  0.00000000000E+00  0.13532146351E+04  0.13532146351E+04  0.50400001928E-02 0. -1.
        1   -1    0    0  501    0  0.00000000000E+00  0.00000000000E+00 -0.36817379060E+03  0.36817379064E+03  0.50400001928E-02 0.  1.
    10030    2    1    2    0    0  0.00000000000E+00  0.00000000000E+00  0.98504084450E+03  0.17213884257E+04  0.14116914135E+04 0.  0.
        5    1    3    3  502    0 -0.52134656321E+03 -0.16282777766E+03 -0.52640610023E+02  0.54873331225E+03  0.46999998093E+01 0.  1.
       -5    1    3    3    0  502  0.52134656321E+03  0.16282777766E+03  0.10376814545E+04  0.11726551135E+04  0.46999998093E+01 0. -1.
</event>
<event>
 5   0  0.6959748E-04  0.1399048E+04  0.7818609E-02  0.8954508E-01
       -2   -1    0    0    0  501  0.00000000000E+00  0.00000000000E+00  0.39650438780E+03  0.39650438781E+03  0.25500000920E-02 0. -1.
        2   -1    0    0  501    0  0.00000000000E+00  0.00000000000E+00 -0.12341190875E+04  0.12341190875E+04  0.25500000920E-02 0.  1.
    10030    2    1    2    0    0  0.00000000000E+00  0.00000000000E+00 -0.83761469973E+03  0.16306234754E+04  0.13990477237E+04 0.  0.
        5    1    3    3  502    0  0.46811163149E+02 -0.47024691029E+03 -0.10199150152E+04  0.11240872608E+04  0.46999998093E+01 0.  1.
       -5    1    3    3    0  502 -0.46811163149E+02  0.47024691029E+03  0.18230031548E+03  0.50653621456E+03  0.46999998093E+01 0. -1.
</event>
<event>
 5   0  0.6895048E-04  0.1401339E+04  0.7818609E-02  0.8952850E-01
        2   -1    0    0  501    0  0.00000000000E+00  0.00000000000E+00  0.70367279321E+03  0.70367279322E+03  0.25500000920E-02 0. -1.
       -2   -1    0    0    0  501  0.00000000000E+00  0.00000000000E+00 -0.69767891624E+03  0.69767891624E+03  0.25500000920E-02 0.  1.
    10030    2    1    2    0    0  0.00000000000E+00  0.00000000000E+00  0.59938769728E+01  0.14013517095E+04  0.14013388909E+04 0.  0.
        4    1    3    3  502    0  0.26708809960E+03 -0.44711920623E+02  0.64922328430E+03  0.70343990118E+03  0.12699999809E+01 0. -1.
       -4    1    3    3    0  502 -0.26708809960E+03  0.44711920623E+02 -0.64322940733E+03  0.69791180828E+03  0.12699999809E+01 0.  1.
</event>
<event>
 5   0  0.7065539E-04  0.1417063E+04  0.7818609E-02  0.8941559E-01
       -2   -1    0    0    0  501  0.00000000000E+00  0.00000000000E+00  0.76894744877E+03  0.76894744877E+03  0.25500000920E-02 0. -1.
        2   -1    0    0  501    0  0.00000000000E+00  0.00000000000E+00 -0.65286230283E+03  0.65286230284E+03  0.25500000920E-02 0.  1.
    10030    2    1    2    0    0  0.00000000000E+00  0.00000000000E+00  0.11608514594E+03  0.14218097516E+04  0.14170628810E+04 0.  0.
        1    1    3    3  502    0  0.23501344618E+03  0.24297380918E+02  0.72825854637E+03  0.76562536073E+03  0.50400001928E-02 0. -1.
       -1    1    3    3    0  502 -0.23501344618E+03 -0.24297380918E+02 -0.61217340043E+03  0.65618439088E+03  0.50400001928E-02 0.  1.
</event>
<event>
 5   0  0.7065539E-04  0.1412094E+04  0.7818609E-02  0.8945110E-01
       -2   -1    0    0    0  501  0.00000000000E+00  0.00000000000E+00  0.18847806395E+04  0.18847806395E+04  0.25500000920E-02 0.  1.
        2   -1    0    0  501    0  0.00000000000E+00  0.00000000000E+00 -0.26448844408E+03  0.26448844409E+03  0.25500000920E-02 0. -1.
    10030    2    1    2    0    0  0.00000000000E+00  0.00000000000E+00  0.16202921954E+04  0.21492690836E+04  0.14120944711E+04 0.  0.
        1    1    3    3  502    0  0.21843052004E+03 -0.61459516789E+03  0.39873355133E+03  0.76447861806E+03  0.50400001928E-02 0. -1.
       -1    1    3    3    0  502 -0.21843052004E+03  0.61459516789E+03  0.12215586441E+04  0.13847904656E+04  0.50400001928E-02 0.  1.
</event>
<event>
 5   0  0.3756664E-04  0.1396634E+04  0.7818609E-02  0.8956259E-01
       -1   -1    0    0    0  501  0.00000000000E+00  0.00000000000E+00  0.54708343268E+03  0.54708343270E+03  0.50400001928E-02 0. -1.
        1   -1    0    0  501    0  0.00000000000E+00  0.00000000000E+00 -0.89135714154E+03  0.89135714156E+03  0.50400001928E-02 0.  1.
    10030    2    1    2    0    0  0.00000000000E+00  0.00000000000E+00 -0.34427370887E+03  0.14384405743E+04  0.13966341321E+04 0.  0.
        2    1    3    3  502    0 -0.56232638609E+03  0.24320695540E+03 -0.51725861558E+03  0.80182109167E+03  0.25500000920E-02 0.  1.
       -2    1    3    3    0  502  0.56232638609E+03 -0.24320695540E+03  0.17298490671E+03  0.63661948259E+03  0.25500000920E-02 0. -1.
</event>
<event>
 5   0  0.7065539E-04  0.1408756E+04  0.7818609E-02  0.8947505E-01
       -2   -1    0    0    0  501  0.00000000000E+00  0.00000000000E+00  0.80208725790E+03  0.80208725791E+03  0.25500000920E-02 0. -1.
        2   -1    0    0  501    0  0.00000000000E+00  0.00000000000E+00 -0.61857119293E+03  0.61857119293E+03  0.25500000920E-02 0.  1.
    10030    2    1    2    0    0  0.00000000000E+00  0.00000000000E+00  0.18351606498E+03  0.14206584508E+04  0.14087555813E+04 0.  0.
        1    1    3    3  502    0 -0.11044916420E+03 -0.69563343562E+03  0.85131569318E+02  0.70947324033E+03  0.50400001928E-02 0. -1.
       -1    1    3    3    0  502  0.11044916420E+03  0.69563343562E+03  0.98384495661E+02  0.71118521051E+03  0.50400001928E-02 0.  1.
</event>
<event>
 5   0  0.3977658E-04  0.1393948E+04  0.7818609E-02  0.8958211E-01
        1   -1    0    0  501    0  0.00000000000E+00  0.00000000000E+00  0.10625289683E+04  0.10625289683E+04  0.50400001928E-02 0.  1.
       -1   -1    0    0    0  501  0.00000000000E+00  0.00000000000E+00 -0.45718556757E+03  0.45718556760E+03  0.50400001928E-02 0. -1.
    10030    2    1    2    0    0  0.00000000000E+00  0.00000000000E+00  0.60534340069E+03  0.15197145359E+04  0.13939482192E+04 0.  0.
        5    1    3    3  502    0 -0.20902517021E+03 -0.13504952951E+03  0.10124236140E+04  0.10425706506E+04  0.46999998093E+01 0.  1.
       -5    1    3    3    0  502  0.20902517021E+03  0.13504952951E+03 -0.40708021333E+03  0.47714388530E+03  0.46999998093E+01 0. -1.
</event>
<event>
 5   0  0.3907270E-04  0.1393282E+04  0.7818609E-02  0.8958696E-01
        1   -1    0    0  501    0  0.00000000000E+00  0.00000000000E+00  0.48749248860E+03  0.48749248863E+03  0.50400001928E-02 0. -1.
       -1   -1    0    0    0  501  0.00000000000E+00  0.00000000000E+00 -0.99551969353E+03  0.99551969354E+03  0.50400001928E-02 0.  1.
    10030    2    1    2    0    0  0.00000000000E+00  0.00000000000E+00 -0.50802720493E+03  0.14830121822E+04  0.13932815550E+04 0.  0.
        3    1    3    3  502    0 -0.12564282877E+03 -0.61136325857E+03 -0.58338931266E+03  0.85433848952E+03  0.10100000352E+00 0.  1.
       -3    1    3    3    0  502  0.12564282877E+03  0.61136325857E+03  0.75362107732E+02  0.62867369265E+03  0.10100000352E+00 0. -1.
</event>
<event>
 5   0  0.6895048E-04  0.1407946E+04  0.7818609E-02  0.8948087E-01
       -2   -1    0    0    0  501  0.00000000000E+00  0.00000000000E+00  0.43566835451E+03  0.43566835451E+03  0.25500000920E-02 0.  1.
        2   -1    0    0  501    0  0.00000000000E+00  0.00000000000E+00 -0.11375126558E+04  0.11375126558E+04  0.25500000920E-02 0. -1.
    10030    2    1    2    0    0  0.00000000000E+00  0.00000000000E+00 -0.70184430128E+03  0.15731810103E+04  0.14079464009E+04 0.  0.
        4    1    3    3  502    0  0.31175593150E+03  0.43115088172E+03  0.16414720929E+03  0.55680226549E+03  0.12699999809E+01 0.  1.
       -4    1    3    3    0  502 -0.31175593150E+03 -0.43115088172E+03 -0.86599151057E+03  0.10163787448E+04  0.12699999809E+01 0. -1.
</event>
<event>
 5   0  0.3907093E-04  0.1403727E+04  0.7818609E-02  0.8951125E-01
        1   -1    0    0  501    0  0.00000000000E+00  0.00000000000E+00  0.61699178218E+03  0.61699178221E+03  0.50400001928E-02 0.  1.
       -1   -1    0    0    0  501  0.00000000000E+00  0.00000000000E+00 -0.79840972226E+03  0.79840972228E+03  0.50400001928E-02 0. -1.
    10030    2    1    2    0    0  0.00000000000E+00  0.00000000000E+00 -0.18141794008E+03  0.14154015045E+04  0.14037268074E+04 0.  0.
        4    1    3    3  502    0  0.66578447193E+03 -0.32790812716E+02  0.13081443657E+03  0.67930716924E+03  0.12699999809E+01 0.  1.
       -4    1    3    3    0  502 -0.66578447193E+03  0.32790812716E+02 -0.31223237665E+03  0.73609433525E+03  0.12699999809E+01 0. -1.
</event>
<event>
 5   0  0.7296966E-04  0.1391022E+04  0.7818609E-02  0.8960343E-01
        2   -1    0    0  501    0  0.00000000000E+00  0.00000000000E+00  0.45930493189E+03  0.45930493190E+03  0.25500000920E-02 0. -1.
       -2   -1    0    0    0  501  0.00000000000E+00  0.00000000000E+00 -0.10531902841E+04  0.10531902841E+04  0.25500000920E-02 0.  1.
    10030    2    1    2    0    0  0.00000000000E+00  0.00000000000E+00 -0.59388535219E+03  0.15124952160E+04  0.13910219146E+04 0.  0.
        3    1    3    3  502    0 -0.18057861954E+03 -0.10577454263E+03 -0.10181432552E+04  0.10394289731E+04  0.10100000352E+00 0.  1.
       -3    1    3    3    0  502  0.18057861954E+03  0.10577454263E+03  0.42425790303E+03  0.47306624292E+03  0.10100000352E+00 0. -1.
</event>
<event>
 5   0  0.7296966E-04  0.1412118E+04  0.7818609E-02  0.8945093E-01
        2   -1    0    0  501    0  0.00000000000E+00  0.00000000000E+00  0.70858548589E+03  0.70858548590E+03  0.25500000920E-02 0. -1.
       -2   -1    0    0    0  501  0.00000000000E+00  0.00000000000E+00 -0.70354184691E+03  0.70354184691E+03  0.25500000920E-02 0.  1.
    10030    2    1    2    0    0  0.00000000000E+00  0.00000000000E+00  0.50436389848E+01  0.14121273328E+04  0.14121183257E+04 0.  0.
        3    1    3    3  502    0  0.19485645628E+03 -0.60909411901E+03 -0.29673724773E+03  0.70499481471E+03  0.10100000352E+00 0.  1.
       -3    1    3    3    0  502 -0.19485645628E+03  0.60909411901E+03  0.30178088671E+03  0.70713251810E+03  0.10100000352E+00 0. -1.
</event>
<event>
 5   0  0.7296966E-04  0.1399324E+04  0.7818609E-02  0.8954308E-01
        2   -1    0    0  501    0  0.00000000000E+00  0.00000000000E+00  0.18676574659E+04  0.18676574659E+04  0.25500000920E-02 0.  1.
       -2   -1    0    0    0  501  0.00000000000E+00  0.00000000000E+00 -0.26210732579E+03  0.26210732581E+03  0.25500000920E-02 0. -1.
    10030    2    1    2    0    0  0.00000000000E+00  0.00000000000E+00  0.16055501401E+04  0.21297647917E+04  0.13993236994E+04 0.  0.
        3    1    3    3  502    0  0.82049827768E+02 -0.51350724196E+03  0.15152005297E+04  0.16019533443E+04  0.10100000352E+00 0.  1.
       -3    1    3    3    0  502 -0.82049827768E+02  0.51350724196E+03  0.90349610431E+02  0.52781144747E+03  0.10100000352E+00 0. -1.
</event>
<event>
 5   0  0.3756664E-04  0.1330616E+04  0.7818609E-02  0.9005633E-01
        1   -1    0    0  501    0  0.00000000000E+00  0.00000000000E+00  0.25131450290E+03  0.25131450295E+03  0.50400001928E-02 0. -1.
       -1   -1    0    0    0  501  0.00000000000E+00  0.00000000000E+00 -0.17612781906E+04  0.17612781906E+04  0.50400001928E-02 0.  1.
    10030    2    1    2    0    0  0.00000000000E+00  0.00000000000E+00 -0.15099636877E+04  0.20125926936E+04  0.13306160273E+04 0.  0.
        2    1    3    3  502    0  0.23939017090E+03 -0.10254383412E+03 -0.16809793232E+04  0.17010333262E+04  0.25500000920E-02 0.  1.
       -2    1    3    3    0  502 -0.23939017090E+03  0.10254383412E+03  0.17101563545E+03  0.31155936740E+03  0.25500000920E-02 0. -1.
</event>
<event>
 5   0  0.6959748E-04  0.1401043E+04  0.7818609E-02  0.8953064E-01
        2   -1    0    0  501    0  0.00000000000E+00  0.00000000000E+00  0.17115149870E+04  0.17115149871E+04  0.25500000920E-02 0. -1.
       -2   -1    0    0    0  501  0.00000000000E+00  0.00000000000E+00 -0.28672262548E+03  0.28672262549E+03  0.25500000920E-02 0.  1.
    10030    2    1    2    0    0  0.00000000000E+00  0.00000000000E+00  0.14247923616E+04  0.19982376125E+04  0.14010425699E+04 0.  0.
        5    1    3    3  502    0  0.55451998498E+03 -0.40288529768E+03  0.91858190417E+03  0.11461342773E+04  0.46999998093E+01 0. -1.
       -5    1    3    3    0  502 -0.55451998498E+03  0.40288529768E+03  0.50621045740E+03  0.85210333529E+03  0.46999998093E+01 0.  1.
</event>
<event>
 5   0  0.6959748E-04  0.1397928E+04  0.7818609E-02  0.8955320E-01
       -2   -1    0    0    0  501  0.00000000000E+00  0.00000000000E+00  0.60853021571E+03  0.60853021571E+03  0.25500000920E-02 0. -1.
        2   -1    0    0  501    0  0.00000000000E+00  0.00000000000E+00 -0.80283739140E+03  0.80283739141E+03  0.25500000920E-02 0.  1.
    10030    2    1    2    0    0  0.00000000000E+00  0.00000000000E+00 -0.19430717570E+03  0.14113676071E+04  0.13979281970E+04 0.  0.
        5    1    3    3  502    0 -0.34782439644E+03 -0.29903711231E+03  0.43529084690E+03  0.63238059481E+03  0.46999998093E+01 0. -1.
       -5    1    3    3    0  502  0.34782439644E+03  0.29903711231E+03 -0.62959802259E+03  0.77898701231E+03  0.46999998093E+01 0.  1.
</event>
<event>
 5   0  0.6895048E-04  0.1400582E+04  0.7818609E-02  0.8953398E-01
        2   -1    0    0  501    0  0.00000000000E+00  0.00000000000E+00  0.11917639114E+04  0.11917639114E+04  0.25500000920E-02 0.  1.
       -2   -1    0    0    0  501  0.00000000000E+00  0.00000000000E+00 -0.41149696209E+03  0.41149696210E+03  0.25500000920E-02 0. -1.
    10030    2    1    2    0    0  0.00000000000E+00  0.00000000000E+00  0.78026694931E+03  0.16032608735E+04  0.14005816350E+04 0.  0.
        4    1    3    3  502    0  0.59718570236E+02  0.16669422108E+03  0.11657139578E+04  0.11790860508E+04  0.12699999809E+01 0.  1.
       -4    1    3    3    0  502 -0.59718570236E+02 -0.16669422108E+03 -0.38544700846E+03  0.42417482269E+03  0.12699999809E+01 0. -1.
</event>
<event>
 5   0  0.6895048E-04  0.1397942E+04  0.7818609E-02  0.8955310E-01
        2   -1    0    0  501    0  0.00000000000E+00  0.00000000000E+00  0.10660499338E+04  0.10660499338E+04  0.25500000920E-02 0. -1.
       -2   -1    0    0    0  501  0.00000000000E+00  0.00000000000E+00 -0.45829038189E+03  0.45829038190E+03  0.25500000920E-02 0.  1.
    10030    2    1    2    0    0  0.00000000000E+00  0.00000000000E+00  0.60775955194E+03  0.15243403157E+04  0.13979419606E+04 0.  0.
        4    1    3    3  502    0  0.20226736177E+03 -0.46921740383E+03 -0.21619535326E+03  0.55481447472E+03  0.12699999809E+01 0.  1.
       -4    1    3    3    0  502 -0.20226736177E+03  0.46921740383E+03  0.82395490520E+03  0.96952584101E+03  0.12699999809E+01 0. -1.
</event>
<event>
 5   0  0.3756664E-04  0.1418433E+04  0.7818609E-02  0.8940583E-01
        1   -1    0    0  501    0  0.00000000000E+00  0.00000000000E+00  0.13690500799E+04  0.13690500799E+04  0.50400001928E-02 0. -1.
       -1   -1    0    0    0  501  0.00000000000E+00  0.00000000000E+00 -0.36739921447E+03  0.36739921451E+03  0.50400001928E-02 0.  1.
    10030    2    1    2    0    0  0.00000000000E+00  0.00000000000E+00  0.10016508654E+04  0.17364492944E+04  0.14184328309E+04 0.  0.
        2    1    3    3  502    0  0.63516523449E+03  0.30909269202E+03  0.57839349458E+03  0.91296889430E+03  0.25500000920E-02 0. -1.
       -2    1    3    3    0  502 -0.63516523449E+03 -0.30909269202E+03  0.42325737080E+03  0.82348040008E+03  0.25500000920E-02 0.  1.
</event>
<event>
 5   0  0.7296966E-04  0.1399049E+04  0.7818609E-02  0.8954507E-01
       -2   -1    0    0    0  501  0.00000000000E+00  0.00000000000E+00  0.78468851927E+03  0.78468851927E+03  0.25500000920E-02 0. -1.
        2   -1    0    0  501    0  0.00000000000E+00  0.00000000000E+00 -0.62360380920E+03  0.62360380921E+03  0.25500000920E-02 0.  1.
    10030    2    1    2    0    0  0.00000000000E+00  0.00000000000E+00  0.16108471006E+03  0.14082923285E+04  0.13990493196E+04 0.  0.
        3    1    3    3  502    0 -0.60612074531E+03  0.23903907720E+03 -0.17572297201E+03  0.67483376576E+03  0.10100000352E+00 0.  1.
       -3    1    3    3    0  502  0.60612074531E+03 -0.23903907720E+03  0.33680768207E+03  0.73345856272E+03  0.10100000352E+00 0. -1.
</event>
<event>
 5   0  0.3907093E-04  0.1344279E+04  0.7818609E-02  0.8995170E-01
       -1   -1    0    0    0  501  0.00000000000E+00  0.00000000000E+00  0.40712569846E+03  0.40712569849E+03  0.50400001928E-02 0. -1.
        1   -1    0    0  501    0  0.00000000000E+00  0.00000000000E+00 -0.11096618061E+04  0.11096618061E+04  0.50400001928E-02 0.  1.
    10030    2    1    2    0    0  0.00000000000E+00  0.00000000000E+00 -0.70253610763E+03  0.15167875046E+04  0.13442794916E+04 0.  0.
        4    1    3    3  502    0 -0.52100023203E+03 -0.36360008278E+03 -0.59879122554E+03  0.87303997998E+03  0.12699999809E+01 0. -1.
       -4    1    3    3    0  502  0.52100023203E+03  0.36360008278E+03 -0.10374488209E+03  0.64374752460E+03  0.12699999809E+01 0.  1.
</event>
<event>
 5   0  0.7065539E-04  0.1386181E+04  0.7818609E-02  0.8963882E-01
       -2   -1    0    0    0  501  0.00000000000E+00  0.00000000000E+00  0.29955738174E+03  0.29955738175E+03  0.25500000920E-02 0. -1.
        2   -1    0    0  501    0  0.00000000000E+00  0.00000000000E+00 -0.16036150013E+04  0.16036150013E+04  0.25500000920E-02 0.  1.
    10030    2    1    2    0    0  0.00000000000E+00  0.00000000000E+00 -0.13040576196E+04  0.19031723831E+04  0.13861813895E+04 0.  0.
        1    1    3    3  502    0 -0.17429979144E+03  0.78329110679E+02 -0.15667326496E+04  0.15783431383E+04  0.50400001928E-02 0.  1.
       -1    1    3    3    0  502  0.17429979144E+03 -0.78329110679E+02  0.26267502999E+03  0.32482924481E+03  0.50400001928E-02 0. -1.
</event>
<event>
 5   0  0.6870835E-04  0.1393573E+04  0.7818609E-02  0.8958484E-01
        2   -1    0    0  501    0  0.00000000000E+00  0.00000000000E+00  0.13502584185E+04  0.13502584185E+04  0.25500000920E-02 0. -1.
       -2   -1    0    0    0  501  0.00000000000E+00  0.00000000000E+00 -0.35956949955E+03  0.35956949956E+03  0.25500000920E-02 0.  1.
    10030    2    1    2    0    0  0.00000000000E+00  0.00000000000E+00  0.99068891893E+03  0.17098279181E+04  0.13935734553E+04 0.  0.
        2    1    3    3  502    0 -0.98184030112E+00  0.57816005753E+03  0.18190696075E+02  0.57844698768E+03  0.25500000920E-02 0.  1.
       -2    1    3    3    0  502  0.98184030112E+00 -0.57816005753E+03  0.97249822286E+03  0.11313809304E+04  0.25500000920E-02 0. -1.
</event>
<event>
 5   0  0.3907093E-04  0.1424008E+04  0.7818609E-02  0.8936621E-01
        1   -1    0    0  501    0  0.00000000000E+00  0.00000000000E+00  0.14079747234E+04  0.14079747234E+04  0.50400001928E-02 0. -1.
       -1   -1    0    0    0  501  0.00000000000E+00  0.00000000000E+00 -0.36005598628E+03  0.36005598632E+03  0.50400001928E-02 0.  1.
    10030    2    1    2    0    0  0.00000000000E+00  0.00000000000E+00  0.10479187371E+04  0.17680307097E+04  0.14240080445E+04 0.  0.
        4    1    3    3  502    0  0.62459464994E+03  0.57905025379E+02  0.10571451359E+03  0.63611998867E+03  0.12699999809E+01 0.  1.
       -4    1    3    3    0  502 -0.62459464994E+03 -0.57905025379E+02  0.94220422349E+03  0.11319107210E+04  0.12699999809E+01 0. -1.
</event>
<event>
 5   0  0.3756664E-04  0.1455084E+04  0.7818609E-02  0.8914883E-01
       -1   -1    0    0    0  501  0.00000000000E+00  0.00000000000E+00  0.11919903694E+04  0.11919903694E+04  0.50400001928E-02 0. -1.
        1   -1    0    0  501    0  0.00000000000E+00  0.00000000000E+00 -0.44406198819E+03  0.44406198821E+03  0.50400001928E-02 0.  1.
    10030    2    1    2    0    0  0.00000000000E+00  0.00000000000E+00  0.74792838119E+03  0.16360523576E+04  0.14550843458E+04 0.  0.
        2    1    3    3  502    0  0.47499162254E+03 -0.91649568389E+02  0.98496450789E+03  0.10973476052E+04  0.25500000920E-02 0. -1.
       -2    1    3    3    0  502 -0.47499162254E+03  0.91649568389E+02 -0.23703612670E+03  0.53870475238E+03  0.25500000920E-02 0.  1.
</event>
<event>
 5   0  0.6895048E-04  0.1407440E+04  0.7818609E-02  0.8948450E-01
       -2   -1    0    0    0  501  0.00000000000E+00  0.00000000000E+00  0.72327176902E+03  0.72327176902E+03  0.25500000920E-02 0. -1.
        2   -1    0    0  501    0  0.00000000000E+00  0.00000000000E+00 -0.68469723305E+03  0.68469723305E+03  0.25500000920E-02 0.  1.
    10030    2    1    2    0    0  0.00000000000E+00  0.00000000000E+00  0.38574535967E+02  0.14079690021E+04  0.14074404840E+04 0.  0.
        4    1    3    3  502    0  0.58629726390E+03  0.29972989658E+03 -0.22907612411E+03  0.69718001700E+03  0.12699999809E+01 0. -1.
       -4    1    3    3    0  502 -0.58629726390E+03 -0.29972989658E+03  0.26765066008E+03  0.71078898508E+03  0.12699999809E+01 0.  1.
</event>
<event>
 5   0  0.6895048E-04  0.1402225E+04  0.7818609E-02  0.8952209E-01
        2   -1    0    0  501    0  0.00000000000E+00  0.00000000000E+00  0.93524220201E+03  0.93524220202E+03  0.25500000920E-02 0. -1.
       -2   -1    0    0    0  501  0.00000000000E+00  0.00000000000E+00 -0.52559545592E+03  0.52559545592E+03  0.25500000920E-02 0.  1.
    10030    2    1    2    0    0  0.00000000000E+00  0.00000000000E+00  0.40964674610E+03  0.14608376579E+04  0.14022254477E+04 0.  0.
        4    1    3    3  502    0 -0.31452013924E+03 -0.40475935095E+03 -0.29350577016E+03  0.59067783113E+03  0.12699999809E+01 0.  1.
       -4    1    3    3    0  502  0.31452013924E+03  0.40475935095E+03  0.70315251626E+03  0.87015982681E+03  0.12699999809E+01 0. -1.
</event>
<event>
 5   0  0.3907093E-04  0.1392117E+04  0.7818609E-02  0.8959544E-01
        1   -1    0    0  501    0  0.00000000000E+00  0.00000000000E+00  0.19086647047E+04  0.19086647047E+04  0.50400001928E-02 0. -1.
       -1   -1    0    0    0  501  0.00000000000E+00  0.00000000000E+00 -0.25384118568E+03  0.25384118573E+03  0.50400001928E-02 0.  1.
    10030    2    1    2    0    0  0.00000000000E+00  0.00000000000E+00  0.16548235190E+04  0.21625058904E+04  0.13921173970E+04 0.  0.
        4    1    3    3  502    0  0.22474132154E+03  0.43849383453E+03  0.15911231736E+04  0.16656710572E+04  0.12699999809E+01 0. -1.
       -4    1    3    3    0  502 -0.22474132154E+03 -0.43849383453E+03  0.63700345397E+02  0.49683483315E+03  0.12699999809E+01 0.  1.
</event>
<event>
 5   0  0.3756664E-04  0.1386486E+04  0.7818609E-02  0.8963659E-01
       -1   -1    0    0    0  501  0.00000000000E+00  0.00000000000E+00  0.11231019784E+04  0.11231019784E+04  0.50400001928E-02 0.  1.
        1   -1    0    0  501    0  0.00000000000E+00  0.00000000000E+00 -0.42790959103E+03  0.42790959106E+03  0.50400001928E-02 0. -1.
    10030    2    1    2    0    0  0.00000000000E+00  0.00000000000E+00  0.69519238738E+03  0.15510115695E+04  0.13864863624E+04 0.  0.
        2    1    3    3  502    0  0.23013048511E+03 -0.41159449691E+03  0.91604458520E+03  0.10302949831E+04  0.25500000920E-02 0.  1.
       -2    1    3    3    0  502 -0.23013048511E+03  0.41159449691E+03 -0.22085219782E+03  0.52071658640E+03  0.25500000920E-02 0. -1.
</event>
<event>
 5   0  0.6959748E-04  0.1379489E+04  0.7818609E-02  0.8968801E-01
        2   -1    0    0  501    0  0.00000000000E+00  0.00000000000E+00  0.53325685716E+03  0.53325685717E+03  0.25500000920E-02 0.  1.
       -2   -1    0    0    0  501  0.00000000000E+00  0.00000000000E+00 -0.89215474898E+03  0.89215474898E+03  0.25500000920E-02 0. -1.
    10030    2    1    2    0    0  0.00000000000E+00  0.00000000000E+00 -0.35889789182E+03  0.14254116061E+04  0.13794892353E+04 0.  0.
        5    1    3    3  502    0 -0.19314070289E+03 -0.45655265524E+03  0.31607973198E+03  0.58793889571E+03  0.46999998093E+01 0. -1.
       -5    1    3    3    0  502  0.19314070289E+03  0.45655265524E+03 -0.67497762379E+03  0.83747271044E+03  0.46999998093E+01 0.  1.
</event>
<event>
 5   0  0.6959748E-04  0.1401333E+04  0.7818609E-02  0.8952854E-01
        2   -1    0    0  501    0  0.00000000000E+00  0.00000000000E+00  0.12442331253E+04  0.12442331253E+04  0.25500000920E-02 0. -1.
       -2   -1    0    0    0  501  0.00000000000E+00  0.00000000000E+00 -0.39456701884E+03  0.39456701884E+03  0.25500000920E-02 0.  1.
    10030    2    1    2    0    0  0.00000000000E+00  0.00000000000E+00  0.84966610645E+03  0.16388001441E+04  0.14013327299E+04 0.  0.
        5    1    3    3  502    0  0.38181351662E+03 -0.35637808165E+03  0.97101434375E+03  0.11025778178E+04  0.46999998093E+01 0. -1.
       -5    1    3    3    0  502 -0.38181351662E+03  0.35637808165E+03 -0.12134823730E+03  0.53622232632E+03  0.46999998093E+01 0.  1.
</event>
<event>
 5   0  0.3977658E-04  0.1413905E+04  0.7818609E-02  0.8943814E-01
       -1   -1    0    0    0  501  0.00000000000E+00  0.00000000000E+00  0.43472961099E+03  0.43472961102E+03  0.50400001928E-02 0.  1.
        1   -1    0    0  501    0  0.00000000000E+00  0.00000000000E+00 -0.11496390415E+04  0.11496390415E+04  0.50400001928E-02 0. -1.
    10030    2    1    2    0    0  0.00000000000E+00  0.00000000000E+00 -0.71490943053E+03  0.15843686525E+04  0.14139054188E+04 0.  0.
        5    1    3    3  502    0  0.33608921626E+03  0.59830019682E+03 -0.16715387226E+03  0.70631550586E+03  0.46999998093E+01 0.  1.
       -5    1    3    3    0  502 -0.33608921626E+03 -0.59830019682E+03 -0.54775555827E+03  0.87805314669E+03  0.46999998093E+01 0. -1.
</event>
<event>
 5   0  0.6870835E-04  0.1399648E+04  0.7818609E-02  0.8954074E-01
        2   -1    0    0  501    0  0.00000000000E+00  0.00000000000E+00  0.19147267807E+04  0.19147267807E+04  0.25500000920E-02 0.  1.
       -2   -1    0    0    0  501  0.00000000000E+00  0.00000000000E+00 -0.25578239983E+03  0.25578239985E+03  0.25500000920E-02 0. -1.
    10030    2    1    2    0    0  0.00000000000E+00  0.00000000000E+00  0.16589443809E+04  0.21705091805E+04  0.13996476857E+04 0.  0.
        2    1    3    3  502    0 -0.52364211183E+03  0.41964114877E+03  0.11374975856E+04  0.13206818361E+04  0.25500000920E-02 0.  1.
       -2    1    3    3    0  502  0.52364211183E+03 -0.41964114877E+03  0.52144679526E+03  0.84982734441E+03  0.25500000920E-02 0. -1.
</event>
<event>
 5   0  0.3907093E-04  0.1405953E+04  0.7818609E-02  0.8949521E-01
        1   -1    0    0  501    0  0.00000000000E+00  0.00000000000E+00  0.17880119410E+04  0.17880119411E+04  0.50400001928E-02 0. -1.
       -1   -1    0    0    0  501  0.00000000000E+00  0.00000000000E+00 -0.27638272530E+03  0.27638272534E+03  0.50400001928E-02 0.  1.
    10030    2    1    2    0    0  0.00000000000E+00  0.00000000000E+00  0.15116292158E+04  0.20643946664E+04  0.14059525073E+04 0.  0.
        4    1    3    3  502    0 -0.18805350103E+03 -0.17796588064E+03  0.17154498660E+04  0.17348791974E+04  0.12699999809E+01 0. -1.
       -4    1    3    3    0  502  0.18805350103E+03  0.17796588064E+03 -0.20382065026E+03  0.32951546898E+03  0.12699999809E+01 0.  1.
</event>
<event>
 5   0  0.7296966E-04  0.1452915E+04  0.7818609E-02  0.8916382E-01
       -2   -1    0    0    0  501  0.00000000000E+00  0.00000000000E+00  0.44053275283E+03  0.44053275284E+03  0.25500000920E-02 0. -1.
        2   -1    0    0  501    0  0.00000000000E+00  0.00000000000E+00 -0.11979594501E+04  0.11979594501E+04  0.25500000920E-02 0.  1.
    10030    2    1    2    0    0  0.00000000000E+00  0.00000000000E+00 -0.75742669729E+03  0.16384922030E+04  0.14529148280E+04 0.  0.
        3    1    3    3  502    0 -0.57337436350E+03  0.13610681778E+03 -0.85777483229E+03  0.10407021186E+04  0.10100000352E+00 0.  1.
       -3    1    3    3    0  502  0.57337436350E+03 -0.13610681778E+03  0.10034813500E+03  0.59779008436E+03  0.10100000352E+00 0. -1.
</event>
<event>
 5   0  0.2660250E-04  0.1268914E+04  0.7818609E-02  0.9054586E-01
        4   -1    0    0  501    0  0.00000000000E+00  0.00000000000E+00  0.70911556154E+03  0.70911669881E+03  0.12699999809E+01 0.  1.
       -4   -1    0    0    0  501  0.00000000000E+00  0.00000000000E+00 -0.56765691277E+03  0.56765833343E+03  0.12699999809E+01 0. -1.
    10030    2    1    2    0    0  0.00000000000E+00  0.00000000000E+00  0.14145864877E+03  0.12767750322E+04  0.12689144706E+04 0.  0.
        2    1    3    3  502    0 -0.38416577043E+03 -0.42834090244E+03  0.33973678518E+03  0.66819185201E+03  0.25500000920E-02 0.  1.
       -2    1    3    3    0  502  0.38416577043E+03  0.42834090244E+03 -0.19827813641E+03  0.60858318023E+03  0.25500000920E-02 0. -1.
</event>
<event>
 5   0  0.6870835E-04  0.1402298E+04  0.7818609E-02  0.8952157E-01
       -2   -1    0    0    0  501  0.00000000000E+00  0.00000000000E+00  0.41021854943E+03  0.41021854944E+03  0.25500000920E-02 0. -1.
        2   -1    0    0  501    0  0.00000000000E+00  0.00000000000E+00 -0.11984097401E+04  0.11984097401E+04  0.25500000920E-02 0.  1.
    10030    2    1    2    0    0  0.00000000000E+00  0.00000000000E+00 -0.78819119069E+03  0.16086282896E+04  0.14022979786E+04 0.  0.
        2    1    3    3  502    0 -0.46174999789E+03  0.22671290184E+03  0.15245013969E+03  0.53651919398E+03  0.25500000920E-02 0. -1.
       -2    1    3    3    0  502  0.46174999789E+03 -0.22671290184E+03 -0.94064133038E+03  0.10721090956E+04  0.25500000920E-02 0.  1.
</event>
<event>
 5   0  0.3907270E-04  0.1483378E+04  0.7818609E-02  0.8895582E-01
       -1   -1    0    0    0  501  0.00000000000E+00  0.00000000000E+00  0.46445579650E+03  0.46445579653E+03  0.50400001928E-02 0. -1.
        1   -1    0    0  501    0  0.00000000000E+00  0.00000000000E+00 -0.11844025065E+04  0.11844025065E+04  0.50400001928E-02 0.  1.
    10030    2    1    2    0    0  0.00000000000E+00  0.00000000000E+00 -0.71994671004E+03  0.16488583031E+04  0.14833780497E+04 0.  0.
        3    1    3    3  502    0  0.61354187763E+03 -0.41240759347E+03 -0.42656421498E+03  0.85350494929E+03  0.10100000352E+00 0.  1.
       -3    1    3    3    0  502 -0.61354187763E+03  0.41240759347E+03 -0.29338249506E+03  0.79535335378E+03  0.10100000352E+00 0. -1.
</event>
<event>
 5   0  0.6870835E-04  0.1278133E+04  0.7818609E-02  0.9047088E-01
        2   -1    0    0  501    0  0.00000000000E+00  0.00000000000E+00  0.88653322507E+03  0.88653322507E+03  0.25500000920E-02 0.  1.
       -2   -1    0    0    0  501  0.00000000000E+00  0.00000000000E+00 -0.46067725398E+03  0.46067725398E+03  0.25500000920E-02 0. -1.
    10030    2    1    2    0    0  0.00000000000E+00  0.00000000000E+00  0.42585597109E+03  0.13472104791E+04  0.12781325310E+04 0.  0.
        2    1    3    3  502    0 -0.11686078869E+03  0.58519538792E+03  0.45396967487E+03  0.74979900752E+03  0.25500000920E-02 0.  1.
       -2    1    3    3    0  502  0.11686078869E+03 -0.58519538792E+03 -0.28113703781E+02  0.59741147153E+03  0.25500000920E-02 0. -1.
</event>
<event>
 5   0  0.3977658E-04  0.1414480E+04  0.7818609E-02  0.8943403E-01
       -1   -1    0    0    0  501  0.00000000000E+00  0.00000000000E+00  0.51212163681E+03  0.51212163684E+03  0.50400001928E-02 0.  1.
        1   -1    0    0  501    0  0.00000000000E+00  0.00000000000E+00 -0.97669906743E+03  0.97669906744E+03  0.50400001928E-02 0. -1.
    10030    2    1    2    0    0  0.00000000000E+00  0.00000000000E+00 -0.46457743062E+03  0.14888207043E+04  0.14144804348E+04 0.  0.
        5    1    3    3  502    0 -0.36040202414E+03 -0.11442460555E+03  0.39677041321E+03  0.54811628342E+03  0.46999998093E+01 0.  1.
       -5    1    3    3    0  502  0.36040202414E+03  0.11442460555E+03 -0.86134784382E+03  0.94070442086E+03  0.46999998093E+01 0. -1.
</event>
<event>
 5   0  0.3907093E-04  0.1400830E+04  0.7818609E-02  0.8953218E-01
       -1   -1    0    0    0  501  0.00000000000E+00  0.00000000000E+00  0.66373201200E+03  0.66373201202E+03  0.50400001928E-02 0.  1.
        1   -1    0    0  501    0  0.00000000000E+00  0.00000000000E+00 -0.73912510328E+03  0.73912510330E+03  0.50400001928E-02 0. -1.
    10030    2    1    2    0    0  0.00000000000E+00  0.00000000000E+00 -0.75393091281E+02  0.14028571153E+04  0.14008297426E+04 0.  0.
        4    1    3    3  502    0 -0.66471407963E+03 -0.17712112093E+03 -0.16965477043E+03  0.70852032657E+03  0.12699999809E+01 0. -1.
       -4    1    3    3    0  502  0.66471407963E+03  0.17712112093E+03  0.94261679153E+02  0.69433678874E+03  0.12699999809E+01 0.  1.
</event>
<event>
 5   0  0.7296966E-04  0.1396947E+04  0.7818609E-02  0.8956032E-01
       -2   -1    0    0    0  501  0.00000000000E+00  0.00000000000E+00  0.30804674483E+03  0.30804674484E+03  0.25500000920E-02 0.  1.
        2   -1    0    0  501    0  0.00000000000E+00  0.00000000000E+00 -0.15837369399E+04  0.15837369399E+04  0.25500000920E-02 0. -1.
    10030    2    1    2    0    0  0.00000000000E+00  0.00000000000E+00 -0.12756901950E+04  0.18917836847E+04  0.13969466833E+04 0.  0.
        3    1    3    3  502    0  0.61610953099E+02  0.53738466331E+02  0.30154504850E+03  0.31243104645E+03  0.10100000352E+00 0.  1.
       -3    1    3    3    0  502 -0.61610953099E+02 -0.53738466331E+02 -0.15772352435E+04  0.15793526383E+04  0.10100000352E+00 0. -1.
</event>
<event>
 5   0  0.3907270E-04  0.1401060E+04  0.7818609E-02  0.8953051E-01
       -1   -1    0    0    0  501  0.00000000000E+00  0.00000000000E+00  0.69947710169E+03  0.69947710171E+03  0.50400001928E-02 0. -1.
        1   -1    0    0  501    0  0.00000000000E+00  0.00000000000E+00 -0.70158490292E+03  0.70158490294E+03  0.50400001928E-02 0.  1.
    10030    2    1    2    0    0  0.00000000000E+00  0.00000000000E+00 -0.21078012270E+01  0.14010620046E+04  0.14010604191E+04 0.  0.
        3    1    3    3  502    0  0.13816654211E+03  0.66923908602E+03  0.15312674180E+03  0.70029904817E+03  0.10100000352E+00 0.  1.
       -3    1    3    3    0  502 -0.13816654211E+03 -0.66923908602E+03 -0.15523454303E+03  0.70076295647E+03  0.10100000352E+00 0. -1.
</event>
<event>
 5   0  0.3756664E-04  0.1398275E+04  0.7818609E-02  0.8955068E-01
        1   -1    0    0  501    0  0.00000000000E+00  0.00000000000E+00  0.47315748402E+03  0.47315748405E+03  0.50400001928E-02 0. -1.
       -1   -1    0    0    0  501  0.00000000000E+00  0.00000000000E+00 -0.10330461752E+04  0.10330461753E+04  0.50400001928E-02 0.  1.
    10030    2    1    2    0    0  0.00000000000E+00  0.00000000000E+00 -0.55988869123E+03  0.15062036593E+04  0.13982754081E+04 0.  0.
        2    1    3    3  502    0 -0.43957709218E+03 -0.52639439427E+02  0.30292673630E+03  0.53643595902E+03  0.25500000920E-02 0. -1.
       -2    1    3    3    0  502  0.43957709218E+03  0.52639439427E+02 -0.86281542753E+03  0.96976770030E+03  0.25500000920E-02 0.  1.
</event>
<event>
 5   0  0.3756664E-04  0.1404843E+04  0.7818609E-02  0.8950321E-01
        1   -1    0    0  501    0  0.00000000000E+00  0.00000000000E+00  0.56557995035E+03  0.56557995037E+03  0.50400001928E-02 0. -1.
       -1   -1    0    0    0  501  0.00000000000E+00  0.00000000000E+00 -0.87237143085E+03  0.87237143087E+03  0.50400001928E-02 0.  1.
    10030    2    1    2    0    0  0.00000000000E+00  0.00000000000E+00 -0.30679148051E+03  0.14379513812E+04  0.14048427536E+04 0.  0.
        2    1    3    3  502    0 -0.63436447373E+03  0.17701521672E+03  0.96579305514E+02  0.66564272305E+03  0.25500000920E-02 0. -1.
       -2    1    3    3    0  502  0.63436447373E+03 -0.17701521672E+03 -0.40337078602E+03  0.77230865818E+03  0.25500000920E-02 0.  1.
</event>
<event>
 5   0  0.6895048E-04  0.1401849E+04  0.7818609E-02  0.8952481E-01
       -2   -1    0    0    0  501  0.00000000000E+00  0.00000000000E+00  0.31783141466E+03  0.31783141467E+03  0.25500000920E-02 0.  1.
        2   -1    0    0  501    0  0.00000000000E+00  0.00000000000E+00 -0.15457722408E+04  0.15457722408E+04  0.25500000920E-02 0. -1.
    10030    2    1    2    0    0  0.00000000000E+00  0.00000000000E+00 -0.12279408261E+04  0.18636036555E+04  0.14018487480E+04 0.  0.
        4    1    3    3  502    0 -0.22131184647E+03 -0.27683334922E+03  0.18992888758E+03  0.40210723926E+03  0.12699999809E+01 0.  1.
       -4    1    3    3    0  502  0.22131184647E+03  0.27683334922E+03 -0.14178697137E+04  0.14614964162E+04  0.12699999809E+01 0. -1.
</event>
<event>
 5   0  0.3907093E-04  0.1403632E+04  0.7818609E-02  0.8951194E-01
        1   -1    0    0  501    0  0.00000000000E+00  0.00000000000E+00  0.60096009229E+03  0.60096009231E+03  0.50400001928E-02 0.  1.
       -1   -1    0    0    0  501  0.00000000000E+00  0.00000000000E+00 -0.81959808070E+03  0.81959808071E+03  0.50400001928E-02 0. -1.
    10030    2    1    2    0    0  0.00000000000E+00  0.00000000000E+00 -0.21863798841E+03  0.14205581730E+04  0.14036320575E+04 0.  0.
        4    1    3    3  502    0  0.25667964066E+03  0.97374337769E+02 -0.76300081146E+03  0.81088719979E+03  0.12699999809E+01 0. -1.
       -4    1    3    3    0  502 -0.25667964066E+03 -0.97374337769E+02  0.54436282305E+03  0.60967097324E+03  0.12699999809E+01 0.  1.
</event>
<event>
 5   0  0.3784219E-04  0.1395074E+04  0.7818609E-02  0.8957392E-01
       -1   -1    0    0    0  501  0.00000000000E+00  0.00000000000E+00  0.28475823281E+03  0.28475823285E+03  0.50400001928E-02 0.  1.
        1   -1    0    0  501    0  0.00000000000E+00  0.00000000000E+00 -0.17086698108E+04  0.17086698108E+04  0.50400001928E-02 0. -1.
    10030    2    1    2    0    0  0.00000000000E+00  0.00000000000E+00 -0.14239115780E+04  0.19934280437E+04  0.13950738989E+04 0.  0.
        1    1    3    3  502    0 -0.25719277686E+03 -0.13177317997E+03  0.19519689279E+03  0.34873216429E+03  0.50400001928E-02 0.  1.
       -1    1    3    3    0  502  0.25719277686E+03  0.13177317997E+03 -0.16191084708E+04  0.16446958794E+04  0.50400001928E-02 0. -1.
</event>
<event>
 5   0  0.6959748E-04  0.1403354E+04  0.7818609E-02  0.8951395E-01
       -2   -1    0    0    0  501  0.00000000000E+00  0.00000000000E+00  0.48217141971E+03  0.48217141972E+03  0.25500000920E-02 0.  1.
        2   -1    0    0  501    0  0.00000000000E+00  0.00000000000E+00 -0.10211107782E+04  0.10211107782E+04  0.25500000920E-02 0. -1.
    10030    2    1    2    0    0  0.00000000000E+00  0.00000000000E+00 -0.53893935845E+03  0.15032821979E+04  0.14033537453E+04 0.  0.
        5    1    3    3  502    0  0.44302000039E+03 -0.53959581011E+03 -0.19450061972E+03  0.72476405823E+03  0.46999998093E+01 0.  1.
       -5    1    3    3    0  502 -0.44302000039E+03  0.53959581011E+03 -0.34443873873E+03  0.77851813965E+03  0.46999998093E+01 0. -1.
</event>
<event>
 5   0  0.7065539E-04  0.1399905E+04  0.7818609E-02  0.8953887E-01
       -2   -1    0    0    0  501  0.00000000000E+00  0.00000000000E+00  0.26346334185E+03  0.26346334187E+03  0.25500000920E-02 0. -1.
        2   -1    0    0  501    0  0.00000000000E+00  0.00000000000E+00 -0.18595885882E+04  0.18595885882E+04  0.25500000920E-02 0.  1.
    10030    2    1    2    0    0  0.00000000000E+00  0.00000000000E+00 -0.15961252464E+04  0.21230519301E+04  0.13999048881E+04 0.  0.
        1    1    3    3  502    0 -0.54828588364E+03  0.37633483776E+03 -0.46688032661E+03  0.81254080495E+03  0.50400001928E-02 0.  1.
       -1    1    3    3    0  502  0.54828588364E+03 -0.37633483776E+03 -0.11292449198E+04  0.13105111252E+04  0.50400001928E-02 0. -1.
</event>
<event>
 5   0  0.7065539E-04  0.1342984E+04  0.7818609E-02  0.8996156E-01
        2   -1    0    0  501    0  0.00000000000E+00  0.00000000000E+00  0.85057353781E+03  0.85057353781E+03  0.25500000920E-02 0.  1.
       -2   -1    0    0    0  501  0.00000000000E+00  0.00000000000E+00 -0.53011480918E+03  0.53011480919E+03  0.25500000920E-02 0. -1.
    10030    2    1    2    0    0  0.00000000000E+00  0.00000000000E+00  0.32045872863E+03  0.13806883470E+04  0.13429841826E+04 0.  0.
        1    1    3    3  502    0 -0.10596615519E+03 -0.58335342251E+03 -0.16385335538E+03  0.61512434815E+03  0.50400001928E-02 0.  1.
       -1    1    3    3    0  502  0.10596615519E+03  0.58335342251E+03  0.48431208401E+03  0.76556399885E+03  0.50400001928E-02 0. -1.
</event>
<event>
 5   0  0.3907270E-04  0.1382908E+04  0.7818609E-02  0.8966284E-01
        1   -1    0    0  501    0  0.00000000000E+00  0.00000000000E+00  0.23110228560E+04  0.23110228560E+04  0.50400001928E-02 0.  1.
       -1   -1    0    0    0  501  0.00000000000E+00  0.00000000000E+00 -0.20688190447E+03  0.20688190453E+03  0.50400001928E-02 0. -1.
    10030    2    1    2    0    0  0.00000000000E+00  0.00000000000E+00  0.21041409516E+04  0.25179047606E+04  0.13829082541E+04 0.  0.
        3    1    3    3  502    0 -0.67673301211E+03 -0.13897237352E+03  0.99968181203E+03  0.12151726732E+04  0.10100000352E+00 0. -1.
       -3    1    3    3    0  502  0.67673301211E+03  0.13897237352E+03  0.11044591395E+04  0.13027320873E+04  0.10100000352E+00 0.  1.
</event>
<event>
 5   0  0.6959748E-04  0.1389593E+04  0.7818609E-02  0.8961386E-01
        2   -1    0    0  501    0  0.00000000000E+00  0.00000000000E+00  0.15820539437E+04  0.15820539437E+04  0.25500000920E-02 0. -1.
       -2   -1    0    0    0  501  0.00000000000E+00  0.00000000000E+00 -0.30513628517E+03  0.30513628518E+03  0.25500000920E-02 0.  1.
    10030    2    1    2    0    0  0.00000000000E+00  0.00000000000E+00  0.12769176585E+04  0.18871902289E+04  0.13895928372E+04 0.  0.
        5    1    3    3  502    0 -0.22400728944E+03  0.10595170784E+03 -0.24305989983E+03  0.34713863948E+03  0.46999998093E+01 0.  1.
       -5    1    3    3    0  502  0.22400728944E+03 -0.10595170784E+03  0.15199775583E+04  0.15400515894E+04  0.46999998093E+01 0. -1.
</event>
<event>
 5   0  0.6870835E-04  0.1398461E+04  0.7818609E-02  0.8954933E-01
       -2   -1    0    0    0  501  0.00000000000E+00  0.00000000000E+00  0.54548141046E+03  0.54548141046E+03  0.25500000920E-02 0. -1.
        2   -1    0    0  501    0  0.00000000000E+00  0.00000000000E+00 -0.89631520169E+03  0.89631520170E+03  0.25500000920E-02 0.  1.
    10030    2    1    2    0    0  0.00000000000E+00  0.00000000000E+00 -0.35083379124E+03  0.14417966122E+04  0.13984609833E+04 0.  0.
        2    1    3    3  502    0 -0.36275666014E+03  0.28608007040E+03 -0.71655216452E+03  0.85257328462E+03  0.25500000920E-02 0.  1.
       -2    1    3    3    0  502  0.36275666014E+03 -0.28608007040E+03  0.36571837328E+03  0.58922332754E+03  0.25500000920E-02 0. -1.
</event>
<event>
 5   0  0.3977658E-04  0.1405056E+04  0.7818609E-02  0.8950167E-01
       -1   -1    0    0    0  501  0.00000000000E+00  0.00000000000E+00  0.55405376164E+03  0.55405376166E+03  0.50400001928E-02 0.  1.
        1   -1    0    0  501    0  0.00000000000E+00  0.00000000000E+00 -0.89079053984E+03  0.89079053985E+03  0.50400001928E-02 0. -1.
    10030    2    1    2    0    0  0.00000000000E+00  0.00000000000E+00 -0.33673677820E+03  0.14448443015E+04  0.14050563682E+04 0.  0.
        5    1    3    3  502    0 -0.53379430926E+03 -0.34818851346E+03  0.13555499125E+03  0.65158948055E+03  0.46999998093E+01 0.  1.
       -5    1    3    3    0  502  0.53379430926E+03  0.34818851346E+03 -0.47229176945E+03  0.79325482097E+03  0.46999998093E+01 0. -1.
</event>
<event>
 5   0  0.7065539E-04  0.1387250E+04  0.7818609E-02  0.8963099E-01
       -2   -1    0    0    0  501  0.00000000000E+00  0.00000000000E+00  0.55749309451E+03  0.55749309451E+03  0.25500000920E-02 0. -1.
        2   -1    0    0  501    0  0.00000000000E+00  0.00000000000E+00 -0.86299895572E+03  0.86299895572E+03  0.25500000920E-02 0.  1.
    10030    2    1    2    0    0  0.00000000000E+00  0.00000000000E+00 -0.30550586121E+03  0.14204920502E+04  0.13872504581E+04 0.  0.
        1    1    3    3  502    0 -0.34179310740E+03 -0.51395925211E+03 -0.47678369380E+03  0.77993546643E+03  0.50400001928E-02 0.  1.
       -1    1    3    3    0  502  0.34179310740E+03  0.51395925211E+03  0.17127783259E+03  0.64055658381E+03  0.50400001928E-02 0. -1.
</event>
<event>
 5   0  0.6895048E-04  0.1383042E+04  0.7818609E-02  0.8966186E-01
       -2   -1    0    0    0  501  0.00000000000E+00  0.00000000000E+00  0.19459771766E+03  0.19459771768E+03  0.25500000920E-02 0. -1.
        2   -1    0    0  501    0  0.00000000000E+00  0.00000000000E+00 -0.24573836699E+04  0.24573836699E+04  0.25500000920E-02 0.  1.
    10030    2    1    2    0    0  0.00000000000E+00  0.00000000000E+00 -0.22627859523E+04  0.26519813876E+04  0.13830419424E+04 0.  0.
        4    1    3    3  502    0 -0.41138929337E+03  0.32546430848E+03 -0.19953990681E+04  0.20631982989E+04  0.12699999809E+01 0.  1.
       -4    1    3    3    0  502  0.41138929337E+03 -0.32546430848E+03 -0.26738688416E+03  0.58878308868E+03  0.12699999809E+01 0. -1.
</event>
<event>
 5   0  0.7065539E-04  0.1381814E+04  0.7818609E-02  0.8967089E-01
       -2   -1    0    0    0  501  0.00000000000E+00  0.00000000000E+00  0.35327276942E+03  0.35327276943E+03  0.25500000920E-02 0. -1.
        2   -1    0    0  501    0  0.00000000000E+00  0.00000000000E+00 -0.13512294873E+04  0.13512294873E+04  0.25500000920E-02 0.  1.
    10030    2    1    2    0    0  0.00000000000E+00  0.00000000000E+00 -0.99795671785E+03  0.17045022567E+04  0.13818141454E+04 0.  0.
        1    1    3    3  502    0 -0.49974521706E+02 -0.66612729428E+03 -0.71661620744E+03  0.97967434068E+03  0.50400001928E-02 0.  1.
       -1    1    3    3    0  502  0.49974521706E+02  0.66612729428E+03 -0.28134051041E+03  0.72482791601E+03  0.50400001928E-02 0. -1.
</event>
<event>
 5   0  0.6870835E-04  0.1403265E+04  0.7818609E-02  0.8951458E-01
       -2   -1    0    0    0  501  0.00000000000E+00  0.00000000000E+00  0.29022540286E+03  0.29022540287E+03  0.25500000920E-02 0.  1.
        2   -1    0    0  501    0  0.00000000000E+00  0.00000000000E+00 -0.16962280340E+04  0.16962280340E+04  0.25500000920E-02 0. -1.
    10030    2    1    2    0    0  0.00000000000E+00  0.00000000000E+00 -0.14060026312E+04  0.19864534369E+04  0.14032654268E+04 0.  0.
        2    1    3    3  502    0  0.26337118415E+03  0.34726270672E+03 -0.14813624151E+04  0.15441471345E+04  0.25500000920E-02 0. -1.
       -2    1    3    3    0  502 -0.26337118415E+03 -0.34726270672E+03  0.75359783904E+02  0.44230630241E+03  0.25500000920E-02 0.  1.
</event>
<event>
 5   0  0.3756664E-04  0.1393365E+04  0.7818609E-02  0.8958635E-01
       -1   -1    0    0    0  501  0.00000000000E+00  0.00000000000E+00  0.61773493184E+03  0.61773493186E+03  0.50400001928E-02 0. -1.
        1   -1    0    0  501    0  0.00000000000E+00  0.00000000000E+00 -0.78571956454E+03  0.78571956455E+03  0.50400001928E-02 0.  1.
    10030    2    1    2    0    0  0.00000000000E+00  0.00000000000E+00 -0.16798463269E+03  0.14034544964E+04  0.13933648792E+04 0.  0.
        2    1    3    3  502    0  0.11256738304E+03  0.47305896699E+03  0.41852940726E+03  0.64157857408E+03  0.25500000920E-02 0. -1.
       -2    1    3    3    0  502 -0.11256738304E+03 -0.47305896699E+03 -0.58651403995E+03  0.76187592234E+03  0.25500000920E-02 0.  1.
</event>
<event>
 5   0  0.3756664E-04  0.1406734E+04  0.7818609E-02  0.8948958E-01
       -1   -1    0    0    0  501  0.00000000000E+00  0.00000000000E+00  0.34734105074E+03  0.34734105078E+03  0.50400001928E-02 0.  1.
        1   -1    0    0  501    0  0.00000000000E+00  0.00000000000E+00 -0.14243217197E+04  0.14243217197E+04  0.50400001928E-02 0. -1.
    10030    2    1    2    0    0  0.00000000000E+00  0.00000000000E+00 -0.10769806689E+04  0.17716627705E+04  0.14067343783E+04 0.  0.
        2    1    3    3  502    0  0.16535673688E+02  0.62000388740E+03 -0.12070002209E+03  0.63185975045E+03  0.25500000920E-02 0.  1.
       -2    1    3    3    0  502 -0.16535673688E+02 -0.62000388740E+03 -0.95628064684E+03  0.11398030200E+04  0.25500000920E-02 0. -1.
</event>
<event>
 5   0  0.7065539E-04  0.1409200E+04  0.7818609E-02  0.8947186E-01
       -2   -1    0    0    0  501  0.00000000000E+00  0.00000000000E+00  0.66294156900E+03  0.66294156900E+03  0.25500000920E-02 0.  1.
        2   -1    0    0  501    0  0.00000000000E+00  0.00000000000E+00 -0.74887639736E+03  0.74887639736E+03  0.25500000920E-02 0. -1.
    10030    2    1    2    0    0  0.00000000000E+00  0.00000000000E+00 -0.85934828363E+02  0.14118179664E+04  0.14092001900E+04 0.  0.
        1    1    3    3  502    0  0.69182534567E+03 -0.10032391067E+03  0.45367219616E+02  0.70053221240E+03  0.50400001928E-02 0. -1.
       -1    1    3    3    0  502 -0.69182534567E+03  0.10032391067E+03 -0.13130204798E+03  0.71128575397E+03  0.50400001928E-02 0.  1.
</event>
<event>
 5   0  0.3784219E-04  0.1278251E+04  0.7818609E-02  0.9046992E-01
        1   -1    0    0  501    0  0.00000000000E+00  0.00000000000E+00  0.12722092422E+04  0.12722092422E+04  0.50400001928E-02 0.  1.
       -1   -1    0    0    0  501  0.00000000000E+00  0.00000000000E+00 -0.32108055598E+03  0.32108055602E+03  0.50400001928E-02 0. -1.
    10030    2    1    2    0    0  0.00000000000E+00  0.00000000000E+00  0.95112868623E+03  0.15932897982E+04  0.12782513851E+04 0.  0.
        1    1    3    3  502    0  0.60151230079E+03  0.71675455360E+02  0.22155774676E+03  0.64501337512E+03  0.50400001928E-02 0. -1.
       -1    1    3    3    0  502 -0.60151230079E+03 -0.71675455360E+02  0.72957093946E+03  0.94827642312E+03  0.50400001928E-02 0.  1.
</event>
<event>
 5   0  0.3977658E-04  0.1405665E+04  0.7818609E-02  0.8949728E-01
        1   -1    0    0  501    0  0.00000000000E+00  0.00000000000E+00  0.13876965684E+04  0.13876965684E+04  0.50400001928E-02 0. -1.
       -1   -1    0    0    0  501  0.00000000000E+00  0.00000000000E+00 -0.35596666423E+03  0.35596666426E+03  0.50400001928E-02 0.  1.
    10030    2    1    2    0    0  0.00000000000E+00  0.00000000000E+00  0.10317299041E+04  0.17436632326E+04  0.14056652780E+04 0.  0.
        5    1    3    3  502    0 -0.69778197192E+03 -0.77105753040E+02  0.55713034868E+03  0.89624845490E+03  0.46999998093E+01 0. -1.
       -5    1    3    3    0  502  0.69778197192E+03  0.77105753040E+02  0.47459955545E+03  0.84741477773E+03  0.46999998093E+01 0.  1.
</event>
<event>
 5   0  0.7065539E-04  0.1293242E+04  0.7818609E-02  0.9034942E-01
       -2   -1    0    0    0  501  0.00000000000E+00  0.00000000000E+00  0.22371717528E+03  0.22371717529E+03  0.25500000920E-02 0.  1.
        2   -1    0    0  501    0  0.00000000000E+00  0.00000000000E+00 -0.18689611659E+04  0.18689611659E+04  0.25500000920E-02 0. -1.
    10030    2    1    2    0    0  0.00000000000E+00  0.00000000000E+00 -0.16452439906E+04  0.20926783412E+04  0.12932419924E+04 0.  0.
        1    1    3    3  502    0 -0.39244648273E+02  0.64407873279E+03 -0.75510057665E+03  0.99325446757E+03  0.50400001928E-02 0. -1.
       -1    1    3    3    0  502  0.39244648273E+02 -0.64407873279E+03 -0.89014341399E+03  0.10994238736E+04  0.50400001928E-02 0.  1.
</event>
<event>
 5   0  0.3907093E-04  0.1405906E+04  0.7818609E-02  0.8949555E-01
       -1   -1    0    0    0  501  0.00000000000E+00  0.00000000000E+00  0.45582811151E+03  0.45582811154E+03  0.50400001928E-02 0.  1.
        1   -1    0    0  501    0  0.00000000000E+00  0.00000000000E+00 -0.10840553818E+04  0.10840553818E+04  0.50400001928E-02 0. -1.
    10030    2    1    2    0    0  0.00000000000E+00  0.00000000000E+00 -0.62822727032E+03  0.15398834934E+04  0.14059059962E+04 0.  0.
        4    1    3    3  502    0  0.28774625495E+03 -0.63984957472E+03 -0.36230566092E+03  0.78960267879E+03  0.12699999809E+01 0. -1.
       -4    1    3    3    0  502 -0.28774625495E+03  0.63984957472E+03 -0.26592160939E+03  0.75028081460E+03  0.12699999809E+01 0.  1.
</event>
<event>
 5   0  0.6870835E-04  0.1433192E+04  0.7818609E-02  0.8930137E-01
        2   -1    0    0  501    0  0.00000000000E+00  0.00000000000E+00  0.37220797472E+03  0.37220797473E+03  0.25500000920E-02 0. -1.
       -2   -1    0    0    0  501  0.00000000000E+00  0.00000000000E+00 -0.13796311053E+04  0.13796311053E+04  0.25500000920E-02 0.  1.
    10030    2    1    2    0    0  0.00000000000E+00  0.00000000000E+00 -0.10074231306E+04  0.17518390800E+04  0.14331918219E+04 0.  0.
        2    1    3    3  502    0 -0.97541099188E+02  0.92267634398E+02 -0.13641184590E+04  0.13707103095E+04  0.25500000920E-02 0.  1.
       -2    1    3    3    0  502  0.97541099188E+02 -0.92267634398E+02  0.35669532843E+03  0.38112877052E+03  0.25500000920E-02 0. -1.
</event>
<event>
 5   0  0.3907093E-04  0.1396706E+04  0.7818609E-02  0.8956206E-01
        1   -1    0    0  501    0  0.00000000000E+00  0.00000000000E+00  0.50179609672E+03  0.50179609675E+03  0.50400001928E-02 0. -1.
       -1   -1    0    0    0  501  0.00000000000E+00  0.00000000000E+00 -0.97190264099E+03  0.97190264100E+03  0.50400001928E-02 0.  1.
    10030    2    1    2    0    0  0.00000000000E+00  0.00000000000E+00 -0.47010654427E+03  0.14736987378E+04  0.13967060559E+04 0.  0.
        4    1    3    3  502    0 -0.14692474822E+03  0.28031882673E+03  0.42178167945E+03  0.52732051380E+03  0.12699999809E+01 0. -1.
       -4    1    3    3    0  502  0.14692474822E+03 -0.28031882673E+03 -0.89188822372E+03  0.94637822395E+03  0.12699999809E+01 0.  1.
</event>
<event>
 5   0  0.3784219E-04  0.1403153E+04  0.7818609E-02  0.8951540E-01
        1   -1    0    0  501    0  0.00000000000E+00  0.00000000000E+00  0.43990055339E+03  0.43990055342E+03  0.50400001928E-02 0.  1.
       -1   -1    0    0    0  501  0.00000000000E+00  0.00000000000E+00 -0.11189102554E+04  0.11189102554E+04  0.50400001928E-02 0. -1.
    10030    2    1    2    0    0  0.00000000000E+00  0.00000000000E+00 -0.67900970201E+03  0.15588108088E+04  0.14031525086E+04 0.  0.
        1    1    3    3  502    0 -0.67408763492E+03  0.14471035627E+03 -0.48381528457E+03  0.84226626216E+03  0.50400001928E-02 0. -1.
       -1    1    3    3    0  502  0.67408763492E+03 -0.14471035627E+03 -0.19519441744E+03  0.71654454668E+03  0.50400001928E-02 0.  1.
</event>
<event>
 5   0  0.6959748E-04  0.1401607E+04  0.7818609E-02  0.8952656E-01
       -2   -1    0    0    0  501  0.00000000000E+00  0.00000000000E+00  0.21092706000E+03  0.21092706002E+03  0.25500000920E-02 0. -1.
        2   -1    0    0  501    0  0.00000000000E+00  0.00000000000E+00 -0.23284150461E+04  0.23284150461E+04  0.25500000920E-02 0.  1.
    10030    2    1    2    0    0  0.00000000000E+00  0.00000000000E+00 -0.21174879861E+04  0.25393421061E+04  0.14016072776E+04 0.  0.
        5    1    3    3  502    0 -0.37651413448E+03  0.42097731955E+02  0.93638362713E+01  0.37900512388E+03  0.46999998093E+01 0. -1.
       -5    1    3    3    0  502  0.37651413448E+03 -0.42097731955E+02 -0.21268518223E+04  0.21603369822E+04  0.46999998093E+01 0.  1.
</event>
<event>
 5   0  0.3907270E-04  0.1381765E+04  0.7818609E-02  0.8967124E-01
       -1   -1    0    0    0  501  0.00000000000E+00  0.00000000000E+00  0.68243134453E+03  0.68243134455E+03  0.50400001928E-02 0. -1.
        1   -1    0    0  501    0  0.00000000000E+00  0.00000000000E+00 -0.69943865402E+03  0.69943865404E+03  0.50400001928E-02 0.  1.
    10030    2    1    2    0    0  0.00000000000E+00  0.00000000000E+00 -0.17007309488E+02  0.13818699986E+04  0.13817653362E+04 0.  0.
        3    1    3    3  502    0  0.21646288262E+03 -0.65491588777E+03 -0.47849376191E+02  0.69141924518E+03  0.10100000352E+00 0. -1.
       -3    1    3    3    0  502 -0.21646288262E+03  0.65491588777E+03  0.30842066703E+02  0.69045075341E+03  0.10100000352E+00 0.  1.
</event>
<event>
 5   0  0.3907270E-04  0.1394923E+04  0.7818609E-02  0.8957501E-01
       -1   -1    0    0    0  501  0.00000000000E+00  0.00000000000E+00  0.41666626415E+03  0.41666626418E+03  0.50400001928E-02 0. -1.
        1   -1    0    0  501    0  0.00000000000E+00  0.00000000000E+00 -0.11674878984E+04  0.11674878984E+04  0.50400001928E-02 0.  1.
    10030    2    1    2    0    0  0.00000000000E+00  0.00000000000E+00 -0.75082163421E+03  0.15841541625E+04  0.13949233973E+04 0.  0.
        3    1    3    3  502    0  0.84432512346E+02  0.75638826875E+02  0.40613453093E+03  0.42165785738E+03  0.10100000352E+00 0. -1.
       -3    1    3    3    0  502 -0.84432512346E+02 -0.75638826875E+02 -0.11569561651E+04  0.11624963052E+04  0.10100000352E+00 0.  1.
</event>
<event>
 5   0  0.6870835E-04  0.1398828E+04  0.7818609E-02  0.8954667E-01
        2   -1    0    0  501    0  0.00000000000E+00  0.00000000000E+00  0.13337157659E+04  0.13337157659E+04  0.25500000920E-02 0.  1.
       -2   -1    0    0    0  501  0.00000000000E+00  0.00000000000E+00 -0.36677990362E+03  0.36677990362E+03  0.25500000920E-02 0. -1.
    10030    2    1    2    0    0  0.00000000000E+00  0.00000000000E+00  0.96693586226E+03  0.17004956695E+04  0.13988282812E+04 0.  0.
        2    1    3    3  502    0 -0.56981590769E+03 -0.39734239157E+03  0.58229566713E+03  0.90644326285E+03  0.25500000920E-02 0. -1.
       -2    1    3    3    0  502  0.56981590769E+03  0.39734239157E+03  0.38464019512E+03  0.79405240665E+03  0.25500000920E-02 0.  1.
</event>
<event>
 5   0  0.6895048E-04  0.1410232E+04  0.7818609E-02  0.8946445E-01
       -2   -1    0    0    0  501  0.00000000000E+00  0.00000000000E+00  0.95574072264E+03  0.95574072264E+03  0.25500000920E-02 0.  1.
        2   -1    0    0  501    0  0.00000000000E+00  0.00000000000E+00 -0.52021301753E+03  0.52021301754E+03  0.25500000920E-02 0. -1.
    10030    2    1    2    0    0  0.00000000000E+00  0.00000000000E+00  0.43552770510E+03  0.14759537402E+04  0.14102322721E+04 0.  0.
        4    1    3    3  502    0 -0.35641483567E+03  0.41286118656E+03 -0.24994166920E+03  0.59996528679E+03  0.12699999809E+01 0. -1.
       -4    1    3    3    0  502  0.35641483567E+03 -0.41286118656E+03  0.68546937430E+03  0.87598845338E+03  0.12699999809E+01 0.  1.
</event>
<event>
 5   0  0.3907270E-04  0.1410880E+04  0.7818609E-02  0.8945980E-01
       -1   -1    0    0    0  501  0.00000000000E+00  0.00000000000E+00  0.52457291059E+03  0.52457291061E+03  0.50400001928E-02 0.  1.
        1   -1    0    0  501    0  0.00000000000E+00  0.00000000000E+00 -0.94866852800E+03  0.94866852802E+03  0.50400001928E-02 0. -1.
    10030    2    1    2    0    0  0.00000000000E+00  0.00000000000E+00 -0.42409561741E+03  0.14732414386E+04  0.14108803081E+04 0.  0.
        3    1    3    3  502    0 -0.42306855555E+03 -0.38175633294E+03 -0.64626548410E+03  0.86161707654E+03  0.10100000352E+00 0. -1.
       -3    1    3    3    0  502  0.42306855555E+03  0.38175633294E+03  0.22216986669E+03  0.61162436209E+03  0.10100000352E+00 0.  1.
</event>
<event>
 5   0  0.6870835E-04  0.1387543E+04  0.7818609E-02  0.8962886E-01
       -2   -1    0    0    0  501  0.00000000000E+00  0.00000000000E+00  0.10036766302E+04  0.10036766302E+04  0.25500000920E-02 0. -1.
        2   -1    0    0  501    0  0.00000000000E+00  0.00000000000E+00 -0.47955541246E+03  0.47955541246E+03  0.25500000920E-02 0.  1.
    10030    2    1    2    0    0  0.00000000000E+00  0.00000000000E+00  0.52412121774E+03  0.14832320427E+04  0.13875425188E+04 0.  0.
        2    1    3    3  502    0  0.35665535206E+03 -0.32528976293E+03 -0.27060295042E+03  0.55339174805E+03  0.25500000920E-02 0.  1.
       -2    1    3    3    0  502 -0.35665535206E+03  0.32528976293E+03  0.79472416815E+03  0.92984029461E+03  0.25500000920E-02 0. -1.
</event>
<event>
 5   0  0.6895048E-04  0.1391531E+04  0.7818609E-02  0.8959972E-01
        2   -1    0    0  501    0  0.00000000000E+00  0.00000000000E+00  0.92675160399E+03  0.92675160400E+03  0.25500000920E-02 0.  1.
       -2   -1    0    0    0  501  0.00000000000E+00  0.00000000000E+00 -0.52235069680E+03  0.52235069681E+03  0.25500000920E-02 0. -1.
    10030    2    1    2    0    0  0.00000000000E+00  0.00000000000E+00  0.40440090719E+03  0.14491023008E+04  0.13915305906E+04 0.  0.
        4    1    3    3  502    0  0.39541684820E+03  0.19533922198E+03 -0.35818576809E+03  0.56816419532E+03  0.12699999809E+01 0. -1.
       -4    1    3    3    0  502 -0.39541684820E+03 -0.19533922198E+03  0.76258667528E+03  0.88093810548E+03  0.12699999809E+01 0.  1.
</event>
<event>
 5   0  0.7296966E-04  0.1403338E+04  0.7818609E-02  0.8951406E-01
        2   -1    0    0  501    0  0.00000000000E+00  0.00000000000E+00  0.68790762200E+03  0.68790762201E+03  0.25500000920E-02 0.  1.
       -2   -1    0    0    0  501  0.00000000000E+00  0.00000000000E+00 -0.71570588311E+03  0.71570588311E+03  0.25500000920E-02 0. -1.
    10030    2    1    2    0    0  0.00000000000E+00  0.00000000000E+00 -0.27798261104E+02  0.14036135051E+04  0.14033382089E+04 0.  0.
        3    1    3    3  502    0  0.57359152468E+03 -0.81939832933E+02  0.38192861336E+03  0.69396746992E+03  0.10100000352E+00 0.  1.
       -3    1    3    3    0  502 -0.57359152468E+03  0.81939832933E+02 -0.40972687446E+03  0.70964603520E+03  0.10100000352E+00 0. -1.
</event>
<event>
 5   0  0.3907270E-04  0.1404186E+04  0.7818609E-02  0.8950794E-01
        1   -1    0    0  501    0  0.00000000000E+00  0.00000000000E+00  0.78306321077E+03  0.78306321078E+03  0.50400001928E-02 0.  1.
       -1   -1    0    0    0  501  0.00000000000E+00  0.00000000000E+00 -0.62949544412E+03  0.62949544414E+03  0.50400001928E-02 0. -1.
    10030    2    1    2    0    0  0.00000000000E+00  0.00000000000E+00  0.15356776665E+03  0.14125586549E+04  0.14041862037E+04 0.  0.
        3    1    3    3  502    0 -0.49267939717E+03  0.39091112535E+03  0.39071868003E+03  0.74040907169E+03  0.10100000352E+00 0.  1.
       -3    1    3    3    0  502  0.49267939717E+03 -0.39091112535E+03 -0.23715091338E+03  0.67214958323E+03  0.10100000352E+00 0. -1.
</event>
<event>
 5   0  0.6870835E-04  0.1391052E+04  0.7818609E-02  0.8960321E-01
       -2   -1    0    0    0  501  0.00000000000E+00  0.00000000000E+00  0.71117585351E+03  0.71117585352E+03  0.25500000920E-02 0. -1.
        2   -1    0    0  501    0  0.00000000000E+00  0.00000000000E+00 -0.68022028536E+03  0.68022028536E+03  0.25500000920E-02 0.  1.
    10030    2    1    2    0    0  0.00000000000E+00  0.00000000000E+00  0.30955568154E+02  0.13913961389E+04  0.13910517489E+04 0.  0.
        2    1    3    3  502    0 -0.14241492215E+03 -0.11144552719E+03 -0.65629412197E+03  0.68075259098E+03  0.25500000920E-02 0.  1.
       -2    1    3    3    0  502  0.14241492215E+03  0.11144552719E+03  0.68724969013E+03  0.71064354790E+03  0.25500000920E-02 0. -1.
</event>
<event>
 5   0  0.3977658E-04  0.1385402E+04  0.7818609E-02  0.8964454E-01
        1   -1    0    0  501    0  0.00000000000E+00  0.00000000000E+00  0.10733965195E+04  0.10733965195E+04  0.50400001928E-02 0.  1.
       -1   -1    0    0    0  501  0.00000000000E+00  0.00000000000E+00 -0.44702464232E+03  0.44702464235E+03  0.50400001928E-02 0. -1.
    10030    2    1    2    0    0  0.00000000000E+00  0.00000000000E+00  0.62637187714E+03  0.15204211618E+04  0.13854020286E+04 0.  0.
        5    1    3    3  502    0 -0.62637800939E+03 -0.16125857142E+03  0.58525575513E+03  0.87229589384E+03  0.46999998093E+01 0.  1.
       -5    1    3    3    0  502  0.62637800939E+03  0.16125857142E+03  0.41116122010E+02  0.64812526798E+03  0.46999998093E+01 0. -1.
</event>
<event>
 5   0  0.3907093E-04  0.1370217E+04  0.7818609E-02  0.8975664E-01
       -1   -1    0    0    0  501  0.00000000000E+00  0.00000000000E+00  0.68754734317E+03  0.68754734319E+03  0.50400001928E-02 0.  1.
        1   -1    0    0  501    0  0.00000000000E+00  0.00000000000E+00 -0.68267833626E+03  0.68267833628E+03  0.50400001928E-02 0. -1.
    10030    2    1    2    0    0  0.00000000000E+00  0.00000000000E+00  0.48690069117E+01  0.13702256795E+04  0.13702170286E+04 0.  0.
        4    1    3    3  502    0 -0.23098341718E+03  0.87171641581E+01 -0.64250579427E+03  0.68282108677E+03  0.12699999809E+01 0. -1.
       -4    1    3    3    0  502  0.23098341718E+03 -0.87171641581E+01  0.64737480119E+03  0.68740459270E+03  0.12699999809E+01 0.  1.
</event>
<event>
 5   0  0.6870835E-04  0.1319770E+04  0.7818609E-02  0.9014033E-01
        2   -1    0    0  501    0  0.00000000000E+00  0.00000000000E+00  0.40286646807E+03  0.40286646808E+03  0.25500000920E-02 0.  1.
       -2   -1    0    0    0  501  0.00000000000E+00  0.00000000000E+00 -0.10808742099E+04  0.10808742099E+04  0.25500000920E-02 0. -1.
    10030    2    1    2    0    0  0.00000000000E+00  0.00000000000E+00 -0.67800774180E+03  0.14837406780E+04  0.13197696396E+04 0.  0.
        2    1    3    3  502    0 -0.55759195748E+02 -0.17034388112E+03 -0.10529833752E+04  0.10681292592E+04  0.25500000920E-02 0. -1.
       -2    1    3    3    0  502  0.55759195748E+02  0.17034388112E+03  0.37497563344E+03  0.41561141879E+03  0.25500000920E-02 0.  1.
</event>
<event>
 5   0  0.3977658E-04  0.1400472E+04  0.7818609E-02  0.8953477E-01
       -1   -1    0    0    0  501  0.00000000000E+00  0.00000000000E+00  0.37895765392E+03  0.37895765396E+03  0.50400001928E-02 0.  1.
        1   -1    0    0  501    0  0.00000000000E+00  0.00000000000E+00 -0.12938922412E+04  0.12938922412E+04  0.50400001928E-02 0. -1.
    10030    2    1    2    0    0  0.00000000000E+00  0.00000000000E+00 -0.91493458726E+03  0.16728498951E+04  0.14004718750E+04 0.  0.
        5    1    3    3  502    0  0.37851901517E+03  0.37884547555E+03 -0.99632369513E+03  0.11311425793E+04  0.46999998093E+01 0. -1.
       -5    1    3    3    0  502 -0.37851901517E+03 -0.37884547555E+03  0.81389107870E+02  0.54170731587E+03  0.46999998093E+01 0.  1.
</event>
<event>
 5   0  0.3907270E-04  0.1411140E+04  0.7818609E-02  0.8945794E-01
       -1   -1    0    0    0  501  0.00000000000E+00  0.00000000000E+00  0.72821436081E+03  0.72821436083E+03  0.50400001928E-02 0. -1.
        1   -1    0    0  501    0  0.00000000000E+00  0.00000000000E+00 -0.68362972695E+03  0.68362972697E+03  0.50400001928E-02 0.  1.
    10030    2    1    2    0    0  0.00000000000E+00  0.00000000000E+00  0.44584633862E+02  0.14118440878E+04  0.14111399430E+04 0.  0.
        3    1    3    3  502    0 -0.43614669069E+03  0.53937805352E+03  0.15149371348E+03  0.71000209566E+03  0.10100000352E+00 0. -1.
       -3    1    3    3    0  502  0.43614669069E+03 -0.53937805352E+03 -0.10690907962E+03  0.70184199213E+03  0.10100000352E+00 0.  1.
</event>
<event>
 5   0  0.3907270E-04  0.1473001E+04  0.7818609E-02  0.8902608E-01
        1   -1    0    0  501    0  0.00000000000E+00  0.00000000000E+00  0.83670581722E+03  0.83670581724E+03  0.50400001928E-02 0. -1.
       -1   -1    0    0    0  501  0.00000000000E+00  0.00000000000E+00 -0.64829595514E+03  0.64829595516E+03  0.50400001928E-02 0.  1.
    10030    2    1    2    0    0  0.00000000000E+00  0.00000000000E+00  0.18840986209E+03  0.14850017724E+04  0.14730010142E+04 0.  0.
        3    1    3    3  502    0  0.70688035716E+03  0.20465554807E+03  0.12392824955E+03  0.74627203748E+03  0.10100000352E+00 0.  1.
       -3    1    3    3    0  502 -0.70688035716E+03 -0.20465554807E+03  0.64481612533E+02  0.73872973491E+03  0.10100000352E+00 0. -1.
</event>
<event>
 5   0  0.3756664E-04  0.1394928E+04  0.7818609E-02  0.8957498E-01
       -1   -1    0    0    0  501  0.00000000000E+00  0.00000000000E+00  0.34786190207E+03  0.34786190211E+03  0.50400001928E-02 0. -1.
        1   -1    0    0  501    0  0.00000000000E+00  0.00000000000E+00 -0.13984165667E+04  0.13984165667E+04  0.50400001928E-02 0.  1.
    10030    2    1    2    0    0  0.00000000000E+00  0.00000000000E+00 -0.10505546646E+04  0.17462784688E+04  0.13949277355E+04 0.  0.
        2    1    3    3  502    0  0.65941962377E+03 -0.19728576102E+03 -0.38419827778E+03  0.78826659727E+03  0.25500000920E-02 0.  1.
       -2    1    3    3    0  502 -0.65941962377E+03  0.19728576102E+03 -0.66635638680E+03  0.95801187151E+03  0.25500000920E-02 0. -1.
</event>
<event>
 5   0  0.6959748E-04  0.1396850E+04  0.7818609E-02  0.8956102E-01
       -2   -1    0    0    0  501  0.00000000000E+00  0.00000000000E+00  0.35516643188E+03  0.35516643189E+03  0.25500000920E-02 0.  1.
        2   -1    0    0  501    0  0.00000000000E+00  0.00000000000E+00 -0.13734342566E+04  0.13734342566E+04  0.25500000920E-02 0. -1.
    10030    2    1    2    0    0  0.00000000000E+00  0.00000000000E+00 -0.10182678247E+04  0.17286006885E+04  0.13968503776E+04 0.  0.
        5    1    3    3  502    0  0.28261826068E+03  0.19302512355E+03  0.24426190676E+03  0.42049702577E+03  0.46999998093E+01 0.  1.
       -5    1    3    3    0  502 -0.28261826068E+03 -0.19302512355E+03 -0.12625297315E+04  0.13081036627E+04  0.46999998093E+01 0. -1.
</event>
<event>
 5   0  0.3907093E-04  0.1399340E+04  0.7818609E-02  0.8954296E-01
       -1   -1    0    0    0  501  0.00000000000E+00  0.00000000000E+00  0.71284233765E+03  0.71284233767E+03  0.50400001928E-02 0. -1.
        1   -1    0    0  501    0  0.00000000000E+00  0.00000000000E+00 -0.68674130936E+03  0.68674130938E+03  0.50400001928E-02 0.  1.
    10030    2    1    2    0    0  0.00000000000E+00  0.00000000000E+00  0.26101028291E+02  0.13995836471E+04  0.13993402451E+04 0.  0.
        4    1    3    3  502    0 -0.48161468257E+03 -0.49371347831E+03 -0.10457507094E+03  0.69759820778E+03  0.12699999809E+01 0.  1.
       -4    1    3    3    0  502  0.48161468257E+03  0.49371347831E+03  0.13067609923E+03  0.70198543927E+03  0.12699999809E+01 0. -1.
</event>
<event>
 5   0  0.3907270E-04  0.1403192E+04  0.7818609E-02  0.8951511E-01
       -1   -1    0    0    0  501  0.00000000000E+00  0.00000000000E+00  0.57834549153E+03  0.57834549155E+03  0.50400001928E-02 0. -1.
        1   -1    0    0  501    0  0.00000000000E+00  0.00000000000E+00 -0.85111191540E+03  0.85111191541E+03  0.50400001928E-02 0.  1.
    10030    2    1    2    0    0  0.00000000000E+00  0.00000000000E+00 -0.27276642387E+03  0.14294574070E+04  0.14031917033E+04 0.  0.
        3    1    3    3  502    0  0.12530288339E+03  0.13445062579E+03  0.55338700248E+03  0.58310802436E+03  0.10100000352E+00 0. -1.
       -3    1    3    3    0  502 -0.12530288339E+03 -0.13445062579E+03 -0.82615342635E+03  0.84634938260E+03  0.10100000352E+00 0.  1.
</event>
<event>
 5   0  0.6870835E-04  0.1409749E+04  0.7818609E-02  0.8946792E-01
       -2   -1    0    0    0  501  0.00000000000E+00  0.00000000000E+00  0.25580224387E+03  0.25580224388E+03  0.25500000920E-02 0.  1.
        2   -1    0    0  501    0  0.00000000000E+00  0.00000000000E+00 -0.19423120309E+04  0.19423120309E+04  0.25500000920E-02 0. -1.
    10030    2    1    2    0    0  0.00000000000E+00  0.00000000000E+00 -0.16865097870E+04  0.21981142748E+04  0.14097485958E+04 0.  0.
        2    1    3    3  502    0  0.39977335849E+03  0.24157353011E+02  0.61156306853E+02  0.40514492436E+03  0.25500000920E-02 0.  1.
       -2    1    3    3    0  502 -0.39977335849E+03 -0.24157353011E+02 -0.17476660939E+04  0.17929693504E+04  0.25500000920E-02 0. -1.
</event>
<event>
 5   0  0.2660250E-04  0.1394721E+04  0.7818609E-02  0.8957649E-01
       -4   -1    0    0    0  501  0.00000000000E+00  0.00000000000E+00  0.57527904184E+03  0.57528044368E+03  0.12699999809E+01 0. -1.
        4   -1    0    0  501    0  0.00000000000E+00  0.00000000000E+00 -0.84534584745E+03  0.84534680144E+03  0.12699999809E+01 0.  1.
    10030    2    1    2    0    0  0.00000000000E+00  0.00000000000E+00 -0.27006680561E+03  0.14206272451E+04  0.13947206495E+04 0.  0.
        5    1    3    3  502    0  0.19102866542E+03 -0.61073648471E+03  0.14723924062E+03  0.65665248704E+03  0.46999998093E+01 0. -1.
       -5    1    3    3    0  502 -0.19102866542E+03  0.61073648471E+03 -0.41730604623E+03  0.76397475808E+03  0.46999998093E+01 0.  1.
</event>
<event>
 5   0  0.6959748E-04  0.1409535E+04  0.7818609E-02  0.8946946E-01
        2   -1    0    0  501    0  0.00000000000E+00  0.00000000000E+00  0.46672236505E+03  0.46672236506E+03  0.25500000920E-02 0. -1.
       -2   -1    0    0    0  501  0.00000000000E+00  0.00000000000E+00 -0.10642236711E+04  0.10642236711E+04  0.25500000920E-02 0.  1.
    10030    2    1    2    0    0  0.00000000000E+00  0.00000000000E+00 -0.59750130609E+03  0.15309460362E+04  0.14095346590E+04 0.  0.
        5    1    3    3  502    0 -0.24361315357E+03  0.60292287509E+03 -0.59383505091E+03  0.88063926757E+03  0.46999998093E+01 0.  1.
       -5    1    3    3    0  502  0.24361315357E+03 -0.60292287509E+03 -0.36662551851E+01  0.65030676863E+03  0.46999998093E+01 0. -1.
</event>
<event>
 5   0  0.3784219E-04  0.1381548E+04  0.7818609E-02  0.8967285E-01
       -1   -1    0    0    0  501  0.00000000000E+00  0.00000000000E+00  0.49801329310E+03  0.49801329313E+03  0.50400001928E-02 0.  1.
        1   -1    0    0  501    0  0.00000000000E+00  0.00000000000E+00 -0.95814387388E+03  0.95814387390E+03  0.50400001928E-02 0. -1.
    10030    2    1    2    0    0  0.00000000000E+00  0.00000000000E+00 -0.46013058078E+03  0.14561571670E+04  0.13815475177E+04 0.  0.
        1    1    3    3  502    0 -0.21456960191E+03 -0.56504301306E+03  0.12244311452E+03  0.61668957912E+03  0.50400001928E-02 0.  1.
       -1    1    3    3    0  502  0.21456960191E+03  0.56504301306E+03 -0.58257369530E+03  0.83946758791E+03  0.50400001928E-02 0. -1.
</event>
<event>
 5   0  0.7296966E-04  0.1387845E+04  0.7818609E-02  0.8962664E-01
        2   -1    0    0  501    0  0.00000000000E+00  0.00000000000E+00  0.83957362721E+03  0.83957362722E+03  0.25500000920E-02 0. -1.
       -2   -1    0    0    0  501  0.00000000000E+00  0.00000000000E+00 -0.57353911560E+03  0.57353911560E+03  0.25500000920E-02 0.  1.
    10030    2    1    2    0    0  0.00000000000E+00  0.00000000000E+00  0.26603451162E+03  0.14131127428E+04  0.13878448265E+04 0.  0.
        3    1    3    3  502    0 -0.77392540933E+02 -0.49369635393E+03  0.62324181291E+03  0.79884670797E+03  0.10100000352E+00 0. -1.
       -3    1    3    3    0  502  0.77392540933E+02  0.49369635393E+03 -0.35720730129E+03  0.61426603485E+03  0.10100000352E+00 0.  1.
</event>
<event>
 5   0  0.6959748E-04  0.1403871E+04  0.7818609E-02  0.8951021E-01
        2   -1    0    0  501    0  0.00000000000E+00  0.00000000000E+00  0.43733248152E+03  0.43733248153E+03  0.25500000920E-02 0.  1.
       -2   -1    0    0    0  501  0.00000000000E+00  0.00000000000E+00 -0.11266338097E+04  0.11266338097E+04  0.25500000920E-02 0. -1.
    10030    2    1    2    0    0  0.00000000000E+00  0.00000000000E+00 -0.68930132813E+03  0.15639662912E+04  0.14038711618E+04 0.  0.
        5    1    3    3  502    0  0.26922097064E+03 -0.57716965614E+03 -0.67340850461E+03  0.92687962923E+03  0.46999998093E+01 0. -1.
       -5    1    3    3    0  502 -0.26922097064E+03  0.57716965614E+03 -0.15892823517E+02  0.63708666196E+03  0.46999998093E+01 0.  1.
</event>
<event>
 5   0  0.3784219E-04  0.1375929E+04  0.7818609E-02  0.8971429E-01
        1   -1    0    0  501    0  0.00000000000E+00  0.00000000000E+00  0.62362587376E+03  0.62362587378E+03  0.50400001928E-02 0. -1.
       -1   -1    0    0    0  501  0.00000000000E+00  0.00000000000E+00 -0.75894037876E+03  0.75894037878E+03  0.50400001928E-02 0.  1.
    10030    2    1    2    0    0  0.00000000000E+00  0.00000000000E+00 -0.13531450501E+03  0.13825662526E+04  0.13759285692E+04 0.  0.
        1    1    3    3  502    0 -0.57113553041E+03 -0.38352119762E+03 -0.70921573082E+02  0.69160261182E+03  0.50400001928E-02 0.  1.
       -1    1    3    3    0  502  0.57113553041E+03  0.38352119762E+03 -0.64392931925E+02  0.69096364074E+03  0.50400001928E-02 0. -1.
</event>
<event>
 5   0  0.6870835E-04  0.1380839E+04  0.7818609E-02  0.8967806E-01
        2   -1    0    0  501    0  0.00000000000E+00  0.00000000000E+00  0.10847530722E+04  0.10847530722E+04  0.25500000920E-02 0.  1.
       -2   -1    0    0    0  501  0.00000000000E+00  0.00000000000E+00 -0.43943587064E+03  0.43943587065E+03  0.25500000920E-02 0. -1.
    10030    2    1    2    0    0  0.00000000000E+00  0.00000000000E+00  0.64531720153E+03  0.15241889428E+04  0.13808394703E+04 0.  0.
        2    1    3    3  502    0 -0.43482701250E+03  0.53798880295E+02 -0.26631713346E+03  0.51273157295E+03  0.25500000920E-02 0. -1.
       -2    1    3    3    0  502  0.43482701250E+03 -0.53798880295E+02  0.91163433499E+03  0.10114573699E+04  0.25500000920E-02 0.  1.
</event>
<event>
 5   0  0.6959748E-04  0.1399621E+04  0.7818609E-02  0.8954093E-01
        2   -1    0    0  501    0  0.00000000000E+00  0.00000000000E+00  0.44412649287E+03  0.44412649288E+03  0.25500000920E-02 0.  1.
       -2   -1    0    0    0  501  0.00000000000E+00  0.00000000000E+00 -0.11026924090E+04  0.11026924090E+04  0.25500000920E-02 0. -1.
    10030    2    1    2    0    0  0.00000000000E+00  0.00000000000E+00 -0.65856591612E+03  0.15468189019E+04  0.13996212521E+04 0.  0.
        5    1    3    3  502    0 -0.10940899744E+03  0.55848933929E+03 -0.77933559416E+03  0.96502162107E+03  0.46999998093E+01 0. -1.
       -5    1    3    3    0  502  0.10940899744E+03 -0.55848933929E+03  0.12076967803E+03  0.58179728081E+03  0.46999998093E+01 0.  1.
</event>
<event>
 5   0  0.3756664E-04  0.1398440E+04  0.7818609E-02  0.8954949E-01
       -1   -1    0    0    0  501  0.00000000000E+00  0.00000000000E+00  0.60458463087E+03  0.60458463089E+03  0.50400001928E-02 0.  1.
        1   -1    0    0  501    0  0.00000000000E+00  0.00000000000E+00 -0.80866857302E+03  0.80866857304E+03  0.50400001928E-02 0. -1.
    10030    2    1    2    0    0  0.00000000000E+00  0.00000000000E+00 -0.20408394215E+03  0.14132532039E+04  0.13984399747E+04 0.  0.
        2    1    3    3  502    0  0.48384101969E+03  0.42173081320E+03 -0.38237823076E+03  0.74710917709E+03  0.25500000920E-02 0. -1.
       -2    1    3    3    0  502 -0.48384101969E+03 -0.42173081320E+03  0.17829428861E+03  0.66614402684E+03  0.25500000920E-02 0.  1.
</event>
<event>
 5   0  0.6959748E-04  0.1408288E+04  0.7818609E-02  0.8947841E-01
       -2   -1    0    0    0  501  0.00000000000E+00  0.00000000000E+00  0.45558812559E+03  0.45558812560E+03  0.25500000920E-02 0.  1.
        2   -1    0    0  501    0  0.00000000000E+00  0.00000000000E+00 -0.10883041611E+04  0.10883041611E+04  0.25500000920E-02 0. -1.
    10030    2    1    2    0    0  0.00000000000E+00  0.00000000000E+00 -0.63271603548E+03  0.15438922867E+04  0.14082875457E+04 0.  0.
        5    1    3    3  502    0 -0.65153987229E+03  0.24597255373E+03 -0.20248271415E+03  0.72527790667E+03  0.46999998093E+01 0.  1.
       -5    1    3    3    0  502  0.65153987229E+03 -0.24597255373E+03 -0.43023332133E+03  0.81861438001E+03  0.46999998093E+01 0. -1.
</event>
<event>
 5   0  0.3907093E-04  0.1377990E+04  0.7818609E-02  0.8969907E-01
        1   -1    0    0  501    0  0.00000000000E+00  0.00000000000E+00  0.51209132791E+03  0.51209132793E+03  0.50400001928E-02 0. -1.
       -1   -1    0    0    0  501  0.00000000000E+00  0.00000000000E+00 -0.92701016265E+03  0.92701016267E+03  0.50400001928E-02 0.  1.
    10030    2    1    2    0    0  0.00000000000E+00  0.00000000000E+00 -0.41491883475E+03  0.14391014906E+04  0.13779896447E+04 0.  0.
        4    1    3    3  502    0  0.32073496352E+03  0.13638300007E+03  0.41323955977E+03  0.54059207004E+03  0.12699999809E+01 0. -1.
       -4    1    3    3    0  502 -0.32073496352E+03 -0.13638300007E+03 -0.82815839451E+03  0.89850942056E+03  0.12699999809E+01 0.  1.
</event>
<event>
 5   0  0.3977658E-04  0.1378245E+04  0.7818609E-02  0.8969718E-01
       -1   -1    0    0    0  501  0.00000000000E+00  0.00000000000E+00  0.64378681161E+03  0.64378681163E+03  0.50400001928E-02 0.  1.
        1   -1    0    0  501    0  0.00000000000E+00  0.00000000000E+00 -0.73765067439E+03  0.73765067441E+03  0.50400001928E-02 0. -1.
    10030    2    1    2    0    0  0.00000000000E+00  0.00000000000E+00 -0.93863862785E+02  0.13814374860E+04  0.13782449358E+04 0.  0.
        5    1    3    3  502    0 -0.30888457286E+03 -0.14735618991E+00 -0.66436044118E+03  0.73267085848E+03  0.46999998093E+01 0. -1.
       -5    1    3    3    0  502  0.30888457286E+03  0.14735618991E+00  0.57049657839E+03  0.64876662755E+03  0.46999998093E+01 0.  1.
</event>
<event>
 5   0  0.3977658E-04  0.1393533E+04  0.7818609E-02  0.8958513E-01
       -1   -1    0    0    0  501  0.00000000000E+00  0.00000000000E+00  0.30126446068E+03  0.30126446072E+03  0.50400001928E-02 0. -1.
        1   -1    0    0  501    0  0.00000000000E+00  0.00000000000E+00 -0.16114873878E+04  0.16114873878E+04  0.50400001928E-02 0.  1.
    10030    2    1    2    0    0  0.00000000000E+00  0.00000000000E+00 -0.13102229271E+04  0.19127518485E+04  0.13935334640E+04 0.  0.
        5    1    3    3  502    0 -0.62016555077E+03  0.22725639592E+03 -0.35062193425E+03  0.74780252114E+03  0.46999998093E+01 0. -1.
       -5    1    3    3    0  502  0.62016555077E+03 -0.22725639592E+03 -0.95960099285E+03  0.11649493274E+04  0.46999998093E+01 0.  1.
</event>
<event>
 5   0  0.3977658E-04  0.1394385E+04  0.7818609E-02  0.8957893E-01
       -1   -1    0    0    0  501  0.00000000000E+00  0.00000000000E+00  0.10936578641E+04  0.10936578641E+04  0.50400001928E-02 0. -1.
        1   -1    0    0  501    0  0.00000000000E+00  0.00000000000E+00 -0.44445076575E+03  0.44445076578E+03  0.50400001928E-02 0.  1.
    10030    2    1    2    0    0  0.00000000000E+00  0.00000000000E+00  0.64920709834E+03  0.15381086299E+04  0.13943845599E+04 0.  0.
        5    1    3    3  502    0 -0.61174821198E+03 -0.20075158806E+03  0.61959664499E+03  0.89356542427E+03  0.46999998093E+01 0.  1.
       -5    1    3    3    0  502  0.61174821198E+03  0.20075158806E+03  0.29610453351E+02  0.64454320562E+03  0.46999998093E+01 0. -1.
</event>
<event>
 5   0  0.7296966E-04  0.1395053E+04  0.7818609E-02  0.8957407E-01
       -2   -1    0    0    0  501  0.00000000000E+00  0.00000000000E+00  0.67340060989E+03  0.67340060990E+03  0.25500000920E-02 0.  1.
        2   -1    0    0  501    0  0.00000000000E+00  0.00000000000E+00 -0.72251671057E+03  0.72251671057E+03  0.25500000920E-02 0. -1.
    10030    2    1    2    0    0  0.00000000000E+00  0.00000000000E+00 -0.49116100674E+02  0.13959173205E+04  0.13950529647E+04 0.  0.
        3    1    3    3  502    0  0.27603017162E+03  0.36851499889E+02 -0.66447950179E+03  0.72047464021E+03  0.10100000352E+00 0. -1.
       -3    1    3    3    0  502 -0.27603017162E+03 -0.36851499889E+02  0.61536340111E+03  0.67544268026E+03  0.10100000352E+00 0.  1.
</event>
<event>
 5   0  0.3977658E-04  0.1403361E+04  0.7818609E-02  0.8951389E-01
       -1   -1    0    0    0  501  0.00000000000E+00  0.00000000000E+00  0.70844062954E+03  0.70844062956E+03  0.50400001928E-02 0. -1.
        1   -1    0    0  501    0  0.00000000000E+00  0.00000000000E+00 -0.69498482176E+03  0.69498482178E+03  0.50400001928E-02 0.  1.
    10030    2    1    2    0    0  0.00000000000E+00  0.00000000000E+00  0.13455807780E+02  0.14034254513E+04  0.14033609438E+04 0.  0.
        5    1    3    3  502    0 -0.22609780196E+03 -0.14195043317E+03 -0.64219579239E+03  0.69549095414E+03  0.46999998093E+01 0.  1.
       -5    1    3    3    0  502  0.22609780196E+03  0.14195043317E+03  0.65565160017E+03  0.70793449720E+03  0.46999998093E+01 0. -1.
</event>
<event>
 5   0  0.3977658E-04  0.1429027E+04  0.7818609E-02  0.8933071E-01
       -1   -1    0    0    0  501  0.00000000000E+00  0.00000000000E+00  0.71258935957E+03  0.71258935959E+03  0.50400001928E-02 0. -1.
        1   -1    0    0  501    0  0.00000000000E+00  0.00000000000E+00 -0.71644319026E+03  0.71644319028E+03  0.50400001928E-02 0.  1.
    10030    2    1    2    0    0  0.00000000000E+00  0.00000000000E+00 -0.38538306865E+01  0.14290325499E+04  0.14290273533E+04 0.  0.
        5    1    3    3  502    0 -0.47593299163E+02  0.37484674267E+02  0.71000086706E+03  0.71259634027E+03  0.46999998093E+01 0. -1.
       -5    1    3    3    0  502  0.47593299163E+02 -0.37484674267E+02 -0.71385469775E+03  0.71643620960E+03  0.46999998093E+01 0.  1.
</event>
<event>
 5   0  0.7296966E-04  0.1406854E+04  0.7818609E-02  0.8948872E-01
       -2   -1    0    0    0  501  0.00000000000E+00  0.00000000000E+00  0.61728210707E+03  0.61728210708E+03  0.25500000920E-02 0. -1.
        2   -1    0    0  501    0  0.00000000000E+00  0.00000000000E+00 -0.80159427812E+03  0.80159427812E+03  0.25500000920E-02 0.  1.
    10030    2    1    2    0    0  0.00000000000E+00  0.00000000000E+00 -0.18431217104E+03  0.14188763852E+04  0.14068543706E+04 0.  0.
        3    1    3    3  502    0  0.16818160885E+02  0.38803619139E+03 -0.68364436140E+03  0.78627257325E+03  0.10100000352E+00 0.  1.
       -3    1    3    3    0  502 -0.16818160885E+02 -0.38803619139E+03  0.49933219036E+03  0.63260381195E+03  0.10100000352E+00 0. -1.
</event>
<event>
 5   0  0.7065539E-04  0.1407050E+04  0.7818609E-02  0.8948731E-01
       -2   -1    0    0    0  501  0.00000000000E+00  0.00000000000E+00  0.30227182931E+03  0.30227182932E+03  0.25500000920E-02 0.  1.
        2   -1    0    0  501    0  0.00000000000E+00  0.00000000000E+00 -0.16374240731E+04  0.16374240731E+04  0.25500000920E-02 0. -1.
    10030    2    1    2    0    0  0.00000000000E+00  0.00000000000E+00 -0.13351522438E+04  0.19396959024E+04  0.14070496365E+04 0.  0.
        1    1    3    3  502    0 -0.46803914747E+03 -0.25227408671E+03 -0.13026763367E+04  0.14070069284E+04  0.50400001928E-02 0. -1.
       -1    1    3    3    0  502  0.46803914747E+03  0.25227408671E+03 -0.32475907027E+02  0.53268897394E+03  0.50400001928E-02 0.  1.
</event>
<event>
 5   0  0.6895048E-04  0.1391543E+04  0.7818609E-02  0.8959963E-01
        2   -1    0    0  501    0  0.00000000000E+00  0.00000000000E+00  0.93563950235E+03  0.93563950236E+03  0.25500000920E-02 0. -1.
       -2   -1    0    0    0  501  0.00000000000E+00  0.00000000000E+00 -0.51739792735E+03  0.51739792736E+03  0.25500000920E-02 0.  1.
    10030    2    1    2    0    0  0.00000000000E+00  0.00000000000E+00  0.41824157500E+03  0.14530374297E+04  0.13915429412E+04 0.  0.
        4    1    3    3  502    0 -0.55997891583E+03 -0.29870711207E+03  0.50684176718E+03  0.81221457438E+03  0.12699999809E+01 0. -1.
       -4    1    3    3    0  502  0.55997891583E+03  0.29870711207E+03 -0.88600192180E+02  0.64082285534E+03  0.12699999809E+01 0.  1.
</event>
<event>
 5   0  0.3756664E-04  0.1390379E+04  0.7818609E-02  0.8960812E-01
       -1   -1    0    0    0  501  0.00000000000E+00  0.00000000000E+00  0.40870309377E+03  0.40870309380E+03  0.50400001928E-02 0. -1.
        1   -1    0    0  501    0  0.00000000000E+00  0.00000000000E+00 -0.11824922741E+04  0.11824922741E+04  0.50400001928E-02 0.  1.
    10030    2    1    2    0    0  0.00000000000E+00  0.00000000000E+00 -0.77378918030E+03  0.15911953679E+04  0.13903787265E+04 0.  0.
        2    1    3    3  502    0  0.14622741901E+03  0.59889092426E+03 -0.19185110125E+02  0.61678267299E+03  0.25500000920E-02 0.  1.
       -2    1    3    3    0  502 -0.14622741901E+03 -0.59889092426E+03 -0.75460407017E+03  0.97441269489E+03  0.25500000920E-02 0. -1.
</event>
<event>
 5   0  0.6959748E-04  0.1400609E+04  0.7818609E-02  0.8953378E-01
        2   -1    0    0  501    0  0.00000000000E+00  0.00000000000E+00  0.15086078074E+04  0.15086078074E+04  0.25500000920E-02 0. -1.
       -2   -1    0    0    0  501  0.00000000000E+00  0.00000000000E+00 -0.32508562307E+03  0.32508562308E+03  0.25500000920E-02 0.  1.
    10030    2    1    2    0    0  0.00000000000E+00  0.00000000000E+00  0.11835221844E+04  0.18336934305E+04  0.14006094517E+04 0.  0.
        5    1    3    3  502    0 -0.55845781697E+03 -0.50591877120E+02  0.11409590691E+04  0.12713159948E+04  0.46999998093E+01 0. -1.
       -5    1    3    3    0  502  0.55845781697E+03  0.50591877120E+02  0.42563115252E+02  0.56237743566E+03  0.46999998093E+01 0.  1.
</event>
<event>
 5   0  0.3907093E-04  0.1393361E+04  0.7818609E-02  0.8958638E-01
       -1   -1    0    0    0  501  0.00000000000E+00  0.00000000000E+00  0.13034210823E+04  0.13034210823E+04  0.50400001928E-02 0. -1.
        1   -1    0    0  501    0  0.00000000000E+00  0.00000000000E+00 -0.37237662370E+03  0.37237662373E+03  0.50400001928E-02 0.  1.
    10030    2    1    2    0    0  0.00000000000E+00  0.00000000000E+00  0.93104445856E+03  0.16757977060E+04  0.13933607457E+04 0.  0.
        4    1    3    3  502    0  0.13569093303E+03  0.42847109154E+03 -0.17469764146E+03  0.48220367525E+03  0.12699999809E+01 0.  1.
       -4    1    3    3    0  502 -0.13569093303E+03 -0.42847109154E+03  0.11057421000E+04  0.11935940308E+04  0.12699999809E+01 0. -1.
</event>
<event>
 5   0  0.7065539E-04  0.1401138E+04  0.7818609E-02  0.8952995E-01
       -2   -1    0    0    0  501  0.00000000000E+00  0.00000000000E+00  0.12813519245E+04  0.12813519245E+04  0.25500000920E-02 0. -1.
        2   -1    0    0  501    0  0.00000000000E+00  0.00000000000E+00 -0.38303054094E+03  0.38303054095E+03  0.25500000920E-02 0.  1.
    10030    2    1    2    0    0  0.00000000000E+00  0.00000000000E+00  0.89832138351E+03  0.16643824654E+04  0.14011379957E+04 0.  0.
        1    1    3    3  502    0  0.48262058597E+03 -0.49533687731E+03  0.58205281828E+03  0.90391743833E+03  0.50400001928E-02 0. -1.
       -1    1    3    3    0  502 -0.48262058597E+03  0.49533687731E+03  0.31626856523E+03  0.76046502707E+03  0.50400001928E-02 0.  1.
</event>
<event>
 5   0  0.6959748E-04  0.1421351E+04  0.7818609E-02  0.8938507E-01
       -2   -1    0    0    0  501  0.00000000000E+00  0.00000000000E+00  0.32816101442E+03  0.32816101443E+03  0.25500000920E-02 0.  1.
        2   -1    0    0  501    0  0.00000000000E+00  0.00000000000E+00 -0.15390594731E+04  0.15390594731E+04  0.25500000920E-02 0. -1.
    10030    2    1    2    0    0  0.00000000000E+00  0.00000000000E+00 -0.12108984587E+04  0.18672204875E+04  0.14213505098E+04 0.  0.
        5    1    3    3  502    0 -0.21325471010E+01  0.70619314427E+03 -0.70991829426E+03  0.10013587665E+04  0.46999998093E+01 0. -1.
       -5    1    3    3    0  502  0.21325471010E+01 -0.70619314427E+03 -0.50098016440E+03  0.86586172100E+03  0.46999998093E+01 0.  1.
</event>
<event>
 5   0  0.6870835E-04  0.1399940E+04  0.7818609E-02  0.8953862E-01
       -2   -1    0    0    0  501  0.00000000000E+00  0.00000000000E+00  0.29211374676E+03  0.29211374677E+03  0.25500000920E-02 0.  1.
        2   -1    0    0  501    0  0.00000000000E+00  0.00000000000E+00 -0.16772842835E+04  0.16772842835E+04  0.25500000920E-02 0. -1.
    10030    2    1    2    0    0  0.00000000000E+00  0.00000000000E+00 -0.13851705367E+04  0.19693980303E+04  0.13999397079E+04 0.  0.
        2    1    3    3  502    0 -0.75274103534E+02 -0.61722425996E+03 -0.24038731263E+03  0.66664686141E+03  0.25500000920E-02 0.  1.
       -2    1    3    3    0  502  0.75274103534E+02  0.61722425996E+03 -0.11447832241E+04  0.13027511688E+04  0.25500000920E-02 0. -1.
</event>
<event>
 5   0  0.3784219E-04  0.1400225E+04  0.7818609E-02  0.8953656E-01
        1   -1    0    0  501    0  0.00000000000E+00  0.00000000000E+00  0.65048043822E+03  0.65048043824E+03  0.50400001928E-02 0.  1.
       -1   -1    0    0    0  501  0.00000000000E+00  0.00000000000E+00 -0.75353108127E+03  0.75353108129E+03  0.50400001928E-02 0. -1.
    10030    2    1    2    0    0  0.00000000000E+00  0.00000000000E+00 -0.10305064305E+03  0.14040115195E+04  0.14002245934E+04 0.  0.
        1    1    3    3  502    0 -0.50280151557E+03  0.97552823993E+02 -0.53013301320E+03  0.73713426812E+03  0.50400001928E-02 0.  1.
       -1    1    3    3    0  502  0.50280151557E+03 -0.97552823993E+02  0.42708237015E+03  0.66687725141E+03  0.50400001928E-02 0. -1.
</event>
<event>
 5   0  0.3907093E-04  0.1411827E+04  0.7818609E-02  0.8945302E-01
       -1   -1    0    0    0  501  0.00000000000E+00  0.00000000000E+00  0.45479102021E+03  0.45479102024E+03  0.50400001928E-02 0.  1.
        1   -1    0    0  501    0  0.00000000000E+00  0.00000000000E+00 -0.10956991310E+04  0.10956991310E+04  0.50400001928E-02 0. -1.
    10030    2    1    2    0    0  0.00000000000E+00  0.00000000000E+00 -0.64090811077E+03  0.15504901512E+04  0.14118273629E+04 0.  0.
        4    1    3    3  502    0 -0.21909162053E+03 -0.25636292254E+03  0.36060706291E+03  0.49372274908E+03  0.12699999809E+01 0.  1.
       -4    1    3    3    0  502  0.21909162053E+03  0.25636292254E+03 -0.10015151737E+04  0.10567674022E+04  0.12699999809E+01 0. -1.
</event>
<event>
 5   0  0.6870835E-04  0.1400504E+04  0.7818609E-02  0.8953454E-01
        2   -1    0    0  501    0  0.00000000000E+00  0.00000000000E+00  0.14275139317E+04  0.14275139317E+04  0.25500000920E-02 0. -1.
       -2   -1    0    0    0  501  0.00000000000E+00  0.00000000000E+00 -0.34350119812E+03  0.34350119813E+03  0.25500000920E-02 0.  1.
    10030    2    1    2    0    0  0.00000000000E+00  0.00000000000E+00  0.10840127335E+04  0.17710151298E+04  0.14005038320E+04 0.  0.
        2    1    3    3  502    0 -0.35815958529E+03  0.46699235081E+03  0.10218591953E+04  0.11792185376E+04  0.25500000920E-02 0. -1.
       -2    1    3    3    0  502  0.35815958529E+03 -0.46699235081E+03  0.62153538191E+02  0.59179659222E+03  0.25500000920E-02 0.  1.
</event>
<event>
 5   0  0.6959748E-04  0.1397400E+04  0.7818609E-02  0.8955703E-01
       -2   -1    0    0    0  501  0.00000000000E+00  0.00000000000E+00  0.37096369563E+03  0.37096369564E+03  0.25500000920E-02 0. -1.
        2   -1    0    0  501    0  0.00000000000E+00  0.00000000000E+00 -0.13159828772E+04  0.13159828772E+04  0.25500000920E-02 0.  1.
    10030    2    1    2    0    0  0.00000000000E+00  0.00000000000E+00 -0.94501918156E+03  0.16869465728E+04  0.13974002598E+04 0.  0.
        5    1    3    3  502    0 -0.37233254258E+03 -0.54928625398E+03 -0.73647858479E+03  0.99134741989E+03  0.46999998093E+01 0.  1.
       -5    1    3    3    0  502  0.37233254258E+03  0.54928625398E+03 -0.20854059678E+03  0.69559915294E+03  0.46999998093E+01 0. -1.
</event>
<event>
 5   0  0.3907093E-04  0.1407872E+04  0.7818609E-02  0.8948140E-01
       -1   -1    0    0    0  501  0.00000000000E+00  0.00000000000E+00  0.30275553545E+03  0.30275553549E+03  0.50400001928E-02 0. -1.
        1   -1    0    0  501    0  0.00000000000E+00  0.00000000000E+00 -0.16367203596E+04  0.16367203596E+04  0.50400001928E-02 0.  1.
    10030    2    1    2    0    0  0.00000000000E+00  0.00000000000E+00 -0.13339648242E+04  0.19394758951E+04  0.14078723648E+04 0.  0.
        4    1    3    3  502    0  0.62602058496E+03  0.20354468339E+03 -0.32343277132E+03  0.73344569082E+03  0.12699999809E+01 0. -1.
       -4    1    3    3    0  502 -0.62602058496E+03 -0.20354468339E+03 -0.10105320528E+04  0.12060302043E+04  0.12699999809E+01 0.  1.
</event>
<event>
 5   0  0.3756664E-04  0.1414018E+04  0.7818609E-02  0.8943734E-01
       -1   -1    0    0    0  501  0.00000000000E+00  0.00000000000E+00  0.53611996889E+03  0.53611996891E+03  0.50400001928E-02 0.  1.
        1   -1    0    0  501    0  0.00000000000E+00  0.00000000000E+00 -0.93236898729E+03  0.93236898730E+03  0.50400001928E-02 0. -1.
    10030    2    1    2    0    0  0.00000000000E+00  0.00000000000E+00 -0.39624901840E+03  0.14684889562E+04  0.14140178676E+04 0.  0.
        2    1    3    3  502    0 -0.58349241353E+03  0.28287768144E+03  0.94470627495E+02  0.65529220869E+03  0.25500000920E-02 0.  1.
       -2    1    3    3    0  502  0.58349241353E+03 -0.28287768144E+03 -0.49071964589E+03  0.81319674752E+03  0.25500000920E-02 0. -1.
</event>
<event>
 5   0  0.6895048E-04  0.1399648E+04  0.7818609E-02  0.8954074E-01
        2   -1    0    0  501    0  0.00000000000E+00  0.00000000000E+00  0.14883446401E+04  0.14883446401E+04  0.25500000920E-02 0.  1.
       -2   -1    0    0    0  501  0.00000000000E+00  0.00000000000E+00 -0.32905911250E+03  0.32905911251E+03  0.25500000920E-02 0. -1.
    10030    2    1    2    0    0  0.00000000000E+00  0.00000000000E+00  0.11592855276E+04  0.18174037526E+04  0.13996476219E+04 0.  0.
        4    1    3    3  502    0  0.17304452729E+03 -0.43917204364E+03  0.12505086107E+04  0.13366337908E+04  0.12699999809E+01 0.  1.
       -4    1    3    3    0  502 -0.17304452729E+03  0.43917204364E+03 -0.91223083170E+02  0.48076996177E+03  0.12699999809E+01 0. -1.
</event>
<event>
 5   0  0.3977658E-04  0.1401585E+04  0.7818609E-02  0.8952672E-01
       -1   -1    0    0    0  501  0.00000000000E+00  0.00000000000E+00  0.68226633182E+03  0.68226633184E+03  0.50400001928E-02 0.  1.
        1   -1    0    0  501    0  0.00000000000E+00  0.00000000000E+00 -0.71982202903E+03  0.71982202905E+03  0.50400001928E-02 0. -1.
    10030    2    1    2    0    0  0.00000000000E+00  0.00000000000E+00 -0.37555697208E+02  0.14020883609E+04  0.14015852958E+04 0.  0.
        5    1    3    3  502    0 -0.33210162483E+03  0.29925975513E+03 -0.55863844168E+03  0.71550463924E+03  0.46999998093E+01 0. -1.
       -5    1    3    3    0  502  0.33210162483E+03 -0.29925975513E+03  0.52108274447E+03  0.68658372165E+03  0.46999998093E+01 0.  1.
</event>
<event>
 5   0  0.6895048E-04  0.1402913E+04  0.7818609E-02  0.8951712E-01
        2   -1    0    0  501    0  0.00000000000E+00  0.00000000000E+00  0.13238552283E+04  0.13238552283E+04  0.25500000920E-02 0.  1.
       -2   -1    0    0    0  501  0.00000000000E+00  0.00000000000E+00 -0.37167315674E+03  0.37167315675E+03  0.25500000920E-02 0. -1.
    10030    2    1    2    0    0  0.00000000000E+00  0.00000000000E+00  0.95218207153E+03  0.16955283850E+04  0.14029133284E+04 0.  0.
        4    1    3    3  502    0  0.33448829183E+03  0.33583355699E+03  0.11010236577E+04  0.11987165232E+04  0.12699999809E+01 0.  1.
       -4    1    3    3    0  502 -0.33448829183E+03 -0.33583355699E+03 -0.14884158614E+03  0.49681186181E+03  0.12699999809E+01 0. -1.
</event>
<event>
 5   0  0.6895048E-04  0.1416870E+04  0.7818609E-02  0.8941697E-01
       -2   -1    0    0    0  501  0.00000000000E+00  0.00000000000E+00  0.73953333301E+03  0.73953333302E+03  0.25500000920E-02 0. -1.
        2   -1    0    0  501    0  0.00000000000E+00  0.00000000000E+00 -0.67864397619E+03  0.67864397620E+03  0.25500000920E-02 0.  1.
    10030    2    1    2    0    0  0.00000000000E+00  0.00000000000E+00  0.60889356821E+02  0.14181773092E+04  0.14168695658E+04 0.  0.
        4    1    3    3  502    0  0.43924427985E+03  0.53017977033E+03  0.19748820609E+03  0.71626065834E+03  0.12699999809E+01 0. -1.
       -4    1    3    3    0  502 -0.43924427985E+03 -0.53017977033E+03 -0.13659884927E+03  0.70191665087E+03  0.12699999809E+01 0.  1.
</event>
<event>
 5   0  0.7296966E-04  0.1405572E+04  0.7818609E-02  0.8949795E-01
       -2   -1    0    0    0  501  0.00000000000E+00  0.00000000000E+00  0.34407105425E+03  0.34407105426E+03  0.25500000920E-02 0. -1.
        2   -1    0    0  501    0  0.00000000000E+00  0.00000000000E+00 -0.14354827312E+04  0.14354827312E+04  0.25500000920E-02 0.  1.
    10030    2    1    2    0    0  0.00000000000E+00  0.00000000000E+00 -0.10914116770E+04  0.17795537855E+04  0.14055718505E+04 0.  0.
        3    1    3    3  502    0  0.87769595818E+01 -0.62234876689E+03 -0.95890499366E+03  0.11431945677E+04  0.10100000352E+00 0.  1.
       -3    1    3    3    0  502 -0.87769595818E+01  0.62234876689E+03 -0.13250668331E+03  0.63635921773E+03  0.10100000352E+00 0. -1.
</event>
<event>
 5   0  0.3756664E-04  0.1419616E+04  0.7818609E-02  0.8939740E-01
       -1   -1    0    0    0  501  0.00000000000E+00  0.00000000000E+00  0.64701988422E+03  0.64701988424E+03  0.50400001928E-02 0.  1.
        1   -1    0    0  501    0  0.00000000000E+00  0.00000000000E+00 -0.77868944224E+03  0.77868944226E+03  0.50400001928E-02 0. -1.
    10030    2    1    2    0    0  0.00000000000E+00  0.00000000000E+00 -0.13166955802E+03  0.14257093265E+04  0.14196162197E+04 0.  0.
        2    1    3    3  502    0 -0.70932100734E+03 -0.23695957365E+02 -0.77275024900E+02  0.71391121250E+03  0.25500000920E-02 0. -1.
       -2    1    3    3    0  502  0.70932100734E+03  0.23695957365E+02 -0.54394533116E+02  0.71179811400E+03  0.25500000920E-02 0.  1.
</event>
<event>
 5   0  0.3907093E-04  0.1404949E+04  0.7818609E-02  0.8950244E-01
       -1   -1    0    0    0  501  0.00000000000E+00  0.00000000000E+00  0.39244271709E+03  0.39244271712E+03  0.50400001928E-02 0. -1.
        1   -1    0    0  501    0  0.00000000000E+00  0.00000000000E+00 -0.12574326280E+04  0.12574326280E+04  0.50400001928E-02 0.  1.
    10030    2    1    2    0    0  0.00000000000E+00  0.00000000000E+00 -0.86498991088E+03  0.16498753451E+04  0.14049487921E+04 0.  0.
        4    1    3    3  502    0 -0.36187601063E+02  0.68831408976E+03 -0.59171468755E+03  0.90841274374E+03  0.12699999809E+01 0.  1.
       -4    1    3    3    0  502  0.36187601063E+02 -0.68831408976E+03 -0.27327522333E+03  0.74146260136E+03  0.12699999809E+01 0. -1.
</event>
<event>
 5   0  0.3977658E-04  0.1405888E+04  0.7818609E-02  0.8949567E-01
        1   -1    0    0  501    0  0.00000000000E+00  0.00000000000E+00  0.77709680082E+03  0.77709680083E+03  0.50400001928E-02 0. -1.
       -1   -1    0    0    0  501  0.00000000000E+00  0.00000000000E+00 -0.63586732992E+03  0.63586732994E+03  0.50400001928E-02 0.  1.
    10030    2    1    2    0    0  0.00000000000E+00  0.00000000000E+00  0.14122947090E+03  0.14129641308E+04  0.14058882855E+04 0.  0.
        5    1    3    3  502    0  0.53142313051E+03  0.36235002193E+03 -0.21436183010E+03  0.67799791020E+03  0.46999998093E+01 0.  1.
       -5    1    3    3    0  502 -0.53142313051E+03 -0.36235002193E+03  0.35559130100E+03  0.73496622057E+03  0.46999998093E+01 0. -1.
</event>
<event>
 5   0  0.7065539E-04  0.1486668E+04  0.7818609E-02  0.8893367E-01
       -2   -1    0    0    0  501  0.00000000000E+00  0.00000000000E+00  0.36642614825E+03  0.36642614826E+03  0.25500000920E-02 0. -1.
        2   -1    0    0  501    0  0.00000000000E+00  0.00000000000E+00 -0.15079310982E+04  0.15079310982E+04  0.25500000920E-02 0.  1.
    10030    2    1    2    0    0  0.00000000000E+00  0.00000000000E+00 -0.11415049499E+04  0.18743572464E+04  0.14866679308E+04 0.  0.
        1    1    3    3  502    0  0.22544987274E+03 -0.64220439927E+03 -0.19401151145E+03  0.70773907774E+03  0.50400001928E-02 0. -1.
       -1    1    3    3    0  502 -0.22544987274E+03  0.64220439927E+03 -0.94749343847E+03  0.11666181687E+04  0.50400001928E-02 0.  1.
</event>
<event>
 5   0  0.6959748E-04  0.1363010E+04  0.7818609E-02  0.8981038E-01
       -2   -1    0    0    0  501  0.00000000000E+00  0.00000000000E+00  0.80633262261E+03  0.80633262262E+03  0.25500000920E-02 0.  1.
        2   -1    0    0  501    0  0.00000000000E+00  0.00000000000E+00 -0.57600198762E+03  0.57600198763E+03  0.25500000920E-02 0. -1.
    10030    2    1    2    0    0  0.00000000000E+00  0.00000000000E+00  0.23033063499E+03  0.13823346102E+04  0.13630101882E+04 0.  0.
        5    1    3    3  502    0  0.55759873152E+03  0.13290185908E+03  0.48896632746E+03  0.75345166330E+03  0.46999998093E+01 0.  1.
       -5    1    3    3    0  502 -0.55759873152E+03 -0.13290185908E+03 -0.25863569247E+03  0.62888294694E+03  0.46999998093E+01 0. -1.
</event>
<event>
 5   0  0.6895048E-04  0.1400004E+04  0.7818609E-02  0.8953816E-01
       -2   -1    0    0    0  501  0.00000000000E+00  0.00000000000E+00  0.48144321369E+03  0.48144321370E+03  0.25500000920E-02 0. -1.
        2   -1    0    0  501    0  0.00000000000E+00  0.00000000000E+00 -0.10177789342E+04  0.10177789342E+04  0.25500000920E-02 0.  1.
    10030    2    1    2    0    0  0.00000000000E+00  0.00000000000E+00 -0.53633572054E+03  0.14992221479E+04  0.14000039442E+04 0.  0.
        4    1    3    3  502    0 -0.49864578584E+03  0.42037098295E+03  0.40980909813E+01  0.65220992808E+03  0.12699999809E+01 0. -1.
       -4    1    3    3    0  502  0.49864578584E+03 -0.42037098295E+03 -0.54043381152E+03  0.84701221985E+03  0.12699999809E+01 0.  1.
</event>
<event>
 5   0  0.3977658E-04  0.1395256E+04  0.7818609E-02  0.8957260E-01
       -1   -1    0    0    0  501  0.00000000000E+00  0.00000000000E+00  0.58689515975E+03  0.58689515977E+03  0.50400001928E-02 0. -1.
        1   -1    0    0  501    0  0.00000000000E+00  0.00000000000E+00 -0.82925356598E+03  0.82925356599E+03  0.50400001928E-02 0.  1.
    10030    2    1    2    0    0  0.00000000000E+00  0.00000000000E+00 -0.24235840622E+03  0.14161487258E+04  0.13952561114E+04 0.  0.
        5    1    3    3  502    0  0.68638155396E+03 -0.12103504714E+03 -0.15152156040E+03  0.71326712634E+03  0.46999998093E+01 0.  1.
       -5    1    3    3    0  502 -0.68638155396E+03  0.12103504714E+03 -0.90836845822E+02  0.70288159943E+03  0.46999998093E+01 0. -1.
</event>
<event>
 5   0  0.3784219E-04  0.1400553E+04  0.7818609E-02  0.8953418E-01
        1   -1    0    0  501    0  0.00000000000E+00  0.00000000000E+00  0.14006097278E+04  0.14006097278E+04  0.50400001928E-02 0. -1.
       -1   -1    0    0    0  501  0.00000000000E+00  0.00000000000E+00 -0.35012413619E+03  0.35012413623E+03  0.50400001928E-02 0.  1.
    10030    2    1    2    0    0  0.00000000000E+00  0.00000000000E+00  0.10504855916E+04  0.17507338640E+04  0.14005531352E+04 0.  0.
        1    1    3    3  502    0 -0.19148840431E+03 -0.23948812919E+02  0.13667146179E+04  0.13802717853E+04  0.50400001928E-02 0. -1.
       -1    1    3    3    0  502  0.19148840431E+03  0.23948812919E+02 -0.31622902631E+03  0.37046207867E+03  0.50400001928E-02 0.  1.
</event>
<event>
 5   0  0.3756664E-04  0.1406712E+04  0.7818609E-02  0.8948974E-01
        1   -1    0    0  501    0  0.00000000000E+00  0.00000000000E+00  0.99216209729E+03  0.99216209730E+03  0.50400001928E-02 0. -1.
       -1   -1    0    0    0  501  0.00000000000E+00  0.00000000000E+00 -0.49861786745E+03  0.49861786748E+03  0.50400001928E-02 0.  1.
    10030    2    1    2    0    0  0.00000000000E+00  0.00000000000E+00  0.49354422984E+03  0.14907799648E+04  0.14067121229E+04 0.  0.
        2    1    3    3  502    0  0.41494066650E+03 -0.52024353304E+03  0.53866817848E+01  0.66547584985E+03  0.25500000920E-02 0.  1.
       -2    1    3    3    0  502 -0.41494066650E+03  0.52024353304E+03  0.48815754805E+03  0.82530411493E+03  0.25500000920E-02 0. -1.
</event>
<event>
 5   0  0.3756664E-04  0.1402314E+04  0.7818609E-02  0.8952145E-01
        1   -1    0    0  501    0  0.00000000000E+00  0.00000000000E+00  0.19655824115E+04  0.19655824115E+04  0.50400001928E-02 0. -1.
       -1   -1    0    0    0  501  0.00000000000E+00  0.00000000000E+00 -0.25011485478E+03  0.25011485483E+03  0.50400001928E-02 0.  1.
    10030    2    1    2    0    0  0.00000000000E+00  0.00000000000E+00  0.17154675568E+04  0.22156972664E+04  0.14023143149E+04 0.  0.
        2    1    3    3  502    0 -0.25818985868E+03 -0.22913838811E+03  0.18220110556E+04  0.18544246253E+04  0.25500000920E-02 0. -1.
       -2    1    3    3    0  502  0.25818985868E+03  0.22913838811E+03 -0.10654349887E+03  0.36127264108E+03  0.25500000920E-02 0.  1.
</event>
<event>
 5   0  0.3907270E-04  0.1383448E+04  0.7818609E-02  0.8965888E-01
       -1   -1    0    0    0  501  0.00000000000E+00  0.00000000000E+00  0.22765543896E+03  0.22765543902E+03  0.50400001928E-02 0. -1.
        1   -1    0    0  501    0  0.00000000000E+00  0.00000000000E+00 -0.21017822162E+04  0.21017822162E+04  0.50400001928E-02 0.  1.
    10030    2    1    2    0    0  0.00000000000E+00  0.00000000000E+00 -0.18741267772E+04  0.23294376552E+04  0.13834480881E+04 0.  0.
        3    1    3    3  502    0  0.96407585818E+02  0.54179910285E+03 -0.16427335172E+04  0.17324589777E+04  0.10100000352E+00 0.  1.
       -3    1    3    3    0  502 -0.96407585818E+02 -0.54179910285E+03 -0.23139325996E+03  0.59697867752E+03  0.10100000352E+00 0. -1.
</event>
<event>
 5   0  0.7065539E-04  0.1398734E+04  0.7818609E-02  0.8954735E-01
       -2   -1    0    0    0  501  0.00000000000E+00  0.00000000000E+00  0.66570068074E+03  0.66570068074E+03  0.25500000920E-02 0. -1.
        2   -1    0    0  501    0  0.00000000000E+00  0.00000000000E+00 -0.73473609756E+03  0.73473609757E+03  0.25500000920E-02 0.  1.
    10030    2    1    2    0    0  0.00000000000E+00  0.00000000000E+00 -0.69035416825E+02  0.14004367783E+04  0.13987341711E+04 0.  0.
        1    1    3    3  502    0  0.18208673479E+02  0.10768204312E+03 -0.72614604821E+03  0.73431264565E+03  0.50400001928E-02 0.  1.
       -1    1    3    3    0  502 -0.18208673479E+02 -0.10768204312E+03  0.65711063139E+03  0.66612413266E+03  0.50400001928E-02 0. -1.
</event>
<event>
 5   0  0.3756664E-04  0.1334257E+04  0.7818609E-02  0.9002832E-01
        1   -1    0    0  501    0  0.00000000000E+00  0.00000000000E+00  0.51912154193E+03  0.51912154195E+03  0.50400001928E-02 0.  1.
       -1   -1    0    0    0  501  0.00000000000E+00  0.00000000000E+00 -0.85733393186E+03  0.85733393188E+03  0.50400001928E-02 0. -1.
    10030    2    1    2    0    0  0.00000000000E+00  0.00000000000E+00 -0.33821238993E+03  0.13764554738E+04  0.13342571157E+04 0.  0.
        2    1    3    3  502    0 -0.42259522048E+03  0.40340870027E+03  0.16315968080E+03  0.60658583998E+03  0.25500000920E-02 0.  1.
       -2    1    3    3    0  502  0.42259522048E+03 -0.40340870027E+03 -0.50137207073E+03  0.76986963385E+03  0.25500000920E-02 0. -1.
</event>
<event>
 5   0  0.3907093E-04  0.1403487E+04  0.7818609E-02  0.8951299E-01
        1   -1    0    0  501    0  0.00000000000E+00  0.00000000000E+00  0.54681242240E+03  0.54681242242E+03  0.50400001928E-02 0.  1.
       -1   -1    0    0    0  501  0.00000000000E+00  0.00000000000E+00 -0.90057167287E+03  0.90057167288E+03  0.50400001928E-02 0. -1.
    10030    2    1    2    0    0  0.00000000000E+00  0.00000000000E+00 -0.35375925047E+03  0.14473840953E+04  0.14034867695E+04 0.  0.
        4    1    3    3  502    0  0.50443851767E+03 -0.28946054573E+03  0.22808098917E+03  0.62471447571E+03  0.12699999809E+01 0.  1.
       -4    1    3    3    0  502 -0.50443851767E+03  0.28946054573E+03 -0.58184023964E+03  0.82266961960E+03  0.12699999809E+01 0. -1.
</event>
<event>
 5   0  0.6895048E-04  0.1387476E+04  0.7818609E-02  0.8962934E-01
        2   -1    0    0  501    0  0.00000000000E+00  0.00000000000E+00  0.12499901468E+04  0.12499901468E+04  0.25500000920E-02 0.  1.
       -2   -1    0    0    0  501  0.00000000000E+00  0.00000000000E+00 -0.38502101667E+03  0.38502101668E+03  0.25500000920E-02 0. -1.
    10030    2    1    2    0    0  0.00000000000E+00  0.00000000000E+00  0.86496913011E+03  0.16350111635E+04  0.13874760930E+04 0.  0.
        4    1    3    3  502    0  0.52958486475E+03 -0.54291442131E+02  0.95666125006E+03  0.10948105087E+04  0.12699999809E+01 0.  1.
       -4    1    3    3    0  502 -0.52958486475E+03  0.54291442131E+02 -0.91692119947E+02  0.54020065477E+03  0.12699999809E+01 0. -1.
</event>
<event>
 5   0  0.3977658E-04  0.1393387E+04  0.7818609E-02  0.8958619E-01
       -1   -1    0    0    0  501  0.00000000000E+00  0.00000000000E+00  0.12832109170E+04  0.12832109170E+04  0.50400001928E-02 0.  1.
        1   -1    0    0  501    0  0.00000000000E+00  0.00000000000E+00 -0.37825593391E+03  0.37825593395E+03  0.50400001928E-02 0. -1.
    10030    2    1    2    0    0  0.00000000000E+00  0.00000000000E+00  0.90495498309E+03  0.16614668510E+04  0.13933874463E+04 0.  0.
        5    1    3    3  502    0 -0.37192906694E+03 -0.58856482924E+03  0.42278078027E+03  0.81455844923E+03  0.46999998093E+01 0. -1.
       -5    1    3    3    0  502  0.37192906694E+03  0.58856482924E+03  0.48217420283E+03  0.84690840173E+03  0.46999998093E+01 0.  1.
</event>
<event>
 5   0  0.3977658E-04  0.1391053E+04  0.7818609E-02  0.8960320E-01
       -1   -1    0    0    0  501  0.00000000000E+00  0.00000000000E+00  0.48214410480E+03  0.48214410483E+03  0.50400001928E-02 0. -1.
        1   -1    0    0  501    0  0.00000000000E+00  0.00000000000E+00 -0.10033460650E+04  0.10033460650E+04  0.50400001928E-02 0.  1.
    10030    2    1    2    0    0  0.00000000000E+00  0.00000000000E+00 -0.52120196018E+03  0.14854901698E+04  0.13910533999E+04 0.  0.
        5    1    3    3  502    0 -0.56731722880E+03  0.20941778974E+03  0.10627846668E+03  0.61402105113E+03  0.46999998093E+01 0. -1.
       -5    1    3    3    0  502  0.56731722880E+03 -0.20941778974E+03 -0.62748042685E+03  0.87146911869E+03  0.46999998093E+01 0.  1.
</event>
<event>
 5   0  0.3756664E-04  0.1401313E+04  0.7818609E-02  0.8952869E-01
       -1   -1    0    0    0  501  0.00000000000E+00  0.00000000000E+00  0.80667716424E+03  0.80667716426E+03  0.50400001928E-02 0. -1.
        1   -1    0    0  501    0  0.00000000000E+00  0.00000000000E+00 -0.60856985297E+03  0.60856985299E+03  0.50400001928E-02 0.  1.
    10030    2    1    2    0    0  0.00000000000E+00  0.00000000000E+00  0.19810731127E+03  0.14152470172E+04  0.14013128177E+04 0.  0.
        2    1    3    3  502    0  0.29634669069E+03 -0.61490354805E+03 -0.60605850595E+02  0.68527425431E+03  0.25500000920E-02 0.  1.
       -2    1    3    3    0  502 -0.29634669069E+03  0.61490354805E+03  0.25871316187E+03  0.72997276293E+03  0.25500000920E-02 0. -1.
</event>
<event>
 5   0  0.7065539E-04  0.1409824E+04  0.7818609E-02  0.8946738E-01
       -2   -1    0    0    0  501  0.00000000000E+00  0.00000000000E+00  0.36527080488E+03  0.36527080489E+03  0.25500000920E-02 0.  1.
        2   -1    0    0  501    0  0.00000000000E+00  0.00000000000E+00 -0.13603636630E+04  0.13603636630E+04  0.25500000920E-02 0. -1.
    10030    2    1    2    0    0  0.00000000000E+00  0.00000000000E+00 -0.99509285813E+03  0.17256344679E+04  0.14098242871E+04 0.  0.
        1    1    3    3  502    0 -0.17766332497E+03  0.67058028150E+03 -0.34437940863E+03  0.77449296194E+03  0.50400001928E-02 0.  1.
       -1    1    3    3    0  502  0.17766332497E+03 -0.67058028150E+03 -0.65071344950E+03  0.95114150596E+03  0.50400001928E-02 0. -1.
</event>
<event>
 5   0  0.3756664E-04  0.1398535E+04  0.7818609E-02  0.8954880E-01
        1   -1    0    0  501    0  0.00000000000E+00  0.00000000000E+00  0.59206736825E+03  0.59206736827E+03  0.50400001928E-02 0.  1.
       -1   -1    0    0    0  501  0.00000000000E+00  0.00000000000E+00 -0.82587732053E+03  0.82587732055E+03  0.50400001928E-02 0. -1.
    10030    2    1    2    0    0  0.00000000000E+00  0.00000000000E+00 -0.23380995229E+03  0.14179446888E+04  0.13985349644E+04 0.  0.
        2    1    3    3  502    0 -0.61025870655E+03 -0.26784261429E+03 -0.33154970349E+03  0.74436587834E+03  0.25500000920E-02 0. -1.
       -2    1    3    3    0  502  0.61025870655E+03  0.26784261429E+03  0.97739751206E+02  0.67357881048E+03  0.25500000920E-02 0.  1.
</event>
<event>
 5   0  0.7065539E-04  0.1398085E+04  0.7818609E-02  0.8955206E-01
        2   -1    0    0  501    0  0.00000000000E+00  0.00000000000E+00  0.22571226748E+04  0.22571226748E+04  0.25500000920E-02 0.  1.
       -2   -1    0    0    0  501  0.00000000000E+00  0.00000000000E+00 -0.21649701130E+03  0.21649701132E+03  0.25500000920E-02 0. -1.
    10030    2    1    2    0    0  0.00000000000E+00  0.00000000000E+00  0.20406256635E+04  0.24736196862E+04  0.13980848519E+04 0.  0.
        1    1    3    3  502    0  0.29330596641E+03 -0.26298061624E+03  0.20420279367E+04  0.20796791312E+04  0.50400001928E-02 0.  1.
       -1    1    3    3    0  502 -0.29330596641E+03  0.26298061624E+03 -0.14022731675E+01  0.39394055496E+03  0.50400001928E-02 0. -1.
</event>
<event>
 5   0  0.7296966E-04  0.1401571E+04  0.7818609E-02  0.8952682E-01
       -2   -1    0    0    0  501  0.00000000000E+00  0.00000000000E+00  0.41652528618E+03  0.41652528619E+03  0.25500000920E-02 0.  1.
        2   -1    0    0  501    0  0.00000000000E+00  0.00000000000E+00 -0.11790403462E+04  0.11790403462E+04  0.25500000920E-02 0. -1.
    10030    2    1    2    0    0  0.00000000000E+00  0.00000000000E+00 -0.76251506000E+03  0.15955656324E+04  0.14015707155E+04 0.  0.
        3    1    3    3  502    0  0.69008662171E+03  0.82186156404E+02 -0.27863611358E+03  0.74874041146E+03  0.10100000352E+00 0.  1.
       -3    1    3    3    0  502 -0.69008662171E+03 -0.82186156404E+02 -0.48387894643E+03  0.84682522091E+03  0.10100000352E+00 0. -1.
</event>
<event>
 5   0  0.7296966E-04  0.1394952E+04  0.7818609E-02  0.8957481E-01
       -2   -1    0    0    0  501  0.00000000000E+00  0.00000000000E+00  0.96633550224E+03  0.96633550225E+03  0.25500000920E-02 0. -1.
        2   -1    0    0  501    0  0.00000000000E+00  0.00000000000E+00 -0.50341984892E+03  0.50341984893E+03  0.25500000920E-02 0.  1.
    10030    2    1    2    0    0  0.00000000000E+00  0.00000000000E+00  0.46291565332E+03  0.14697553512E+04  0.13949515727E+04 0.  0.
        3    1    3    3  502    0  0.86569050311E+02  0.59136281221E+03  0.61027696752E+03  0.85419094085E+03  0.10100000352E+00 0. -1.
       -3    1    3    3    0  502 -0.86569050311E+02 -0.59136281221E+03 -0.14736131420E+03  0.61556441033E+03  0.10100000352E+00 0.  1.
</event>
<event>
 5   0  0.3784219E-04  0.1397471E+04  0.7818609E-02  0.8955651E-01
        1   -1    0    0  501    0  0.00000000000E+00  0.00000000000E+00  0.17323393748E+04  0.17323393748E+04  0.50400001928E-02 0.  1.
       -1   -1    0    0    0  501  0.00000000000E+00  0.00000000000E+00 -0.28183345056E+03  0.28183345061E+03  0.50400001928E-02 0. -1.
    10030    2    1    2    0    0  0.00000000000E+00  0.00000000000E+00  0.14505059242E+04  0.20141728254E+04  0.13974708349E+04 0.  0.
        1    1    3    3  502    0  0.57137695420E+03 -0.26363879773E+03  0.28748202979E+03  0.69182581402E+03  0.50400001928E-02 0. -1.
       -1    1    3    3    0  502 -0.57137695420E+03  0.26363879773E+03  0.11630238945E+04  0.13223470114E+04  0.50400001928E-02 0.  1.
</event>
<event>
 5   0  0.3977658E-04  0.1396148E+04  0.7818609E-02  0.8956611E-01
       -1   -1    0    0    0  501  0.00000000000E+00  0.00000000000E+00  0.61369866691E+03  0.61369866693E+03  0.50400001928E-02 0.  1.
        1   -1    0    0  501    0  0.00000000000E+00  0.00000000000E+00 -0.79405016442E+03  0.79405016444E+03  0.50400001928E-02 0. -1.
    10030    2    1    2    0    0  0.00000000000E+00  0.00000000000E+00 -0.18035149752E+03  0.14077488314E+04  0.13961483122E+04 0.  0.
        5    1    3    3  502    0 -0.29925566913E+03 -0.39115972021E+03  0.40863210293E+03  0.63997044289E+03  0.46999998093E+01 0.  1.
       -5    1    3    3    0  502  0.29925566913E+03  0.39115972021E+03 -0.58898360045E+03  0.76777838848E+03  0.46999998093E+01 0. -1.
</event>
<event>
 5   0  0.7296966E-04  0.1406243E+04  0.7818609E-02  0.8949312E-01
       -2   -1    0    0    0  501  0.00000000000E+00  0.00000000000E+00  0.26297841845E+03  0.26297841846E+03  0.25500000920E-02 0.  1.
        2   -1    0    0  501    0  0.00000000000E+00  0.00000000000E+00 -0.18799245178E+04  0.18799245178E+04  0.25500000920E-02 0. -1.
    10030    2    1    2    0    0  0.00000000000E+00  0.00000000000E+00 -0.16169460993E+04  0.21429029362E+04  0.14062426199E+04 0.  0.
        3    1    3    3  502    0  0.37709705747E+03  0.54586837175E+03 -0.11632556429E+04  0.13391557680E+04  0.10100000352E+00 0. -1.
       -3    1    3    3    0  502 -0.37709705747E+03 -0.54586837175E+03 -0.45369045647E+03  0.80374716828E+03  0.10100000352E+00 0.  1.
</event>
<event>
 5   0  0.3977658E-04  0.1388264E+04  0.7818609E-02  0.8962358E-01
       -1   -1    0    0    0  501  0.00000000000E+00  0.00000000000E+00  0.10210425395E+04  0.10210425395E+04  0.50400001928E-02 0. -1.
        1   -1    0    0  501    0  0.00000000000E+00  0.00000000000E+00 -0.47188917961E+03  0.47188917963E+03  0.50400001928E-02 0.  1.
    10030    2    1    2    0    0  0.00000000000E+00  0.00000000000E+00  0.54915335991E+03  0.14929317192E+04  0.13882635576E+04 0.  0.
        5    1    3    3  502    0 -0.28508500367E+03 -0.37459594946E+03 -0.27398152145E+03  0.54468665190E+03  0.46999998093E+01 0.  1.
       -5    1    3    3    0  502  0.28508500367E+03  0.37459594946E+03  0.82313488136E+03  0.94824506726E+03  0.46999998093E+01 0. -1.
</event>
<event>
 5   0  0.6870835E-04  0.1397353E+04  0.7818609E-02  0.8955737E-01
        2   -1    0    0  501    0  0.00000000000E+00  0.00000000000E+00  0.42612754669E+03  0.42612754670E+03  0.25500000920E-02 0.  1.
       -2   -1    0    0    0  501  0.00000000000E+00  0.00000000000E+00 -0.11455457161E+04  0.11455457161E+04  0.25500000920E-02 0. -1.
    10030    2    1    2    0    0  0.00000000000E+00  0.00000000000E+00 -0.71941816937E+03  0.15716732628E+04  0.13973526192E+04 0.  0.
        2    1    3    3  502    0  0.52374312918E+03 -0.32157944738E+03  0.14054168190E+02  0.61475013298E+03  0.25500000920E-02 0.  1.
       -2    1    3    3    0  502 -0.52374312918E+03  0.32157944738E+03 -0.73347233756E+03  0.95692312978E+03  0.25500000920E-02 0. -1.
</event>
<event>
 5   0  0.3784219E-04  0.1405812E+04  0.7818609E-02  0.8949622E-01
        1   -1    0    0  501    0  0.00000000000E+00  0.00000000000E+00  0.11623300271E+04  0.11623300271E+04  0.50400001928E-02 0.  1.
       -1   -1    0    0    0  501  0.00000000000E+00  0.00000000000E+00 -0.42507463394E+03  0.42507463397E+03  0.50400001928E-02 0. -1.
    10030    2    1    2    0    0  0.00000000000E+00  0.00000000000E+00  0.73725539315E+03  0.15874046611E+04  0.14058122361E+04 0.  0.
        1    1    3    3  502    0  0.20913419032E+03 -0.63542109210E+03  0.12492531112E+03  0.68051701465E+03  0.50400001928E-02 0. -1.
       -1    1    3    3    0  502 -0.20913419032E+03  0.63542109210E+03  0.61233008202E+03  0.90688764642E+03  0.50400001928E-02 0.  1.
</event>
<event>
 5   0  0.3784219E-04  0.1376935E+04  0.7818609E-02  0.8970685E-01
       -1   -1    0    0    0  501  0.00000000000E+00  0.00000000000E+00  0.44917099591E+03  0.44917099594E+03  0.50400001928E-02 0.  1.
        1   -1    0    0  501    0  0.00000000000E+00  0.00000000000E+00 -0.10552501500E+04  0.10552501500E+04  0.50400001928E-02 0. -1.
    10030    2    1    2    0    0  0.00000000000E+00  0.00000000000E+00 -0.60607915410E+03  0.15044211460E+04  0.13769353810E+04 0.  0.
        1    1    3    3  502    0  0.43124687587E+03 -0.53630205029E+03 -0.28135224970E+03  0.74347350022E+03  0.50400001928E-02 0. -1.
       -1    1    3    3    0  502 -0.43124687587E+03  0.53630205029E+03 -0.32472690441E+03  0.76094764575E+03  0.50400001928E-02 0.  1.
</event>
<event>
 5   0  0.3756664E-04  0.1404449E+04  0.7818609E-02  0.8950605E-01
       -1   -1    0    0    0  501  0.00000000000E+00  0.00000000000E+00  0.81970908187E+03  0.81970908188E+03  0.50400001928E-02 0. -1.
        1   -1    0    0  501    0  0.00000000000E+00  0.00000000000E+00 -0.60157800358E+03  0.60157800360E+03  0.50400001928E-02 0.  1.
    10030    2    1    2    0    0  0.00000000000E+00  0.00000000000E+00  0.21813107829E+03  0.14212870855E+04  0.14044485794E+04 0.  0.
        2    1    3    3  502    0  0.15854734000E+02 -0.70120641709E+03  0.14378637877E+03  0.71597230022E+03  0.25500000920E-02 0. -1.
       -2    1    3    3    0  502 -0.15854734000E+02  0.70120641709E+03  0.74344699516E+02  0.70531478526E+03  0.25500000920E-02 0.  1.
</event>
<event>
 5   0  0.6895048E-04  0.1405775E+04  0.7818609E-02  0.8949649E-01
       -2   -1    0    0    0  501  0.00000000000E+00  0.00000000000E+00  0.23250290274E+03  0.23250290275E+03  0.25500000920E-02 0.  1.
        2   -1    0    0  501    0  0.00000000000E+00  0.00000000000E+00 -0.21249223577E+04  0.21249223577E+04  0.25500000920E-02 0. -1.
    10030    2    1    2    0    0  0.00000000000E+00  0.00000000000E+00 -0.18924194550E+04  0.23574252605E+04  0.14057746851E+04 0.  0.
        4    1    3    3  502    0 -0.21796089609E+03  0.42579769952E+03 -0.18098649227E+04  0.18720104926E+04  0.12699999809E+01 0. -1.
       -4    1    3    3    0  502  0.21796089609E+03 -0.42579769952E+03 -0.82554532266E+02  0.48541476784E+03  0.12699999809E+01 0.  1.
</event>
<event>
 5   0  0.3907270E-04  0.1441288E+04  0.7818609E-02  0.8924463E-01
        1   -1    0    0  501    0  0.00000000000E+00  0.00000000000E+00  0.15805604663E+04  0.15805604663E+04  0.50400001928E-02 0. -1.
       -1   -1    0    0    0  501  0.00000000000E+00  0.00000000000E+00 -0.32857179165E+03  0.32857179169E+03  0.50400001928E-02 0.  1.
    10030    2    1    2    0    0  0.00000000000E+00  0.00000000000E+00  0.12519886747E+04  0.19091322580E+04  0.14412877357E+04 0.  0.
        3    1    3    3  502    0  0.68199043957E+03 -0.16889742652E+03  0.41368470882E+03  0.81533572770E+03  0.10100000352E+00 0.  1.
       -3    1    3    3    0  502 -0.68199043957E+03  0.16889742652E+03  0.83830396585E+03  0.10937965303E+04  0.10100000352E+00 0. -1.
</event>
<event>
 5   0  0.3977658E-04  0.1396253E+04  0.7818609E-02  0.8956535E-01
       -1   -1    0    0    0  501  0.00000000000E+00  0.00000000000E+00  0.65017133176E+03  0.65017133178E+03  0.50400001928E-02 0. -1.
        1   -1    0    0  501    0  0.00000000000E+00  0.00000000000E+00 -0.74961906567E+03  0.74961906569E+03  0.50400001928E-02 0.  1.
    10030    2    1    2    0    0  0.00000000000E+00  0.00000000000E+00 -0.99447733914E+02  0.13997903975E+04  0.13962533098E+04 0.  0.
        5    1    3    3  502    0  0.55699982055E+01 -0.68772671058E+03 -0.16985932808E+03  0.70843019040E+03  0.46999998093E+01 0.  1.
       -5    1    3    3    0  502 -0.55699982055E+01  0.68772671058E+03  0.70411594163E+02  0.69136020707E+03  0.46999998093E+01 0. -1.
</event>
<event>
 5   0  0.3756664E-04  0.1401556E+04  0.7818609E-02  0.8952693E-01
        1   -1    0    0  501    0  0.00000000000E+00  0.00000000000E+00  0.89187232122E+03  0.89187232123E+03  0.50400001928E-02 0.  1.
       -1   -1    0    0    0  501  0.00000000000E+00  0.00000000000E+00 -0.55062825028E+03  0.55062825031E+03  0.50400001928E-02 0. -1.
    10030    2    1    2    0    0  0.00000000000E+00  0.00000000000E+00  0.34124407094E+03  0.14425005715E+04  0.14015564145E+04 0.  0.
        2    1    3    3  502    0 -0.57927071820E+02 -0.69323732003E+03  0.25768988491E+03  0.74184742658E+03  0.25500000920E-02 0. -1.
       -2    1    3    3    0  502  0.57927071820E+02  0.69323732003E+03  0.83554186023E+02  0.70065314496E+03  0.25500000920E-02 0.  1.
</event>
<event>
 5   0  0.6870835E-04  0.1400636E+04  0.7818609E-02  0.8953358E-01
        2   -1    0    0  501    0  0.00000000000E+00  0.00000000000E+00  0.87743319788E+03  0.87743319788E+03  0.25500000920E-02 0.  1.
       -2   -1    0    0    0  501  0.00000000000E+00  0.00000000000E+00 -0.55895485264E+03  0.55895485265E+03  0.25500000920E-02 0. -1.
    10030    2    1    2    0    0  0.00000000000E+00  0.00000000000E+00  0.31847834524E+03  0.14363880505E+04  0.14006363466E+04 0.  0.
        2    1    3    3  502    0 -0.38012371103E+03 -0.98188504791E+02 -0.43548641122E+03  0.58633048063E+03  0.25500000920E-02 0. -1.
       -2    1    3    3    0  502  0.38012371103E+03  0.98188504791E+02  0.75396475645E+03  0.85005756990E+03  0.25500000920E-02 0.  1.
</event>
<event>
 5   0  0.2660250E-04  0.1399479E+04  0.7818609E-02  0.8954195E-01
       -3   -1    0    0    0  501  0.00000000000E+00  0.00000000000E+00  0.11151515706E+04  0.11151515752E+04  0.10100000352E+00 0.  1.
        3   -1    0    0  501    0  0.00000000000E+00  0.00000000000E+00 -0.43907541870E+03  0.43907543032E+03  0.10100000352E+00 0. -1.
    10030    2    1    2    0    0  0.00000000000E+00  0.00000000000E+00  0.67607615191E+03  0.15542270055E+04  0.13994794109E+04 0.  0.
        3    1    3    3  502    0 -0.46491956878E+03  0.23147589301E+02 -0.24217724349E+03  0.52472454087E+03  0.10100000352E+00 0. -1.
       -3    1    3    3    0  502  0.46491956878E+03 -0.23147589301E+02  0.91825339540E+03  0.10295024646E+04  0.10100000352E+00 0.  1.
</event>
<event>
 5   0  0.6895048E-04  0.1388401E+04  0.7818609E-02  0.8962258E-01
       -2   -1    0    0    0  501  0.00000000000E+00  0.00000000000E+00  0.28514027244E+03  0.28514027246E+03  0.25500000920E-02 0. -1.
        2   -1    0    0  501    0  0.00000000000E+00  0.00000000000E+00 -0.16900951231E+04  0.16900951231E+04  0.25500000920E-02 0.  1.
    10030    2    1    2    0    0  0.00000000000E+00  0.00000000000E+00 -0.14049548507E+04  0.19752353956E+04  0.13884007835E+04 0.  0.
        4    1    3    3  502    0 -0.23394990575E+03 -0.34028175696E+03 -0.14963580110E+04  0.15522928662E+04  0.12699999809E+01 0.  1.
       -4    1    3    3    0  502  0.23394990575E+03  0.34028175696E+03  0.91403160331E+02  0.42294252936E+03  0.12699999809E+01 0. -1.
</event>
<event>
 5   0  0.6895048E-04  0.1392009E+04  0.7818609E-02  0.8959623E-01
       -2   -1    0    0    0  501  0.00000000000E+00  0.00000000000E+00  0.47732004933E+03  0.47732004934E+03  0.25500000920E-02 0.  1.
        2   -1    0    0  501    0  0.00000000000E+00  0.00000000000E+00 -0.10148793229E+04  0.10148793229E+04  0.25500000920E-02 0. -1.
    10030    2    1    2    0    0  0.00000000000E+00  0.00000000000E+00 -0.53755927360E+03  0.14921993723E+04  0.13920089777E+04 0.  0.
        4    1    3    3  502    0 -0.54749360278E+03 -0.32435381473E+03  0.33407153004E+02  0.63723801910E+03  0.12699999809E+01 0.  1.
       -4    1    3    3    0  502  0.54749360278E+03  0.32435381473E+03 -0.57096642661E+03  0.85496135318E+03  0.12699999809E+01 0. -1.
</event>
<event>
 5   0  0.3907093E-04  0.1364226E+04  0.7818609E-02  0.8980129E-01
        1   -1    0    0  501    0  0.00000000000E+00  0.00000000000E+00  0.10843032850E+04  0.10843032850E+04  0.50400001928E-02 0.  1.
       -1   -1    0    0    0  501  0.00000000000E+00  0.00000000000E+00 -0.42910309487E+03  0.42910309490E+03  0.50400001928E-02 0. -1.
    10030    2    1    2    0    0  0.00000000000E+00  0.00000000000E+00  0.65520019014E+03  0.15134063799E+04  0.13642256344E+04 0.  0.
        4    1    3    3  502    0 -0.48952066968E+03  0.46779035157E+03  0.41920048568E+03  0.79635981764E+03  0.12699999809E+01 0. -1.
       -4    1    3    3    0  502  0.48952066968E+03 -0.46779035157E+03  0.23599970446E+03  0.71704656227E+03  0.12699999809E+01 0.  1.
</event>
<event>
 5   0  0.6870835E-04  0.1399766E+04  0.7818609E-02  0.8953988E-01
       -2   -1    0    0    0  501  0.00000000000E+00  0.00000000000E+00  0.23335573389E+03  0.23335573390E+03  0.25500000920E-02 0. -1.
        2   -1    0    0  501    0  0.00000000000E+00  0.00000000000E+00 -0.20990957429E+04  0.20990957429E+04  0.25500000920E-02 0.  1.
    10030    2    1    2    0    0  0.00000000000E+00  0.00000000000E+00 -0.18657400090E+04  0.23324514768E+04  0.13997657341E+04 0.  0.
        2    1    3    3  502    0  0.46967213860E+03  0.49317794575E+03 -0.12016566982E+04  0.13812296059E+04  0.25500000920E-02 0. -1.
       -2    1    3    3    0  502 -0.46967213860E+03 -0.49317794575E+03 -0.66408331087E+03  0.95122187093E+03  0.25500000920E-02 0.  1.
</event>
<event>
 5   0  0.6895048E-04  0.1383585E+04  0.7818609E-02  0.8965787E-01
        2   -1    0    0  501    0  0.00000000000E+00  0.00000000000E+00  0.89843621624E+03  0.89843621624E+03  0.25500000920E-02 0. -1.
       -2   -1    0    0    0  501  0.00000000000E+00  0.00000000000E+00 -0.53267726675E+03  0.53267726676E+03  0.25500000920E-02 0.  1.
    10030    2    1    2    0    0  0.00000000000E+00  0.00000000000E+00  0.36575894949E+03  0.14311134830E+04  0.13835845446E+04 0.  0.
        4    1    3    3  502    0  0.32270755978E+03  0.43821627224E+02 -0.44842653286E+03  0.55420977294E+03  0.12699999809E+01 0.  1.
       -4    1    3    3    0  502 -0.32270755978E+03 -0.43821627224E+02  0.81418548235E+03  0.87690371006E+03  0.12699999809E+01 0. -1.
</event>
<event>
 5   0  0.6959748E-04  0.1396368E+04  0.7818609E-02  0.8956452E-01
        2   -1    0    0  501    0  0.00000000000E+00  0.00000000000E+00  0.10176097488E+04  0.10176097488E+04  0.25500000920E-02 0. -1.
       -2   -1    0    0    0  501  0.00000000000E+00  0.00000000000E+00 -0.47902543927E+03  0.47902543927E+03  0.25500000920E-02 0.  1.
    10030    2    1    2    0    0  0.00000000000E+00  0.00000000000E+00  0.53858430953E+03  0.14966351881E+04  0.13963680846E+04 0.  0.
        5    1    3    3  502    0  0.47889633807E+03 -0.43780388076E+02 -0.27319445526E+03  0.55309648831E+03  0.46999998093E+01 0.  1.
       -5    1    3    3    0  502 -0.47889633807E+03  0.43780388076E+02  0.81177876479E+03  0.94353869977E+03  0.46999998093E+01 0. -1.
</event>
<event>
 5   0  0.2660250E-04  0.1408549E+04  0.7818609E-02  0.8947654E-01
        4   -1    0    0  501    0  0.00000000000E+00  0.00000000000E+00  0.39726276118E+03  0.39726479119E+03  0.12699999809E+01 0. -1.
       -4   -1    0    0    0  501  0.00000000000E+00  0.00000000000E+00 -0.12485440560E+04  0.12485447019E+04  0.12699999809E+01 0.  1.
    10030    2    1    2    0    0  0.00000000000E+00  0.00000000000E+00 -0.85128129481E+03  0.16458094931E+04  0.14085485596E+04 0.  0.
        4    1    3    3  502    0  0.38095549517E+03  0.28890010984E+03  0.17858171284E+03  0.51037574769E+03  0.12699999809E+01 0. -1.
       -4    1    3    3    0  502 -0.38095549517E+03 -0.28890010984E+03 -0.10298630077E+04  0.11354337454E+04  0.12699999809E+01 0.  1.
</event>
<event>
 5   0  0.6959748E-04  0.1407766E+04  0.7818609E-02  0.8948216E-01
        2   -1    0    0  501    0  0.00000000000E+00  0.00000000000E+00  0.10934496075E+04  0.10934496075E+04  0.25500000920E-02 0. -1.
       -2   -1    0    0    0  501  0.00000000000E+00  0.00000000000E+00 -0.45310874800E+03  0.45310874800E+03  0.25500000920E-02 0.  1.
    10030    2    1    2    0    0  0.00000000000E+00  0.00000000000E+00  0.64034085947E+03  0.15465583555E+04  0.14077664332E+04 0.  0.
        5    1    3    3  502    0 -0.70865183752E+02 -0.12485721835E+03 -0.43683575438E+03  0.45984645866E+03  0.46999998093E+01 0.  1.
       -5    1    3    3    0  502  0.70865183752E+02  0.12485721835E+03  0.10771766139E+04  0.10867118968E+04  0.46999998093E+01 0. -1.
</event>
<event>
 5   0  0.3977658E-04  0.1418289E+04  0.7818609E-02  0.8940685E-01
        1   -1    0    0  501    0  0.00000000000E+00  0.00000000000E+00  0.12501115615E+04  0.12501115616E+04  0.50400001928E-02 0.  1.
       -1   -1    0    0    0  501  0.00000000000E+00  0.00000000000E+00 -0.40227293565E+03  0.40227293568E+03  0.50400001928E-02 0. -1.
    10030    2    1    2    0    0  0.00000000000E+00  0.00000000000E+00  0.84783862590E+03  0.16523844972E+04  0.14182891775E+04 0.  0.
        5    1    3    3  502    0  0.63641529082E+03 -0.53790874822E+02  0.64927259074E+02  0.64199339528E+03  0.46999998093E+01 0. -1.
       -5    1    3    3    0  502 -0.63641529082E+03  0.53790874822E+02  0.78291136682E+03  0.10103911020E+04  0.46999998093E+01 0.  1.
</event>
<event>
 5   0  0.3756664E-04  0.1405343E+04  0.7818609E-02  0.8949960E-01
        1   -1    0    0  501    0  0.00000000000E+00  0.00000000000E+00  0.55942444479E+03  0.55942444481E+03  0.50400001928E-02 0.  1.
       -1   -1    0    0    0  501  0.00000000000E+00  0.00000000000E+00 -0.88259838425E+03  0.88259838427E+03  0.50400001928E-02 0. -1.
    10030    2    1    2    0    0  0.00000000000E+00  0.00000000000E+00 -0.32317393946E+03  0.14420228291E+04  0.14053428210E+04 0.  0.
        2    1    3    3  502    0  0.62036032837E+03 -0.32455541971E+03 -0.22284399150E+03  0.73473981928E+03  0.25500000920E-02 0. -1.
       -2    1    3    3    0  502 -0.62036032837E+03  0.32455541971E+03 -0.10032994797E+03  0.70728300980E+03  0.25500000920E-02 0.  1.
</event>
<event>
 5   0  0.7065539E-04  0.1430366E+04  0.7818609E-02  0.8932126E-01
        2   -1    0    0  501    0  0.00000000000E+00  0.00000000000E+00  0.61879221075E+03  0.61879221076E+03  0.25500000920E-02 0. -1.
       -2   -1    0    0    0  501  0.00000000000E+00  0.00000000000E+00 -0.82658930053E+03  0.82658930053E+03  0.25500000920E-02 0.  1.
    10030    2    1    2    0    0  0.00000000000E+00  0.00000000000E+00 -0.20779708977E+03  0.14453815113E+04  0.14303664155E+04 0.  0.
        1    1    3    3  502    0  0.35040379650E+03 -0.30205229634E+03  0.44723362642E+03  0.64345654628E+03  0.50400001928E-02 0. -1.
       -1    1    3    3    0  502 -0.35040379650E+03  0.30205229634E+03 -0.65503071619E+03  0.80192496501E+03  0.50400001928E-02 0.  1.
</event>
<event>
 5   0  0.3907093E-04  0.1386806E+04  0.7818609E-02  0.8963424E-01
       -1   -1    0    0    0  501  0.00000000000E+00  0.00000000000E+00  0.38015305374E+03  0.38015305377E+03  0.50400001928E-02 0.  1.
        1   -1    0    0  501    0  0.00000000000E+00  0.00000000000E+00 -0.12647749418E+04  0.12647749418E+04  0.50400001928E-02 0. -1.
    10030    2    1    2    0    0  0.00000000000E+00  0.00000000000E+00 -0.88462188807E+03  0.16449279956E+04  0.13868064846E+04 0.  0.
        4    1    3    3  502    0 -0.54232464726E+03 -0.43074102819E+03 -0.40204221557E+03  0.80080797473E+03  0.12699999809E+01 0.  1.
       -4    1    3    3    0  502  0.54232464726E+03  0.43074102819E+03 -0.48257967250E+03  0.84412002085E+03  0.12699999809E+01 0. -1.
</event>
<event>
 5   0  0.7296966E-04  0.1396013E+04  0.7818609E-02  0.8956710E-01
       -2   -1    0    0    0  501  0.00000000000E+00  0.00000000000E+00  0.79388339185E+03  0.79388339186E+03  0.25500000920E-02 0.  1.
        2   -1    0    0  501    0  0.00000000000E+00  0.00000000000E+00 -0.61370821577E+03  0.61370821578E+03  0.25500000920E-02 0. -1.
    10030    2    1    2    0    0  0.00000000000E+00  0.00000000000E+00  0.18017517608E+03  0.14075916076E+04  0.13960125500E+04 0.  0.
        3    1    3    3  502    0  0.50330071936E+02  0.21075674922E+03 -0.57893774931E+03  0.61815892072E+03  0.10100000352E+00 0. -1.
       -3    1    3    3    0  502 -0.50330071936E+02 -0.21075674922E+03  0.75911292539E+03  0.78943268692E+03  0.10100000352E+00 0.  1.
</event>
<event>
 5   0  0.3977658E-04  0.1402429E+04  0.7818609E-02  0.8952062E-01
        1   -1    0    0  501    0  0.00000000000E+00  0.00000000000E+00  0.16193278821E+04  0.16193278821E+04  0.50400001928E-02 0.  1.
       -1   -1    0    0    0  501  0.00000000000E+00  0.00000000000E+00 -0.30364558464E+03  0.30364558468E+03  0.50400001928E-02 0. -1.
    10030    2    1    2    0    0  0.00000000000E+00  0.00000000000E+00  0.13156822975E+04  0.19229734668E+04  0.14024289808E+04 0.  0.
        5    1    3    3  502    0 -0.16077107928E+03  0.52194930413E+03  0.54834558307E+02  0.54891468809E+03  0.46999998093E+01 0. -1.
       -5    1    3    3    0  502  0.16077107928E+03 -0.52194930413E+03  0.12608477392E+04  0.13740587787E+04  0.46999998093E+01 0.  1.
</event>
<event>
 5   0  0.3907270E-04  0.1396793E+04  0.7818609E-02  0.8956143E-01
        1   -1    0    0  501    0  0.00000000000E+00  0.00000000000E+00  0.62189980384E+03  0.62189980386E+03  0.50400001928E-02 0. -1.
       -1   -1    0    0    0  501  0.00000000000E+00  0.00000000000E+00 -0.78430273880E+03  0.78430273881E+03  0.50400001928E-02 0.  1.
    10030    2    1    2    0    0  0.00000000000E+00  0.00000000000E+00 -0.16240293496E+03  0.14062025427E+04  0.13967930690E+04 0.  0.
        3    1    3    3  502    0  0.15575164469E+03  0.67692788993E+03 -0.81331587247E+01  0.69466258101E+03  0.10100000352E+00 0. -1.
       -3    1    3    3    0  502 -0.15575164469E+03 -0.67692788993E+03 -0.15426977624E+03  0.71153996166E+03  0.10100000352E+00 0.  1.
</event>
<event>
 5   0  0.3977658E-04  0.1299375E+04  0.7818609E-02  0.9030061E-01
        1   -1    0    0  501    0  0.00000000000E+00  0.00000000000E+00  0.40356274602E+03  0.40356274606E+03  0.50400001928E-02 0.  1.
       -1   -1    0    0    0  501  0.00000000000E+00  0.00000000000E+00 -0.10459192573E+04  0.10459192573E+04  0.50400001928E-02 0. -1.
    10030    2    1    2    0    0  0.00000000000E+00  0.00000000000E+00 -0.64235651124E+03  0.14494820033E+04  0.12993753078E+04 0.  0.
        5    1    3    3  502    0  0.79653508889E+02 -0.37803386613E+03 -0.90383726685E+03  0.98295380378E+03  0.46999998093E+01 0. -1.
       -5    1    3    3    0  502 -0.79653508889E+02  0.37803386613E+03  0.26148075561E+03  0.46652819955E+03  0.46999998093E+01 0.  1.
</event>
<event>
 5   0  0.6870835E-04  0.1398483E+04  0.7818609E-02  0.8954918E-01
       -2   -1    0    0    0  501  0.00000000000E+00  0.00000000000E+00  0.32484373403E+03  0.32484373404E+03  0.25500000920E-02 0.  1.
        2   -1    0    0  501    0  0.00000000000E+00  0.00000000000E+00 -0.15051497564E+04  0.15051497564E+04  0.25500000920E-02 0. -1.
    10030    2    1    2    0    0  0.00000000000E+00  0.00000000000E+00 -0.11803060223E+04  0.18299934904E+04  0.13984827023E+04 0.  0.
        2    1    3    3  502    0 -0.58494715978E+03 -0.24266374710E+03 -0.20221603781E+03  0.66478583006E+03  0.25500000920E-02 0. -1.
       -2    1    3    3    0  502  0.58494715978E+03  0.24266374710E+03 -0.97808998452E+03  0.11652076603E+04  0.25500000920E-02 0.  1.
</event>
<event>
 5   0  0.6959748E-04  0.1429042E+04  0.7818609E-02  0.8933061E-01
       -2   -1    0    0    0  501  0.00000000000E+00  0.00000000000E+00  0.64062028789E+03  0.64062028789E+03  0.25500000920E-02 0.  1.
        2   -1    0    0  501    0  0.00000000000E+00  0.00000000000E+00 -0.79694700706E+03  0.79694700707E+03  0.25500000920E-02 0. -1.
    10030    2    1    2    0    0  0.00000000000E+00  0.00000000000E+00 -0.15632671918E+03  0.14375672950E+04  0.14290422263E+04 0.  0.
        5    1    3    3  502    0 -0.46573711046E+02 -0.51524877844E+03  0.41759288805E+03  0.66487316414E+03  0.46999998093E+01 0.  1.
       -5    1    3    3    0  502  0.46573711046E+02  0.51524877844E+03 -0.57391960723E+03  0.77269413082E+03  0.46999998093E+01 0. -1.
</event>
<event>
 5   0  0.3907093E-04  0.1414701E+04  0.7818609E-02  0.8943246E-01
       -1   -1    0    0    0  501  0.00000000000E+00  0.00000000000E+00  0.22427492954E+03  0.22427492959E+03  0.50400001928E-02 0. -1.
        1   -1    0    0  501    0  0.00000000000E+00  0.00000000000E+00 -0.22309432245E+04  0.22309432245E+04  0.50400001928E-02 0.  1.
    10030    2    1    2    0    0  0.00000000000E+00  0.00000000000E+00 -0.20066682949E+04  0.24552181541E+04  0.14147008653E+04 0.  0.
        4    1    3    3  502    0  0.52974862947E+03 -0.45489254937E+03 -0.11995472151E+04  0.13879754955E+04  0.12699999809E+01 0. -1.
       -4    1    3    3    0  502 -0.52974862947E+03  0.45489254937E+03 -0.80712107981E+03  0.10672426586E+04  0.12699999809E+01 0.  1.
</event>
<event>
 5   0  0.6895048E-04  0.1398300E+04  0.7818609E-02  0.8955050E-01
        2   -1    0    0  501    0  0.00000000000E+00  0.00000000000E+00  0.94266821914E+03  0.94266821915E+03  0.25500000920E-02 0. -1.
       -2   -1    0    0    0  501  0.00000000000E+00  0.00000000000E+00 -0.51853953028E+03  0.51853953029E+03  0.25500000920E-02 0.  1.
    10030    2    1    2    0    0  0.00000000000E+00  0.00000000000E+00  0.42412868886E+03  0.14612077494E+04  0.13983000187E+04 0.  0.
        4    1    3    3  502    0  0.56018580970E+03  0.37609154834E+03  0.40348884737E+03  0.78616655804E+03  0.12699999809E+01 0. -1.
       -4    1    3    3    0  502 -0.56018580970E+03 -0.37609154834E+03  0.20639841491E+02  0.67504119140E+03  0.12699999809E+01 0.  1.
</event>
<event>
 5   0  0.3977658E-04  0.1421287E+04  0.7818609E-02  0.8938553E-01
       -1   -1    0    0    0  501  0.00000000000E+00  0.00000000000E+00  0.56115580299E+03  0.56115580302E+03  0.50400001928E-02 0. -1.
        1   -1    0    0  501    0  0.00000000000E+00  0.00000000000E+00 -0.89995309068E+03  0.89995309070E+03  0.50400001928E-02 0.  1.
    10030    2    1    2    0    0  0.00000000000E+00  0.00000000000E+00 -0.33879728769E+03  0.14611088937E+04  0.14212865992E+04 0.  0.
        5    1    3    3  502    0 -0.49187287298E+00 -0.32756989148E+03 -0.81769413883E+03  0.88087914631E+03  0.46999998093E+01 0.  1.
       -5    1    3    3    0  502  0.49187287298E+00  0.32756989148E+03  0.47889685113E+03  0.58022974740E+03  0.46999998093E+01 0. -1.
</event>
<event>
 5   0  0.6870835E-04  0.1403683E+04  0.7818609E-02  0.8951157E-01
        2   -1    0    0  501    0  0.00000000000E+00  0.00000000000E+00  0.64901434036E+03  0.64901434036E+03  0.25500000920E-02 0. -1.
       -2   -1    0    0    0  501  0.00000000000E+00  0.00000000000E+00 -0.75896822138E+03  0.75896822139E+03  0.25500000920E-02 0.  1.
    10030    2    1    2    0    0  0.00000000000E+00  0.00000000000E+00 -0.10995388103E+03  0.14079825617E+04  0.14036826701E+04 0.  0.
        2    1    3    3  502    0  0.47815438599E+03 -0.24858972433E+03 -0.50596828765E+03  0.73921064386E+03  0.25500000920E-02 0.  1.
       -2    1    3    3    0  502 -0.47815438599E+03  0.24858972433E+03  0.39601440663E+03  0.66877191788E+03  0.25500000920E-02 0. -1.
</event>
<event>
 5   0  0.7296966E-04  0.1382590E+04  0.7818609E-02  0.8966518E-01
        2   -1    0    0  501    0  0.00000000000E+00  0.00000000000E+00  0.91471264566E+03  0.91471264566E+03  0.25500000920E-02 0.  1.
       -2   -1    0    0    0  501  0.00000000000E+00  0.00000000000E+00 -0.52244656611E+03  0.52244656612E+03  0.25500000920E-02 0. -1.
    10030    2    1    2    0    0  0.00000000000E+00  0.00000000000E+00  0.39226607955E+03  0.14371592118E+04  0.13825895714E+04 0.  0.
        3    1    3    3  502    0  0.21518361614E+03  0.52108404315E+03 -0.21972725067E+03  0.60507242837E+03  0.10100000352E+00 0. -1.
       -3    1    3    3    0  502 -0.21518361614E+03 -0.52108404315E+03  0.61199333022E+03  0.83208678341E+03  0.10100000352E+00 0.  1.
</event>
<event>
 5   0  0.3756664E-04  0.1397492E+04  0.7818609E-02  0.8955636E-01
       -1   -1    0    0    0  501  0.00000000000E+00  0.00000000000E+00  0.48566814679E+03  0.48566814681E+03  0.50400001928E-02 0. -1.
        1   -1    0    0  501    0  0.00000000000E+00  0.00000000000E+00 -0.10053073087E+04  0.10053073087E+04  0.50400001928E-02 0.  1.
    10030    2    1    2    0    0  0.00000000000E+00  0.00000000000E+00 -0.51963916194E+03  0.14909754555E+04  0.13974916638E+04 0.  0.
        2    1    3    3  502    0  0.54171775344E+03 -0.91771541294E+02 -0.72039859008E+03  0.90601008206E+03  0.25500000920E-02 0.  1.
       -2    1    3    3    0  502 -0.54171775344E+03  0.91771541294E+02  0.20075942815E+03  0.58496537349E+03  0.25500000920E-02 0. -1.
</event>
<event>
 5   0  0.3977658E-04  0.1394288E+04  0.7818609E-02  0.8957963E-01
       -1   -1    0    0    0  501  0.00000000000E+00  0.00000000000E+00  0.51451575910E+03  0.51451575913E+03  0.50400001928E-02 0. -1.
        1   -1    0    0  501    0  0.00000000000E+00  0.00000000000E+00 -0.94459673001E+03  0.94459673003E+03  0.50400001928E-02 0.  1.
    10030    2    1    2    0    0  0.00000000000E+00  0.00000000000E+00 -0.43008097091E+03  0.14591124892E+04  0.13942882107E+04 0.  0.
        5    1    3    3  502    0  0.10311136501E+03  0.16557070300E+03 -0.91544221525E+03  0.93600328565E+03  0.46999998093E+01 0.  1.
       -5    1    3    3    0  502 -0.10311136501E+03 -0.16557070300E+03  0.48536124434E+03  0.52310920350E+03  0.46999998093E+01 0. -1.
</event>
<event>
 5   0  0.7296966E-04  0.1397763E+04  0.7818609E-02  0.8955440E-01
       -2   -1    0    0    0  501  0.00000000000E+00  0.00000000000E+00  0.35908133221E+03  0.35908133221E+03  0.25500000920E-02 0.  1.
        2   -1    0    0  501    0  0.00000000000E+00  0.00000000000E+00 -0.13602356890E+04  0.13602356890E+04  0.25500000920E-02 0. -1.
    10030    2    1    2    0    0  0.00000000000E+00  0.00000000000E+00 -0.10011543568E+04  0.17193170212E+04  0.13977628459E+04 0.  0.
        3    1    3    3  502    0  0.42943708202E+03  0.45594803020E+03 -0.11920159135E+03  0.63758438127E+03  0.10100000352E+00 0.  1.
       -3    1    3    3    0  502 -0.42943708202E+03 -0.45594803020E+03 -0.88195276548E+03  0.10817326400E+04  0.10100000352E+00 0. -1.
</event>
<event>
 5   0  0.7296966E-04  0.1413873E+04  0.7818609E-02  0.8943838E-01
       -2   -1    0    0    0  501  0.00000000000E+00  0.00000000000E+00  0.43597457865E+03  0.43597457866E+03  0.25500000920E-02 0.  1.
        2   -1    0    0  501    0  0.00000000000E+00  0.00000000000E+00 -0.11463029972E+04  0.11463029972E+04  0.25500000920E-02 0. -1.
    10030    2    1    2    0    0  0.00000000000E+00  0.00000000000E+00 -0.71032841857E+03  0.15822775759E+04  0.14138726481E+04 0.  0.
        3    1    3    3  502    0 -0.35039067199E+03 -0.11122384655E+02  0.33184623405E+03  0.48272068913E+03  0.10100000352E+00 0.  1.
       -3    1    3    3    0  502  0.35039067199E+03  0.11122384655E+02 -0.10421746526E+04  0.10995568868E+04  0.10100000352E+00 0. -1.
</event>
<event>
 5   0  0.6870835E-04  0.1399273E+04  0.7818609E-02  0.8954345E-01
        2   -1    0    0  501    0  0.00000000000E+00  0.00000000000E+00  0.18861929323E+04  0.18861929323E+04  0.25500000920E-02 0. -1.
       -2   -1    0    0    0  501  0.00000000000E+00  0.00000000000E+00 -0.25951289770E+03  0.25951289771E+03  0.25500000920E-02 0.  1.
    10030    2    1    2    0    0  0.00000000000E+00  0.00000000000E+00  0.16266800346E+04  0.21457058300E+04  0.13992732306E+04 0.  0.
        2    1    3    3  502    0 -0.37574124397E+03 -0.57049000843E+03  0.58153606123E+03  0.89712012722E+03  0.25500000920E-02 0.  1.
       -2    1    3    3    0  502  0.37574124397E+03  0.57049000843E+03  0.10451439733E+04  0.12485857028E+04  0.25500000920E-02 0. -1.
</event>
<event>
 5   0  0.3784219E-04  0.1409721E+04  0.7818609E-02  0.8946812E-01
       -1   -1    0    0    0  501  0.00000000000E+00  0.00000000000E+00  0.62323318787E+03  0.62323318789E+03  0.50400001928E-02 0.  1.
        1   -1    0    0  501    0  0.00000000000E+00  0.00000000000E+00 -0.79717838138E+03  0.79717838140E+03  0.50400001928E-02 0. -1.
    10030    2    1    2    0    0  0.00000000000E+00  0.00000000000E+00 -0.17394519351E+03  0.14204115693E+04  0.14097205737E+04 0.  0.
        1    1    3    3  502    0 -0.62328332813E+03 -0.29959908594E+03 -0.22433810172E+03  0.72702771841E+03  0.50400001928E-02 0. -1.
       -1    1    3    3    0  502  0.62328332813E+03  0.29959908594E+03  0.50392908203E+02  0.69338385087E+03  0.50400001928E-02 0.  1.
</event>
<event>
 5   0  0.6895048E-04  0.1411790E+04  0.7818609E-02  0.8945329E-01
        2   -1    0    0  501    0  0.00000000000E+00  0.00000000000E+00  0.10629909545E+04  0.10629909545E+04  0.25500000920E-02 0. -1.
       -2   -1    0    0    0  501  0.00000000000E+00  0.00000000000E+00 -0.46875981288E+03  0.46875981289E+03  0.25500000920E-02 0.  1.
    10030    2    1    2    0    0  0.00000000000E+00  0.00000000000E+00  0.59423114163E+03  0.15317507674E+04  0.14117895607E+04 0.  0.
        4    1    3    3  502    0  0.54273053195E+03 -0.44588454364E+03  0.22104082928E+03  0.73636276228E+03  0.12699999809E+01 0. -1.
       -4    1    3    3    0  502 -0.54273053195E+03  0.44588454364E+03  0.37319031235E+03  0.79538800512E+03  0.12699999809E+01 0.  1.
</event>
<event>
 5   0  0.7296966E-04  0.1401839E+04  0.7818609E-02  0.8952489E-01
       -2   -1    0    0    0  501  0.00000000000E+00  0.00000000000E+00  0.10423849225E+04  0.10423849225E+04  0.25500000920E-02 0.  1.
        2   -1    0    0  501    0  0.00000000000E+00  0.00000000000E+00 -0.47131148825E+03  0.47131148826E+03  0.25500000920E-02 0. -1.
    10030    2    1    2    0    0  0.00000000000E+00  0.00000000000E+00  0.57107343421E+03  0.15136964107E+04  0.14018387769E+04 0.  0.
        3    1    3    3  502    0  0.61725988534E+03  0.31085120476E+03  0.15938216569E+03  0.70925377862E+03  0.10100000352E+00 0.  1.
       -3    1    3    3    0  502 -0.61725988534E+03 -0.31085120476E+03  0.41169126852E+03  0.80444263209E+03  0.10100000352E+00 0. -1.
</event>
<event>
 5   0  0.3756664E-04  0.1434657E+04  0.7818609E-02  0.8929107E-01
       -1   -1    0    0    0  501  0.00000000000E+00  0.00000000000E+00  0.34024896334E+03  0.34024896338E+03  0.50400001928E-02 0.  1.
        1   -1    0    0  501    0  0.00000000000E+00  0.00000000000E+00 -0.15123050336E+04  0.15123050336E+04  0.50400001928E-02 0. -1.
    10030    2    1    2    0    0  0.00000000000E+00  0.00000000000E+00 -0.11720560702E+04  0.18525539970E+04  0.14346570600E+04 0.  0.
        2    1    3    3  502    0  0.58361567918E+03 -0.15682259114E+03 -0.86983394778E+02  0.61054622843E+03  0.25500000920E-02 0.  1.
       -2    1    3    3    0  502 -0.58361567918E+03  0.15682259114E+03 -0.10850726755E+04  0.12420077685E+04  0.25500000920E-02 0. -1.
</event>
<event>
 5   0  0.3784219E-04  0.1394459E+04  0.7818609E-02  0.8957839E-01
       -1   -1    0    0    0  501  0.00000000000E+00  0.00000000000E+00  0.43947386792E+03  0.43947386795E+03  0.50400001928E-02 0.  1.
        1   -1    0    0  501    0  0.00000000000E+00  0.00000000000E+00 -0.11061609459E+04  0.11061609459E+04  0.50400001928E-02 0. -1.
    10030    2    1    2    0    0  0.00000000000E+00  0.00000000000E+00 -0.66668707800E+03  0.15456348139E+04  0.13944587903E+04 0.  0.
        1    1    3    3  502    0 -0.67914553253E+03  0.10903295192E+03 -0.20695545531E+03  0.71830174681E+03  0.50400001928E-02 0.  1.
       -1    1    3    3    0  502  0.67914553253E+03 -0.10903295192E+03 -0.45973162269E+03  0.82733306708E+03  0.50400001928E-02 0. -1.
</event>
<event>
 5   0  0.7065539E-04  0.1402101E+04  0.7818609E-02  0.8952299E-01
        2   -1    0    0  501    0  0.00000000000E+00  0.00000000000E+00  0.64883764770E+03  0.64883764770E+03  0.25500000920E-02 0.  1.
       -2   -1    0    0    0  501  0.00000000000E+00  0.00000000000E+00 -0.75746509224E+03  0.75746509224E+03  0.25500000920E-02 0. -1.
    10030    2    1    2    0    0  0.00000000000E+00  0.00000000000E+00 -0.10862744454E+03  0.14063027399E+04  0.14021010929E+04 0.  0.
        1    1    3    3  502    0 -0.21127011614E+03  0.47343636361E+03 -0.52763338795E+03  0.73971213621E+03  0.50400001928E-02 0. -1.
       -1    1    3    3    0  502  0.21127011614E+03 -0.47343636361E+03  0.41900594341E+03  0.66659060374E+03  0.50400001928E-02 0.  1.
</event>
<event>
 5   0  0.3977658E-04  0.1403312E+04  0.7818609E-02  0.8951425E-01
        1   -1    0    0  501    0  0.00000000000E+00  0.00000000000E+00  0.47573509121E+03  0.47573509123E+03  0.50400001928E-02 0.  1.
       -1   -1    0    0    0  501  0.00000000000E+00  0.00000000000E+00 -0.10348634218E+04  0.10348634218E+04  0.50400001928E-02 0. -1.
    10030    2    1    2    0    0  0.00000000000E+00  0.00000000000E+00 -0.55912833059E+03  0.15105985130E+04  0.14033115754E+04 0.  0.
        5    1    3    3  502    0  0.55700629884E+03 -0.42584719648E+03 -0.25114698300E+03  0.74478100726E+03  0.46999998093E+01 0.  1.
       -5    1    3    3    0  502 -0.55700629884E+03  0.42584719648E+03 -0.30798134759E+03  0.76581750578E+03  0.46999998093E+01 0. -1.
</event>
<event>
 5   0  0.3907093E-04  0.1405016E+04  0.7818609E-02  0.8950196E-01
       -1   -1    0    0    0  501  0.00000000000E+00  0.00000000000E+00  0.53536675289E+03  0.53536675291E+03  0.50400001928E-02 0.  1.
        1   -1    0    0  501    0  0.00000000000E+00  0.00000000000E+00 -0.92183035625E+03  0.92183035626E+03  0.50400001928E-02 0. -1.
    10030    2    1    2    0    0  0.00000000000E+00  0.00000000000E+00 -0.38646360336E+03  0.14571971092E+04  0.14050157644E+04 0.  0.
        4    1    3    3  502    0  0.15084082591E+03 -0.14917566134E+03  0.50134914927E+03  0.54438856993E+03  0.12699999809E+01 0.  1.
       -4    1    3    3    0  502 -0.15084082591E+03  0.14917566134E+03 -0.88781275263E+03  0.91280853925E+03  0.12699999809E+01 0. -1.
</event>
<event>
 5   0  0.7296966E-04  0.1407743E+04  0.7818609E-02  0.8948233E-01
        2   -1    0    0  501    0  0.00000000000E+00  0.00000000000E+00  0.48665047457E+03  0.48665047458E+03  0.25500000920E-02 0. -1.
       -2   -1    0    0    0  501  0.00000000000E+00  0.00000000000E+00 -0.10180513359E+04  0.10180513359E+04  0.25500000920E-02 0.  1.
    10030    2    1    2    0    0  0.00000000000E+00  0.00000000000E+00 -0.53140086130E+03  0.15047018105E+04  0.14077431097E+04 0.  0.
        3    1    3    3  502    0 -0.21548464799E+03 -0.66786579514E+03 -0.20757875410E+03  0.73182463965E+03  0.10100000352E+00 0.  1.
       -3    1    3    3    0  502  0.21548464799E+03  0.66786579514E+03 -0.32382210720E+03  0.77287717081E+03  0.10100000352E+00 0. -1.
</event>
<event>
 5   0  0.3907093E-04  0.1405319E+04  0.7818609E-02  0.8949977E-01
        1   -1    0    0  501    0  0.00000000000E+00  0.00000000000E+00  0.95351023075E+03  0.95351023076E+03  0.50400001928E-02 0.  1.
       -1   -1    0    0    0  501  0.00000000000E+00  0.00000000000E+00 -0.51780307573E+03  0.51780307575E+03  0.50400001928E-02 0. -1.
    10030    2    1    2    0    0  0.00000000000E+00  0.00000000000E+00  0.43570715502E+03  0.14713133065E+04  0.14053192239E+04 0.  0.
        4    1    3    3  502    0  0.54705622939E+03 -0.32410884229E+03  0.53091368817E+03  0.82836466423E+03  0.12699999809E+01 0.  1.
       -4    1    3    3    0  502 -0.54705622939E+03  0.32410884229E+03 -0.95206533151E+02  0.64294864228E+03  0.12699999809E+01 0. -1.
</event>
<event>
 5   0  0.3784219E-04  0.1381743E+04  0.7818609E-02  0.8967141E-01
        1   -1    0    0  501    0  0.00000000000E+00  0.00000000000E+00  0.11840237798E+04  0.11840237798E+04  0.50400001928E-02 0.  1.
       -1   -1    0    0    0  501  0.00000000000E+00  0.00000000000E+00 -0.40311959995E+03  0.40311959998E+03  0.50400001928E-02 0. -1.
    10030    2    1    2    0    0  0.00000000000E+00  0.00000000000E+00  0.78090417984E+03  0.15871433798E+04  0.13817426569E+04 0.  0.
        1    1    3    3  502    0  0.51775577208E+03 -0.12190964556E+03  0.89686390270E+03  0.10427357581E+04  0.50400001928E-02 0.  1.
       -1    1    3    3    0  502 -0.51775577208E+03  0.12190964556E+03 -0.11595972285E+03  0.54440762169E+03  0.50400001928E-02 0. -1.
</event>
<event>
 5   0  0.3756664E-04  0.1399239E+04  0.7818609E-02  0.8954370E-01
       -1   -1    0    0    0  501  0.00000000000E+00  0.00000000000E+00  0.14014134080E+04  0.14014134080E+04  0.50400001928E-02 0.  1.
        1   -1    0    0  501    0  0.00000000000E+00  0.00000000000E+00 -0.34926686361E+03  0.34926686364E+03  0.50400001928E-02 0. -1.
    10030    2    1    2    0    0  0.00000000000E+00  0.00000000000E+00  0.10521465444E+04  0.17506802717E+04  0.13992387440E+04 0.  0.
        2    1    3    3  502    0  0.27642825268E+03 -0.42532849855E+03  0.11289099835E+04  0.12376407643E+04  0.25500000920E-02 0.  1.
       -2    1    3    3    0  502 -0.27642825268E+03  0.42532849855E+03 -0.76763439081E+02  0.51303950740E+03  0.25500000920E-02 0. -1.
</event>
<event>
 5   0  0.7065539E-04  0.1400652E+04  0.7818609E-02  0.8953347E-01
        2   -1    0    0  501    0  0.00000000000E+00  0.00000000000E+00  0.70881095179E+03  0.70881095179E+03  0.25500000920E-02 0.  1.
       -2   -1    0    0    0  501  0.00000000000E+00  0.00000000000E+00 -0.69194276567E+03  0.69194276568E+03  0.25500000920E-02 0. -1.
    10030    2    1    2    0    0  0.00000000000E+00  0.00000000000E+00  0.16868186115E+02  0.14007537175E+04  0.14006521486E+04 0.  0.
        1    1    3    3  502    0 -0.66748691733E+03 -0.27906568612E+02  0.21854228108E+03  0.70290702801E+03  0.50400001928E-02 0.  1.
       -1    1    3    3    0  502  0.66748691733E+03  0.27906568612E+02 -0.20167409496E+03  0.69784668946E+03  0.50400001928E-02 0. -1.
</event>
<event>
 5   0  0.3977658E-04  0.1413155E+04  0.7818609E-02  0.8944351E-01
        1   -1    0    0  501    0  0.00000000000E+00  0.00000000000E+00  0.74928609228E+03  0.74928609230E+03  0.50400001928E-02 0.  1.
       -1   -1    0    0    0  501  0.00000000000E+00  0.00000000000E+00 -0.66630284196E+03  0.66630284198E+03  0.50400001928E-02 0. -1.
    10030    2    1    2    0    0  0.00000000000E+00  0.00000000000E+00  0.82983250319E+02  0.14155889343E+04  0.14131545602E+04 0.  0.
        5    1    3    3  502    0 -0.11649072770E+03  0.62769493015E+03 -0.26178120699E+03  0.69001630800E+03  0.46999998093E+01 0. -1.
       -5    1    3    3    0  502  0.11649072770E+03 -0.62769493015E+03  0.34476445731E+03  0.72557262628E+03  0.46999998093E+01 0.  1.
</event>
<event>
 5   0  0.7296966E-04  0.1397312E+04  0.7818609E-02  0.8955766E-01
        2   -1    0    0  501    0  0.00000000000E+00  0.00000000000E+00  0.16460991120E+04  0.16460991120E+04  0.25500000920E-02 0. -1.
       -2   -1    0    0    0  501  0.00000000000E+00  0.00000000000E+00 -0.29653153402E+03  0.29653153403E+03  0.25500000920E-02 0.  1.
    10030    2    1    2    0    0  0.00000000000E+00  0.00000000000E+00  0.13495675779E+04  0.19426306460E+04  0.13973121267E+04 0.  0.
        3    1    3    3  502    0 -0.35034421669E+03 -0.58385850655E+03  0.89234302952E+03  0.11224561989E+04  0.10100000352E+00 0. -1.
       -3    1    3    3    0  502  0.35034421669E+03  0.58385850655E+03  0.45722454841E+03  0.82017444712E+03  0.10100000352E+00 0.  1.
</event>
<event>
 5   0  0.6870835E-04  0.1376266E+04  0.7818609E-02  0.8971180E-01
        2   -1    0    0  501    0  0.00000000000E+00  0.00000000000E+00  0.21129155062E+04  0.21129155062E+04  0.25500000920E-02 0. -1.
       -2   -1    0    0    0  501  0.00000000000E+00  0.00000000000E+00 -0.22411064000E+03  0.22411064001E+03  0.25500000920E-02 0.  1.
    10030    2    1    2    0    0  0.00000000000E+00  0.00000000000E+00  0.18888048662E+04  0.23370261462E+04  0.13762657394E+04 0.  0.
        2    1    3    3  502    0 -0.64809781274E+03 -0.20641731666E+03  0.76721431801E+03  0.10253080968E+04  0.25500000920E-02 0.  1.
       -2    1    3    3    0  502  0.64809781274E+03  0.20641731666E+03  0.11215905482E+04  0.13117180495E+04  0.25500000920E-02 0. -1.
</event>
<event>
 5   0  0.6895048E-04  0.1418139E+04  0.7818609E-02  0.8940792E-01
       -2   -1    0    0    0  501  0.00000000000E+00  0.00000000000E+00  0.56316520505E+03  0.56316520506E+03  0.25500000920E-02 0. -1.
        2   -1    0    0  501    0  0.00000000000E+00  0.00000000000E+00 -0.89277434836E+03  0.89277434836E+03  0.25500000920E-02 0.  1.
    10030    2    1    2    0    0  0.00000000000E+00  0.00000000000E+00 -0.32960914331E+03  0.14559395534E+04  0.14181388493E+04 0.  0.
        4    1    3    3  502    0  0.12355791234E+03  0.45800270395E+03  0.37625808390E+03  0.60547897827E+03  0.12699999809E+01 0. -1.
       -4    1    3    3    0  502 -0.12355791234E+03 -0.45800270395E+03 -0.70586722721E+03  0.85046057515E+03  0.12699999809E+01 0.  1.
</event>
<event>
 5   0  0.7296966E-04  0.1372822E+04  0.7818609E-02  0.8973730E-01
       -2   -1    0    0    0  501  0.00000000000E+00  0.00000000000E+00  0.77416072939E+03  0.77416072939E+03  0.25500000920E-02 0.  1.
        2   -1    0    0  501    0  0.00000000000E+00  0.00000000000E+00 -0.60860751991E+03  0.60860751991E+03  0.25500000920E-02 0. -1.
    10030    2    1    2    0    0  0.00000000000E+00  0.00000000000E+00  0.16555320948E+03  0.13827682493E+04  0.13728219717E+04 0.  0.
        3    1    3    3  502    0 -0.80545500770E+02 -0.39038910925E+03  0.64563542047E+03  0.75877291773E+03  0.10100000352E+00 0.  1.
       -3    1    3    3    0  502  0.80545500770E+02  0.39038910925E+03 -0.48008221099E+03  0.62399533157E+03  0.10100000352E+00 0. -1.
</event>
<event>
 5   0  0.3784219E-04  0.1411021E+04  0.7818609E-02  0.8945880E-01
       -1   -1    0    0    0  501  0.00000000000E+00  0.00000000000E+00  0.91869585132E+03  0.91869585134E+03  0.50400001928E-02 0. -1.
        1   -1    0    0  501    0  0.00000000000E+00  0.00000000000E+00 -0.54179515104E+03  0.54179515106E+03  0.50400001928E-02 0.  1.
    10030    2    1    2    0    0  0.00000000000E+00  0.00000000000E+00  0.37690070029E+03  0.14604910024E+04  0.14110208468E+04 0.  0.
        1    1    3    3  502    0  0.20195038899E+03  0.31117689357E+03  0.80959831867E+03  0.89054166457E+03  0.50400001928E-02 0. -1.
       -1    1    3    3    0  502 -0.20195038899E+03 -0.31117689357E+03 -0.43269761839E+03  0.56994933783E+03  0.50400001928E-02 0.  1.
</event>
<event>
 5   0  0.3977658E-04  0.1402723E+04  0.7818609E-02  0.8951850E-01
        1   -1    0    0  501    0  0.00000000000E+00  0.00000000000E+00  0.60625971524E+03  0.60625971526E+03  0.50400001928E-02 0.  1.
       -1   -1    0    0    0  501  0.00000000000E+00  0.00000000000E+00 -0.81138161837E+03  0.81138161838E+03  0.50400001928E-02 0. -1.
    10030    2    1    2    0    0  0.00000000000E+00  0.00000000000E+00 -0.20512190313E+03  0.14176413336E+04  0.14027230503E+04 0.  0.
        5    1    3    3  502    0 -0.50784061433E+02  0.69277251599E+03 -0.20040547037E+03  0.72297802343E+03  0.46999998093E+01 0. -1.
       -5    1    3    3    0  502  0.50784061433E+02 -0.69277251599E+03 -0.47164327545E+01  0.69466331021E+03  0.46999998093E+01 0.  1.
</event>
<event>
 5   0  0.2660250E-04  0.1403128E+04  0.7818609E-02  0.8951558E-01
        3   -1    0    0  501    0  0.00000000000E+00  0.00000000000E+00  0.57122274699E+03  0.57122275592E+03  0.10100000352E+00 0. -1.
       -3   -1    0    0    0  501  0.00000000000E+00  0.00000000000E+00 -0.86164593603E+03  0.86164594195E+03  0.10100000352E+00 0.  1.
    10030    2    1    2    0    0  0.00000000000E+00  0.00000000000E+00 -0.29042318904E+03  0.14328686979E+04  0.14031276053E+04 0.  0.
        4    1    3    3  502    0 -0.50101766423E+03 -0.28375402758E+03  0.26410230784E+03  0.63347193304E+03  0.12699999809E+01 0. -1.
       -4    1    3    3    0  502  0.50101766423E+03  0.28375402758E+03 -0.55452549688E+03  0.79939676484E+03  0.12699999809E+01 0.  1.
</event>
<event>
 5   0  0.6895048E-04  0.1397388E+04  0.7818609E-02  0.8955711E-01
        2   -1    0    0  501    0  0.00000000000E+00  0.00000000000E+00  0.10693191753E+04  0.10693191753E+04  0.25500000920E-02 0.  1.
       -2   -1    0    0    0  501  0.00000000000E+00  0.00000000000E+00 -0.45652732341E+03  0.45652732342E+03  0.25500000920E-02 0. -1.
    10030    2    1    2    0    0  0.00000000000E+00  0.00000000000E+00  0.61279185187E+03  0.15258464987E+04  0.13973881651E+04 0.  0.
        4    1    3    3  502    0 -0.76015068517E+02  0.37152630278E+03 -0.33437267359E+03  0.50558558330E+03  0.12699999809E+01 0. -1.
       -4    1    3    3    0  502  0.76015068517E+02 -0.37152630278E+03  0.94716452545E+03  0.10202609154E+04  0.12699999809E+01 0.  1.
</event>
<event>
 5   0  0.6870835E-04  0.1404056E+04  0.7818609E-02  0.8950888E-01
        2   -1    0    0  501    0  0.00000000000E+00  0.00000000000E+00  0.68866435664E+03  0.68866435665E+03  0.25500000920E-02 0. -1.
       -2   -1    0    0    0  501  0.00000000000E+00  0.00000000000E+00 -0.71565121696E+03  0.71565121696E+03  0.25500000920E-02 0.  1.
    10030    2    1    2    0    0  0.00000000000E+00  0.00000000000E+00 -0.26986860320E+02  0.14043155736E+04  0.14040562452E+04 0.  0.
        2    1    3    3  502    0 -0.59429430133E+03 -0.20492531989E+03 -0.32606256116E+03  0.70816445627E+03  0.25500000920E-02 0.  1.
       -2    1    3    3    0  502  0.59429430133E+03  0.20492531989E+03  0.29907570084E+03  0.69615111734E+03  0.25500000920E-02 0. -1.
</event>
<event>
 5   0  0.3756664E-04  0.1393237E+04  0.7818609E-02  0.8958729E-01
       -1   -1    0    0    0  501  0.00000000000E+00  0.00000000000E+00  0.36363440602E+03  0.36363440606E+03  0.50400001928E-02 0.  1.
        1   -1    0    0  501    0  0.00000000000E+00  0.00000000000E+00 -0.13345196744E+04  0.13345196744E+04  0.50400001928E-02 0. -1.
    10030    2    1    2    0    0  0.00000000000E+00  0.00000000000E+00 -0.97088526838E+03  0.16981540805E+04  0.13932369062E+04 0.  0.
        2    1    3    3  502    0 -0.36328754789E+03 -0.57104184855E+03 -0.68650067790E+03  0.96402791246E+03  0.25500000920E-02 0. -1.
       -2    1    3    3    0  502  0.36328754789E+03  0.57104184855E+03 -0.28438459048E+03  0.73412616801E+03  0.25500000920E-02 0.  1.
</event>
<event>
 5   0  0.2660250E-04  0.1321667E+04  0.7818609E-02  0.9012557E-01
       -4   -1    0    0    0  501  0.00000000000E+00  0.00000000000E+00  0.54925086811E+03  0.54925233639E+03  0.12699999809E+01 0. -1.
        4   -1    0    0  501    0  0.00000000000E+00  0.00000000000E+00 -0.79508142531E+03  0.79508243961E+03  0.12699999809E+01 0.  1.
    10030    2    1    2    0    0  0.00000000000E+00  0.00000000000E+00 -0.24583055720E+03  0.13443347760E+04  0.13216668745E+04 0.  0.
        1    1    3    3  502    0  0.95153414305E+02 -0.46297521319E+03  0.34685061049E+03  0.58626407557E+03  0.50400001928E-02 0. -1.
       -1    1    3    3    0  502 -0.95153414305E+02  0.46297521319E+03 -0.59268116768E+03  0.75807070042E+03  0.50400001928E-02 0.  1.
</event>
<event>
 5   0  0.7065539E-04  0.1403246E+04  0.7818609E-02  0.8951473E-01
       -2   -1    0    0    0  501  0.00000000000E+00  0.00000000000E+00  0.76045869202E+03  0.76045869202E+03  0.25500000920E-02 0.  1.
        2   -1    0    0  501    0  0.00000000000E+00  0.00000000000E+00 -0.64733895720E+03  0.64733895721E+03  0.25500000920E-02 0. -1.
    10030    2    1    2    0    0  0.00000000000E+00  0.00000000000E+00  0.11311973481E+03  0.14077976492E+04  0.14032455761E+04 0.  0.
        1    1    3    3  502    0 -0.44657834234E+03  0.51781357804E+03  0.21426847527E+03  0.71657106903E+03  0.50400001928E-02 0. -1.
       -1    1    3    3    0  502  0.44657834234E+03 -0.51781357804E+03 -0.10114874046E+03  0.69122658020E+03  0.50400001928E-02 0.  1.
</event>
<event>
 5   0  0.3907093E-04  0.1398077E+04  0.7818609E-02  0.8955212E-01
        1   -1    0    0  501    0  0.00000000000E+00  0.00000000000E+00  0.11707771460E+04  0.11707771461E+04  0.50400001928E-02 0. -1.
       -1   -1    0    0    0  501  0.00000000000E+00  0.00000000000E+00 -0.41737641382E+03  0.41737641385E+03  0.50400001928E-02 0.  1.
    10030    2    1    2    0    0  0.00000000000E+00  0.00000000000E+00  0.75340073223E+03  0.15881535599E+04  0.13980769172E+04 0.  0.
        4    1    3    3  502    0  0.36640174956E+03  0.14640775445E+03  0.10321849283E+04  0.11050306837E+04  0.12699999809E+01 0. -1.
       -4    1    3    3    0  502 -0.36640174956E+03 -0.14640775445E+03 -0.27878419611E+03  0.48312287624E+03  0.12699999809E+01 0.  1.
</event>
<event>
 5   0  0.3977658E-04  0.1399349E+04  0.7818609E-02  0.8954290E-01
        1   -1    0    0  501    0  0.00000000000E+00  0.00000000000E+00  0.93011843316E+03  0.93011843317E+03  0.50400001928E-02 0. -1.
       -1   -1    0    0    0  501  0.00000000000E+00  0.00000000000E+00 -0.52632500797E+03  0.52632500799E+03  0.50400001928E-02 0.  1.
    10030    2    1    2    0    0  0.00000000000E+00  0.00000000000E+00  0.40379342519E+03  0.14564434412E+04  0.13993492656E+04 0.  0.
        5    1    3    3  502    0  0.42299675400E+03  0.13934534742E+02  0.78176560191E+03  0.88898817286E+03  0.46999998093E+01 0. -1.
       -5    1    3    3    0  502 -0.42299675400E+03 -0.13934534742E+02 -0.37797217672E+03  0.56745526831E+03  0.46999998093E+01 0.  1.
</event>
<event>
 5   0  0.3784219E-04  0.1400151E+04  0.7818609E-02  0.8953709E-01
        1   -1    0    0  501    0  0.00000000000E+00  0.00000000000E+00  0.79930299921E+03  0.79930299923E+03  0.50400001928E-02 0. -1.
       -1   -1    0    0    0  501  0.00000000000E+00  0.00000000000E+00 -0.61316610020E+03  0.61316610022E+03  0.50400001928E-02 0.  1.
    10030    2    1    2    0    0  0.00000000000E+00  0.00000000000E+00  0.18613689901E+03  0.14124690995E+04  0.14001507104E+04 0.  0.
        1    1    3    3  502    0 -0.59790444739E+03 -0.12477248675E+03  0.43820060941E+03  0.75171648630E+03  0.50400001928E-02 0.  1.
       -1    1    3    3    0  502  0.59790444739E+03  0.12477248675E+03 -0.25206371040E+03  0.66075261315E+03  0.50400001928E-02 0. -1.
</event>
<event>
 5   0  0.3907270E-04  0.1408306E+04  0.7818609E-02  0.8947828E-01
        1   -1    0    0  501    0  0.00000000000E+00  0.00000000000E+00  0.89048421164E+03  0.89048421165E+03  0.50400001928E-02 0.  1.
       -1   -1    0    0    0  501  0.00000000000E+00  0.00000000000E+00 -0.55681143693E+03  0.55681143695E+03  0.50400001928E-02 0. -1.
    10030    2    1    2    0    0  0.00000000000E+00  0.00000000000E+00  0.33367277471E+03  0.14472956486E+04  0.14083064915E+04 0.  0.
        3    1    3    3  502    0  0.58060775475E+03 -0.87303376427E+02 -0.23264709787E+03  0.63154724824E+03  0.10100000352E+00 0. -1.
       -3    1    3    3    0  502 -0.58060775475E+03  0.87303376427E+02  0.56631987258E+03  0.81574840036E+03  0.10100000352E+00 0.  1.
</event>
<event>
 5   0  0.7065539E-04  0.1396394E+04  0.7818609E-02  0.8956433E-01
        2   -1    0    0  501    0  0.00000000000E+00  0.00000000000E+00  0.10112567987E+04  0.10112567987E+04  0.25500000920E-02 0.  1.
       -2   -1    0    0    0  501  0.00000000000E+00  0.00000000000E+00 -0.48205293278E+03  0.48205293279E+03  0.25500000920E-02 0. -1.
    10030    2    1    2    0    0  0.00000000000E+00  0.00000000000E+00  0.52920386596E+03  0.14933097315E+04  0.13963943650E+04 0.  0.
        1    1    3    3  502    0 -0.43283559899E+02  0.47359612555E+03 -0.28206391233E+03  0.55292567977E+03  0.50400001928E-02 0. -1.
       -1    1    3    3    0  502  0.43283559899E+02 -0.47359612555E+03  0.81126777828E+03  0.94038405176E+03  0.50400001928E-02 0.  1.
</event>
<event>
 5   0  0.7065539E-04  0.1401603E+04  0.7818609E-02  0.8952659E-01
        2   -1    0    0  501    0  0.00000000000E+00  0.00000000000E+00  0.14855347465E+04  0.14855347465E+04  0.25500000920E-02 0.  1.
       -2   -1    0    0    0  501  0.00000000000E+00  0.00000000000E+00 -0.33060321291E+03  0.33060321292E+03  0.25500000920E-02 0. -1.
    10030    2    1    2    0    0  0.00000000000E+00  0.00000000000E+00  0.11549315336E+04  0.18161379594E+04  0.14016027398E+04 0.  0.
        1    1    3    3  502    0  0.21243097120E+03  0.54774875545E+03  0.82413384247E+02  0.59325170252E+03  0.50400001928E-02 0. -1.
       -1    1    3    3    0  502 -0.21243097120E+03 -0.54774875545E+03  0.10725181493E+04  0.12228862569E+04  0.50400001928E-02 0.  1.
</event>
<event>
 5   0  0.2660250E-04  0.1392412E+04  0.7818609E-02  0.8959329E-01
       -3   -1    0    0    0  501  0.00000000000E+00  0.00000000000E+00  0.19144590752E+03  0.19144593416E+03  0.10100000352E+00 0. -1.
        3   -1    0    0  501    0  0.00000000000E+00  0.00000000000E+00 -0.25318007507E+04  0.25318007527E+04  0.10100000352E+00 0.  1.
    10030    2    1    2    0    0  0.00000000000E+00  0.00000000000E+00 -0.23403548432E+04  0.27232466869E+04  0.13924121967E+04 0.  0.
        2    1    3    3  502    0  0.64750011622E+03  0.23669563306E+03 -0.98033905452E+03  0.11984764850E+04  0.25500000920E-02 0.  1.
       -2    1    3    3    0  502 -0.64750011622E+03 -0.23669563306E+03 -0.13600157886E+04  0.15247702019E+04  0.25500000920E-02 0. -1.
</event>
<event>
 5   0  0.6895048E-04  0.1406785E+04  0.7818609E-02  0.8948922E-01
        2   -1    0    0  501    0  0.00000000000E+00  0.00000000000E+00  0.72763438715E+03  0.72763438715E+03  0.25500000920E-02 0.  1.
       -2   -1    0    0    0  501  0.00000000000E+00  0.00000000000E+00 -0.67995782447E+03  0.67995782447E+03  0.25500000920E-02 0. -1.
    10030    2    1    2    0    0  0.00000000000E+00  0.00000000000E+00  0.47676562679E+02  0.14075922116E+04  0.14067845534E+04 0.  0.
        4    1    3    3  502    0  0.22340866973E+03 -0.63008287263E+03 -0.19501823066E+03  0.69638321582E+03  0.12699999809E+01 0.  1.
       -4    1    3    3    0  502 -0.22340866973E+03  0.63008287263E+03  0.24269479334E+03  0.71120899580E+03  0.12699999809E+01 0. -1.
</event>
<event>
 5   0  0.3756664E-04  0.1310198E+04  0.7818609E-02  0.9021517E-01
       -1   -1    0    0    0  501  0.00000000000E+00  0.00000000000E+00  0.29555877417E+03  0.29555877422E+03  0.50400001928E-02 0.  1.
        1   -1    0    0  501    0  0.00000000000E+00  0.00000000000E+00 -0.14520117411E+04  0.14520117411E+04  0.50400001928E-02 0. -1.
    10030    2    1    2    0    0  0.00000000000E+00  0.00000000000E+00 -0.11564529669E+04  0.17475705153E+04  0.13101981687E+04 0.  0.
        2    1    3    3  502    0  0.15922412215E+03 -0.43119526500E+03 -0.12008127833E+04  0.12857810926E+04  0.25500000920E-02 0. -1.
       -2    1    3    3    0  502 -0.15922412215E+03  0.43119526500E+03  0.44359816334E+02  0.46178942273E+03  0.25500000920E-02 0.  1.
</event>
<event>
 5   0  0.6959748E-04  0.1393785E+04  0.7818609E-02  0.8958330E-01
       -2   -1    0    0    0  501  0.00000000000E+00  0.00000000000E+00  0.23429852731E+03  0.23429852732E+03  0.25500000920E-02 0. -1.
        2   -1    0    0  501    0  0.00000000000E+00  0.00000000000E+00 -0.20728212085E+04  0.20728212085E+04  0.25500000920E-02 0.  1.
    10030    2    1    2    0    0  0.00000000000E+00  0.00000000000E+00 -0.18385226812E+04  0.23071197358E+04  0.13937847130E+04 0.  0.
        5    1    3    3  502    0  0.30487857500E+03  0.43950908747E+03 -0.17988570747E+03  0.56435816749E+03  0.46999998093E+01 0. -1.
       -5    1    3    3    0  502 -0.30487857500E+03 -0.43950908747E+03 -0.16586369737E+04  0.17427615683E+04  0.46999998093E+01 0.  1.
</event>
<event>
 5   0  0.6959748E-04  0.1406469E+04  0.7818609E-02  0.8949149E-01
        2   -1    0    0  501    0  0.00000000000E+00  0.00000000000E+00  0.27306576980E+04  0.27306576980E+04  0.25500000920E-02 0. -1.
       -2   -1    0    0    0  501  0.00000000000E+00  0.00000000000E+00 -0.18110602889E+03  0.18110602891E+03  0.25500000920E-02 0.  1.
    10030    2    1    2    0    0  0.00000000000E+00  0.00000000000E+00  0.25495516691E+04  0.29117637269E+04  0.14064687298E+04 0.  0.
        5    1    3    3  502    0  0.34817123740E+03 -0.39908852621E+03  0.31701985111E+03  0.61726699110E+03  0.46999998093E+01 0.  1.
       -5    1    3    3    0  502 -0.34817123740E+03  0.39908852621E+03  0.22325318180E+04  0.22944967358E+04  0.46999998093E+01 0. -1.
</event>
<event>
 5   0  0.7296966E-04  0.1396775E+04  0.7818609E-02  0.8956156E-01
       -2   -1    0    0    0  501  0.00000000000E+00  0.00000000000E+00  0.13820769606E+04  0.13820769606E+04  0.25500000920E-02 0. -1.
        2   -1    0    0  501    0  0.00000000000E+00  0.00000000000E+00 -0.35290727667E+03  0.35290727668E+03  0.25500000920E-02 0.  1.
    10030    2    1    2    0    0  0.00000000000E+00  0.00000000000E+00  0.10291696840E+04  0.17349842373E+04  0.13967748800E+04 0.  0.
        3    1    3    3  502    0 -0.16003659153E+03 -0.17414786335E+03  0.13308163624E+04  0.13516698523E+04  0.10100000352E+00 0. -1.
       -3    1    3    3    0  502  0.16003659153E+03  0.17414786335E+03 -0.30164667845E+03  0.38331438502E+03  0.10100000352E+00 0.  1.
</event>
<event>
 5   0  0.6959748E-04  0.1434149E+04  0.7818609E-02  0.8929464E-01
        2   -1    0    0  501    0  0.00000000000E+00  0.00000000000E+00  0.14597048510E+04  0.14597048510E+04  0.25500000920E-02 0. -1.
       -2   -1    0    0    0  501  0.00000000000E+00  0.00000000000E+00 -0.35225990618E+03  0.35225990619E+03  0.25500000920E-02 0.  1.
    10030    2    1    2    0    0  0.00000000000E+00  0.00000000000E+00  0.11074449448E+04  0.18119647572E+04  0.14341485193E+04 0.  0.
        5    1    3    3  502    0  0.36705709288E+03  0.18316997144E+03 -0.18934013843E+03  0.45183395832E+03  0.46999998093E+01 0.  1.
       -5    1    3    3    0  502 -0.36705709288E+03 -0.18316997144E+03  0.12967850832E+04  0.13601307988E+04  0.46999998093E+01 0. -1.
</event>
<event>
 5   0  0.6870835E-04  0.1401055E+04  0.7818609E-02  0.8953055E-01
        2   -1    0    0  501    0  0.00000000000E+00  0.00000000000E+00  0.71166753380E+03  0.71166753381E+03  0.25500000920E-02 0.  1.
       -2   -1    0    0    0  501  0.00000000000E+00  0.00000000000E+00 -0.68956165687E+03  0.68956165687E+03  0.25500000920E-02 0. -1.
    10030    2    1    2    0    0  0.00000000000E+00  0.00000000000E+00  0.22105876936E+02  0.14012291907E+04  0.14010548080E+04 0.  0.
        2    1    3    3  502    0  0.37231527464E+03  0.56015925466E+03 -0.18478151823E+03  0.69752509904E+03  0.25500000920E-02 0. -1.
       -2    1    3    3    0  502 -0.37231527464E+03 -0.56015925466E+03  0.20688739516E+03  0.70370409164E+03  0.25500000920E-02 0.  1.
</event>
<event>
 5   0  0.6959748E-04  0.1397148E+04  0.7818609E-02  0.8955885E-01
        2   -1    0    0  501    0  0.00000000000E+00  0.00000000000E+00  0.15669104997E+04  0.15669104997E+04  0.25500000920E-02 0. -1.
       -2   -1    0    0    0  501  0.00000000000E+00  0.00000000000E+00 -0.31144456607E+03  0.31144456608E+03  0.25500000920E-02 0.  1.
    10030    2    1    2    0    0  0.00000000000E+00  0.00000000000E+00  0.12554659337E+04  0.18783550658E+04  0.13971481821E+04 0.  0.
        5    1    3    3  502    0  0.13204940476E+03  0.59996661027E+03  0.10748144200E+04  0.12380004468E+04  0.46999998093E+01 0. -1.
       -5    1    3    3    0  502 -0.13204940476E+03 -0.59996661027E+03  0.18065151363E+03  0.64035461903E+03  0.46999998093E+01 0.  1.
</event>
<event>
 5   0  0.6870835E-04  0.1394191E+04  0.7818609E-02  0.8958034E-01
        2   -1    0    0  501    0  0.00000000000E+00  0.00000000000E+00  0.23201977251E+04  0.23201977251E+04  0.25500000920E-02 0. -1.
       -2   -1    0    0    0  501  0.00000000000E+00  0.00000000000E+00 -0.20943995214E+03  0.20943995216E+03  0.25500000920E-02 0.  1.
    10030    2    1    2    0    0  0.00000000000E+00  0.00000000000E+00  0.21107577730E+04  0.25296376773E+04  0.13941909489E+04 0.  0.
        2    1    3    3  502    0 -0.62871982113E+03  0.15345480257E+03  0.15253962049E+04  0.16570065093E+04  0.25500000920E-02 0. -1.
       -2    1    3    3    0  502  0.62871982113E+03 -0.15345480257E+03  0.58536156801E+03  0.87263116792E+03  0.25500000920E-02 0.  1.
</event>
<event>
 5   0  0.6895048E-04  0.1401596E+04  0.7818609E-02  0.8952664E-01
       -2   -1    0    0    0  501  0.00000000000E+00  0.00000000000E+00  0.73561577581E+03  0.73561577582E+03  0.25500000920E-02 0.  1.
        2   -1    0    0  501    0  0.00000000000E+00  0.00000000000E+00 -0.66762800433E+03  0.66762800434E+03  0.25500000920E-02 0. -1.
    10030    2    1    2    0    0  0.00000000000E+00  0.00000000000E+00  0.67987771478E+02  0.14032437802E+04  0.14015957939E+04 0.  0.
        4    1    3    3  502    0  0.16157859839E+03  0.49659977334E+03 -0.43388535354E+03  0.67895293744E+03  0.12699999809E+01 0. -1.
       -4    1    3    3    0  502 -0.16157859839E+03 -0.49659977334E+03  0.50187312502E+03  0.72429084272E+03  0.12699999809E+01 0.  1.
</event>
<event>
 5   0  0.7065539E-04  0.1396219E+04  0.7818609E-02  0.8956560E-01
       -2   -1    0    0    0  501  0.00000000000E+00  0.00000000000E+00  0.25923103816E+03  0.25923103817E+03  0.25500000920E-02 0. -1.
        2   -1    0    0  501    0  0.00000000000E+00  0.00000000000E+00 -0.18800106860E+04  0.18800106860E+04  0.25500000920E-02 0.  1.
    10030    2    1    2    0    0  0.00000000000E+00  0.00000000000E+00 -0.16207796479E+04  0.21392417242E+04  0.13962193551E+04 0.  0.
        1    1    3    3  502    0 -0.56697489276E+03  0.40282652355E+03 -0.71811079409E+03  0.99970638175E+03  0.50400001928E-02 0. -1.
       -1    1    3    3    0  502  0.56697489276E+03 -0.40282652355E+03 -0.90266885378E+03  0.11395353425E+04  0.50400001928E-02 0.  1.
</event>
<event>
 5   0  0.3784219E-04  0.1400589E+04  0.7818609E-02  0.8953392E-01
        1   -1    0    0  501    0  0.00000000000E+00  0.00000000000E+00  0.10862769115E+04  0.10862769115E+04  0.50400001928E-02 0.  1.
       -1   -1    0    0    0  501  0.00000000000E+00  0.00000000000E+00 -0.45146169807E+03  0.45146169810E+03  0.50400001928E-02 0. -1.
    10030    2    1    2    0    0  0.00000000000E+00  0.00000000000E+00  0.63481521340E+03  0.15377386096E+04  0.14005890462E+04 0.  0.
        1    1    3    3  502    0  0.19998104262E+03  0.35354013536E+02 -0.41842191940E+03  0.46510130760E+03  0.50400001928E-02 0. -1.
       -1    1    3    3    0  502 -0.19998104262E+03 -0.35354013536E+02  0.10532371328E+04  0.10726373020E+04  0.50400001928E-02 0.  1.
</event>
<event>
 5   0  0.3977658E-04  0.1396241E+04  0.7818609E-02  0.8956544E-01
        1   -1    0    0  501    0  0.00000000000E+00  0.00000000000E+00  0.19528802145E+04  0.19528802146E+04  0.50400001928E-02 0. -1.
       -1   -1    0    0    0  501  0.00000000000E+00  0.00000000000E+00 -0.24956585239E+03  0.24956585244E+03  0.50400001928E-02 0.  1.
    10030    2    1    2    0    0  0.00000000000E+00  0.00000000000E+00  0.17033143622E+04  0.22024460670E+04  0.13962409755E+04 0.  0.
        5    1    3    3  502    0 -0.39517133082E+03 -0.20800417019E+03  0.16980731419E+04  0.17558190684E+04  0.46999998093E+01 0. -1.
       -5    1    3    3    0  502  0.39517133082E+03  0.20800417019E+03  0.52412202490E+01  0.44662699863E+03  0.46999998093E+01 0.  1.
</event>
<event>
 5   0  0.3756664E-04  0.1396391E+04  0.7818609E-02  0.8956435E-01
       -1   -1    0    0    0  501  0.00000000000E+00  0.00000000000E+00  0.37811995568E+03  0.37811995572E+03  0.50400001928E-02 0. -1.
        1   -1    0    0  501    0  0.00000000000E+00  0.00000000000E+00 -0.12892125456E+04  0.12892125456E+04  0.50400001928E-02 0.  1.
    10030    2    1    2    0    0  0.00000000000E+00  0.00000000000E+00 -0.91109258992E+03  0.16673325013E+04  0.13963910493E+04 0.  0.
        2    1    3    3  502    0  0.13548117103E+03 -0.31474652953E+03  0.27080908494E+03  0.43675861302E+03  0.25500000920E-02 0. -1.
       -2    1    3    3    0  502 -0.13548117103E+03  0.31474652953E+03 -0.11819016749E+04  0.12305738883E+04  0.25500000920E-02 0.  1.
</event>
<event>
 5   0  0.3977658E-04  0.1389079E+04  0.7818609E-02  0.8961762E-01
       -1   -1    0    0    0  501  0.00000000000E+00  0.00000000000E+00  0.80641620006E+03  0.80641620008E+03  0.50400001928E-02 0.  1.
        1   -1    0    0  501    0  0.00000000000E+00  0.00000000000E+00 -0.59818386997E+03  0.59818386999E+03  0.50400001928E-02 0. -1.
    10030    2    1    2    0    0  0.00000000000E+00  0.00000000000E+00  0.20823233010E+03  0.14046000701E+04  0.13890790667E+04 0.  0.
        5    1    3    3  502    0  0.22580829752E+02  0.67982781391E+03 -0.37763139814E+02  0.68126639074E+03  0.46999998093E+01 0.  1.
       -5    1    3    3    0  502 -0.22580829752E+02 -0.67982781391E+03  0.24599546991E+03  0.72333367932E+03  0.46999998093E+01 0. -1.
</event>
<event>
 5   0  0.7065539E-04  0.1386305E+04  0.7818609E-02  0.8963792E-01
        2   -1    0    0  501    0  0.00000000000E+00  0.00000000000E+00  0.17785500728E+04  0.17785500728E+04  0.25500000920E-02 0. -1.
       -2   -1    0    0    0  501  0.00000000000E+00  0.00000000000E+00 -0.27014173506E+03  0.27014173507E+03  0.25500000920E-02 0.  1.
    10030    2    1    2    0    0  0.00000000000E+00  0.00000000000E+00  0.15084083378E+04  0.20486918079E+04  0.13863053092E+04 0.  0.
        1    1    3    3  502    0 -0.30776572713E+03  0.14750036614E+03  0.16457818544E+04  0.16807956488E+04  0.50400001928E-02 0. -1.
       -1    1    3    3    0  502  0.30776572713E+03 -0.14750036614E+03 -0.13737351659E+03  0.36789615911E+03  0.50400001928E-02 0.  1.
</event>
<event>
 5   0  0.6895048E-04  0.1381624E+04  0.7818609E-02  0.8967229E-01
       -2   -1    0    0    0  501  0.00000000000E+00  0.00000000000E+00  0.62055555076E+03  0.62055555077E+03  0.25500000920E-02 0.  1.
        2   -1    0    0  501    0  0.00000000000E+00  0.00000000000E+00 -0.76902214425E+03  0.76902214426E+03  0.25500000920E-02 0. -1.
    10030    2    1    2    0    0  0.00000000000E+00  0.00000000000E+00 -0.14846659349E+03  0.13895776950E+04  0.13816236250E+04 0.  0.
        4    1    3    3  502    0 -0.36735772280E+03 -0.37928899469E+03  0.37376064008E+03  0.64692384943E+03  0.12699999809E+01 0. -1.
       -4    1    3    3    0  502  0.36735772280E+03  0.37928899469E+03 -0.52222723357E+03  0.74265384559E+03  0.12699999809E+01 0.  1.
</event>
<event>
 5   0  0.3907093E-04  0.1417398E+04  0.7818609E-02  0.8941321E-01
        1   -1    0    0  501    0  0.00000000000E+00  0.00000000000E+00  0.39327755919E+03  0.39327755922E+03  0.50400001928E-02 0. -1.
       -1   -1    0    0    0  501  0.00000000000E+00  0.00000000000E+00 -0.12770980868E+04  0.12770980868E+04  0.50400001928E-02 0.  1.
    10030    2    1    2    0    0  0.00000000000E+00  0.00000000000E+00 -0.88382052757E+03  0.16703756460E+04  0.14173976414E+04 0.  0.
        4    1    3    3  502    0 -0.27533863688E+03  0.16810004452E+03  0.30173193697E+03  0.44171570565E+03  0.12699999809E+01 0. -1.
       -4    1    3    3    0  502  0.27533863688E+03 -0.16810004452E+03 -0.11855524645E+04  0.12286599403E+04  0.12699999809E+01 0.  1.
</event>
<event>
 5   0  0.3756664E-04  0.1402360E+04  0.7818609E-02  0.8952112E-01
        1   -1    0    0  501    0  0.00000000000E+00  0.00000000000E+00  0.19976808033E+04  0.19976808033E+04  0.50400001928E-02 0. -1.
       -1   -1    0    0    0  501  0.00000000000E+00  0.00000000000E+00 -0.24611191361E+03  0.24611191366E+03  0.50400001928E-02 0.  1.
    10030    2    1    2    0    0  0.00000000000E+00  0.00000000000E+00  0.17515688897E+04  0.22437927170E+04  0.14023595051E+04 0.  0.
        2    1    3    3  502    0  0.14898036829E+03 -0.30459986308E+03  0.18577761480E+04  0.18884672205E+04  0.25500000920E-02 0. -1.
       -2    1    3    3    0  502 -0.14898036829E+03  0.30459986308E+03 -0.10620725832E+03  0.35532549649E+03  0.25500000920E-02 0.  1.
</event>
<event>
 5   0  0.3756664E-04  0.1398680E+04  0.7818609E-02  0.8954774E-01
       -1   -1    0    0    0  501  0.00000000000E+00  0.00000000000E+00  0.34243997364E+03  0.34243997367E+03  0.50400001928E-02 0.  1.
        1   -1    0    0  501    0  0.00000000000E+00  0.00000000000E+00 -0.14282112039E+04  0.14282112039E+04  0.50400001928E-02 0. -1.
    10030    2    1    2    0    0  0.00000000000E+00  0.00000000000E+00 -0.10857712302E+04  0.17706511776E+04  0.13986802452E+04 0.  0.
        2    1    3    3  502    0  0.23528342698E+02 -0.20157011993E+03  0.30434467058E+03  0.36580018408E+03  0.25500000920E-02 0.  1.
       -2    1    3    3    0  502 -0.23528342698E+02  0.20157011993E+03 -0.13901159008E+04  0.14048509935E+04  0.25500000920E-02 0. -1.
</event>
<event>
 5   0  0.6870835E-04  0.1399985E+04  0.7818609E-02  0.8953829E-01
        2   -1    0    0  501    0  0.00000000000E+00  0.00000000000E+00  0.51480540124E+03  0.51480540124E+03  0.25500000920E-02 0. -1.
       -2   -1    0    0    0  501  0.00000000000E+00  0.00000000000E+00 -0.95179610841E+03  0.95179610842E+03  0.25500000920E-02 0.  1.
    10030    2    1    2    0    0  0.00000000000E+00  0.00000000000E+00 -0.43699070718E+03  0.14666015097E+04  0.13999853963E+04 0.  0.
        2    1    3    3  502    0 -0.54300774665E+03  0.42061443879E+03 -0.77107063064E+02  0.69117249527E+03  0.25500000920E-02 0.  1.
       -2    1    3    3    0  502  0.54300774665E+03 -0.42061443879E+03 -0.35988364411E+03  0.77542901438E+03  0.25500000920E-02 0. -1.
</event>
<event>
 5   0  0.3784219E-04  0.1386398E+04  0.7818609E-02  0.8963724E-01
        1   -1    0    0  501    0  0.00000000000E+00  0.00000000000E+00  0.13243660078E+04  0.13243660078E+04  0.50400001928E-02 0. -1.
       -1   -1    0    0    0  501  0.00000000000E+00  0.00000000000E+00 -0.36283381477E+03  0.36283381480E+03  0.50400001928E-02 0.  1.
    10030    2    1    2    0    0  0.00000000000E+00  0.00000000000E+00  0.96153219302E+03  0.16871998226E+04  0.13863978805E+04 0.  0.
        1    1    3    3  502    0 -0.61552606983E+03 -0.17727013438E+03  0.15826370223E+03  0.65980636754E+03  0.50400001928E-02 0.  1.
       -1    1    3    3    0  502  0.61552606983E+03  0.17727013438E+03  0.80326849080E+03  0.10273934551E+04  0.50400001928E-02 0. -1.
</event>
<event>
 5   0  0.3756664E-04  0.1405091E+04  0.7818609E-02  0.8950142E-01
        1   -1    0    0  501    0  0.00000000000E+00  0.00000000000E+00  0.15038494577E+04  0.15038494577E+04  0.50400001928E-02 0.  1.
       -1   -1    0    0    0  501  0.00000000000E+00  0.00000000000E+00 -0.32820436392E+03  0.32820436396E+03  0.50400001928E-02 0. -1.
    10030    2    1    2    0    0  0.00000000000E+00  0.00000000000E+00  0.11756450938E+04  0.18320538217E+04  0.14050906800E+04 0.  0.
        2    1    3    3  502    0 -0.19606535206E+03  0.60913200908E+03  0.20973089783E+03  0.67340216533E+03  0.25500000920E-02 0. -1.
       -2    1    3    3    0  502  0.19606535206E+03 -0.60913200908E+03  0.96591419595E+03  0.11586516563E+04  0.25500000920E-02 0.  1.
</event>
<event>
 5   0  0.3907270E-04  0.1412493E+04  0.7818609E-02  0.8944825E-01
       -1   -1    0    0    0  501  0.00000000000E+00  0.00000000000E+00  0.41358656522E+03  0.41358656525E+03  0.50400001928E-02 0. -1.
        1   -1    0    0  501    0  0.00000000000E+00  0.00000000000E+00 -0.12059976317E+04  0.12059976317E+04  0.50400001928E-02 0.  1.
    10030    2    1    2    0    0  0.00000000000E+00  0.00000000000E+00 -0.79241106652E+03  0.16195841970E+04  0.14124934240E+04 0.  0.
        3    1    3    3  502    0 -0.34639434378E+03  0.86759248448E+02  0.30244657159E+03  0.46796383136E+03  0.10100000352E+00 0. -1.
       -3    1    3    3    0  502  0.34639434378E+03 -0.86759248448E+02 -0.10948576381E+04  0.11516203656E+04  0.10100000352E+00 0.  1.
</event>
<event>
 5   0  0.3907093E-04  0.1412875E+04  0.7818609E-02  0.8944551E-01
       -1   -1    0    0    0  501  0.00000000000E+00  0.00000000000E+00  0.26230723337E+03  0.26230723342E+03  0.50400001928E-02 0. -1.
        1   -1    0    0  501    0  0.00000000000E+00  0.00000000000E+00 -0.19025550135E+04  0.19025550135E+04  0.50400001928E-02 0.  1.
    10030    2    1    2    0    0  0.00000000000E+00  0.00000000000E+00 -0.16402477802E+04  0.21648622470E+04  0.14128750008E+04 0.  0.
        4    1    3    3  502    0  0.39265695998E+03 -0.28859524766E+03 -0.16037943242E+04  0.16761934711E+04  0.12699999809E+01 0.  1.
       -4    1    3    3    0  502 -0.39265695998E+03  0.28859524766E+03 -0.36453455976E+02  0.48866877591E+03  0.12699999809E+01 0. -1.
</event>
<event>
 5   0  0.6895048E-04  0.1394724E+04  0.7818609E-02  0.8957647E-01
        2   -1    0    0  501    0  0.00000000000E+00  0.00000000000E+00  0.16743350198E+04  0.16743350198E+04  0.25500000920E-02 0. -1.
       -2   -1    0    0    0  501  0.00000000000E+00  0.00000000000E+00 -0.29045168730E+03  0.29045168731E+03  0.25500000920E-02 0.  1.
    10030    2    1    2    0    0  0.00000000000E+00  0.00000000000E+00  0.13838833325E+04  0.19647867071E+04  0.13947235305E+04 0.  0.
        4    1    3    3  502    0  0.39599714973E+03 -0.44127433388E+03  0.17477322511E+03  0.61812949570E+03  0.12699999809E+01 0.  1.
       -4    1    3    3    0  502 -0.39599714973E+03  0.44127433388E+03  0.12091101074E+04  0.13466572114E+04  0.12699999809E+01 0. -1.
</event>
<event>
 5   0  0.6870835E-04  0.1403287E+04  0.7818609E-02  0.8951443E-01
        2   -1    0    0  501    0  0.00000000000E+00  0.00000000000E+00  0.11017472398E+04  0.11017472398E+04  0.25500000920E-02 0.  1.
       -2   -1    0    0    0  501  0.00000000000E+00  0.00000000000E+00 -0.44683876873E+03  0.44683876873E+03  0.25500000920E-02 0. -1.
    10030    2    1    2    0    0  0.00000000000E+00  0.00000000000E+00  0.65490847104E+03  0.15485860085E+04  0.14032866850E+04 0.  0.
        2    1    3    3  502    0 -0.42555028536E+03  0.42709080644E+03 -0.68598691292E+02  0.60679929365E+03  0.25500000920E-02 0. -1.
       -2    1    3    3    0  502  0.42555028536E+03 -0.42709080644E+03  0.72350716234E+03  0.94178671486E+03  0.25500000920E-02 0.  1.
</event>
<event>
 5   0  0.6959748E-04  0.1402202E+04  0.7818609E-02  0.8952226E-01
       -2   -1    0    0    0  501  0.00000000000E+00  0.00000000000E+00  0.34608012238E+03  0.34608012239E+03  0.25500000920E-02 0. -1.
        2   -1    0    0  501    0  0.00000000000E+00  0.00000000000E+00 -0.14203143188E+04  0.14203143188E+04  0.25500000920E-02 0.  1.
    10030    2    1    2    0    0  0.00000000000E+00  0.00000000000E+00 -0.10742341964E+04  0.17663944412E+04  0.14022019159E+04 0.  0.
        5    1    3    3  502    0  0.55139287907E+03 -0.35770269090E+03 -0.84448876115E+03  0.10701255440E+04  0.46999998093E+01 0.  1.
       -5    1    3    3    0  502 -0.55139287907E+03  0.35770269090E+03 -0.22974543523E+03  0.69626889718E+03  0.46999998093E+01 0. -1.
</event>
<event>
 5   0  0.7296966E-04  0.1399074E+04  0.7818609E-02  0.8954489E-01
        2   -1    0    0  501    0  0.00000000000E+00  0.00000000000E+00  0.10038657384E+04  0.10038657384E+04  0.25500000920E-02 0. -1.
       -2   -1    0    0    0  501  0.00000000000E+00  0.00000000000E+00 -0.48746766960E+03  0.48746766961E+03  0.25500000920E-02 0.  1.
    10030    2    1    2    0    0  0.00000000000E+00  0.00000000000E+00  0.51639806881E+03  0.14913334080E+04  0.13990741111E+04 0.  0.
        3    1    3    3  502    0  0.41545434496E+03 -0.47663982574E+03 -0.60808810163E+02  0.63520513051E+03  0.10100000352E+00 0.  1.
       -3    1    3    3    0  502 -0.41545434496E+03  0.47663982574E+03  0.57720687897E+03  0.85612827752E+03  0.10100000352E+00 0. -1.
</event>
<event>
 5   0  0.7065539E-04  0.1405211E+04  0.7818609E-02  0.8950055E-01
       -2   -1    0    0    0  501  0.00000000000E+00  0.00000000000E+00  0.38475072511E+03  0.38475072512E+03  0.25500000920E-02 0.  1.
        2   -1    0    0  501    0  0.00000000000E+00  0.00000000000E+00 -0.12830509883E+04  0.12830509883E+04  0.25500000920E-02 0. -1.
    10030    2    1    2    0    0  0.00000000000E+00  0.00000000000E+00 -0.89830026318E+03  0.16678017134E+04  0.14052114405E+04 0.  0.
        1    1    3    3  502    0  0.97952436854E+02 -0.27940552074E+03  0.30709368518E+03  0.42657784332E+03  0.50400001928E-02 0.  1.
       -1    1    3    3    0  502 -0.97952436854E+02  0.27940552074E+03 -0.12053939484E+04  0.12412238701E+04  0.50400001928E-02 0. -1.
</event>
<event>
 5   0  0.3907270E-04  0.1401158E+04  0.7818609E-02  0.8952981E-01
       -1   -1    0    0    0  501  0.00000000000E+00  0.00000000000E+00  0.91447753781E+03  0.91447753782E+03  0.50400001928E-02 0. -1.
        1   -1    0    0  501    0  0.00000000000E+00  0.00000000000E+00 -0.53671181630E+03  0.53671181633E+03  0.50400001928E-02 0.  1.
    10030    2    1    2    0    0  0.00000000000E+00  0.00000000000E+00  0.37776572150E+03  0.14511893541E+04  0.14011579501E+04 0.  0.
        3    1    3    3  502    0  0.25602449412E+03 -0.37164226782E+03  0.74387539841E+03  0.87006731658E+03  0.10100000352E+00 0. -1.
       -3    1    3    3    0  502 -0.25602449412E+03  0.37164226782E+03 -0.36610967691E+03  0.58112203757E+03  0.10100000352E+00 0.  1.
</event>
<event>
 5   0  0.3907270E-04  0.1397611E+04  0.7818609E-02  0.8955550E-01
        1   -1    0    0  501    0  0.00000000000E+00  0.00000000000E+00  0.15922842557E+04  0.15922842557E+04  0.50400001928E-02 0.  1.
       -1   -1    0    0    0  501  0.00000000000E+00  0.00000000000E+00 -0.30668453067E+03  0.30668453071E+03  0.50400001928E-02 0. -1.
    10030    2    1    2    0    0  0.00000000000E+00  0.00000000000E+00  0.12855997250E+04  0.18989687864E+04  0.13976107465E+04 0.  0.
        3    1    3    3  502    0  0.52164042347E+03 -0.24365424424E+03  0.10468156837E+03  0.58517891546E+03  0.10100000352E+00 0. -1.
       -3    1    3    3    0  502 -0.52164042347E+03  0.24365424424E+03  0.11809181567E+04  0.13137898710E+04  0.10100000352E+00 0.  1.
</event>
<event>
 5   0  0.6959748E-04  0.1370688E+04  0.7818609E-02  0.8975314E-01
       -2   -1    0    0    0  501  0.00000000000E+00  0.00000000000E+00  0.66607515342E+03  0.66607515342E+03  0.25500000920E-02 0.  1.
        2   -1    0    0  501    0  0.00000000000E+00  0.00000000000E+00 -0.70516983934E+03  0.70516983934E+03  0.25500000920E-02 0. -1.
    10030    2    1    2    0    0  0.00000000000E+00  0.00000000000E+00 -0.39094685920E+02  0.13712449928E+04  0.13706875777E+04 0.  0.
        5    1    3    3  502    0  0.51418942747E+03 -0.45105938741E+03 -0.62327809017E+02  0.68684218280E+03  0.46999998093E+01 0.  1.
       -5    1    3    3    0  502 -0.51418942747E+03  0.45105938741E+03  0.23233123097E+02  0.68440280997E+03  0.46999998093E+01 0. -1.
</event>
<event>
 5   0  0.3907093E-04  0.1400116E+04  0.7818609E-02  0.8953735E-01
       -1   -1    0    0    0  501  0.00000000000E+00  0.00000000000E+00  0.23143823892E+03  0.23143823897E+03  0.50400001928E-02 0.  1.
        1   -1    0    0  501    0  0.00000000000E+00  0.00000000000E+00 -0.21175453657E+04  0.21175453657E+04  0.50400001928E-02 0. -1.
    10030    2    1    2    0    0  0.00000000000E+00  0.00000000000E+00 -0.18861071268E+04  0.23489836047E+04  0.14001156671E+04 0.  0.
        4    1    3    3  502    0  0.39246749311E+02 -0.57056470602E+03 -0.16203880160E+04  0.17183548313E+04  0.12699999809E+01 0. -1.
       -4    1    3    3    0  502 -0.39246749311E+02  0.57056470602E+03 -0.26571911085E+03  0.63062877341E+03  0.12699999809E+01 0.  1.
</event>
<event>
 5   0  0.7065539E-04  0.1405646E+04  0.7818609E-02  0.8949742E-01
       -2   -1    0    0    0  501  0.00000000000E+00  0.00000000000E+00  0.32360984693E+03  0.32360984694E+03  0.25500000920E-02 0. -1.
        2   -1    0    0  501    0  0.00000000000E+00  0.00000000000E+00 -0.15264054467E+04  0.15264054467E+04  0.25500000920E-02 0.  1.
    10030    2    1    2    0    0  0.00000000000E+00  0.00000000000E+00 -0.12027955997E+04  0.18500152936E+04  0.14056455214E+04 0.  0.
        1    1    3    3  502    0 -0.68770198153E+01 -0.30971684579E+03  0.22890117623E+03  0.38518510677E+03  0.50400001928E-02 0. -1.
       -1    1    3    3    0  502  0.68770198153E+01  0.30971684579E+03 -0.14316967760E+04  0.14648301868E+04  0.50400001928E-02 0.  1.
</event>
<event>
 5   0  0.7296966E-04  0.1403460E+04  0.7818609E-02  0.8951318E-01
       -2   -1    0    0    0  501  0.00000000000E+00  0.00000000000E+00  0.92690298710E+03  0.92690298710E+03  0.25500000920E-02 0.  1.
        2   -1    0    0  501    0  0.00000000000E+00  0.00000000000E+00 -0.53125869275E+03  0.53125869276E+03  0.25500000920E-02 0. -1.
    10030    2    1    2    0    0  0.00000000000E+00  0.00000000000E+00  0.39564429435E+03  0.14581616799E+04  0.14034603938E+04 0.  0.
        3    1    3    3  502    0  0.55237561651E+03 -0.38329924344E+03  0.40662305281E+03  0.78573497377E+03  0.10100000352E+00 0.  1.
       -3    1    3    3    0  502 -0.55237561651E+03  0.38329924344E+03 -0.10978758459E+02  0.67242670609E+03  0.10100000352E+00 0. -1.
</event>
<event>
 5   0  0.3784219E-04  0.1413628E+04  0.7818609E-02  0.8944013E-01
       -1   -1    0    0    0  501  0.00000000000E+00  0.00000000000E+00  0.42535860385E+03  0.42535860388E+03  0.50400001928E-02 0.  1.
        1   -1    0    0  501    0  0.00000000000E+00  0.00000000000E+00 -0.11745056691E+04  0.11745056691E+04  0.50400001928E-02 0. -1.
    10030    2    1    2    0    0  0.00000000000E+00  0.00000000000E+00 -0.74914706529E+03  0.15998642730E+04  0.14136280864E+04 0.  0.
        1    1    3    3  502    0  0.92392283544E+02 -0.63619385873E+03 -0.70705796594E+03  0.95562017934E+03  0.50400001928E-02 0. -1.
       -1    1    3    3    0  502 -0.92392283544E+02  0.63619385873E+03 -0.42089099352E+02  0.64424409369E+03  0.50400001928E-02 0.  1.
</event>
<event>
 5   0  0.7296966E-04  0.1411926E+04  0.7818609E-02  0.8945231E-01
        2   -1    0    0  501    0  0.00000000000E+00  0.00000000000E+00  0.67964788257E+03  0.67964788257E+03  0.25500000920E-02 0. -1.
       -2   -1    0    0    0  501  0.00000000000E+00  0.00000000000E+00 -0.73329731621E+03  0.73329731621E+03  0.25500000920E-02 0.  1.
    10030    2    1    2    0    0  0.00000000000E+00  0.00000000000E+00 -0.53649433644E+02  0.14129451988E+04  0.14119262987E+04 0.  0.
        3    1    3    3  502    0 -0.54447632398E+03 -0.44037261419E+02 -0.47435008551E+03  0.72346510738E+03  0.10100000352E+00 0.  1.
       -3    1    3    3    0  502  0.54447632398E+03  0.44037261419E+02  0.42070065186E+03  0.68948009141E+03  0.10100000352E+00 0. -1.
</event>
<event>
 5   0  0.7065539E-04  0.1416911E+04  0.7818609E-02  0.8941667E-01
        2   -1    0    0  501    0  0.00000000000E+00  0.00000000000E+00  0.25941702092E+04  0.25941702092E+04  0.25500000920E-02 0.  1.
       -2   -1    0    0    0  501  0.00000000000E+00  0.00000000000E+00 -0.19347594862E+03  0.19347594863E+03  0.25500000920E-02 0. -1.
    10030    2    1    2    0    0  0.00000000000E+00  0.00000000000E+00  0.24006942606E+04  0.27876461578E+04  0.14169114893E+04 0.  0.
        1    1    3    3  502    0  0.40399268386E+03  0.52580781268E+03  0.16911187757E+04  0.18164709351E+04  0.50400001928E-02 0. -1.
       -1    1    3    3    0  502 -0.40399268386E+03 -0.52580781268E+03  0.70957548487E+03  0.97117522273E+03  0.50400001928E-02 0.  1.
</event>
<event>
 5   0  0.3756664E-04  0.1399768E+04  0.7818609E-02  0.8953986E-01
       -1   -1    0    0    0  501  0.00000000000E+00  0.00000000000E+00  0.32420670646E+03  0.32420670650E+03  0.50400001928E-02 0. -1.
        1   -1    0    0  501    0  0.00000000000E+00  0.00000000000E+00 -0.15108815438E+04  0.15108815438E+04  0.50400001928E-02 0.  1.
    10030    2    1    2    0    0  0.00000000000E+00  0.00000000000E+00 -0.11866748373E+04  0.18350882503E+04  0.13997684511E+04 0.  0.
        2    1    3    3  502    0  0.15750959152E+03  0.50253651693E+03 -0.11976555363E+04  0.13083313823E+04  0.25500000920E-02 0.  1.
       -2    1    3    3    0  502 -0.15750959152E+03 -0.50253651693E+03  0.10980698930E+02  0.52675686803E+03  0.25500000920E-02 0. -1.
</event>
<event>
 5   0  0.6895048E-04  0.1509059E+04  0.7818609E-02  0.8878451E-01
        2   -1    0    0  501    0  0.00000000000E+00  0.00000000000E+00  0.13205540384E+04  0.13205540384E+04  0.25500000920E-02 0.  1.
       -2   -1    0    0    0  501  0.00000000000E+00  0.00000000000E+00 -0.43111820720E+03  0.43111820721E+03  0.25500000920E-02 0. -1.
    10030    2    1    2    0    0  0.00000000000E+00  0.00000000000E+00  0.88943583125E+03  0.17516722457E+04  0.15090591633E+04 0.  0.
        4    1    3    3  502    0  0.27507616401E+03  0.65168120740E+03  0.74953468935E+03  0.10306110593E+04  0.12699999809E+01 0.  1.
       -4    1    3    3    0  502 -0.27507616401E+03 -0.65168120740E+03  0.13990114190E+03  0.72106118637E+03  0.12699999809E+01 0. -1.
</event>
<event>
 5   0  0.6870835E-04  0.1452941E+04  0.7818609E-02  0.8916364E-01
        2   -1    0    0  501    0  0.00000000000E+00  0.00000000000E+00  0.89149976378E+03  0.89149976379E+03  0.25500000920E-02 0. -1.
       -2   -1    0    0    0  501  0.00000000000E+00  0.00000000000E+00 -0.59199052138E+03  0.59199052139E+03  0.25500000920E-02 0.  1.
    10030    2    1    2    0    0  0.00000000000E+00  0.00000000000E+00  0.29950924240E+03  0.14834902852E+04  0.14529410311E+04 0.  0.
        2    1    3    3  502    0  0.41354014472E+03 -0.59171922758E+03  0.23278049703E+03  0.75850765018E+03  0.25500000920E-02 0. -1.
       -2    1    3    3    0  502 -0.41354014472E+03  0.59171922758E+03  0.66728745373E+02  0.72498263500E+03  0.25500000920E-02 0.  1.
</event>
<event>
 5   0  0.3907270E-04  0.1392817E+04  0.7818609E-02  0.8959035E-01
       -1   -1    0    0    0  501  0.00000000000E+00  0.00000000000E+00  0.13097533240E+04  0.13097533240E+04  0.50400001928E-02 0. -1.
        1   -1    0    0  501    0  0.00000000000E+00  0.00000000000E+00 -0.37028697839E+03  0.37028697842E+03  0.50400001928E-02 0.  1.
    10030    2    1    2    0    0  0.00000000000E+00  0.00000000000E+00  0.93946634561E+03  0.16800403024E+04  0.13928167156E+04 0.  0.
        3    1    3    3  502    0 -0.34486682264E+03 -0.23005760646E+03  0.11447033366E+04  0.12174585688E+04  0.10100000352E+00 0. -1.
       -3    1    3    3    0  502  0.34486682264E+03  0.23005760646E+03 -0.20523699099E+03  0.46258173366E+03  0.10100000352E+00 0.  1.
</event>
<event>
 5   0  0.3907093E-04  0.1415597E+04  0.7818609E-02  0.8942605E-01
        1   -1    0    0  501    0  0.00000000000E+00  0.00000000000E+00  0.17218678717E+04  0.17218678717E+04  0.50400001928E-02 0.  1.
       -1   -1    0    0    0  501  0.00000000000E+00  0.00000000000E+00 -0.29095076673E+03  0.29095076678E+03  0.50400001928E-02 0. -1.
    10030    2    1    2    0    0  0.00000000000E+00  0.00000000000E+00  0.14309171049E+04  0.20128186385E+04  0.14155970861E+04 0.  0.
        4    1    3    3  502    0  0.50134782699E+03  0.37589525908E+03  0.24746495835E+03  0.67371166529E+03  0.12699999809E+01 0. -1.
       -4    1    3    3    0  502 -0.50134782699E+03 -0.37589525908E+03  0.11834521466E+04  0.13391069732E+04  0.12699999809E+01 0.  1.
</event>
<event>
 5   0  0.3977658E-04  0.1396766E+04  0.7818609E-02  0.8956163E-01
        1   -1    0    0  501    0  0.00000000000E+00  0.00000000000E+00  0.10800532329E+04  0.10800532329E+04  0.50400001928E-02 0.  1.
       -1   -1    0    0    0  501  0.00000000000E+00  0.00000000000E+00 -0.45158752919E+03  0.45158752922E+03  0.50400001928E-02 0. -1.
    10030    2    1    2    0    0  0.00000000000E+00  0.00000000000E+00  0.62846570367E+03  0.15316407621E+04  0.13967656509E+04 0.  0.
        5    1    3    3  502    0  0.15808455917E+03  0.49867158854E+03 -0.19310050763E+03  0.55765040761E+03  0.46999998093E+01 0. -1.
       -5    1    3    3    0  502 -0.15808455917E+03 -0.49867158854E+03  0.82156621130E+03  0.97399035448E+03  0.46999998093E+01 0.  1.
</event>
<event>
 5   0  0.3907093E-04  0.1386562E+04  0.7818609E-02  0.8963603E-01
       -1   -1    0    0    0  501  0.00000000000E+00  0.00000000000E+00  0.45606828487E+03  0.45606828490E+03  0.50400001928E-02 0.  1.
        1   -1    0    0  501    0  0.00000000000E+00  0.00000000000E+00 -0.10538740936E+04  0.10538740936E+04  0.50400001928E-02 0. -1.
    10030    2    1    2    0    0  0.00000000000E+00  0.00000000000E+00 -0.59780580870E+03  0.15099423785E+04  0.13865620078E+04 0.  0.
        4    1    3    3  502    0 -0.66148884625E+03  0.19222309796E+03 -0.38409258856E+03  0.78869889222E+03  0.12699999809E+01 0. -1.
       -4    1    3    3    0  502  0.66148884625E+03 -0.19222309796E+03 -0.21371322015E+03  0.72124348626E+03  0.12699999809E+01 0.  1.
</event>
<event>
 5   0  0.3784219E-04  0.1398456E+04  0.7818609E-02  0.8954937E-01
        1   -1    0    0  501    0  0.00000000000E+00  0.00000000000E+00  0.15583326823E+04  0.15583326823E+04  0.50400001928E-02 0.  1.
       -1   -1    0    0    0  501  0.00000000000E+00  0.00000000000E+00 -0.31374552331E+03  0.31374552335E+03  0.50400001928E-02 0. -1.
    10030    2    1    2    0    0  0.00000000000E+00  0.00000000000E+00  0.12445871590E+04  0.18720782057E+04  0.13984561530E+04 0.  0.
        1    1    3    3  502    0  0.11524948185E+03  0.38441370471E+03 -0.14422327836E+03  0.42644658925E+03  0.50400001928E-02 0. -1.
       -1    1    3    3    0  502 -0.11524948185E+03 -0.38441370471E+03  0.13888104373E+04  0.14456316164E+04  0.50400001928E-02 0.  1.
</event>
<event>
 5   0  0.6959748E-04  0.1403675E+04  0.7818609E-02  0.8951163E-01
       -2   -1    0    0    0  501  0.00000000000E+00  0.00000000000E+00  0.73105505747E+03  0.73105505747E+03  0.25500000920E-02 0.  1.
        2   -1    0    0  501    0  0.00000000000E+00  0.00000000000E+00 -0.67378738068E+03  0.67378738069E+03  0.25500000920E-02 0. -1.
    10030    2    1    2    0    0  0.00000000000E+00  0.00000000000E+00  0.57267676784E+02  0.14048424382E+04  0.14036747092E+04 0.  0.
        5    1    3    3  502    0 -0.53493640616E+02 -0.58534210324E+03  0.41244554829E+03  0.71806710530E+03  0.46999998093E+01 0.  1.
       -5    1    3    3    0  502  0.53493640616E+02  0.58534210324E+03 -0.35517787150E+03  0.68677533286E+03  0.46999998093E+01 0. -1.
</event>
<event>
 5   0  0.3907093E-04  0.1406654E+04  0.7818609E-02  0.8949016E-01
        1   -1    0    0  501    0  0.00000000000E+00  0.00000000000E+00  0.76205640217E+03  0.76205640219E+03  0.50400001928E-02 0.  1.
       -1   -1    0    0    0  501  0.00000000000E+00  0.00000000000E+00 -0.64912376449E+03  0.64912376451E+03  0.50400001928E-02 0. -1.
    10030    2    1    2    0    0  0.00000000000E+00  0.00000000000E+00  0.11293263768E+03  0.14111801667E+04  0.14066540734E+04 0.  0.
        4    1    3    3  502    0  0.15469092663E+02 -0.46421490450E+03  0.58630632193E+03  0.74799163526E+03  0.12699999809E+01 0.  1.
       -4    1    3    3    0  502 -0.15469092663E+02  0.46421490450E+03 -0.47337368425E+03  0.66318853144E+03  0.12699999809E+01 0. -1.
</event>
<event>
 5   0  0.2660250E-04  0.1401860E+04  0.7818609E-02  0.8952473E-01
       -4   -1    0    0    0  501  0.00000000000E+00  0.00000000000E+00  0.52638248387E+03  0.52638401593E+03  0.12699999809E+01 0. -1.
        4   -1    0    0  501    0  0.00000000000E+00  0.00000000000E+00 -0.93335369610E+03  0.93335456013E+03  0.12699999809E+01 0.  1.
    10030    2    1    2    0    0  0.00000000000E+00  0.00000000000E+00 -0.40697121223E+03  0.14597385761E+04  0.14018598870E+04 0.  0.
        2    1    3    3  502    0  0.10295048749E+03  0.93001006513E+02  0.51194362916E+03  0.53040953002E+03  0.25500000920E-02 0. -1.
       -2    1    3    3    0  502 -0.10295048749E+03 -0.93001006513E+02 -0.91891484139E+03  0.92932904605E+03  0.25500000920E-02 0.  1.
</event>
<event>
 5   0  0.7296966E-04  0.1395609E+04  0.7818609E-02  0.8957003E-01
       -2   -1    0    0    0  501  0.00000000000E+00  0.00000000000E+00  0.85391258715E+03  0.85391258715E+03  0.25500000920E-02 0.  1.
        2   -1    0    0  501    0  0.00000000000E+00  0.00000000000E+00 -0.57023517442E+03  0.57023517442E+03  0.25500000920E-02 0. -1.
    10030    2    1    2    0    0  0.00000000000E+00  0.00000000000E+00  0.28367741273E+03  0.14241477616E+04  0.13956088178E+04 0.  0.
        3    1    3    3  502    0  0.28798050754E+03  0.37389628116E+03  0.66635329688E+03  0.81655246510E+03  0.10100000352E+00 0.  1.
       -3    1    3    3    0  502 -0.28798050754E+03 -0.37389628116E+03 -0.38267588415E+03  0.60759529648E+03  0.10100000352E+00 0. -1.
</event>
<event>
 5   0  0.7296966E-04  0.1364713E+04  0.7818609E-02  0.8979765E-01
        2   -1    0    0  501    0  0.00000000000E+00  0.00000000000E+00  0.39950919633E+03  0.39950919634E+03  0.25500000920E-02 0.  1.
       -2   -1    0    0    0  501  0.00000000000E+00  0.00000000000E+00 -0.11654559542E+04  0.11654559542E+04  0.25500000920E-02 0. -1.
    10030    2    1    2    0    0  0.00000000000E+00  0.00000000000E+00 -0.76594675785E+03  0.15649651505E+04  0.13647129685E+04 0.  0.
        3    1    3    3  502    0 -0.35660712876E+03  0.16129935586E+03 -0.10239404369E+04  0.10961934843E+04  0.10100000352E+00 0. -1.
       -3    1    3    3    0  502  0.35660712876E+03 -0.16129935586E+03  0.25799367901E+03  0.46877166627E+03  0.10100000352E+00 0.  1.
</event>
<event>
 5   0  0.3977658E-04  0.1400709E+04  0.7818609E-02  0.8953305E-01
       -1   -1    0    0    0  501  0.00000000000E+00  0.00000000000E+00  0.84668417820E+03  0.84668417822E+03  0.50400001928E-02 0.  1.
        1   -1    0    0  501    0  0.00000000000E+00  0.00000000000E+00 -0.57931481482E+03  0.57931481484E+03  0.50400001928E-02 0. -1.
    10030    2    1    2    0    0  0.00000000000E+00  0.00000000000E+00  0.26736936338E+03  0.14259989931E+04  0.14007093745E+04 0.  0.
        5    1    3    3  502    0 -0.52641263716E+03  0.36313301927E+03  0.42431882993E+03  0.76749228900E+03  0.46999998093E+01 0.  1.
       -5    1    3    3    0  502  0.52641263716E+03 -0.36313301927E+03 -0.15694946654E+03  0.65850670406E+03  0.46999998093E+01 0. -1.
</event>
<event>
 5   0  0.6959748E-04  0.1395160E+04  0.7818609E-02  0.8957329E-01
        2   -1    0    0  501    0  0.00000000000E+00  0.00000000000E+00  0.43504051595E+03  0.43504051596E+03  0.25500000920E-02 0. -1.
       -2   -1    0    0    0  501  0.00000000000E+00  0.00000000000E+00 -0.11185575259E+04  0.11185575259E+04  0.25500000920E-02 0.  1.
    10030    2    1    2    0    0  0.00000000000E+00  0.00000000000E+00 -0.68351701000E+03  0.15535980419E+04  0.13951599811E+04 0.  0.
        5    1    3    3  502    0 -0.21178714381E+03 -0.24885754418E+03 -0.10280346896E+04  0.10787313310E+04  0.46999998093E+01 0.  1.
       -5    1    3    3    0  502  0.21178714381E+03  0.24885754418E+03  0.34451767956E+03  0.47486671089E+03  0.46999998093E+01 0. -1.
</event>
<event>
 5   0  0.7296966E-04  0.1404491E+04  0.7818609E-02  0.8950574E-01
       -2   -1    0    0    0  501  0.00000000000E+00  0.00000000000E+00  0.71253931965E+03  0.71253931966E+03  0.25500000920E-02 0. -1.
        2   -1    0    0  501    0  0.00000000000E+00  0.00000000000E+00 -0.69210012258E+03  0.69210012258E+03  0.25500000920E-02 0.  1.
    10030    2    1    2    0    0  0.00000000000E+00  0.00000000000E+00  0.20439197077E+02  0.14046394422E+04  0.14044907269E+04 0.  0.
        3    1    3    3  502    0 -0.56666137538E+03 -0.29339499314E+03 -0.28300558685E+03  0.69805294121E+03  0.10100000352E+00 0.  1.
       -3    1    3    3    0  502  0.56666137538E+03  0.29339499314E+03  0.30344478392E+03  0.70658650103E+03  0.10100000352E+00 0. -1.
</event>
<event>
 5   0  0.3907270E-04  0.1403500E+04  0.7818609E-02  0.8951289E-01
        1   -1    0    0  501    0  0.00000000000E+00  0.00000000000E+00  0.89629033187E+03  0.89629033188E+03  0.50400001928E-02 0.  1.
       -1   -1    0    0    0  501  0.00000000000E+00  0.00000000000E+00 -0.54943493545E+03  0.54943493548E+03  0.50400001928E-02 0. -1.
    10030    2    1    2    0    0  0.00000000000E+00  0.00000000000E+00  0.34685539642E+03  0.14457252674E+04  0.14035002254E+04 0.  0.
        3    1    3    3  502    0 -0.25206227803E+03  0.30144440473E+03  0.77233991193E+03  0.86655240517E+03  0.10100000352E+00 0.  1.
       -3    1    3    3    0  502  0.25206227803E+03 -0.30144440473E+03 -0.42548451551E+03  0.57917286219E+03  0.10100000352E+00 0. -1.
</event>
<event>
 5   0  0.3907270E-04  0.1393341E+04  0.7818609E-02  0.8958653E-01
        1   -1    0    0  501    0  0.00000000000E+00  0.00000000000E+00  0.98833639878E+03  0.98833639879E+03  0.50400001928E-02 0. -1.
       -1   -1    0    0    0  501  0.00000000000E+00  0.00000000000E+00 -0.49107751600E+03  0.49107751602E+03  0.50400001928E-02 0.  1.
    10030    2    1    2    0    0  0.00000000000E+00  0.00000000000E+00  0.49725888278E+03  0.14794139148E+04  0.13933409973E+04 0.  0.
        3    1    3    3  502    0  0.62933120209E+03  0.28948556899E+03  0.32730196482E+03  0.76615027440E+03  0.10100000352E+00 0. -1.
       -3    1    3    3    0  502 -0.62933120209E+03 -0.28948556899E+03  0.16995691796E+03  0.71326364042E+03  0.10100000352E+00 0.  1.
</event>
<event>
 5   0  0.3907093E-04  0.1405843E+04  0.7818609E-02  0.8949600E-01
        1   -1    0    0  501    0  0.00000000000E+00  0.00000000000E+00  0.19173298271E+04  0.19173298271E+04  0.50400001928E-02 0. -1.
       -1   -1    0    0    0  501  0.00000000000E+00  0.00000000000E+00 -0.25770155645E+03  0.25770155650E+03  0.50400001928E-02 0.  1.
    10030    2    1    2    0    0  0.00000000000E+00  0.00000000000E+00  0.16596282706E+04  0.21750313836E+04  0.14058433493E+04 0.  0.
        4    1    3    3  502    0  0.53006035904E+03 -0.97385896394E+01  0.15439117579E+04  0.16323982215E+04  0.12699999809E+01 0. -1.
       -4    1    3    3    0  502 -0.53006035904E+03  0.97385896394E+01  0.11571651266E+03  0.54263316205E+03  0.12699999809E+01 0.  1.
</event>
<event>
 5   0  0.7065539E-04  0.1391306E+04  0.7818609E-02  0.8960136E-01
       -2   -1    0    0    0  501  0.00000000000E+00  0.00000000000E+00  0.54390166364E+03  0.54390166365E+03  0.25500000920E-02 0.  1.
        2   -1    0    0  501    0  0.00000000000E+00  0.00000000000E+00 -0.88974330906E+03  0.88974330906E+03  0.25500000920E-02 0. -1.
    10030    2    1    2    0    0  0.00000000000E+00  0.00000000000E+00 -0.34584164542E+03  0.14336449727E+04  0.13913056688E+04 0.  0.
        1    1    3    3  502    0 -0.28420373887E+03 -0.59963243939E+03 -0.38808623407E+03  0.76872735912E+03  0.50400001928E-02 0. -1.
       -1    1    3    3    0  502  0.28420373887E+03  0.59963243939E+03  0.42244588658E+02  0.66491761358E+03  0.50400001928E-02 0.  1.
</event>
<event>
 5   0  0.6959748E-04  0.1400710E+04  0.7818609E-02  0.8953305E-01
       -2   -1    0    0    0  501  0.00000000000E+00  0.00000000000E+00  0.37392698051E+03  0.37392698052E+03  0.25500000920E-02 0.  1.
        2   -1    0    0  501    0  0.00000000000E+00  0.00000000000E+00 -0.13117455909E+04  0.13117455909E+04  0.25500000920E-02 0. -1.
    10030    2    1    2    0    0  0.00000000000E+00  0.00000000000E+00 -0.93781861040E+03  0.16856725714E+04  0.14007099172E+04 0.  0.
        5    1    3    3  502    0 -0.87327850811E+02  0.30455031726E+03 -0.12205526888E+04  0.12610107079E+04  0.46999998093E+01 0. -1.
       -5    1    3    3    0  502  0.87327850811E+02 -0.30455031726E+03  0.28273407839E+03  0.42466186355E+03  0.46999998093E+01 0.  1.
</event>
<event>
 5   0  0.6870835E-04  0.1409227E+04  0.7818609E-02  0.8947166E-01
        2   -1    0    0  501    0  0.00000000000E+00  0.00000000000E+00  0.20018216541E+04  0.20018216541E+04  0.25500000920E-02 0.  1.
       -2   -1    0    0    0  501  0.00000000000E+00  0.00000000000E+00 -0.24801430756E+03  0.24801430757E+03  0.25500000920E-02 0. -1.
    10030    2    1    2    0    0  0.00000000000E+00  0.00000000000E+00  0.17538073466E+04  0.22498359617E+04  0.14092273222E+04 0.  0.
        2    1    3    3  502    0 -0.74821635386E+02  0.30462434893E+03 -0.13039515408E+03  0.33970158566E+03  0.25500000920E-02 0. -1.
       -2    1    3    3    0  502  0.74821635386E+02 -0.30462434893E+03  0.18842025007E+04  0.19101343760E+04  0.25500000920E-02 0.  1.
</event>
<event>
 5   0  0.7296966E-04  0.1396704E+04  0.7818609E-02  0.8956208E-01
       -2   -1    0    0    0  501  0.00000000000E+00  0.00000000000E+00  0.57022341049E+03  0.57022341049E+03  0.25500000920E-02 0. -1.
        2   -1    0    0  501    0  0.00000000000E+00  0.00000000000E+00 -0.85527083787E+03  0.85527083788E+03  0.25500000920E-02 0.  1.
    10030    2    1    2    0    0  0.00000000000E+00  0.00000000000E+00 -0.28504742738E+03  0.14254942484E+04  0.13967039115E+04 0.  0.
        3    1    3    3  502    0 -0.30788454830E+03 -0.97129065622E+02  0.48948921657E+03  0.58636733693E+03  0.10100000352E+00 0. -1.
       -3    1    3    3    0  502  0.30788454830E+03  0.97129065622E+02 -0.77453664396E+03  0.83912691144E+03  0.10100000352E+00 0.  1.
</event>
<event>
 5   0  0.3756664E-04  0.1409542E+04  0.7818609E-02  0.8946940E-01
        1   -1    0    0  501    0  0.00000000000E+00  0.00000000000E+00  0.85291885393E+03  0.85291885395E+03  0.50400001928E-02 0. -1.
       -1   -1    0    0    0  501  0.00000000000E+00  0.00000000000E+00 -0.58235601401E+03  0.58235601403E+03  0.50400001928E-02 0.  1.
    10030    2    1    2    0    0  0.00000000000E+00  0.00000000000E+00  0.27056283993E+03  0.14352748680E+04  0.14095423712E+04 0.  0.
        2    1    3    3  502    0 -0.51068844641E+03  0.35831644219E+02 -0.35793281079E+03  0.62466190300E+03  0.25500000920E-02 0.  1.
       -2    1    3    3    0  502  0.51068844641E+03 -0.35831644219E+02  0.62849565071E+03  0.81061296498E+03  0.25500000920E-02 0. -1.
</event>
<event>
 5   0  0.3784219E-04  0.1407436E+04  0.7818609E-02  0.8948453E-01
       -1   -1    0    0    0  501  0.00000000000E+00  0.00000000000E+00  0.30135064763E+03  0.30135064768E+03  0.50400001928E-02 0. -1.
        1   -1    0    0  501    0  0.00000000000E+00  0.00000000000E+00 -0.16433320327E+04  0.16433320327E+04  0.50400001928E-02 0.  1.
    10030    2    1    2    0    0  0.00000000000E+00  0.00000000000E+00 -0.13419813851E+04  0.19446826804E+04  0.14074362115E+04 0.  0.
        1    1    3    3  502    0  0.41370997058E+03  0.37889405358E+03 -0.83958834470E+02  0.56724397706E+03  0.50400001928E-02 0. -1.
       -1    1    3    3    0  502 -0.41370997058E+03 -0.37889405358E+03 -0.12580225506E+04  0.13774387033E+04  0.50400001928E-02 0.  1.
</event>
<event>
 5   0  0.7296966E-04  0.1401318E+04  0.7818609E-02  0.8952865E-01
       -2   -1    0    0    0  501  0.00000000000E+00  0.00000000000E+00  0.50713064475E+03  0.50713064476E+03  0.25500000920E-02 0.  1.
        2   -1    0    0  501    0  0.00000000000E+00  0.00000000000E+00 -0.96804116801E+03  0.96804116801E+03  0.25500000920E-02 0. -1.
    10030    2    1    2    0    0  0.00000000000E+00  0.00000000000E+00 -0.46091052325E+03  0.14751718128E+04  0.14013184387E+04 0.  0.
        3    1    3    3  502    0  0.61511492711E+03 -0.33168423632E+03 -0.17737434525E+03  0.72100102269E+03  0.10100000352E+00 0. -1.
       -3    1    3    3    0  502 -0.61511492711E+03  0.33168423632E+03 -0.28353617800E+03  0.75417079008E+03  0.10100000352E+00 0.  1.
</event>
<event>
 5   0  0.6959748E-04  0.1399823E+04  0.7818609E-02  0.8953947E-01
        2   -1    0    0  501    0  0.00000000000E+00  0.00000000000E+00  0.19136550973E+04  0.19136550973E+04  0.25500000920E-02 0. -1.
       -2   -1    0    0    0  501  0.00000000000E+00  0.00000000000E+00 -0.25598961496E+03  0.25598961498E+03  0.25500000920E-02 0.  1.
    10030    2    1    2    0    0  0.00000000000E+00  0.00000000000E+00  0.16576654823E+04  0.21696447123E+04  0.13998226053E+04 0.  0.
        5    1    3    3  502    0  0.72846172314E+02  0.54552657476E+03  0.14989888080E+04  0.15968391732E+04  0.46999998093E+01 0. -1.
       -5    1    3    3    0  502 -0.72846172314E+02 -0.54552657476E+03  0.15867667431E+03  0.57280553904E+03  0.46999998093E+01 0.  1.
</event>
<event>
 5   0  0.3907270E-04  0.1431491E+04  0.7818609E-02  0.8931334E-01
       -1   -1    0    0    0  501  0.00000000000E+00  0.00000000000E+00  0.56415629613E+03  0.56415629615E+03  0.50400001928E-02 0. -1.
        1   -1    0    0  501    0  0.00000000000E+00  0.00000000000E+00 -0.90806698407E+03  0.90806698408E+03  0.50400001928E-02 0.  1.
    10030    2    1    2    0    0  0.00000000000E+00  0.00000000000E+00 -0.34391068794E+03  0.14722232802E+04  0.14314911196E+04 0.  0.
        3    1    3    3  502    0  0.21786289704E+02  0.64714652055E+03 -0.48562285390E+03  0.80938422762E+03  0.10100000352E+00 0.  1.
       -3    1    3    3    0  502 -0.21786289704E+02 -0.64714652055E+03  0.14171216597E+03  0.66283905261E+03  0.10100000352E+00 0. -1.
</event>
<event>
 5   0  0.3756664E-04  0.1378692E+04  0.7818609E-02  0.8969388E-01
        1   -1    0    0  501    0  0.00000000000E+00  0.00000000000E+00  0.87427542649E+03  0.87427542651E+03  0.50400001928E-02 0. -1.
       -1   -1    0    0    0  501  0.00000000000E+00  0.00000000000E+00 -0.54353359344E+03  0.54353359347E+03  0.50400001928E-02 0.  1.
    10030    2    1    2    0    0  0.00000000000E+00  0.00000000000E+00  0.33074183305E+03  0.14178090200E+04  0.13786922271E+04 0.  0.
        2    1    3    3  502    0 -0.96928036718E+02  0.51327943613E+03  0.62796391025E+03  0.81681668472E+03  0.25500000920E-02 0. -1.
       -2    1    3    3    0  502  0.96928036718E+02 -0.51327943613E+03 -0.29722207720E+03  0.60099233526E+03  0.25500000920E-02 0.  1.
</event>
<event>
 5   0  0.3756664E-04  0.1395760E+04  0.7818609E-02  0.8956893E-01
        1   -1    0    0  501    0  0.00000000000E+00  0.00000000000E+00  0.79677379235E+03  0.79677379236E+03  0.50400001928E-02 0.  1.
       -1   -1    0    0    0  501  0.00000000000E+00  0.00000000000E+00 -0.61126077403E+03  0.61126077405E+03  0.50400001928E-02 0. -1.
    10030    2    1    2    0    0  0.00000000000E+00  0.00000000000E+00  0.18551301832E+03  0.14080345664E+04  0.13957601013E+04 0.  0.
        2    1    3    3  502    0  0.38687956666E+03 -0.11675708597E+03  0.66673158919E+03  0.77964031980E+03  0.25500000920E-02 0.  1.
       -2    1    3    3    0  502 -0.38687956666E+03  0.11675708597E+03 -0.48121857087E+03  0.62839424662E+03  0.25500000920E-02 0. -1.
</event>
<event>
 5   0  0.6895048E-04  0.1287935E+04  0.7818609E-02  0.9039188E-01
        2   -1    0    0  501    0  0.00000000000E+00  0.00000000000E+00  0.66218760325E+03  0.66218760326E+03  0.25500000920E-02 0.  1.
       -2   -1    0    0    0  501  0.00000000000E+00  0.00000000000E+00 -0.62624897179E+03  0.62624897180E+03  0.25500000920E-02 0. -1.
    10030    2    1    2    0    0  0.00000000000E+00  0.00000000000E+00  0.35938631461E+02  0.12884365751E+04  0.12879352556E+04 0.  0.
        4    1    3    3  502    0 -0.56952171405E+02 -0.51367273774E+03  0.40229259119E+03  0.65493829721E+03  0.12699999809E+01 0.  1.
       -4    1    3    3    0  502  0.56952171405E+02  0.51367273774E+03 -0.36635395973E+03  0.63349827785E+03  0.12699999809E+01 0. -1.
</event>
<event>
 5   0  0.3977658E-04  0.1402702E+04  0.7818609E-02  0.8951865E-01
       -1   -1    0    0    0  501  0.00000000000E+00  0.00000000000E+00  0.36800288621E+03  0.36800288625E+03  0.50400001928E-02 0.  1.
        1   -1    0    0  501    0  0.00000000000E+00  0.00000000000E+00 -0.13366560796E+04  0.13366560796E+04  0.50400001928E-02 0. -1.
    10030    2    1    2    0    0  0.00000000000E+00  0.00000000000E+00 -0.96865319339E+03  0.17046589659E+04  0.14027020998E+04 0.  0.
        5    1    3    3  502    0 -0.64006802054E+03 -0.23450687006E+02 -0.83154931229E+03  0.10496348672E+04  0.46999998093E+01 0. -1.
       -5    1    3    3    0  502  0.64006802054E+03  0.23450687006E+02 -0.13710388110E+03  0.65502409868E+03  0.46999998093E+01 0.  1.
</event>
<event>
 5   0  0.6959748E-04  0.1424075E+04  0.7818609E-02  0.8936574E-01
        2   -1    0    0  501    0  0.00000000000E+00  0.00000000000E+00  0.86186081939E+03  0.86186081940E+03  0.25500000920E-02 0. -1.
       -2   -1    0    0    0  501  0.00000000000E+00  0.00000000000E+00 -0.58825889465E+03  0.58825889466E+03  0.25500000920E-02 0.  1.
    10030    2    1    2    0    0  0.00000000000E+00  0.00000000000E+00  0.27360192474E+03  0.14501197141E+04  0.14240748477E+04 0.  0.
        5    1    3    3  502    0  0.59277969382E+03 -0.33771092126E+03 -0.70737150546E+02  0.68590251946E+03  0.46999998093E+01 0. -1.
       -5    1    3    3    0  502 -0.59277969382E+03  0.33771092126E+03  0.34433907529E+03  0.76421719459E+03  0.46999998093E+01 0.  1.
</event>
<event>
 5   0  0.3756664E-04  0.1310230E+04  0.7818609E-02  0.9021492E-01
       -1   -1    0    0    0  501  0.00000000000E+00  0.00000000000E+00  0.28593702925E+03  0.28593702929E+03  0.50400001928E-02 0.  1.
        1   -1    0    0  501    0  0.00000000000E+00  0.00000000000E+00 -0.15009452182E+04  0.15009452182E+04  0.50400001928E-02 0. -1.
    10030    2    1    2    0    0  0.00000000000E+00  0.00000000000E+00 -0.12150081889E+04  0.17868822475E+04  0.13102302344E+04 0.  0.
        2    1    3    3  502    0  0.76039268139E+02 -0.35011310736E+03 -0.13554975792E+04  0.14020466631E+04  0.25500000920E-02 0. -1.
       -2    1    3    3    0  502 -0.76039268139E+02  0.35011310736E+03  0.14048939026E+03  0.38483558441E+03  0.25500000920E-02 0.  1.
</event>
<event>
 5   0  0.7065539E-04  0.1404735E+04  0.7818609E-02  0.8950398E-01
        2   -1    0    0  501    0  0.00000000000E+00  0.00000000000E+00  0.15616370898E+04  0.15616370898E+04  0.25500000920E-02 0.  1.
       -2   -1    0    0    0  501  0.00000000000E+00  0.00000000000E+00 -0.31589940660E+03  0.31589940661E+03  0.25500000920E-02 0. -1.
    10030    2    1    2    0    0  0.00000000000E+00  0.00000000000E+00  0.12457376832E+04  0.18775364964E+04  0.14047351779E+04 0.  0.
        1    1    3    3  502    0 -0.19371525654E+03  0.63580465204E+03  0.92632498757E+03  0.11401101433E+04  0.50400001928E-02 0.  1.
       -1    1    3    3    0  502  0.19371525654E+03 -0.63580465204E+03  0.31941269566E+03  0.73742635317E+03  0.50400001928E-02 0. -1.
</event>
<event>
 5   0  0.3977658E-04  0.1490630E+04  0.7818609E-02  0.8890708E-01
       -1   -1    0    0    0  501  0.00000000000E+00  0.00000000000E+00  0.51058767157E+03  0.51058767160E+03  0.50400001928E-02 0.  1.
        1   -1    0    0  501    0  0.00000000000E+00  0.00000000000E+00 -0.10879513229E+04  0.10879513229E+04  0.50400001928E-02 0. -1.
    10030    2    1    2    0    0  0.00000000000E+00  0.00000000000E+00 -0.57736365136E+03  0.15985389945E+04  0.14906301121E+04 0.  0.
        5    1    3    3  502    0 -0.14321430935E+03 -0.46966547414E+03  0.31260037129E+03  0.58209713805E+03  0.46999998093E+01 0.  1.
       -5    1    3    3    0  502  0.14321430935E+03  0.46966547414E+03 -0.88996402265E+03  0.10164418565E+04  0.46999998093E+01 0. -1.
</event>
<event>
 5   0  0.2660250E-04  0.1396490E+04  0.7818609E-02  0.8956363E-01
        4   -1    0    0  501    0  0.00000000000E+00  0.00000000000E+00  0.67688142905E+03  0.67688262047E+03  0.12699999809E+01 0.  1.
       -4   -1    0    0    0  501  0.00000000000E+00  0.00000000000E+00 -0.72028073285E+03  0.72028185249E+03  0.12699999809E+01 0. -1.
    10030    2    1    2    0    0  0.00000000000E+00  0.00000000000E+00 -0.43399303806E+02  0.13971644730E+04  0.13964902667E+04 0.  0.
        3    1    3    3  502    0 -0.46154570407E+03  0.48203549933E+03  0.18373724424E+03  0.69220087019E+03  0.10100000352E+00 0.  1.
       -3    1    3    3    0  502  0.46154570407E+03 -0.48203549933E+03 -0.22713654805E+03  0.70496360277E+03  0.10100000352E+00 0. -1.
</event>
<event>
 5   0  0.6870835E-04  0.1396664E+04  0.7818609E-02  0.8956237E-01
       -2   -1    0    0    0  501  0.00000000000E+00  0.00000000000E+00  0.22549154395E+03  0.22549154396E+03  0.25500000920E-02 0. -1.
        2   -1    0    0  501    0  0.00000000000E+00  0.00000000000E+00 -0.21626855839E+04  0.21626855839E+04  0.25500000920E-02 0.  1.
    10030    2    1    2    0    0  0.00000000000E+00  0.00000000000E+00 -0.19371940399E+04  0.23881771278E+04  0.13966636122E+04 0.  0.
        2    1    3    3  502    0  0.27511487626E+03 -0.47534932716E+03 -0.17060885326E+04  0.17923122661E+04  0.25500000920E-02 0.  1.
       -2    1    3    3    0  502 -0.27511487626E+03  0.47534932716E+03 -0.23110550732E+03  0.59586486177E+03  0.25500000920E-02 0. -1.
</event>
<event>
 5   0  0.6870835E-04  0.1384624E+04  0.7818609E-02  0.8965024E-01
        2   -1    0    0  501    0  0.00000000000E+00  0.00000000000E+00  0.22221877619E+04  0.22221877619E+04  0.25500000920E-02 0.  1.
       -2   -1    0    0    0  501  0.00000000000E+00  0.00000000000E+00 -0.21568654270E+03  0.21568654272E+03  0.25500000920E-02 0. -1.
    10030    2    1    2    0    0  0.00000000000E+00  0.00000000000E+00  0.20065012192E+04  0.24378743046E+04  0.13846241304E+04 0.  0.
        2    1    3    3  502    0 -0.30937148330E+03 -0.51175537503E+03  0.16174507670E+04  0.17244568021E+04  0.25500000920E-02 0.  1.
       -2    1    3    3    0  502  0.30937148330E+03  0.51175537503E+03  0.38905045216E+03  0.71341750251E+03  0.25500000920E-02 0. -1.
</event>
<event>
 5   0  0.6895048E-04  0.1404313E+04  0.7818609E-02  0.8950703E-01
       -2   -1    0    0    0  501  0.00000000000E+00  0.00000000000E+00  0.62768646299E+03  0.62768646299E+03  0.25500000920E-02 0. -1.
        2   -1    0    0  501    0  0.00000000000E+00  0.00000000000E+00 -0.78546174388E+03  0.78546174389E+03  0.25500000920E-02 0.  1.
    10030    2    1    2    0    0  0.00000000000E+00  0.00000000000E+00 -0.15777528090E+03  0.14131482069E+04  0.14043129336E+04 0.  0.
        4    1    3    3  502    0 -0.77776650201E+02  0.66048429624E+03  0.14777017897E+03  0.68126819359E+03  0.12699999809E+01 0.  1.
       -4    1    3    3    0  502  0.77776650201E+02 -0.66048429624E+03 -0.30554545987E+03  0.73188001329E+03  0.12699999809E+01 0. -1.
</event>
<event>
 5   0  0.6870835E-04  0.1407822E+04  0.7818609E-02  0.8948176E-01
       -2   -1    0    0    0  501  0.00000000000E+00  0.00000000000E+00  0.25864895835E+03  0.25864895836E+03  0.25500000920E-02 0.  1.
        2   -1    0    0  501    0  0.00000000000E+00  0.00000000000E+00 -0.19156874756E+04  0.19156874756E+04  0.25500000920E-02 0. -1.
    10030    2    1    2    0    0  0.00000000000E+00  0.00000000000E+00 -0.16570385173E+04  0.21743364340E+04  0.14078218213E+04 0.  0.
        2    1    3    3  502    0  0.35788131500E+03 -0.54031021174E+03 -0.12528306261E+04  0.14105313674E+04  0.25500000920E-02 0. -1.
       -2    1    3    3    0  502 -0.35788131500E+03  0.54031021174E+03 -0.40420789117E+03  0.76380506664E+03  0.25500000920E-02 0.  1.
</event>
<event>
 5   0  0.6870835E-04  0.1403972E+04  0.7818609E-02  0.8950948E-01
        2   -1    0    0  501    0  0.00000000000E+00  0.00000000000E+00  0.11702131817E+04  0.11702131817E+04  0.25500000920E-02 0.  1.
       -2   -1    0    0    0  501  0.00000000000E+00  0.00000000000E+00 -0.42110662507E+03  0.42110662508E+03  0.25500000920E-02 0. -1.
    10030    2    1    2    0    0  0.00000000000E+00  0.00000000000E+00  0.74910655658E+03  0.15913198067E+04  0.14039722555E+04 0.  0.
        2    1    3    3  502    0 -0.55885875217E+03 -0.26664373777E+03 -0.27575993237E+00  0.61921083955E+03  0.25500000920E-02 0. -1.
       -2    1    3    3    0  502  0.55885875217E+03  0.26664373777E+03  0.74938231651E+03  0.97210896718E+03  0.25500000920E-02 0.  1.
</event>
<event>
 5   0  0.7296966E-04  0.1409637E+04  0.7818609E-02  0.8946872E-01
       -2   -1    0    0    0  501  0.00000000000E+00  0.00000000000E+00  0.23703833906E+03  0.23703833908E+03  0.25500000920E-02 0.  1.
        2   -1    0    0  501    0  0.00000000000E+00  0.00000000000E+00 -0.20957323376E+04  0.20957323376E+04  0.25500000920E-02 0. -1.
    10030    2    1    2    0    0  0.00000000000E+00  0.00000000000E+00 -0.18586939986E+04  0.23327706767E+04  0.14096367084E+04 0.  0.
        3    1    3    3  502    0  0.20214600998E+03  0.35242273393E+03 -0.18824509568E+04  0.19257950067E+04  0.10100000352E+00 0. -1.
       -3    1    3    3    0  502 -0.20214600998E+03 -0.35242273393E+03  0.23756958232E+02  0.40697567004E+03  0.10100000352E+00 0.  1.
</event>
<event>
 5   0  0.3907093E-04  0.1303654E+04  0.7818609E-02  0.9026673E-01
        1   -1    0    0  501    0  0.00000000000E+00  0.00000000000E+00  0.22003929252E+04  0.22003929252E+04  0.50400001928E-02 0.  1.
       -1   -1    0    0    0  501  0.00000000000E+00  0.00000000000E+00 -0.19309206744E+03  0.19309206750E+03  0.50400001928E-02 0. -1.
    10030    2    1    2    0    0  0.00000000000E+00  0.00000000000E+00  0.20073008578E+04  0.23934849927E+04  0.13036539713E+04 0.  0.
        4    1    3    3  502    0  0.61156472177E+03  0.65347349710E+02  0.60733717199E+03  0.86437361043E+03  0.12699999809E+01 0. -1.
       -4    1    3    3    0  502 -0.61156472177E+03 -0.65347349710E+02  0.13999636858E+04  0.15291113823E+04  0.12699999809E+01 0.  1.
</event>
<event>
 5   0  0.3784219E-04  0.1390999E+04  0.7818609E-02  0.8960360E-01
       -1   -1    0    0    0  501  0.00000000000E+00  0.00000000000E+00  0.21871668782E+03  0.21871668788E+03  0.50400001928E-02 0. -1.
        1   -1    0    0  501    0  0.00000000000E+00  0.00000000000E+00 -0.22116259897E+04  0.22116259897E+04  0.50400001928E-02 0.  1.
    10030    2    1    2    0    0  0.00000000000E+00  0.00000000000E+00 -0.19929093019E+04  0.24303426776E+04  0.13909989378E+04 0.  0.
        1    1    3    3  502    0 -0.19603574585E+03  0.53575032577E+03 -0.30138586494E+03  0.64520683879E+03  0.50400001928E-02 0. -1.
       -1    1    3    3    0  502  0.19603574585E+03 -0.53575032577E+03 -0.16915234370E+04  0.17851358388E+04  0.50400001928E-02 0.  1.
</event>
<event>
 5   0  0.3907270E-04  0.1377437E+04  0.7818609E-02  0.8970315E-01
       -1   -1    0    0    0  501  0.00000000000E+00  0.00000000000E+00  0.10082717864E+04  0.10082717865E+04  0.50400001928E-02 0.  1.
        1   -1    0    0  501    0  0.00000000000E+00  0.00000000000E+00 -0.47044159484E+03  0.47044159486E+03  0.50400001928E-02 0. -1.
    10030    2    1    2    0    0  0.00000000000E+00  0.00000000000E+00  0.53783019160E+03  0.14787133813E+04  0.13774367314E+04 0.  0.
        3    1    3    3  502    0 -0.34136775011E+03 -0.52177070958E+03 -0.45091304264E+02  0.62514786260E+03  0.10100000352E+00 0. -1.
       -3    1    3    3    0  502  0.34136775011E+03  0.52177070958E+03  0.58292149587E+03  0.85356551871E+03  0.10100000352E+00 0.  1.
</event>
<event>
 5   0  0.3756664E-04  0.1423548E+04  0.7818609E-02  0.8936947E-01
        1   -1    0    0  501    0  0.00000000000E+00  0.00000000000E+00  0.76366557961E+03  0.76366557963E+03  0.50400001928E-02 0.  1.
       -1   -1    0    0    0  501  0.00000000000E+00  0.00000000000E+00 -0.66340869923E+03  0.66340869924E+03  0.50400001928E-02 0. -1.
    10030    2    1    2    0    0  0.00000000000E+00  0.00000000000E+00  0.10025688038E+03  0.14270742789E+04  0.14235482273E+04 0.  0.
        2    1    3    3  502    0 -0.70096069371E+03 -0.11282646197E+03  0.10071812097E+03  0.71709123865E+03  0.25500000920E-02 0.  1.
       -2    1    3    3    0  502  0.70096069371E+03  0.11282646197E+03 -0.46124058617E+00  0.70998304022E+03  0.25500000920E-02 0. -1.
</event>
<event>
 5   0  0.3784219E-04  0.1410686E+04  0.7818609E-02  0.8946120E-01
       -1   -1    0    0    0  501  0.00000000000E+00  0.00000000000E+00  0.40579442841E+03  0.40579442844E+03  0.50400001928E-02 0. -1.
        1   -1    0    0  501    0  0.00000000000E+00  0.00000000000E+00 -0.12260117851E+04  0.12260117851E+04  0.50400001928E-02 0.  1.
    10030    2    1    2    0    0  0.00000000000E+00  0.00000000000E+00 -0.82021735665E+03  0.16318062135E+04  0.14106860056E+04 0.  0.
        1    1    3    3  502    0  0.50153479100E+03  0.26259496770E+03  0.76571723186E+02  0.57127619631E+03  0.50400001928E-02 0. -1.
       -1    1    3    3    0  502 -0.50153479100E+03 -0.26259496770E+03 -0.89678907983E+03  0.10605300172E+04  0.50400001928E-02 0.  1.
</event>
<event>
 5   0  0.6895048E-04  0.1413319E+04  0.7818609E-02  0.8944234E-01
        2   -1    0    0  501    0  0.00000000000E+00  0.00000000000E+00  0.12969736151E+04  0.12969736151E+04  0.25500000920E-02 0.  1.
       -2   -1    0    0    0  501  0.00000000000E+00  0.00000000000E+00 -0.38502527169E+03  0.38502527170E+03  0.25500000920E-02 0. -1.
    10030    2    1    2    0    0  0.00000000000E+00  0.00000000000E+00  0.91194834343E+03  0.16819988868E+04  0.14133189570E+04 0.  0.
        4    1    3    3  502    0  0.40734661083E+02 -0.39038478452E+03  0.11553133226E+04  0.12201680535E+04  0.12699999809E+01 0.  1.
       -4    1    3    3    0  502 -0.40734661083E+02  0.39038478452E+03 -0.24336497917E+03  0.46183083329E+03  0.12699999809E+01 0. -1.
</event>
<event>
 5   0  0.6895048E-04  0.1404806E+04  0.7818609E-02  0.8950347E-01
        2   -1    0    0  501    0  0.00000000000E+00  0.00000000000E+00  0.90640900999E+03  0.90640900999E+03  0.25500000920E-02 0.  1.
       -2   -1    0    0    0  501  0.00000000000E+00  0.00000000000E+00 -0.54431294305E+03  0.54431294305E+03  0.25500000920E-02 0. -1.
    10030    2    1    2    0    0  0.00000000000E+00  0.00000000000E+00  0.36209606694E+03  0.14507219530E+04  0.14048062583E+04 0.  0.
        4    1    3    3  502    0 -0.23747652036E+03  0.64694387223E+03  0.32126924607E+03  0.76035979175E+03  0.12699999809E+01 0. -1.
       -4    1    3    3    0  502  0.23747652036E+03 -0.64694387223E+03  0.40826820870E+02  0.69036216129E+03  0.12699999809E+01 0.  1.
</event>
<event>
 5   0  0.6870835E-04  0.1400585E+04  0.7818609E-02  0.8953395E-01
       -2   -1    0    0    0  501  0.00000000000E+00  0.00000000000E+00  0.51989963891E+03  0.51989963892E+03  0.25500000920E-02 0. -1.
        2   -1    0    0  501    0  0.00000000000E+00  0.00000000000E+00 -0.94327696423E+03  0.94327696424E+03  0.25500000920E-02 0.  1.
    10030    2    1    2    0    0  0.00000000000E+00  0.00000000000E+00 -0.42337732532E+03  0.14631766032E+04  0.14005846681E+04 0.  0.
        2    1    3    3  502    0  0.15706249625E+03  0.33974300055E+03 -0.83001394796E+03  0.91050375505E+03  0.25500000920E-02 0.  1.
       -2    1    3    3    0  502 -0.15706249625E+03 -0.33974300055E+03  0.40663662264E+03  0.55267284810E+03  0.25500000920E-02 0. -1.
</event>
<event>
 5   0  0.3977658E-04  0.1388219E+04  0.7818609E-02  0.8962391E-01
        1   -1    0    0  501    0  0.00000000000E+00  0.00000000000E+00  0.64537805961E+03  0.64537805963E+03  0.50400001928E-02 0. -1.
       -1   -1    0    0    0  501  0.00000000000E+00  0.00000000000E+00 -0.74652013285E+03  0.74652013287E+03  0.50400001928E-02 0.  1.
    10030    2    1    2    0    0  0.00000000000E+00  0.00000000000E+00 -0.10114207324E+03  0.13918981925E+04  0.13882185920E+04 0.  0.
        5    1    3    3  502    0  0.10453040871E+03 -0.81094804193E+02 -0.73374528545E+03  0.74559185050E+03  0.46999998093E+01 0.  1.
       -5    1    3    3    0  502 -0.10453040871E+03  0.81094804193E+02  0.63260321220E+03  0.64630634199E+03  0.46999998093E+01 0. -1.
</event>
<event>
 5   0  0.3907093E-04  0.1403155E+04  0.7818609E-02  0.8951538E-01
        1   -1    0    0  501    0  0.00000000000E+00  0.00000000000E+00  0.18973666940E+04  0.18973666940E+04  0.50400001928E-02 0.  1.
       -1   -1    0    0    0  501  0.00000000000E+00  0.00000000000E+00 -0.25941792692E+03  0.25941792697E+03  0.50400001928E-02 0. -1.
    10030    2    1    2    0    0  0.00000000000E+00  0.00000000000E+00  0.16379487671E+04  0.21567846210E+04  0.14031549229E+04 0.  0.
        4    1    3    3  502    0 -0.16450617272E+03 -0.55730542342E+03  0.14232658828E+04  0.15373155180E+04  0.12699999809E+01 0.  1.
       -4    1    3    3    0  502  0.16450617272E+03  0.55730542342E+03  0.21468288427E+03  0.61946910297E+03  0.12699999809E+01 0. -1.
</event>
<event>
 5   0  0.3907270E-04  0.1399711E+04  0.7818609E-02  0.8954028E-01
       -1   -1    0    0    0  501  0.00000000000E+00  0.00000000000E+00  0.35107919748E+03  0.35107919751E+03  0.50400001928E-02 0.  1.
        1   -1    0    0  501    0  0.00000000000E+00  0.00000000000E+00 -0.13951206533E+04  0.13951206533E+04  0.50400001928E-02 0. -1.
    10030    2    1    2    0    0  0.00000000000E+00  0.00000000000E+00 -0.10440414559E+04  0.17461998509E+04  0.13997111693E+04 0.  0.
        3    1    3    3  502    0 -0.24960810886E+03  0.54428656446E+03 -0.97397880747E+03  0.11433227015E+04  0.10100000352E+00 0. -1.
       -3    1    3    3    0  502  0.24960810886E+03 -0.54428656446E+03 -0.70062648385E+02  0.60287714931E+03  0.10100000352E+00 0.  1.
</event>
<event>
 5   0  0.2660250E-04  0.1384246E+04  0.7818609E-02  0.8965302E-01
       -3   -1    0    0    0  501  0.00000000000E+00  0.00000000000E+00  0.33785945395E+03  0.33785946904E+03  0.10100000352E+00 0.  1.
        3   -1    0    0  501    0  0.00000000000E+00  0.00000000000E+00 -0.14178509647E+04  0.14178509683E+04  0.10100000352E+00 0. -1.
    10030    2    1    2    0    0  0.00000000000E+00  0.00000000000E+00 -0.10799915107E+04  0.17557104373E+04  0.13842461762E+04 0.  0.
        5    1    3    3  502    0 -0.51568792158E+03 -0.18537167852E+03 -0.38032060668E+01  0.54802668369E+03  0.46999998093E+01 0.  1.
       -5    1    3    3    0  502  0.51568792158E+03  0.18537167852E+03 -0.10761883046E+04  0.12076837536E+04  0.46999998093E+01 0. -1.
</event>
<event>
 5   0  0.3907093E-04  0.1395429E+04  0.7818609E-02  0.8957134E-01
       -1   -1    0    0    0  501  0.00000000000E+00  0.00000000000E+00  0.88924085032E+03  0.88924085033E+03  0.50400001928E-02 0.  1.
        1   -1    0    0  501    0  0.00000000000E+00  0.00000000000E+00 -0.54743925733E+03  0.54743925735E+03  0.50400001928E-02 0. -1.
    10030    2    1    2    0    0  0.00000000000E+00  0.00000000000E+00  0.34180159299E+03  0.14366801077E+04  0.13954287523E+04 0.  0.
        4    1    3    3  502    0 -0.12791825151E+02  0.68383768770E+03  0.31283896252E+03  0.75210866454E+03  0.12699999809E+01 0.  1.
       -4    1    3    3    0  502  0.12791825151E+02 -0.68383768770E+03  0.28962630476E+02  0.68457144315E+03  0.12699999809E+01 0. -1.
</event>
<event>
 5   0  0.3756664E-04  0.1441838E+04  0.7818609E-02  0.8924079E-01
       -1   -1    0    0    0  501  0.00000000000E+00  0.00000000000E+00  0.35830897959E+03  0.35830897962E+03  0.50400001928E-02 0.  1.
        1   -1    0    0  501    0  0.00000000000E+00  0.00000000000E+00 -0.14504920284E+04  0.14504920284E+04  0.50400001928E-02 0. -1.
    10030    2    1    2    0    0  0.00000000000E+00  0.00000000000E+00 -0.10921830488E+04  0.18088010081E+04  0.14418381583E+04 0.  0.
        2    1    3    3  502    0 -0.71762118875E+03  0.56057128333E+02 -0.59629932107E+03  0.93471677662E+03  0.25500000920E-02 0. -1.
       -2    1    3    3    0  502  0.71762118875E+03 -0.56057128333E+02 -0.49588372777E+03  0.87408423144E+03  0.25500000920E-02 0.  1.
</event>
<event>
 5   0  0.7065539E-04  0.1400635E+04  0.7818609E-02  0.8953359E-01
        2   -1    0    0  501    0  0.00000000000E+00  0.00000000000E+00  0.14165412811E+04  0.14165412811E+04  0.25500000920E-02 0. -1.
       -2   -1    0    0    0  501  0.00000000000E+00  0.00000000000E+00 -0.34622705648E+03  0.34622705649E+03  0.25500000920E-02 0.  1.
    10030    2    1    2    0    0  0.00000000000E+00  0.00000000000E+00  0.10703142246E+04  0.17627683376E+04  0.14006354531E+04 0.  0.
        1    1    3    3  502    0  0.14594955094E+03 -0.56077027425E+03  0.10301371608E+04  0.11819251846E+04  0.50400001928E-02 0. -1.
       -1    1    3    3    0  502 -0.14594955094E+03  0.56077027425E+03  0.40177063844E+02  0.58084315300E+03  0.50400001928E-02 0.  1.
</event>
<event>
 5   0  0.6870835E-04  0.1411479E+04  0.7818609E-02  0.8945551E-01
       -2   -1    0    0    0  501  0.00000000000E+00  0.00000000000E+00  0.89524679796E+03  0.89524679796E+03  0.25500000920E-02 0. -1.
        2   -1    0    0  501    0  0.00000000000E+00  0.00000000000E+00 -0.55634720095E+03  0.55634720095E+03  0.25500000920E-02 0.  1.
    10030    2    1    2    0    0  0.00000000000E+00  0.00000000000E+00  0.33889959701E+03  0.14515939989E+04  0.14114787284E+04 0.  0.
        2    1    3    3  502    0  0.14489911449E+03  0.51061338646E+03 -0.30889992684E+03  0.61411802499E+03  0.25500000920E-02 0.  1.
       -2    1    3    3    0  502 -0.14489911449E+03 -0.51061338646E+03  0.64779952385E+03  0.83747597393E+03  0.25500000920E-02 0. -1.
</event>
<event>
 5   0  0.7296966E-04  0.1399946E+04  0.7818609E-02  0.8953858E-01
        2   -1    0    0  501    0  0.00000000000E+00  0.00000000000E+00  0.10630607092E+04  0.10630607092E+04  0.25500000920E-02 0. -1.
       -2   -1    0    0    0  501  0.00000000000E+00  0.00000000000E+00 -0.46089735139E+03  0.46089735139E+03  0.25500000920E-02 0.  1.
    10030    2    1    2    0    0  0.00000000000E+00  0.00000000000E+00  0.60216335776E+03  0.15239580605E+04  0.13999455207E+04 0.  0.
        3    1    3    3  502    0  0.46497910024E+03 -0.41392000974E+03 -0.47310247587E+02  0.62431851475E+03  0.10100000352E+00 0.  1.
       -3    1    3    3    0  502 -0.46497910024E+03  0.41392000974E+03  0.64947360535E+03  0.89963954580E+03  0.10100000352E+00 0. -1.
</event>
<event>
 5   0  0.6959748E-04  0.1424046E+04  0.7818609E-02  0.8936595E-01
       -2   -1    0    0    0  501  0.00000000000E+00  0.00000000000E+00  0.93533770337E+03  0.93533770337E+03  0.25500000920E-02 0. -1.
        2   -1    0    0  501    0  0.00000000000E+00  0.00000000000E+00 -0.54202506884E+03  0.54202506885E+03  0.25500000920E-02 0.  1.
    10030    2    1    2    0    0  0.00000000000E+00  0.00000000000E+00  0.39331263453E+03  0.14773627722E+04  0.14240456216E+04 0.  0.
        5    1    3    3  502    0  0.12359840499E+03 -0.19405674286E+03  0.89569409798E+03  0.92478353809E+03  0.46999998093E+01 0. -1.
       -5    1    3    3    0  502 -0.12359840499E+03  0.19405674286E+03 -0.50238146346E+03  0.55257923413E+03  0.46999998093E+01 0.  1.
</event>
<event>
 5   0  0.3977658E-04  0.1395659E+04  0.7818609E-02  0.8956967E-01
        1   -1    0    0  501    0  0.00000000000E+00  0.00000000000E+00  0.45873463615E+03  0.45873463618E+03  0.50400001928E-02 0.  1.
       -1   -1    0    0    0  501  0.00000000000E+00  0.00000000000E+00 -0.10615420256E+04  0.10615420256E+04  0.50400001928E-02 0. -1.
    10030    2    1    2    0    0  0.00000000000E+00  0.00000000000E+00 -0.60280738945E+03  0.15202766618E+04  0.13956591201E+04 0.  0.
        5    1    3    3  502    0  0.37922163960E+02  0.52897367670E+03 -0.79543307497E+03  0.95602672970E+03  0.46999998093E+01 0. -1.
       -5    1    3    3    0  502 -0.37922163960E+02 -0.52897367670E+03  0.19262568551E+03  0.56424993210E+03  0.46999998093E+01 0.  1.
</event>
<event>
 5   0  0.3756664E-04  0.1401279E+04  0.7818609E-02  0.8952893E-01
        1   -1    0    0  501    0  0.00000000000E+00  0.00000000000E+00  0.78654835388E+03  0.78654835389E+03  0.50400001928E-02 0. -1.
       -1   -1    0    0    0  501  0.00000000000E+00  0.00000000000E+00 -0.62411412492E+03  0.62411412494E+03  0.50400001928E-02 0.  1.
    10030    2    1    2    0    0  0.00000000000E+00  0.00000000000E+00  0.16243422896E+03  0.14106624788E+04  0.14012793263E+04 0.  0.
        2    1    3    3  502    0 -0.51685300685E+03  0.44574735350E+03  0.24060672460E+03  0.72368455129E+03  0.25500000920E-02 0. -1.
       -2    1    3    3    0  502  0.51685300685E+03 -0.44574735350E+03 -0.78172495636E+02  0.68697792754E+03  0.25500000920E-02 0.  1.
</event>
<event>
 5   0  0.3977658E-04  0.1398983E+04  0.7818609E-02  0.8954555E-01
       -1   -1    0    0    0  501  0.00000000000E+00  0.00000000000E+00  0.43851216446E+03  0.43851216449E+03  0.50400001928E-02 0. -1.
        1   -1    0    0  501    0  0.00000000000E+00  0.00000000000E+00 -0.11157916358E+04  0.11157916358E+04  0.50400001928E-02 0.  1.
    10030    2    1    2    0    0  0.00000000000E+00  0.00000000000E+00 -0.67727947135E+03  0.15543038003E+04  0.13989827809E+04 0.  0.
        5    1    3    3  502    0  0.23604391746E+03 -0.52710389293E+03  0.99772842800E+02  0.58611599114E+03  0.46999998093E+01 0. -1.
       -5    1    3    3    0  502 -0.23604391746E+03  0.52710389293E+03 -0.77705231415E+03  0.96818780918E+03  0.46999998093E+01 0.  1.
</event>
<event>
 5   0  0.6870835E-04  0.1357408E+04  0.7818609E-02  0.8985240E-01
        2   -1    0    0  501    0  0.00000000000E+00  0.00000000000E+00  0.14162005738E+04  0.14162005738E+04  0.25500000920E-02 0.  1.
       -2   -1    0    0    0  501  0.00000000000E+00  0.00000000000E+00 -0.32526381302E+03  0.32526381303E+03  0.25500000920E-02 0. -1.
    10030    2    1    2    0    0  0.00000000000E+00  0.00000000000E+00  0.10909367608E+04  0.17414643869E+04  0.13574075271E+04 0.  0.
        2    1    3    3  502    0  0.12324889092E+03 -0.45830822622E+02  0.13997021646E+04  0.14058651795E+04  0.25500000920E-02 0.  1.
       -2    1    3    3    0  502 -0.12324889092E+03  0.45830822622E+02 -0.30876540377E+03  0.33559920737E+03  0.25500000920E-02 0. -1.
</event>
<event>
 5   0  0.7065539E-04  0.1399695E+04  0.7818609E-02  0.8954039E-01
       -2   -1    0    0    0  501  0.00000000000E+00  0.00000000000E+00  0.34525322092E+03  0.34525322093E+03  0.25500000920E-02 0. -1.
        2   -1    0    0  501    0  0.00000000000E+00  0.00000000000E+00 -0.14186295485E+04  0.14186295485E+04  0.25500000920E-02 0.  1.
    10030    2    1    2    0    0  0.00000000000E+00  0.00000000000E+00 -0.10733763276E+04  0.17638827695E+04  0.13996948538E+04 0.  0.
        1    1    3    3  502    0  0.31787065614E+03 -0.62176273792E+03 -0.59519909646E+03  0.91754706733E+03  0.50400001928E-02 0. -1.
       -1    1    3    3    0  502 -0.31787065614E+03  0.62176273792E+03 -0.47817723116E+03  0.84633570215E+03  0.50400001928E-02 0.  1.
</event>
<event>
 5   0  0.7065539E-04  0.1387262E+04  0.7818609E-02  0.8963091E-01
        2   -1    0    0  501    0  0.00000000000E+00  0.00000000000E+00  0.55854693561E+03  0.55854693561E+03  0.25500000920E-02 0.  1.
       -2   -1    0    0    0  501  0.00000000000E+00  0.00000000000E+00 -0.86138511261E+03  0.86138511262E+03  0.25500000920E-02 0. -1.
    10030    2    1    2    0    0  0.00000000000E+00  0.00000000000E+00 -0.30283817701E+03  0.14199320482E+04  0.13872620733E+04 0.  0.
        1    1    3    3  502    0  0.54825187408E+03  0.74512924010E+02  0.27675245487E+03  0.61864708403E+03  0.50400001928E-02 0.  1.
       -1    1    3    3    0  502 -0.54825187408E+03 -0.74512924010E+02 -0.57959063187E+03  0.80128496420E+03  0.50400001928E-02 0. -1.
</event>
<event>
 5   0  0.7296966E-04  0.1326811E+04  0.7818609E-02  0.9008570E-01
       -2   -1    0    0    0  501  0.00000000000E+00  0.00000000000E+00  0.33852742160E+03  0.33852742160E+03  0.25500000920E-02 0. -1.
        2   -1    0    0  501    0  0.00000000000E+00  0.00000000000E+00 -0.13000629192E+04  0.13000629192E+04  0.25500000920E-02 0.  1.
    10030    2    1    2    0    0  0.00000000000E+00  0.00000000000E+00 -0.96153549763E+03  0.16385903408E+04  0.13268111365E+04 0.  0.
        3    1    3    3  502    0 -0.59462570827E+03 -0.20782136916E+03 -0.73786245029E+03  0.97016001781E+03  0.10100000352E+00 0. -1.
       -3    1    3    3    0  502  0.59462570827E+03  0.20782136916E+03 -0.22367304734E+03  0.66843032302E+03  0.10100000352E+00 0.  1.
</event>
<event>
 5   0  0.3907093E-04  0.1399534E+04  0.7818609E-02  0.8954156E-01
        1   -1    0    0  501    0  0.00000000000E+00  0.00000000000E+00  0.30434853037E+03  0.30434853042E+03  0.50400001928E-02 0.  1.
       -1   -1    0    0    0  501  0.00000000000E+00  0.00000000000E+00 -0.16089244731E+04  0.16089244731E+04  0.50400001928E-02 0. -1.
    10030    2    1    2    0    0  0.00000000000E+00  0.00000000000E+00 -0.13045759427E+04  0.19132730035E+04  0.13995339209E+04 0.  0.
        4    1    3    3  502    0 -0.17624228816E+03  0.55486107325E+03 -0.11830597400E+04  0.13185462131E+04  0.12699999809E+01 0. -1.
       -4    1    3    3    0  502  0.17624228816E+03 -0.55486107325E+03 -0.12151620263E+03  0.59472679034E+03  0.12699999809E+01 0.  1.
</event>
<event>
 5   0  0.7296966E-04  0.1394281E+04  0.7818609E-02  0.8957969E-01
       -2   -1    0    0    0  501  0.00000000000E+00  0.00000000000E+00  0.92502185522E+03  0.92502185523E+03  0.25500000920E-02 0.  1.
        2   -1    0    0  501    0  0.00000000000E+00  0.00000000000E+00 -0.52539825676E+03  0.52539825677E+03  0.25500000920E-02 0. -1.
    10030    2    1    2    0    0  0.00000000000E+00  0.00000000000E+00  0.39962359846E+03  0.14504201120E+04  0.13942809906E+04 0.  0.
        3    1    3    3  502    0 -0.44316787281E+03 -0.16118832542E+02  0.75938023502E+03  0.87938383644E+03  0.10100000352E+00 0.  1.
       -3    1    3    3    0  502  0.44316787281E+03  0.16118832542E+02 -0.35975663656E+03  0.57103627556E+03  0.10100000352E+00 0. -1.
</event>
<event>
 5   0  0.3756664E-04  0.1456186E+04  0.7818609E-02  0.8914123E-01
        1   -1    0    0  501    0  0.00000000000E+00  0.00000000000E+00  0.36502884979E+03  0.36502884983E+03  0.50400001928E-02 0.  1.
       -1   -1    0    0    0  501  0.00000000000E+00  0.00000000000E+00 -0.14522675785E+04  0.14522675785E+04  0.50400001928E-02 0. -1.
    10030    2    1    2    0    0  0.00000000000E+00  0.00000000000E+00 -0.10872387287E+04  0.18172964284E+04  0.14561862021E+04 0.  0.
        2    1    3    3  502    0  0.48527970958E+02 -0.13675381201E+01 -0.14502454699E+04  0.14510578063E+04  0.25500000920E-02 0. -1.
       -2    1    3    3    0  502 -0.48527970958E+02  0.13675381201E+01  0.36300674121E+03  0.36623862207E+03  0.25500000920E-02 0.  1.
</event>
<event>
 5   0  0.6959748E-04  0.1392550E+04  0.7818609E-02  0.8959229E-01
       -2   -1    0    0    0  501  0.00000000000E+00  0.00000000000E+00  0.41345591502E+03  0.41345591503E+03  0.25500000920E-02 0.  1.
        2   -1    0    0  501    0  0.00000000000E+00  0.00000000000E+00 -0.11725522381E+04  0.11725522381E+04  0.25500000920E-02 0. -1.
    10030    2    1    2    0    0  0.00000000000E+00  0.00000000000E+00 -0.75909632309E+03  0.15860081531E+04  0.13925496882E+04 0.  0.
        5    1    3    3  502    0 -0.34338183712E+03  0.53106882818E+03 -0.71126917748E+03  0.95177261946E+03  0.46999998093E+01 0. -1.
       -5    1    3    3    0  502  0.34338183712E+03 -0.53106882818E+03 -0.47827145609E+02  0.63423553368E+03  0.46999998093E+01 0.  1.
</event>
<event>
 5   0  0.7296966E-04  0.1402479E+04  0.7818609E-02  0.8952026E-01
        2   -1    0    0  501    0  0.00000000000E+00  0.00000000000E+00  0.28299997807E+03  0.28299997808E+03  0.25500000920E-02 0. -1.
       -2   -1    0    0    0  501  0.00000000000E+00  0.00000000000E+00 -0.17375869485E+04  0.17375869485E+04  0.25500000920E-02 0.  1.
    10030    2    1    2    0    0  0.00000000000E+00  0.00000000000E+00 -0.14545869704E+04  0.20205869266E+04  0.14024793308E+04 0.  0.
        3    1    3    3  502    0  0.39868009162E+03  0.52283877906E+03 -0.37606716474E+03  0.75745146838E+03  0.10100000352E+00 0. -1.
       -3    1    3    3    0  502 -0.39868009162E+03 -0.52283877906E+03 -0.10785198057E+04  0.12631354582E+04  0.10100000352E+00 0.  1.
</event>
<event>
 5   0  0.3756664E-04  0.1403267E+04  0.7818609E-02  0.8951457E-01
       -1   -1    0    0    0  501  0.00000000000E+00  0.00000000000E+00  0.55292309513E+03  0.55292309515E+03  0.50400001928E-02 0. -1.
        1   -1    0    0  501    0  0.00000000000E+00  0.00000000000E+00 -0.89034017625E+03  0.89034017627E+03  0.50400001928E-02 0.  1.
    10030    2    1    2    0    0  0.00000000000E+00  0.00000000000E+00 -0.33741708112E+03  0.14432632714E+04  0.14032671107E+04 0.  0.
        2    1    3    3  502    0  0.22646295008E+03 -0.27350441200E+03 -0.79110067495E+03  0.86713920973E+03  0.25500000920E-02 0.  1.
       -2    1    3    3    0  502 -0.22646295008E+03  0.27350441200E+03  0.45368359383E+03  0.57612406169E+03  0.25500000920E-02 0. -1.
</event>
<event>
 5   0  0.3756664E-04  0.1391799E+04  0.7818609E-02  0.8959777E-01
       -1   -1    0    0    0  501  0.00000000000E+00  0.00000000000E+00  0.65483056642E+03  0.65483056644E+03  0.50400001928E-02 0. -1.
        1   -1    0    0  501    0  0.00000000000E+00  0.00000000000E+00 -0.73954376381E+03  0.73954376382E+03  0.50400001928E-02 0.  1.
    10030    2    1    2    0    0  0.00000000000E+00  0.00000000000E+00 -0.84713197384E+02  0.13943743303E+04  0.13917986374E+04 0.  0.
        2    1    3    3  502    0 -0.24812441556E+03 -0.62922589751E+03 -0.20632042172E+03  0.70714855025E+03  0.25500000920E-02 0. -1.
       -2    1    3    3    0  502  0.24812441556E+03  0.62922589751E+03  0.12160722434E+03  0.68722578001E+03  0.25500000920E-02 0.  1.
</event>
<event>
 5   0  0.3977658E-04  0.1328391E+04  0.7818609E-02  0.9007349E-01
        1   -1    0    0  501    0  0.00000000000E+00  0.00000000000E+00  0.42263258916E+03  0.42263258919E+03  0.50400001928E-02 0. -1.
       -1   -1    0    0    0  501  0.00000000000E+00  0.00000000000E+00 -0.10438275051E+04  0.10438275051E+04  0.50400001928E-02 0.  1.
    10030    2    1    2    0    0  0.00000000000E+00  0.00000000000E+00 -0.62119491591E+03  0.14664600943E+04  0.13283907876E+04 0.  0.
        5    1    3    3  502    0  0.17465063207E+03 -0.95933330726E+02  0.38883839727E+03  0.43694786464E+03  0.46999998093E+01 0. -1.
       -5    1    3    3    0  502 -0.17465063207E+03  0.95933330726E+02 -0.10100333132E+04  0.10295122296E+04  0.46999998093E+01 0.  1.
</event>
<event>
 5   0  0.6870835E-04  0.1402186E+04  0.7818609E-02  0.8952238E-01
        2   -1    0    0  501    0  0.00000000000E+00  0.00000000000E+00  0.66796584440E+03  0.66796584441E+03  0.25500000920E-02 0.  1.
       -2   -1    0    0    0  501  0.00000000000E+00  0.00000000000E+00 -0.73586257179E+03  0.73586257180E+03  0.25500000920E-02 0. -1.
    10030    2    1    2    0    0  0.00000000000E+00  0.00000000000E+00 -0.67896727392E+02  0.14038284162E+04  0.14021855286E+04 0.  0.
        2    1    3    3  502    0 -0.21649640722E+03  0.44327370251E+03 -0.53269747405E+03  0.72603640993E+03  0.25500000920E-02 0. -1.
       -2    1    3    3    0  502  0.21649640722E+03 -0.44327370251E+03  0.46480074666E+03  0.67779200628E+03  0.25500000920E-02 0.  1.
</event>
<event>
 5   0  0.6870835E-04  0.1409638E+04  0.7818609E-02  0.8946871E-01
       -2   -1    0    0    0  501  0.00000000000E+00  0.00000000000E+00  0.21340234802E+03  0.21340234803E+03  0.25500000920E-02 0.  1.
        2   -1    0    0  501    0  0.00000000000E+00  0.00000000000E+00 -0.23278554370E+04  0.23278554370E+04  0.25500000920E-02 0. -1.
    10030    2    1    2    0    0  0.00000000000E+00  0.00000000000E+00 -0.21144530889E+04  0.25412577850E+04  0.14096379906E+04 0.  0.
        2    1    3    3  502    0 -0.69945629331E+03 -0.28565299285E+02 -0.90950102766E+03  0.11477139025E+04  0.25500000920E-02 0.  1.
       -2    1    3    3    0  502  0.69945629331E+03  0.28565299285E+02 -0.12049520613E+04  0.13935438825E+04  0.25500000920E-02 0. -1.
</event>
<event>
 5   0  0.3907270E-04  0.1390792E+04  0.7818609E-02  0.8960511E-01
       -1   -1    0    0    0  501  0.00000000000E+00  0.00000000000E+00  0.22046840602E+03  0.22046840608E+03  0.50400001928E-02 0. -1.
        1   -1    0    0  501    0  0.00000000000E+00  0.00000000000E+00 -0.21933993375E+04  0.21933993375E+04  0.50400001928E-02 0.  1.
    10030    2    1    2    0    0  0.00000000000E+00  0.00000000000E+00 -0.19729309315E+04  0.24138677436E+04  0.13907915096E+04 0.  0.
        3    1    3    3  502    0  0.17417879394E+03 -0.61535620141E+03 -0.14604284212E+04  0.15943188798E+04  0.10100000352E+00 0.  1.
       -3    1    3    3    0  502 -0.17417879394E+03  0.61535620141E+03 -0.51250251031E+03  0.81954886380E+03  0.10100000352E+00 0. -1.
</event>
<event>
 5   0  0.6895048E-04  0.1397306E+04  0.7818609E-02  0.8955771E-01
       -2   -1    0    0    0  501  0.00000000000E+00  0.00000000000E+00  0.27947008647E+03  0.27947008649E+03  0.25500000920E-02 0.  1.
        2   -1    0    0  501    0  0.00000000000E+00  0.00000000000E+00 -0.17465763342E+04  0.17465763342E+04  0.25500000920E-02 0. -1.
    10030    2    1    2    0    0  0.00000000000E+00  0.00000000000E+00 -0.14671062477E+04  0.20260464207E+04  0.13973057492E+04 0.  0.
        4    1    3    3  502    0  0.14377932409E+03  0.57899342539E+02 -0.17213298053E+04  0.17282947490E+04  0.12699999809E+01 0. -1.
       -4    1    3    3    0  502 -0.14377932409E+03 -0.57899342539E+02  0.25422355754E+03  0.29775167172E+03  0.12699999809E+01 0.  1.
</event>
<event>
 5   0  0.3784219E-04  0.1227778E+04  0.7818609E-02  0.9088884E-01
        1   -1    0    0  501    0  0.00000000000E+00  0.00000000000E+00  0.12501487254E+04  0.12501487254E+04  0.50400001928E-02 0. -1.
       -1   -1    0    0    0  501  0.00000000000E+00  0.00000000000E+00 -0.30145200142E+03  0.30145200147E+03  0.50400001928E-02 0.  1.
    10030    2    1    2    0    0  0.00000000000E+00  0.00000000000E+00  0.94869672400E+03  0.15516007269E+04  0.12277782135E+04 0.  0.
        1    1    3    3  502    0  0.20803410090E+03 -0.96158060935E+02 -0.24536098800E+03  0.33574778373E+03  0.50400001928E-02 0.  1.
       -1    1    3    3    0  502 -0.20803410090E+03  0.96158060935E+02  0.11940577120E+04  0.12158529432E+04  0.50400001928E-02 0. -1.
</event>
<event>
 5   0  0.6870835E-04  0.1399386E+04  0.7818609E-02  0.8954263E-01
       -2   -1    0    0    0  501  0.00000000000E+00  0.00000000000E+00  0.48353262523E+03  0.48353262524E+03  0.25500000920E-02 0.  1.
        2   -1    0    0  501    0  0.00000000000E+00  0.00000000000E+00 -0.10124861516E+04  0.10124861516E+04  0.25500000920E-02 0. -1.
    10030    2    1    2    0    0  0.00000000000E+00  0.00000000000E+00 -0.52895352636E+03  0.14960187768E+04  0.13993857036E+04 0.  0.
        2    1    3    3  502    0 -0.61496983445E+02  0.67514995982E+03 -0.79432392736E+02  0.68258248750E+03  0.25500000920E-02 0.  1.
       -2    1    3    3    0  502  0.61496983445E+02 -0.67514995982E+03 -0.44952113362E+03  0.81343628933E+03  0.25500000920E-02 0. -1.
</event>
<event>
 5   0  0.3907270E-04  0.1398401E+04  0.7818609E-02  0.8954976E-01
        1   -1    0    0  501    0  0.00000000000E+00  0.00000000000E+00  0.97442997725E+03  0.97442997726E+03  0.50400001928E-02 0.  1.
       -1   -1    0    0    0  501  0.00000000000E+00  0.00000000000E+00 -0.50171037098E+03  0.50171037101E+03  0.50400001928E-02 0. -1.
    10030    2    1    2    0    0  0.00000000000E+00  0.00000000000E+00  0.47271960626E+03  0.14761403483E+04  0.13984014093E+04 0.  0.
        3    1    3    3  502    0  0.55591915890E+03  0.29784042276E+02 -0.21017953678E+03  0.59507028853E+03  0.10100000352E+00 0. -1.
       -3    1    3    3    0  502 -0.55591915890E+03 -0.29784042276E+02  0.68289914304E+03  0.88107005974E+03  0.10100000352E+00 0.  1.
</event>
<event>
 5   0  0.7065539E-04  0.1391030E+04  0.7818609E-02  0.8960337E-01
        2   -1    0    0  501    0  0.00000000000E+00  0.00000000000E+00  0.61889737716E+03  0.61889737716E+03  0.25500000920E-02 0. -1.
       -2   -1    0    0    0  501  0.00000000000E+00  0.00000000000E+00 -0.78161736560E+03  0.78161736561E+03  0.25500000920E-02 0.  1.
    10030    2    1    2    0    0  0.00000000000E+00  0.00000000000E+00 -0.16271998844E+03  0.14005147428E+04  0.13910297445E+04 0.  0.
        1    1    3    3  502    0 -0.30189923733E+03  0.82038665067E+02 -0.70677793915E+03  0.77292208363E+03  0.50400001928E-02 0.  1.
       -1    1    3    3    0  502  0.30189923733E+03 -0.82038665067E+02  0.54405795070E+03  0.62759265915E+03  0.50400001928E-02 0. -1.
</event>
<event>
 5   0  0.6959748E-04  0.1420113E+04  0.7818609E-02  0.8939387E-01
       -2   -1    0    0    0  501  0.00000000000E+00  0.00000000000E+00  0.62001080429E+03  0.62001080429E+03  0.25500000920E-02 0. -1.
        2   -1    0    0  501    0  0.00000000000E+00  0.00000000000E+00 -0.81317948954E+03  0.81317948955E+03  0.25500000920E-02 0.  1.
    10030    2    1    2    0    0  0.00000000000E+00  0.00000000000E+00 -0.19316868526E+03  0.14331902938E+04  0.14201127693E+04 0.  0.
        5    1    3    3  502    0  0.15619671777E+03 -0.29517732808E+03  0.53578858461E+03  0.63136246884E+03  0.46999998093E+01 0. -1.
       -5    1    3    3    0  502 -0.15619671777E+03  0.29517732808E+03 -0.72895726987E+03  0.80182782500E+03  0.46999998093E+01 0.  1.
</event>
<event>
 5   0  0.3784219E-04  0.1413989E+04  0.7818609E-02  0.8943754E-01
        1   -1    0    0  501    0  0.00000000000E+00  0.00000000000E+00  0.85582610308E+03  0.85582610309E+03  0.50400001928E-02 0.  1.
       -1   -1    0    0    0  501  0.00000000000E+00  0.00000000000E+00 -0.58404520574E+03  0.58404520577E+03  0.50400001928E-02 0. -1.
    10030    2    1    2    0    0  0.00000000000E+00  0.00000000000E+00  0.27178089734E+03  0.14398713089E+04  0.14139888719E+04 0.  0.
        1    1    3    3  502    0 -0.40346117704E+03 -0.46933960105E+03  0.48387738815E+03  0.78561944304E+03  0.50400001928E-02 0.  1.
       -1    1    3    3    0  502  0.40346117704E+03  0.46933960105E+03 -0.21209649081E+03  0.65425186582E+03  0.50400001928E-02 0. -1.
</event>
<event>
 5   0  0.3756664E-04  0.1406282E+04  0.7818609E-02  0.8949284E-01
        1   -1    0    0  501    0  0.00000000000E+00  0.00000000000E+00  0.62007662225E+03  0.62007662227E+03  0.50400001928E-02 0. -1.
       -1   -1    0    0    0  501  0.00000000000E+00  0.00000000000E+00 -0.79733294315E+03  0.79733294316E+03  0.50400001928E-02 0.  1.
    10030    2    1    2    0    0  0.00000000000E+00  0.00000000000E+00 -0.17725632089E+03  0.14174095654E+04  0.14062823589E+04 0.  0.
        2    1    3    3  502    0  0.39736673518E+03  0.55098816489E+03 -0.27150037255E+03  0.73157414687E+03  0.25500000920E-02 0. -1.
       -2    1    3    3    0  502 -0.39736673518E+03 -0.55098816489E+03  0.94244051651E+02  0.68583541856E+03  0.25500000920E-02 0.  1.
</event>
<event>
 5   0  0.3907093E-04  0.1402440E+04  0.7818609E-02  0.8952054E-01
       -1   -1    0    0    0  501  0.00000000000E+00  0.00000000000E+00  0.42570395886E+03  0.42570395888E+03  0.50400001928E-02 0.  1.
        1   -1    0    0  501    0  0.00000000000E+00  0.00000000000E+00 -0.11550506294E+04  0.11550506294E+04  0.50400001928E-02 0. -1.
    10030    2    1    2    0    0  0.00000000000E+00  0.00000000000E+00 -0.72934667058E+03  0.15807545883E+04  0.14024401957E+04 0.  0.
        4    1    3    3  502    0 -0.46444554222E+03  0.42182904328E+03 -0.71763128275E+03  0.95322907757E+03  0.12699999809E+01 0. -1.
       -4    1    3    3    0  502  0.46444554222E+03 -0.42182904328E+03 -0.11715387835E+02  0.62752551076E+03  0.12699999809E+01 0.  1.
</event>
<event>
 5   0  0.6870835E-04  0.1412469E+04  0.7818609E-02  0.8944842E-01
       -2   -1    0    0    0  501  0.00000000000E+00  0.00000000000E+00  0.51891007142E+03  0.51891007143E+03  0.25500000920E-02 0. -1.
        2   -1    0    0  501    0  0.00000000000E+00  0.00000000000E+00 -0.96118287267E+03  0.96118287267E+03  0.25500000920E-02 0.  1.
    10030    2    1    2    0    0  0.00000000000E+00  0.00000000000E+00 -0.44227280125E+03  0.14800929441E+04  0.14124694306E+04 0.  0.
        2    1    3    3  502    0  0.50436972257E+03 -0.46858379284E+03 -0.56090477044E+02  0.69072840507E+03  0.25500000920E-02 0. -1.
       -2    1    3    3    0  502 -0.50436972257E+03  0.46858379284E+03 -0.38618232420E+03  0.78936453903E+03  0.25500000920E-02 0.  1.
</event>
<event>
 5   0  0.6870835E-04  0.1393954E+04  0.7818609E-02  0.8958206E-01
       -2   -1    0    0    0  501  0.00000000000E+00  0.00000000000E+00  0.45255698776E+03  0.45255698777E+03  0.25500000920E-02 0. -1.
        2   -1    0    0  501    0  0.00000000000E+00  0.00000000000E+00 -0.10734057331E+04  0.10734057331E+04  0.25500000920E-02 0.  1.
    10030    2    1    2    0    0  0.00000000000E+00  0.00000000000E+00 -0.62084874536E+03  0.15259627209E+04  0.13939544687E+04 0.  0.
        2    1    3    3  502    0  0.34295660372E+03  0.60066697968E+03 -0.40432143214E+03  0.80118404440E+03  0.25500000920E-02 0.  1.
       -2    1    3    3    0  502 -0.34295660372E+03 -0.60066697968E+03 -0.21652731322E+03  0.72477867649E+03  0.25500000920E-02 0. -1.
</event>
<event>
 5   0  0.6895048E-04  0.1388539E+04  0.7818609E-02  0.8962157E-01
        2   -1    0    0  501    0  0.00000000000E+00  0.00000000000E+00  0.12501579709E+04  0.12501579709E+04  0.25500000920E-02 0. -1.
       -2   -1    0    0    0  501  0.00000000000E+00  0.00000000000E+00 -0.38555930984E+03  0.38555930984E+03  0.25500000920E-02 0.  1.
    10030    2    1    2    0    0  0.00000000000E+00  0.00000000000E+00  0.86459866102E+03  0.16357172807E+04  0.13885388643E+04 0.  0.
        4    1    3    3  502    0  0.28087776806E+03 -0.13467218272E+03 -0.29861926664E+03  0.43151361125E+03  0.12699999809E+01 0.  1.
       -4    1    3    3    0  502 -0.28087776806E+03  0.13467218272E+03  0.11632179277E+04  0.12042036694E+04  0.12699999809E+01 0. -1.
</event>
<event>
 5   0  0.6959748E-04  0.1329918E+04  0.7818609E-02  0.9006171E-01
       -2   -1    0    0    0  501  0.00000000000E+00  0.00000000000E+00  0.69947944448E+03  0.69947944449E+03  0.25500000920E-02 0.  1.
        2   -1    0    0  501    0  0.00000000000E+00  0.00000000000E+00 -0.63214223442E+03  0.63214223443E+03  0.25500000920E-02 0. -1.
    10030    2    1    2    0    0  0.00000000000E+00  0.00000000000E+00  0.67337210060E+02  0.13316216789E+04  0.13299180410E+04 0.  0.
        5    1    3    3  502    0 -0.58511154921E+03 -0.11871030291E+03  0.32679051746E+03  0.68063337660E+03  0.46999998093E+01 0.  1.
       -5    1    3    3    0  502  0.58511154921E+03  0.11871030291E+03 -0.25945330740E+03  0.65098830232E+03  0.46999998093E+01 0. -1.
</event>
<event>
 5   0  0.6870835E-04  0.1416012E+04  0.7818609E-02  0.8942309E-01
        2   -1    0    0  501    0  0.00000000000E+00  0.00000000000E+00  0.27175472301E+04  0.27175472301E+04  0.25500000920E-02 0. -1.
       -2   -1    0    0    0  501  0.00000000000E+00  0.00000000000E+00 -0.18445774318E+03  0.18445774320E+03  0.25500000920E-02 0.  1.
    10030    2    1    2    0    0  0.00000000000E+00  0.00000000000E+00  0.25330894869E+04  0.29020049733E+04  0.14160121879E+04 0.  0.
        2    1    3    3  502    0 -0.41170457262E+03 -0.40610314924E+03  0.42940658657E+03  0.72028497106E+03  0.25500000920E-02 0.  1.
       -2    1    3    3    0  502  0.41170457262E+03  0.40610314924E+03  0.21036829003E+04  0.21817200022E+04  0.25500000920E-02 0. -1.
</event>
<event>
 5   0  0.7065539E-04  0.1395090E+04  0.7818609E-02  0.8957381E-01
        2   -1    0    0  501    0  0.00000000000E+00  0.00000000000E+00  0.65302699821E+03  0.65302699822E+03  0.25500000920E-02 0. -1.
       -2   -1    0    0    0  501  0.00000000000E+00  0.00000000000E+00 -0.74509761719E+03  0.74509761720E+03  0.25500000920E-02 0.  1.
    10030    2    1    2    0    0  0.00000000000E+00  0.00000000000E+00 -0.92070618980E+02  0.13981246154E+04  0.13950897610E+04 0.  0.
        1    1    3    3  502    0 -0.53645125659E+03  0.28072831901E+03 -0.39317086722E+03  0.72192220540E+03  0.50400001928E-02 0.  1.
       -1    1    3    3    0  502  0.53645125659E+03 -0.28072831901E+03  0.30110024824E+03  0.67620241001E+03  0.50400001928E-02 0. -1.
</event>
<event>
 5   0  0.6895048E-04  0.1398288E+04  0.7818609E-02  0.8955059E-01
        2   -1    0    0  501    0  0.00000000000E+00  0.00000000000E+00  0.15859976739E+04  0.15859976739E+04  0.25500000920E-02 0.  1.
       -2   -1    0    0    0  501  0.00000000000E+00  0.00000000000E+00 -0.30819873487E+03  0.30819873488E+03  0.25500000920E-02 0. -1.
    10030    2    1    2    0    0  0.00000000000E+00  0.00000000000E+00  0.12777989390E+04  0.18941964087E+04  0.13982882058E+04 0.  0.
        4    1    3    3  502    0 -0.29750235965E+03  0.47917027796E+03  0.11985683388E+04  0.13246431538E+04  0.12699999809E+01 0.  1.
       -4    1    3    3    0  502  0.29750235965E+03 -0.47917027796E+03  0.79230600165E+02  0.56955325491E+03  0.12699999809E+01 0. -1.
</event>
<event>
 5   0  0.6895048E-04  0.1405037E+04  0.7818609E-02  0.8950181E-01
       -2   -1    0    0    0  501  0.00000000000E+00  0.00000000000E+00  0.52709089464E+03  0.52709089464E+03  0.25500000920E-02 0.  1.
        2   -1    0    0  501    0  0.00000000000E+00  0.00000000000E+00 -0.93633237013E+03  0.93633237013E+03  0.25500000920E-02 0. -1.
    10030    2    1    2    0    0  0.00000000000E+00  0.00000000000E+00 -0.40924147549E+03  0.14634232648E+04  0.14050370339E+04 0.  0.
        4    1    3    3  502    0 -0.14530927340E+03 -0.90497563302E+02 -0.91427520609E+03  0.93016415717E+03  0.12699999809E+01 0. -1.
       -4    1    3    3    0  502  0.14530927340E+03  0.90497563302E+02  0.50503373060E+03  0.53325910761E+03  0.12699999809E+01 0.  1.
</event>
<event>
 5   0  0.6959748E-04  0.1400419E+04  0.7818609E-02  0.8953515E-01
       -2   -1    0    0    0  501  0.00000000000E+00  0.00000000000E+00  0.39352915296E+03  0.39352915296E+03  0.25500000920E-02 0. -1.
        2   -1    0    0  501    0  0.00000000000E+00  0.00000000000E+00 -0.12458879148E+04  0.12458879148E+04  0.25500000920E-02 0.  1.
    10030    2    1    2    0    0  0.00000000000E+00  0.00000000000E+00 -0.85235876184E+03  0.16394170678E+04  0.14004188171E+04 0.  0.
        5    1    3    3  502    0  0.33043080037E+03  0.61163509962E+03 -0.32831094083E+03  0.76882519001E+03  0.46999998093E+01 0.  1.
       -5    1    3    3    0  502 -0.33043080037E+03 -0.61163509962E+03 -0.52404782100E+03  0.87059187776E+03  0.46999998093E+01 0. -1.
</event>
<event>
 5   0  0.3756664E-04  0.1315459E+04  0.7818609E-02  0.9017395E-01
       -1   -1    0    0    0  501  0.00000000000E+00  0.00000000000E+00  0.64808266182E+03  0.64808266184E+03  0.50400001928E-02 0. -1.
        1   -1    0    0  501    0  0.00000000000E+00  0.00000000000E+00 -0.66751988448E+03  0.66751988450E+03  0.50400001928E-02 0.  1.
    10030    2    1    2    0    0  0.00000000000E+00  0.00000000000E+00 -0.19437222664E+02  0.13156025463E+04  0.13154589520E+04 0.  0.
        2    1    3    3  502    0  0.26452561829E+03 -0.12588985148E+03 -0.59866828660E+03  0.66650264427E+03  0.25500000920E-02 0.  1.
       -2    1    3    3    0  502 -0.26452561829E+03  0.12588985148E+03  0.57923106394E+03  0.64909990207E+03  0.25500000920E-02 0. -1.
</event>
<event>
 5   0  0.6959748E-04  0.1398951E+04  0.7818609E-02  0.8954578E-01
        2   -1    0    0  501    0  0.00000000000E+00  0.00000000000E+00  0.89482561536E+03  0.89482561536E+03  0.25500000920E-02 0.  1.
       -2   -1    0    0    0  501  0.00000000000E+00  0.00000000000E+00 -0.54677265680E+03  0.54677265681E+03  0.25500000920E-02 0. -1.
    10030    2    1    2    0    0  0.00000000000E+00  0.00000000000E+00  0.34805295856E+03  0.14415982722E+04  0.13989512916E+04 0.  0.
        5    1    3    3  502    0 -0.22288082730E+03 -0.13393646405E+03  0.84315112310E+03  0.88234955996E+03  0.46999998093E+01 0.  1.
       -5    1    3    3    0  502  0.22288082730E+03  0.13393646405E+03 -0.49509816454E+03  0.55924871221E+03  0.46999998093E+01 0. -1.
</event>
<event>
 5   0  0.7296966E-04  0.1455086E+04  0.7818609E-02  0.8914882E-01
        2   -1    0    0  501    0  0.00000000000E+00  0.00000000000E+00  0.16223446318E+04  0.16223446318E+04  0.25500000920E-02 0. -1.
       -2   -1    0    0    0  501  0.00000000000E+00  0.00000000000E+00 -0.32626796948E+03  0.32626796949E+03  0.25500000920E-02 0.  1.
    10030    2    1    2    0    0  0.00000000000E+00  0.00000000000E+00  0.12960766623E+04  0.19486126013E+04  0.14550863738E+04 0.  0.
        3    1    3    3  502    0  0.48559322691E+03 -0.39851279281E+03  0.15653104281E+03  0.64739107626E+03  0.10100000352E+00 0.  1.
       -3    1    3    3    0  502 -0.48559322691E+03  0.39851279281E+03  0.11395456195E+04  0.13012215250E+04  0.10100000352E+00 0. -1.
</event>
<event>
 5   0  0.2660250E-04  0.1395477E+04  0.7818609E-02  0.8957099E-01
        4   -1    0    0  501    0  0.00000000000E+00  0.00000000000E+00  0.96877178700E+03  0.96877261944E+03  0.12699999809E+01 0.  1.
       -4   -1    0    0    0  501  0.00000000000E+00  0.00000000000E+00 -0.50253068050E+03  0.50253228528E+03  0.12699999809E+01 0. -1.
    10030    2    1    2    0    0  0.00000000000E+00  0.00000000000E+00  0.46624110650E+03  0.14713049047E+04  0.13954774643E+04 0.  0.
        2    1    3    3  502    0 -0.39095275659E+03 -0.41970457796E+03 -0.18576269913E+03  0.60291273916E+03  0.25500000920E-02 0. -1.
       -2    1    3    3    0  502  0.39095275659E+03  0.41970457796E+03  0.65200380562E+03  0.86839216556E+03  0.25500000920E-02 0.  1.
</event>
<event>
 5   0  0.3784219E-04  0.1229449E+04  0.7818609E-02  0.9087463E-01
        1   -1    0    0  501    0  0.00000000000E+00  0.00000000000E+00  0.53340883917E+03  0.53340883920E+03  0.50400001928E-02 0.  1.
       -1   -1    0    0    0  501  0.00000000000E+00  0.00000000000E+00 -0.70843639189E+03  0.70843639191E+03  0.50400001928E-02 0. -1.
    10030    2    1    2    0    0  0.00000000000E+00  0.00000000000E+00 -0.17502755271E+03  0.12418452311E+04  0.12294490367E+04 0.  0.
        1    1    3    3  502    0 -0.57150819423E+03  0.14258262365E+03 -0.26517010744E+03  0.64596176864E+03  0.50400001928E-02 0. -1.
       -1    1    3    3    0  502  0.57150819423E+03 -0.14258262365E+03  0.90142554728E+02  0.59588346246E+03  0.50400001928E-02 0.  1.
</event>
<event>
 5   0  0.3977658E-04  0.1400531E+04  0.7818609E-02  0.8953434E-01
       -1   -1    0    0    0  501  0.00000000000E+00  0.00000000000E+00  0.28217789976E+03  0.28217789980E+03  0.50400001928E-02 0.  1.
        1   -1    0    0  501    0  0.00000000000E+00  0.00000000000E+00 -0.17378100300E+04  0.17378100300E+04  0.50400001928E-02 0. -1.
    10030    2    1    2    0    0  0.00000000000E+00  0.00000000000E+00 -0.14556321302E+04  0.20199879298E+04  0.14005307344E+04 0.  0.
        5    1    3    3  502    0 -0.46292048560E+03  0.22697341283E+03 -0.14112558721E+04  0.15024904434E+04  0.46999998093E+01 0. -1.
       -5    1    3    3    0  502  0.46292048560E+03 -0.22697341283E+03 -0.44376258158E+02  0.51749748637E+03  0.46999998093E+01 0.  1.
</event>
<event>
 5   0  0.3977658E-04  0.1436593E+04  0.7818609E-02  0.8927748E-01
       -1   -1    0    0    0  501  0.00000000000E+00  0.00000000000E+00  0.16638645200E+04  0.16638645200E+04  0.50400001928E-02 0.  1.
        1   -1    0    0  501    0  0.00000000000E+00  0.00000000000E+00 -0.31009146324E+03  0.31009146328E+03  0.50400001928E-02 0. -1.
    10030    2    1    2    0    0  0.00000000000E+00  0.00000000000E+00  0.13537730568E+04  0.19739559833E+04  0.14365934480E+04 0.  0.
        5    1    3    3  502    0  0.45429336224E+03 -0.53317785710E+03  0.89530053557E+03  0.11367700846E+04  0.46999998093E+01 0.  1.
       -5    1    3    3    0  502 -0.45429336224E+03  0.53317785710E+03  0.45847252123E+03  0.83718589871E+03  0.46999998093E+01 0. -1.
</event>
<event>
 5   0  0.7065539E-04  0.1398430E+04  0.7818609E-02  0.8954956E-01
        2   -1    0    0  501    0  0.00000000000E+00  0.00000000000E+00  0.13352645747E+04  0.13352645747E+04  0.25500000920E-02 0. -1.
       -2   -1    0    0    0  501  0.00000000000E+00  0.00000000000E+00 -0.36614576819E+03  0.36614576820E+03  0.25500000920E-02 0.  1.
    10030    2    1    2    0    0  0.00000000000E+00  0.00000000000E+00  0.96911880647E+03  0.17014103429E+04  0.13984297958E+04 0.  0.
        1    1    3    3  502    0  0.38618734120E+03 -0.52738238211E+03  0.78659607119E+03  0.10227444542E+04  0.50400001928E-02 0. -1.
       -1    1    3    3    0  502 -0.38618734120E+03  0.52738238211E+03  0.18252273528E+03  0.67866588862E+03  0.50400001928E-02 0.  1.
</event>
<event>
 5   0  0.7065539E-04  0.1394409E+04  0.7818609E-02  0.8957875E-01
       -2   -1    0    0    0  501  0.00000000000E+00  0.00000000000E+00  0.43278514484E+03  0.43278514484E+03  0.25500000920E-02 0. -1.
        2   -1    0    0  501    0  0.00000000000E+00  0.00000000000E+00 -0.11231766956E+04  0.11231766956E+04  0.25500000920E-02 0.  1.
    10030    2    1    2    0    0  0.00000000000E+00  0.00000000000E+00 -0.69039155077E+03  0.15559618404E+04  0.13944091062E+04 0.  0.
        1    1    3    3  502    0  0.98323382218E+02  0.27063028508E+03 -0.10537309682E+04  0.10923631228E+04  0.50400001928E-02 0.  1.
       -1    1    3    3    0  502 -0.98323382218E+02 -0.27063028508E+03  0.36333941745E+03  0.46359871763E+03  0.50400001928E-02 0. -1.
</event>
<event>
 5   0  0.3907093E-04  0.1403743E+04  0.7818609E-02  0.8951114E-01
        1   -1    0    0  501    0  0.00000000000E+00  0.00000000000E+00  0.58931371025E+03  0.58931371027E+03  0.50400001928E-02 0.  1.
       -1   -1    0    0    0  501  0.00000000000E+00  0.00000000000E+00 -0.83592754031E+03  0.83592754033E+03  0.50400001928E-02 0. -1.
    10030    2    1    2    0    0  0.00000000000E+00  0.00000000000E+00 -0.24661383007E+03  0.14252412506E+04  0.14037429399E+04 0.  0.
        4    1    3    3  502    0  0.22647389604E+03  0.58915850230E+03  0.18835308211E+03  0.65869314773E+03  0.12699999809E+01 0.  1.
       -4    1    3    3    0  502 -0.22647389604E+03 -0.58915850230E+03 -0.43496691217E+03  0.76654810287E+03  0.12699999809E+01 0. -1.
</event>
<event>
 5   0  0.6870835E-04  0.1403234E+04  0.7818609E-02  0.8951481E-01
       -2   -1    0    0    0  501  0.00000000000E+00  0.00000000000E+00  0.23826856985E+03  0.23826856986E+03  0.25500000920E-02 0.  1.
        2   -1    0    0  501    0  0.00000000000E+00  0.00000000000E+00 -0.20660148147E+04  0.20660148147E+04  0.25500000920E-02 0. -1.
    10030    2    1    2    0    0  0.00000000000E+00  0.00000000000E+00 -0.18277462449E+04  0.23042833846E+04  0.14032339722E+04 0.  0.
        2    1    3    3  502    0  0.25798091447E+01  0.60630614382E+03 -0.14936440956E+04  0.16120131761E+04  0.25500000920E-02 0. -1.
       -2    1    3    3    0  502 -0.25798091447E+01 -0.60630614382E+03 -0.33410214925E+03  0.69227020851E+03  0.25500000920E-02 0.  1.
</event>
<event>
 5   0  0.2660250E-04  0.1399504E+04  0.7818609E-02  0.8954178E-01
       -3   -1    0    0    0  501  0.00000000000E+00  0.00000000000E+00  0.69995476669E+03  0.69995477397E+03  0.10100000352E+00 0.  1.
        3   -1    0    0  501    0  0.00000000000E+00  0.00000000000E+00 -0.69954944960E+03  0.69954945689E+03  0.10100000352E+00 0. -1.
    10030    2    1    2    0    0  0.00000000000E+00  0.00000000000E+00  0.40531708512E+00  0.13995042309E+04  0.13995041722E+04 0.  0.
        2    1    3    3  502    0  0.38607707344E+03 -0.46558300298E+03 -0.35169214544E+03  0.69965020150E+03  0.25500000920E-02 0. -1.
       -2    1    3    3    0  502 -0.38607707344E+03  0.46558300298E+03  0.35209746252E+03  0.69985402936E+03  0.25500000920E-02 0.  1.
</event>
<event>
 5   0  0.6959748E-04  0.1401896E+04  0.7818609E-02  0.8952447E-01
        2   -1    0    0  501    0  0.00000000000E+00  0.00000000000E+00  0.15123623242E+04  0.15123623242E+04  0.25500000920E-02 0.  1.
       -2   -1    0    0    0  501  0.00000000000E+00  0.00000000000E+00 -0.32487475625E+03  0.32487475626E+03  0.25500000920E-02 0. -1.
    10030    2    1    2    0    0  0.00000000000E+00  0.00000000000E+00  0.11874875679E+04  0.18372370804E+04  0.14018963463E+04 0.  0.
        5    1    3    3  502    0  0.39370486351E+03  0.41202425043E+03  0.58924636776E+02  0.57294127562E+03  0.46999998093E+01 0. -1.
       -5    1    3    3    0  502 -0.39370486351E+03 -0.41202425043E+03  0.11285629311E+04  0.12642958048E+04  0.46999998093E+01 0.  1.
</event>
<event>
 5   0  0.6959748E-04  0.1402015E+04  0.7818609E-02  0.8952361E-01
       -2   -1    0    0    0  501  0.00000000000E+00  0.00000000000E+00  0.55329048106E+03  0.55329048107E+03  0.25500000920E-02 0.  1.
        2   -1    0    0  501    0  0.00000000000E+00  0.00000000000E+00 -0.88816200619E+03  0.88816200619E+03  0.25500000920E-02 0. -1.
    10030    2    1    2    0    0  0.00000000000E+00  0.00000000000E+00 -0.33487152513E+03  0.14414524873E+04  0.14020150979E+04 0.  0.
        5    1    3    3  502    0  0.75440810049E+02  0.69407399633E+02  0.54552619289E+03  0.55509424431E+03  0.46999998093E+01 0.  1.
       -5    1    3    3    0  502 -0.75440810049E+02 -0.69407399633E+02 -0.88039771802E+03  0.88635824294E+03  0.46999998093E+01 0. -1.
</event>
<event>
 5   0  0.3784219E-04  0.1401577E+04  0.7818609E-02  0.8952678E-01
       -1   -1    0    0    0  501  0.00000000000E+00  0.00000000000E+00  0.29173728787E+03  0.29173728791E+03  0.50400001928E-02 0. -1.
        1   -1    0    0  501    0  0.00000000000E+00  0.00000000000E+00 -0.16833790343E+04  0.16833790343E+04  0.50400001928E-02 0.  1.
    10030    2    1    2    0    0  0.00000000000E+00  0.00000000000E+00 -0.13916417464E+04  0.19751163222E+04  0.14015768748E+04 0.  0.
        1    1    3    3  502    0  0.44217103036E+03  0.72155190719E+02  0.63562756465E+02  0.45250614987E+03  0.50400001928E-02 0. -1.
       -1    1    3    3    0  502 -0.44217103036E+03 -0.72155190719E+02 -0.14552045029E+04  0.15226101723E+04  0.50400001928E-02 0.  1.
</event>
<event>
 5   0  0.3907093E-04  0.1380718E+04  0.7818609E-02  0.8967896E-01
       -1   -1    0    0    0  501  0.00000000000E+00  0.00000000000E+00  0.44238076505E+03  0.44238076508E+03  0.50400001928E-02 0.  1.
        1   -1    0    0  501    0  0.00000000000E+00  0.00000000000E+00 -0.10773417745E+04  0.10773417746E+04  0.50400001928E-02 0. -1.
    10030    2    1    2    0    0  0.00000000000E+00  0.00000000000E+00 -0.63496100949E+03  0.15197225396E+04  0.13807176083E+04 0.  0.
        4    1    3    3  502    0  0.62528955142E+03  0.77788818873E+02 -0.70283624762E+01  0.63015008866E+03  0.12699999809E+01 0.  1.
       -4    1    3    3    0  502 -0.62528955142E+03 -0.77788818873E+02 -0.62793264702E+03  0.88957245098E+03  0.12699999809E+01 0. -1.
</event>
<event>
 5   0  0.7296966E-04  0.1401758E+04  0.7818609E-02  0.8952547E-01
       -2   -1    0    0    0  501  0.00000000000E+00  0.00000000000E+00  0.26231742487E+03  0.26231742489E+03  0.25500000920E-02 0.  1.
        2   -1    0    0  501    0  0.00000000000E+00  0.00000000000E+00 -0.18726604212E+04  0.18726604212E+04  0.25500000920E-02 0. -1.
    10030    2    1    2    0    0  0.00000000000E+00  0.00000000000E+00 -0.16103429963E+04  0.21349778461E+04  0.14017581237E+04 0.  0.
        3    1    3    3  502    0  0.34883245601E+03  0.56001981372E+03 -0.11653551254E+04  0.13391634898E+04  0.10100000352E+00 0. -1.
       -3    1    3    3    0  502 -0.34883245601E+03 -0.56001981372E+03 -0.44498787099E+03  0.79581435627E+03  0.10100000352E+00 0.  1.
</event>
<event>
 5   0  0.7065539E-04  0.1408626E+04  0.7818609E-02  0.8947598E-01
        2   -1    0    0  501    0  0.00000000000E+00  0.00000000000E+00  0.72254252144E+03  0.72254252144E+03  0.25500000920E-02 0. -1.
       -2   -1    0    0    0  501  0.00000000000E+00  0.00000000000E+00 -0.68654387307E+03  0.68654387308E+03  0.25500000920E-02 0.  1.
    10030    2    1    2    0    0  0.00000000000E+00  0.00000000000E+00  0.35998648365E+02  0.14090863945E+04  0.14086264816E+04 0.  0.
        1    1    3    3  502    0  0.65352792769E+03 -0.82907586405E+02 -0.23125008621E+03  0.69817549552E+03  0.50400001928E-02 0. -1.
       -1    1    3    3    0  502 -0.65352792769E+03  0.82907586405E+02  0.26724873458E+03  0.71091089899E+03  0.50400001928E-02 0.  1.
</event>
<event>
 5   0  0.6959748E-04  0.1405077E+04  0.7818609E-02  0.8950152E-01
       -2   -1    0    0    0  501  0.00000000000E+00  0.00000000000E+00  0.27678595014E+03  0.27678595015E+03  0.25500000920E-02 0.  1.
        2   -1    0    0  501    0  0.00000000000E+00  0.00000000000E+00 -0.17831835793E+04  0.17831835793E+04  0.25500000920E-02 0. -1.
    10030    2    1    2    0    0  0.00000000000E+00  0.00000000000E+00 -0.15063976291E+04  0.20599695294E+04  0.14050767399E+04 0.  0.
        5    1    3    3  502    0 -0.40160985264E+02 -0.41150192700E+03 -0.15858960024E+04  0.16389127375E+04  0.46999998093E+01 0. -1.
       -5    1    3    3    0  502  0.40160985264E+02  0.41150192700E+03  0.79498373305E+02  0.42105679191E+03  0.46999998093E+01 0.  1.
</event>
<event>
 5   0  0.2660250E-04  0.1403531E+04  0.7818609E-02  0.8951267E-01
        4   -1    0    0  501    0  0.00000000000E+00  0.00000000000E+00  0.77400226453E+03  0.77400330645E+03  0.12699999809E+01 0.  1.
       -4   -1    0    0    0  501  0.00000000000E+00  0.00000000000E+00 -0.63626810097E+03  0.63626936844E+03  0.12699999809E+01 0. -1.
    10030    2    1    2    0    0  0.00000000000E+00  0.00000000000E+00  0.13773416355E+03  0.14102726749E+04  0.14035306615E+04 0.  0.
        4    1    3    3  502    0 -0.44279052388E+02 -0.51496156086E+03  0.54583341957E+03  0.75171921518E+03  0.12699999809E+01 0.  1.
       -4    1    3    3    0  502  0.44279052388E+02  0.51496156086E+03 -0.40809925601E+03  0.65855345972E+03  0.12699999809E+01 0. -1.
</event>
<event>
 5   0  0.7296966E-04  0.1402968E+04  0.7818609E-02  0.8951673E-01
        2   -1    0    0  501    0  0.00000000000E+00  0.00000000000E+00  0.70084022776E+03  0.70084022776E+03  0.25500000920E-02 0.  1.
       -2   -1    0    0    0  501  0.00000000000E+00  0.00000000000E+00 -0.70212851468E+03  0.70212851468E+03  0.25500000920E-02 0. -1.
    10030    2    1    2    0    0  0.00000000000E+00  0.00000000000E+00 -0.12882869193E+01  0.14029687424E+04  0.14029681510E+04 0.  0.
        3    1    3    3  502    0 -0.33674555585E+03 -0.14521171446E+03 -0.59863761172E+03  0.70203348336E+03  0.10100000352E+00 0. -1.
       -3    1    3    3    0  502  0.33674555585E+03  0.14521171446E+03  0.59734932480E+03  0.70093525909E+03  0.10100000352E+00 0.  1.
</event>
<event>
 5   0  0.6895048E-04  0.1401229E+04  0.7818609E-02  0.8952929E-01
       -2   -1    0    0    0  501  0.00000000000E+00  0.00000000000E+00  0.53926121682E+03  0.53926121683E+03  0.25500000920E-02 0.  1.
        2   -1    0    0  501    0  0.00000000000E+00  0.00000000000E+00 -0.91024712052E+03  0.91024712052E+03  0.25500000920E-02 0. -1.
    10030    2    1    2    0    0  0.00000000000E+00  0.00000000000E+00 -0.37098590370E+03  0.14495083374E+04  0.14012294171E+04 0.  0.
        4    1    3    3  502    0 -0.43339000837E+03  0.40129795149E+02  0.38244250915E+03  0.57939726054E+03  0.12699999809E+01 0.  1.
       -4    1    3    3    0  502  0.43339000837E+03 -0.40129795149E+02 -0.75342841285E+03  0.87011107682E+03  0.12699999809E+01 0. -1.
</event>
<event>
 5   0  0.3977658E-04  0.1392401E+04  0.7818609E-02  0.8959337E-01
        1   -1    0    0  501    0  0.00000000000E+00  0.00000000000E+00  0.70603918417E+03  0.70603918418E+03  0.50400001928E-02 0.  1.
       -1   -1    0    0    0  501  0.00000000000E+00  0.00000000000E+00 -0.68649924897E+03  0.68649924899E+03  0.50400001928E-02 0. -1.
    10030    2    1    2    0    0  0.00000000000E+00  0.00000000000E+00  0.19539935193E+02  0.13925384332E+04  0.13924013354E+04 0.  0.
        5    1    3    3  502    0 -0.59204631553E+03  0.36063359854E+03 -0.54250767875E+02  0.69537088517E+03  0.46999998093E+01 0. -1.
       -5    1    3    3    0  502  0.59204631553E+03 -0.36063359854E+03  0.73790703068E+02  0.69716754800E+03  0.46999998093E+01 0.  1.
</event>
<event>
 5   0  0.7296966E-04  0.1420978E+04  0.7818609E-02  0.8938772E-01
       -2   -1    0    0    0  501  0.00000000000E+00  0.00000000000E+00  0.34218714064E+03  0.34218714065E+03  0.25500000920E-02 0.  1.
        2   -1    0    0  501    0  0.00000000000E+00  0.00000000000E+00 -0.14752007369E+04  0.14752007369E+04  0.25500000920E-02 0. -1.
    10030    2    1    2    0    0  0.00000000000E+00  0.00000000000E+00 -0.11330135962E+04  0.18173878775E+04  0.14209781448E+04 0.  0.
        3    1    3    3  502    0  0.60369158811E+03 -0.27326613436E+03 -0.89427454392E+03  0.11130340893E+04  0.10100000352E+00 0. -1.
       -3    1    3    3    0  502 -0.60369158811E+03  0.27326613436E+03 -0.23873905229E+03  0.70435378825E+03  0.10100000352E+00 0.  1.
</event>
<event>
 5   0  0.6895048E-04  0.1397953E+04  0.7818609E-02  0.8955302E-01
       -2   -1    0    0    0  501  0.00000000000E+00  0.00000000000E+00  0.14474678060E+04  0.14474678060E+04  0.25500000920E-02 0.  1.
        2   -1    0    0  501    0  0.00000000000E+00  0.00000000000E+00 -0.33753277985E+03  0.33753277986E+03  0.25500000920E-02 0. -1.
    10030    2    1    2    0    0  0.00000000000E+00  0.00000000000E+00  0.11099350261E+04  0.17850005858E+04  0.13979525490E+04 0.  0.
        4    1    3    3  502    0 -0.30409686697E+03  0.47341144186E+02 -0.24636253810E+03  0.39422354257E+03  0.12699999809E+01 0. -1.
       -4    1    3    3    0  502  0.30409686697E+03 -0.47341144186E+02  0.13562975642E+04  0.13907770432E+04  0.12699999809E+01 0.  1.
</event>
<event>
 5   0  0.7065539E-04  0.1400533E+04  0.7818609E-02  0.8953433E-01
       -2   -1    0    0    0  501  0.00000000000E+00  0.00000000000E+00  0.40124002878E+03  0.40124002879E+03  0.25500000920E-02 0.  1.
        2   -1    0    0  501    0  0.00000000000E+00  0.00000000000E+00 -0.12221441343E+04  0.12221441343E+04  0.25500000920E-02 0. -1.
    10030    2    1    2    0    0  0.00000000000E+00  0.00000000000E+00 -0.82090410557E+03  0.16233841631E+04  0.14005329666E+04 0.  0.
        1    1    3    3  502    0  0.62083828867E+03  0.30013666615E+02 -0.78431441799E+03  0.10007447762E+04  0.50400001928E-02 0. -1.
       -1    1    3    3    0  502 -0.62083828867E+03 -0.30013666615E+02 -0.36589687578E+02  0.62263938690E+03  0.50400001928E-02 0.  1.
</event>
<event>
 5   0  0.3907093E-04  0.1383217E+04  0.7818609E-02  0.8966057E-01
       -1   -1    0    0    0  501  0.00000000000E+00  0.00000000000E+00  0.55118526745E+03  0.55118526747E+03  0.50400001928E-02 0.  1.
        1   -1    0    0  501    0  0.00000000000E+00  0.00000000000E+00 -0.86780675382E+03  0.86780675383E+03  0.50400001928E-02 0. -1.
    10030    2    1    2    0    0  0.00000000000E+00  0.00000000000E+00 -0.31662148636E+03  0.14189920213E+04  0.13832169717E+04 0.  0.
        4    1    3    3  502    0 -0.22225092268E+03  0.16354700177E+03  0.49226606644E+03  0.56433198340E+03  0.12699999809E+01 0.  1.
       -4    1    3    3    0  502  0.22225092268E+03 -0.16354700177E+03 -0.80888755280E+03  0.85466003791E+03  0.12699999809E+01 0. -1.
</event>
<event>
 5   0  0.7296966E-04  0.1399516E+04  0.7818609E-02  0.8954169E-01
        2   -1    0    0  501    0  0.00000000000E+00  0.00000000000E+00  0.12048611211E+04  0.12048611211E+04  0.25500000920E-02 0. -1.
       -2   -1    0    0    0  501  0.00000000000E+00  0.00000000000E+00 -0.40640477303E+03  0.40640477304E+03  0.25500000920E-02 0.  1.
    10030    2    1    2    0    0  0.00000000000E+00  0.00000000000E+00  0.79845634804E+03  0.16112658941E+04  0.13995160742E+04 0.  0.
        3    1    3    3  502    0  0.10198591950E+03 -0.51925833829E+03  0.92635731453E+03  0.10668496773E+04  0.10100000352E+00 0. -1.
       -3    1    3    3    0  502 -0.10198591950E+03  0.51925833829E+03 -0.12790096649E+03  0.54441621678E+03  0.10100000352E+00 0.  1.
</event>
<event>
 5   0  0.6959748E-04  0.1372208E+04  0.7818609E-02  0.8974185E-01
        2   -1    0    0  501    0  0.00000000000E+00  0.00000000000E+00  0.10980261487E+04  0.10980261487E+04  0.25500000920E-02 0.  1.
       -2   -1    0    0    0  501  0.00000000000E+00  0.00000000000E+00 -0.42871366867E+03  0.42871366868E+03  0.25500000920E-02 0. -1.
    10030    2    1    2    0    0  0.00000000000E+00  0.00000000000E+00  0.66931247999E+03  0.15267398173E+04  0.13722081744E+04 0.  0.
        5    1    3    3  502    0 -0.74390211621E+02 -0.14101459978E+03  0.10771114509E+04  0.10888572856E+04  0.46999998093E+01 0.  1.
       -5    1    3    3    0  502  0.74390211621E+02  0.14101459978E+03 -0.40779897086E+03  0.43788253170E+03  0.46999998093E+01 0. -1.
</event>
<event>
 5   0  0.3907270E-04  0.1394510E+04  0.7818609E-02  0.8957802E-01
        1   -1    0    0  501    0  0.00000000000E+00  0.00000000000E+00  0.89236534786E+03  0.89236534787E+03  0.50400001928E-02 0. -1.
       -1   -1    0    0    0  501  0.00000000000E+00  0.00000000000E+00 -0.54480428723E+03  0.54480428725E+03  0.50400001928E-02 0.  1.
    10030    2    1    2    0    0  0.00000000000E+00  0.00000000000E+00  0.34756106063E+03  0.14371696351E+04  0.13945099029E+04 0.  0.
        3    1    3    3  502    0  0.57962299012E+02  0.38724771408E+03 -0.42079471051E+03  0.57479441435E+03  0.10100000352E+00 0.  1.
       -3    1    3    3    0  502 -0.57962299012E+02 -0.38724771408E+03  0.76835577114E+03  0.86237522078E+03  0.10100000352E+00 0. -1.
</event>
<event>
 5   0  0.2660250E-04  0.1390777E+04  0.7818609E-02  0.8960522E-01
        3   -1    0    0  501    0  0.00000000000E+00  0.00000000000E+00  0.14834963170E+04  0.14834963204E+04  0.10100000352E+00 0. -1.
       -3   -1    0    0    0  501  0.00000000000E+00  0.00000000000E+00 -0.32596328218E+03  0.32596329783E+03  0.10100000352E+00 0.  1.
    10030    2    1    2    0    0  0.00000000000E+00  0.00000000000E+00  0.11575330348E+04  0.18094596182E+04  0.13907772587E+04 0.  0.
        3    1    3    3  502    0  0.14912874006E+03 -0.18072500080E+03 -0.27305780783E+03  0.35980756474E+03  0.10100000352E+00 0.  1.
       -3    1    3    3    0  502 -0.14912874006E+03  0.18072500080E+03  0.14305908426E+04  0.14496520535E+04  0.10100000352E+00 0. -1.
</event>
<event>
 5   0  0.3907093E-04  0.1395841E+04  0.7818609E-02  0.8956835E-01
       -1   -1    0    0    0  501  0.00000000000E+00  0.00000000000E+00  0.16427527004E+04  0.16427527004E+04  0.50400001928E-02 0. -1.
        1   -1    0    0  501    0  0.00000000000E+00  0.00000000000E+00 -0.29651015586E+03  0.29651015591E+03  0.50400001928E-02 0.  1.
    10030    2    1    2    0    0  0.00000000000E+00  0.00000000000E+00  0.13462425445E+04  0.19392628563E+04  0.13958407635E+04 0.  0.
        4    1    3    3  502    0 -0.27732173781E+03  0.39476850815E+03  0.13737849566E+04  0.14560344231E+04  0.12699999809E+01 0. -1.
       -4    1    3    3    0  502  0.27732173781E+03 -0.39476850815E+03 -0.27542412102E+02  0.48322843320E+03  0.12699999809E+01 0.  1.
</event>
<event>
 5   0  0.6895048E-04  0.1402513E+04  0.7818609E-02  0.8952001E-01
       -2   -1    0    0    0  501  0.00000000000E+00  0.00000000000E+00  0.60226863321E+03  0.60226863321E+03  0.25500000920E-02 0. -1.
        2   -1    0    0  501    0  0.00000000000E+00  0.00000000000E+00 -0.81651414329E+03  0.81651414329E+03  0.25500000920E-02 0.  1.
    10030    2    1    2    0    0  0.00000000000E+00  0.00000000000E+00 -0.21424551008E+03  0.14187827765E+04  0.14025132542E+04 0.  0.
        4    1    3    3  502    0 -0.13281648685E+03  0.12664917762E+03  0.57754382548E+03  0.60600224144E+03  0.12699999809E+01 0. -1.
       -4    1    3    3    0  502  0.13281648685E+03 -0.12664917762E+03 -0.79178933556E+03  0.81278053507E+03  0.12699999809E+01 0.  1.
</event>
<event>
 5   0  0.3907270E-04  0.1411257E+04  0.7818609E-02  0.8945710E-01
        1   -1    0    0  501    0  0.00000000000E+00  0.00000000000E+00  0.62691018730E+03  0.62691018732E+03  0.50400001928E-02 0. -1.
       -1   -1    0    0    0  501  0.00000000000E+00  0.00000000000E+00 -0.79423086725E+03  0.79423086727E+03  0.50400001928E-02 0.  1.
    10030    2    1    2    0    0  0.00000000000E+00  0.00000000000E+00 -0.16732067995E+03  0.14211410546E+04  0.14112567757E+04 0.  0.
        3    1    3    3  502    0 -0.29056712166E+03 -0.23067004075E+03 -0.68809213283E+03  0.78173442636E+03  0.10100000352E+00 0.  1.
       -3    1    3    3    0  502  0.29056712166E+03  0.23067004075E+03  0.52077145288E+03  0.63940662823E+03  0.10100000352E+00 0. -1.
</event>
<event>
 5   0  0.6959748E-04  0.1396298E+04  0.7818609E-02  0.8956502E-01
       -2   -1    0    0    0  501  0.00000000000E+00  0.00000000000E+00  0.64764313192E+03  0.64764313192E+03  0.25500000920E-02 0. -1.
        2   -1    0    0  501    0  0.00000000000E+00  0.00000000000E+00 -0.75259401579E+03  0.75259401580E+03  0.25500000920E-02 0.  1.
    10030    2    1    2    0    0  0.00000000000E+00  0.00000000000E+00 -0.10495088387E+03  0.14002371477E+04  0.13962984573E+04 0.  0.
        5    1    3    3  502    0  0.67386499269E+03 -0.57279234732E+02  0.12126255074E+03  0.68709652547E+03  0.46999998093E+01 0. -1.
       -5    1    3    3    0  502 -0.67386499269E+03  0.57279234732E+02 -0.22621343462E+03  0.71314062225E+03  0.46999998093E+01 0.  1.
</event>
<event>
 5   0  0.6870835E-04  0.1423014E+04  0.7818609E-02  0.8937326E-01
        2   -1    0    0  501    0  0.00000000000E+00  0.00000000000E+00  0.61767647547E+03  0.61767647547E+03  0.25500000920E-02 0. -1.
       -2   -1    0    0    0  501  0.00000000000E+00  0.00000000000E+00 -0.81959131234E+03  0.81959131234E+03  0.25500000920E-02 0.  1.
    10030    2    1    2    0    0  0.00000000000E+00  0.00000000000E+00 -0.20191483687E+03  0.14372677878E+04  0.14230140873E+04 0.  0.
        2    1    3    3  502    0 -0.31057440129E+02  0.66638731374E+03  0.14891842529E+03  0.68353003876E+03  0.25500000920E-02 0. -1.
       -2    1    3    3    0  502  0.31057440129E+02 -0.66638731374E+03 -0.35083326216E+03  0.75373774905E+03  0.25500000920E-02 0.  1.
</event>
<event>
 5   0  0.6959748E-04  0.1393633E+04  0.7818609E-02  0.8958440E-01
        2   -1    0    0  501    0  0.00000000000E+00  0.00000000000E+00  0.15553646011E+04  0.15553646011E+04  0.25500000920E-02 0.  1.
       -2   -1    0    0    0  501  0.00000000000E+00  0.00000000000E+00 -0.31217971589E+03  0.31217971590E+03  0.25500000920E-02 0. -1.
    10030    2    1    2    0    0  0.00000000000E+00  0.00000000000E+00  0.12431848853E+04  0.18675443170E+04  0.13936330640E+04 0.  0.
        5    1    3    3  502    0  0.89931464470E+02 -0.69030843479E+03  0.58099551612E+03  0.90674764030E+03  0.46999998093E+01 0. -1.
       -5    1    3    3    0  502 -0.89931464470E+02  0.69030843479E+03  0.66218936914E+03  0.96079667675E+03  0.46999998093E+01 0.  1.
</event>
<event>
 5   0  0.3907270E-04  0.1412645E+04  0.7818609E-02  0.8944716E-01
       -1   -1    0    0    0  501  0.00000000000E+00  0.00000000000E+00  0.64334833146E+03  0.64334833148E+03  0.50400001928E-02 0. -1.
        1   -1    0    0  501    0  0.00000000000E+00  0.00000000000E+00 -0.77546114415E+03  0.77546114417E+03  0.50400001928E-02 0.  1.
    10030    2    1    2    0    0  0.00000000000E+00  0.00000000000E+00 -0.13211281270E+03  0.14188094756E+04  0.14126452254E+04 0.  0.
        3    1    3    3  502    0 -0.49722485657E+03  0.31860656378E+03  0.32312500116E+03  0.67316601002E+03  0.10100000352E+00 0. -1.
       -3    1    3    3    0  502  0.49722485657E+03 -0.31860656378E+03 -0.45523781385E+03  0.74564346563E+03  0.10100000352E+00 0.  1.
</event>
<event>
 5   0  0.3756664E-04  0.1405039E+04  0.7818609E-02  0.8950179E-01
       -1   -1    0    0    0  501  0.00000000000E+00  0.00000000000E+00  0.36025639510E+03  0.36025639513E+03  0.50400001928E-02 0. -1.
        1   -1    0    0  501    0  0.00000000000E+00  0.00000000000E+00 -0.13699508746E+04  0.13699508746E+04  0.50400001928E-02 0.  1.
    10030    2    1    2    0    0  0.00000000000E+00  0.00000000000E+00 -0.10096944795E+04  0.17302072697E+04  0.14050388800E+04 0.  0.
        2    1    3    3  502    0  0.49219003478E+03  0.95757340093E+02 -0.11107722839E+04  0.12187024104E+04  0.25500000920E-02 0.  1.
       -2    1    3    3    0  502 -0.49219003478E+03 -0.95757340093E+02  0.10107780442E+03  0.51150485928E+03  0.25500000920E-02 0. -1.
</event>
<event>
 5   0  0.7296966E-04  0.1379991E+04  0.7818609E-02  0.8968431E-01
        2   -1    0    0  501    0  0.00000000000E+00  0.00000000000E+00  0.58884954438E+03  0.58884954438E+03  0.25500000920E-02 0. -1.
       -2   -1    0    0    0  501  0.00000000000E+00  0.00000000000E+00 -0.80851507372E+03  0.80851507373E+03  0.25500000920E-02 0.  1.
    10030    2    1    2    0    0  0.00000000000E+00  0.00000000000E+00 -0.21966552935E+03  0.13973646181E+04  0.13799909171E+04 0.  0.
        3    1    3    3  502    0 -0.30523798744E+02 -0.42218566803E+03  0.44193227294E+03  0.61194491962E+03  0.10100000352E+00 0. -1.
       -3    1    3    3    0  502  0.30523798744E+02  0.42218566803E+03 -0.66159780229E+03  0.78541969849E+03  0.10100000352E+00 0.  1.
</event>
<event>
 5   0  0.3756664E-04  0.1402487E+04  0.7818609E-02  0.8952021E-01
       -1   -1    0    0    0  501  0.00000000000E+00  0.00000000000E+00  0.41631262294E+03  0.41631262297E+03  0.50400001928E-02 0. -1.
        1   -1    0    0  501    0  0.00000000000E+00  0.00000000000E+00 -0.11811847987E+04  0.11811847987E+04  0.50400001928E-02 0.  1.
    10030    2    1    2    0    0  0.00000000000E+00  0.00000000000E+00 -0.76487217576E+03  0.15974974217E+04  0.14024865657E+04 0.  0.
        2    1    3    3  502    0  0.14053213476E+03  0.66887020181E+03 -0.56110857250E+03  0.88429602391E+03  0.25500000920E-02 0. -1.
       -2    1    3    3    0  502 -0.14053213476E+03 -0.66887020181E+03 -0.20376360326E+03  0.71320139778E+03  0.25500000920E-02 0.  1.
</event>
<event>
 5   0  0.6895048E-04  0.1398710E+04  0.7818609E-02  0.8954753E-01
        2   -1    0    0  501    0  0.00000000000E+00  0.00000000000E+00  0.15777659700E+04  0.15777659700E+04  0.25500000920E-02 0. -1.
       -2   -1    0    0    0  501  0.00000000000E+00  0.00000000000E+00 -0.30999374328E+03  0.30999374329E+03  0.25500000920E-02 0.  1.
    10030    2    1    2    0    0  0.00000000000E+00  0.00000000000E+00  0.12677722267E+04  0.18877597132E+04  0.13987102331E+04 0.  0.
        4    1    3    3  502    0  0.11481332514E+03 -0.35498828599E+03  0.14322284936E+04  0.14800266395E+04  0.12699999809E+01 0. -1.
       -4    1    3    3    0  502 -0.11481332514E+03  0.35498828599E+03 -0.16445626691E+03  0.40773307377E+03  0.12699999809E+01 0.  1.
</event>
<event>
 5   0  0.3907093E-04  0.1295551E+04  0.7818609E-02  0.9033100E-01
       -1   -1    0    0    0  501  0.00000000000E+00  0.00000000000E+00  0.65949665901E+03  0.65949665903E+03  0.50400001928E-02 0.  1.
        1   -1    0    0  501    0  0.00000000000E+00  0.00000000000E+00 -0.63626314977E+03  0.63626314979E+03  0.50400001928E-02 0. -1.
    10030    2    1    2    0    0  0.00000000000E+00  0.00000000000E+00  0.23233509241E+02  0.12957598088E+04  0.12955514989E+04 0.  0.
        4    1    3    3  502    0 -0.61863329146E+03 -0.35891686989E+02 -0.17713678976E+03  0.64449547530E+03  0.12699999809E+01 0. -1.
       -4    1    3    3    0  502  0.61863329146E+03  0.35891686989E+02  0.20037029900E+03  0.65126433352E+03  0.12699999809E+01 0.  1.
</event>
<event>
 5   0  0.3784219E-04  0.1233921E+04  0.7818609E-02  0.9083673E-01
       -1   -1    0    0    0  501  0.00000000000E+00  0.00000000000E+00  0.54258578337E+03  0.54258578339E+03  0.50400001928E-02 0. -1.
        1   -1    0    0  501    0  0.00000000000E+00  0.00000000000E+00 -0.70152999080E+03  0.70152999081E+03  0.50400001928E-02 0.  1.
    10030    2    1    2    0    0  0.00000000000E+00  0.00000000000E+00 -0.15894420743E+03  0.12441157742E+04  0.12339209045E+04 0.  0.
        1    1    3    3  502    0 -0.33150990146E+03  0.21274295798E+03 -0.55824465001E+03  0.68322431911E+03  0.50400001928E-02 0.  1.
       -1    1    3    3    0  502  0.33150990146E+03 -0.21274295798E+03  0.39930044258E+03  0.56089145510E+03  0.50400001928E-02 0. -1.
</event>
<event>
 5   0  0.3977658E-04  0.1389027E+04  0.7818609E-02  0.8961800E-01
       -1   -1    0    0    0  501  0.00000000000E+00  0.00000000000E+00  0.27365236330E+03  0.27365236335E+03  0.50400001928E-02 0.  1.
        1   -1    0    0  501    0  0.00000000000E+00  0.00000000000E+00 -0.17626339581E+04  0.17626339581E+04  0.50400001928E-02 0. -1.
    10030    2    1    2    0    0  0.00000000000E+00  0.00000000000E+00 -0.14889815948E+04  0.20362863214E+04  0.13890269232E+04 0.  0.
        5    1    3    3  502    0  0.20257522903E+03 -0.48680108772E+03 -0.81850059620E+02  0.53360429597E+03  0.46999998093E+01 0.  1.
       -5    1    3    3    0  502 -0.20257522903E+03  0.48680108772E+03 -0.14071315352E+04  0.15026820255E+04  0.46999998093E+01 0. -1.
</event>
<event>
 5   0  0.3907270E-04  0.1398007E+04  0.7818609E-02  0.8955262E-01
        1   -1    0    0  501    0  0.00000000000E+00  0.00000000000E+00  0.85543812002E+03  0.85543812004E+03  0.50400001928E-02 0. -1.
       -1   -1    0    0    0  501  0.00000000000E+00  0.00000000000E+00 -0.57117617523E+03  0.57117617525E+03  0.50400001928E-02 0.  1.
    10030    2    1    2    0    0  0.00000000000E+00  0.00000000000E+00  0.28426194480E+03  0.14266142953E+04  0.13980069722E+04 0.  0.
        3    1    3    3  502    0  0.35678234937E+03 -0.35156090121E+03  0.63967038922E+03  0.81244503145E+03  0.10100000352E+00 0. -1.
       -3    1    3    3    0  502 -0.35678234937E+03  0.35156090121E+03 -0.35540844442E+03  0.61416926384E+03  0.10100000352E+00 0.  1.
</event>
<event>
 5   0  0.6870835E-04  0.1397862E+04  0.7818609E-02  0.8955367E-01
       -2   -1    0    0    0  501  0.00000000000E+00  0.00000000000E+00  0.68107165267E+03  0.68107165268E+03  0.25500000920E-02 0.  1.
        2   -1    0    0  501    0  0.00000000000E+00  0.00000000000E+00 -0.71725907693E+03  0.71725907694E+03  0.25500000920E-02 0. -1.
    10030    2    1    2    0    0  0.00000000000E+00  0.00000000000E+00 -0.36187424261E+02  0.13983307296E+04  0.13978624037E+04 0.  0.
        2    1    3    3  502    0 -0.53946693350E+03 -0.42583868305E+03 -0.14518614423E+03  0.70245439198E+03  0.25500000920E-02 0. -1.
       -2    1    3    3    0  502  0.53946693350E+03  0.42583868305E+03  0.10899871997E+03  0.69587633764E+03  0.25500000920E-02 0.  1.
</event>
<event>
 5   0  0.3907093E-04  0.1403814E+04  0.7818609E-02  0.8951062E-01
        1   -1    0    0  501    0  0.00000000000E+00  0.00000000000E+00  0.67262728984E+03  0.67262728986E+03  0.50400001928E-02 0.  1.
       -1   -1    0    0    0  501  0.00000000000E+00  0.00000000000E+00 -0.73246132813E+03  0.73246132815E+03  0.50400001928E-02 0. -1.
    10030    2    1    2    0    0  0.00000000000E+00  0.00000000000E+00 -0.59834038294E+02  0.14050886180E+04  0.14038140590E+04 0.  0.
        4    1    3    3  502    0  0.31928187293E+03 -0.59696960186E+03  0.15561104625E+03  0.69464381559E+03  0.12699999809E+01 0.  1.
       -4    1    3    3    0  502 -0.31928187293E+03  0.59696960186E+03 -0.21544508454E+03  0.71044480242E+03  0.12699999809E+01 0. -1.
</event>
<event>
 5   0  0.7296966E-04  0.1404248E+04  0.7818609E-02  0.8950749E-01
       -2   -1    0    0    0  501  0.00000000000E+00  0.00000000000E+00  0.24029433336E+03  0.24029433337E+03  0.25500000920E-02 0. -1.
        2   -1    0    0  501    0  0.00000000000E+00  0.00000000000E+00 -0.20515607217E+04  0.20515607217E+04  0.25500000920E-02 0.  1.
    10030    2    1    2    0    0  0.00000000000E+00  0.00000000000E+00 -0.18112663884E+04  0.22918550551E+04  0.14042484338E+04 0.  0.
        3    1    3    3  502    0  0.10508280447E+03 -0.66724203526E+03 -0.59286783893E+03  0.89874724703E+03  0.10100000352E+00 0.  1.
       -3    1    3    3    0  502 -0.10508280447E+03  0.66724203526E+03 -0.12183985494E+04  0.13931078080E+04  0.10100000352E+00 0. -1.
</event>
<event>
 5   0  0.2660250E-04  0.1416119E+04  0.7818609E-02  0.8942232E-01
       -3   -1    0    0    0  501  0.00000000000E+00  0.00000000000E+00  0.17049790762E+03  0.17049793753E+03  0.10100000352E+00 0. -1.
        3   -1    0    0  501    0  0.00000000000E+00  0.00000000000E+00 -0.29404966022E+04  0.29404966039E+04  0.10100000352E+00 0.  1.
    10030    2    1    2    0    0  0.00000000000E+00  0.00000000000E+00 -0.27699986946E+04  0.31109945414E+04  0.14161194403E+04 0.  0.
        3    1    3    3  502    0  0.47932767137E+03 -0.15047436264E+03 -0.28888387586E+03  0.57952692283E+03  0.10100000352E+00 0. -1.
       -3    1    3    3    0  502 -0.47932767137E+03  0.15047436264E+03 -0.24811148187E+04  0.25314676186E+04  0.10100000352E+00 0.  1.
</event>
<event>
 5   0  0.6895048E-04  0.1393332E+04  0.7818609E-02  0.8958659E-01
       -2   -1    0    0    0  501  0.00000000000E+00  0.00000000000E+00  0.94059043550E+03  0.94059043550E+03  0.25500000920E-02 0.  1.
        2   -1    0    0  501    0  0.00000000000E+00  0.00000000000E+00 -0.51599903168E+03  0.51599903168E+03  0.25500000920E-02 0. -1.
    10030    2    1    2    0    0  0.00000000000E+00  0.00000000000E+00  0.42459140382E+03  0.14565894672E+04  0.13933323422E+04 0.  0.
        4    1    3    3  502    0  0.44241979781E+03 -0.15609590562E+03 -0.32610140747E+03  0.57135361213E+03  0.12699999809E+01 0. -1.
       -4    1    3    3    0  502 -0.44241979781E+03  0.15609590562E+03  0.75069281130E+03  0.88523585505E+03  0.12699999809E+01 0.  1.
</event>
<event>
 5   0  0.3784219E-04  0.1398284E+04  0.7818609E-02  0.8955061E-01
       -1   -1    0    0    0  501  0.00000000000E+00  0.00000000000E+00  0.12343088771E+04  0.12343088771E+04  0.50400001928E-02 0. -1.
        1   -1    0    0  501    0  0.00000000000E+00  0.00000000000E+00 -0.39601087513E+03  0.39601087517E+03  0.50400001928E-02 0.  1.
    10030    2    1    2    0    0  0.00000000000E+00  0.00000000000E+00  0.83829800194E+03  0.16303197522E+04  0.13982842896E+04 0.  0.
        1    1    3    3  502    0 -0.67367687105E+03  0.14538052630E+02  0.20180816899E+03  0.70340487534E+03  0.50400001928E-02 0.  1.
       -1    1    3    3    0  502  0.67367687105E+03 -0.14538052630E+02  0.63648983295E+03  0.92691487691E+03  0.50400001928E-02 0. -1.
</event>
<event>
 5   0  0.6959748E-04  0.1440168E+04  0.7818609E-02  0.8925245E-01
       -2   -1    0    0    0  501  0.00000000000E+00  0.00000000000E+00  0.50605850281E+03  0.50605850282E+03  0.25500000920E-02 0.  1.
        2   -1    0    0  501    0  0.00000000000E+00  0.00000000000E+00 -0.10246268434E+04  0.10246268434E+04  0.25500000920E-02 0. -1.
    10030    2    1    2    0    0  0.00000000000E+00  0.00000000000E+00 -0.51856834060E+03  0.15306853462E+04  0.14401682212E+04 0.  0.
        5    1    3    3  502    0 -0.16099185334E+03  0.28113349546E+02  0.48606999002E+03  0.51283024721E+03  0.46999998093E+01 0.  1.
       -5    1    3    3    0  502  0.16099185334E+03 -0.28113349546E+02 -0.10046383306E+04  0.10178550990E+04  0.46999998093E+01 0. -1.
</event>
<event>
 5   0  0.2660250E-04  0.1397968E+04  0.7818609E-02  0.8955291E-01
        3   -1    0    0  501    0  0.00000000000E+00  0.00000000000E+00  0.62287989762E+03  0.62287990581E+03  0.10100000352E+00 0.  1.
       -3   -1    0    0    0  501  0.00000000000E+00  0.00000000000E+00 -0.78438648907E+03  0.78438649558E+03  0.10100000352E+00 0. -1.
    10030    2    1    2    0    0  0.00000000000E+00  0.00000000000E+00 -0.16150659146E+03  0.14072664014E+04  0.13979679343E+04 0.  0.
        1    1    3    3  502    0 -0.34600938529E+03 -0.30372951683E+03  0.44867690052E+03  0.64287251862E+03  0.50400001928E-02 0.  1.
       -1    1    3    3    0  502  0.34600938529E+03  0.30372951683E+03 -0.61018349198E+03  0.76439388277E+03  0.50400001928E-02 0. -1.
</event>
<event>
 5   0  0.7065539E-04  0.1405689E+04  0.7818609E-02  0.8949711E-01
       -2   -1    0    0    0  501  0.00000000000E+00  0.00000000000E+00  0.27826579016E+03  0.27826579017E+03  0.25500000920E-02 0.  1.
        2   -1    0    0  501    0  0.00000000000E+00  0.00000000000E+00 -0.17752475904E+04  0.17752475904E+04  0.25500000920E-02 0. -1.
    10030    2    1    2    0    0  0.00000000000E+00  0.00000000000E+00 -0.14969818002E+04  0.20535133805E+04  0.14056894016E+04 0.  0.
        1    1    3    3  502    0 -0.62068360779E+03 -0.32224438676E+03 -0.85076234747E+03  0.11013111085E+04  0.50400001928E-02 0.  1.
       -1    1    3    3    0  502  0.62068360779E+03  0.32224438676E+03 -0.64621945275E+03  0.95220227206E+03  0.50400001928E-02 0. -1.
</event>
<event>
 5   0  0.7296966E-04  0.1392328E+04  0.7818609E-02  0.8959391E-01
       -2   -1    0    0    0  501  0.00000000000E+00  0.00000000000E+00  0.62573215252E+03  0.62573215253E+03  0.25500000920E-02 0. -1.
        2   -1    0    0  501    0  0.00000000000E+00  0.00000000000E+00 -0.77452318189E+03  0.77452318190E+03  0.25500000920E-02 0.  1.
    10030    2    1    2    0    0  0.00000000000E+00  0.00000000000E+00 -0.14879102937E+03  0.14002553344E+04  0.13923276307E+04 0.  0.
        3    1    3    3  502    0  0.45086028181E+03 -0.48831145134E+03  0.13395789434E+03  0.67798804922E+03  0.10100000352E+00 0. -1.
       -3    1    3    3    0  502 -0.45086028181E+03  0.48831145134E+03 -0.28274892370E+03  0.72226728521E+03  0.10100000352E+00 0.  1.
</event>
<event>
 5   0  0.3784219E-04  0.1396680E+04  0.7818609E-02  0.8956225E-01
       -1   -1    0    0    0  501  0.00000000000E+00  0.00000000000E+00  0.38248575605E+03  0.38248575608E+03  0.50400001928E-02 0. -1.
        1   -1    0    0  501    0  0.00000000000E+00  0.00000000000E+00 -0.12750252075E+04  0.12750252076E+04  0.50400001928E-02 0.  1.
    10030    2    1    2    0    0  0.00000000000E+00  0.00000000000E+00 -0.89253945150E+03  0.16575109636E+04  0.13966803221E+04 0.  0.
        1    1    3    3  502    0 -0.10999447282E+03  0.64046711086E+03 -0.74972084910E+03  0.99215838239E+03  0.50400001928E-02 0.  1.
       -1    1    3    3    0  502  0.10999447282E+03 -0.64046711086E+03 -0.14281860239E+03  0.66535258124E+03  0.50400001928E-02 0. -1.
</event>
<event>
 5   0  0.3756664E-04  0.1373934E+04  0.7818609E-02  0.8972906E-01
        1   -1    0    0  501    0  0.00000000000E+00  0.00000000000E+00  0.17927357132E+04  0.17927357132E+04  0.50400001928E-02 0. -1.
       -1   -1    0    0    0  501  0.00000000000E+00  0.00000000000E+00 -0.26324206206E+03  0.26324206211E+03  0.50400001928E-02 0.  1.
    10030    2    1    2    0    0  0.00000000000E+00  0.00000000000E+00  0.15294936511E+04  0.20559777753E+04  0.13739336897E+04 0.  0.
        2    1    3    3  502    0  0.12748544466E+03  0.38906151800E+03  0.15902240146E+04  0.16420821599E+04  0.25500000920E-02 0. -1.
       -2    1    3    3    0  502 -0.12748544466E+03 -0.38906151800E+03 -0.60730363447E+02  0.41389561539E+03  0.25500000920E-02 0.  1.
</event>
<event>
 5   0  0.7065539E-04  0.1425670E+04  0.7818609E-02  0.8935444E-01
       -2   -1    0    0    0  501  0.00000000000E+00  0.00000000000E+00  0.34824208569E+03  0.34824208570E+03  0.25500000920E-02 0.  1.
        2   -1    0    0  501    0  0.00000000000E+00  0.00000000000E+00 -0.14591402712E+04  0.14591402712E+04  0.25500000920E-02 0. -1.
    10030    2    1    2    0    0  0.00000000000E+00  0.00000000000E+00 -0.11108981855E+04  0.18073823569E+04  0.14256704407E+04 0.  0.
        1    1    3    3  502    0 -0.22460154957E+03  0.49453734140E+02  0.29991753920E+03  0.37794451740E+03  0.50400001928E-02 0.  1.
       -1    1    3    3    0  502  0.22460154957E+03 -0.49453734140E+02 -0.14108157247E+04  0.14294378395E+04  0.50400001928E-02 0. -1.
</event>
<event>
 5   0  0.7296966E-04  0.1382012E+04  0.7818609E-02  0.8966943E-01
       -2   -1    0    0    0  501  0.00000000000E+00  0.00000000000E+00  0.30772462297E+03  0.30772462298E+03  0.25500000920E-02 0.  1.
        2   -1    0    0  501    0  0.00000000000E+00  0.00000000000E+00 -0.15516764670E+04  0.15516764670E+04  0.25500000920E-02 0. -1.
    10030    2    1    2    0    0  0.00000000000E+00  0.00000000000E+00 -0.12439518440E+04  0.18594010899E+04  0.13820116581E+04 0.  0.
        3    1    3    3  502    0  0.43476067137E+02 -0.34605509389E+03 -0.14245620619E+04  0.14666360744E+04  0.10100000352E+00 0. -1.
       -3    1    3    3    0  502 -0.43476067137E+02  0.34605509389E+03  0.18061021789E+03  0.39276501554E+03  0.10100000352E+00 0.  1.
</event>
<event>
 5   0  0.3977658E-04  0.1404063E+04  0.7818609E-02  0.8950883E-01
       -1   -1    0    0    0  501  0.00000000000E+00  0.00000000000E+00  0.84116256955E+03  0.84116256956E+03  0.50400001928E-02 0.  1.
        1   -1    0    0  501    0  0.00000000000E+00  0.00000000000E+00 -0.58591301397E+03  0.58591301399E+03  0.50400001928E-02 0. -1.
    10030    2    1    2    0    0  0.00000000000E+00  0.00000000000E+00  0.25524955557E+03  0.14270755836E+04  0.14040628140E+04 0.  0.
        5    1    3    3  502    0  0.24761523303E+03 -0.28043198057E+03 -0.47614056562E+03  0.60554713077E+03  0.46999998093E+01 0. -1.
       -5    1    3    3    0  502 -0.24761523303E+03  0.28043198057E+03  0.73139012119E+03  0.82152845278E+03  0.46999998093E+01 0.  1.
</event>
<event>
 5   0  0.7296966E-04  0.1415886E+04  0.7818609E-02  0.8942399E-01
        2   -1    0    0  501    0  0.00000000000E+00  0.00000000000E+00  0.19984893155E+04  0.19984893155E+04  0.25500000920E-02 0. -1.
       -2   -1    0    0    0  501  0.00000000000E+00  0.00000000000E+00 -0.25078120173E+03  0.25078120175E+03  0.25500000920E-02 0.  1.
    10030    2    1    2    0    0  0.00000000000E+00  0.00000000000E+00  0.17477081138E+04  0.22492705173E+04  0.14158863686E+04 0.  0.
        3    1    3    3  502    0  0.29454255399E+03  0.96081760159E+02 -0.13736709243E+03  0.33890522130E+03  0.10100000352E+00 0.  1.
       -3    1    3    3    0  502 -0.29454255399E+03 -0.96081760159E+02  0.18850752062E+04  0.19103652960E+04  0.10100000352E+00 0. -1.
</event>
<event>
 5   0  0.3756664E-04  0.1401909E+04  0.7818609E-02  0.8952438E-01
       -1   -1    0    0    0  501  0.00000000000E+00  0.00000000000E+00  0.31124900011E+03  0.31124900015E+03  0.50400001928E-02 0.  1.
        1   -1    0    0  501    0  0.00000000000E+00  0.00000000000E+00 -0.15785986843E+04  0.15785986843E+04  0.50400001928E-02 0. -1.
    10030    2    1    2    0    0  0.00000000000E+00  0.00000000000E+00 -0.12673496842E+04  0.18898476845E+04  0.14019090728E+04 0.  0.
        2    1    3    3  502    0  0.12628399859E+03  0.31759045577E+03 -0.14586633408E+04  0.14981689116E+04  0.25500000920E-02 0. -1.
       -2    1    3    3    0  502 -0.12628399859E+03 -0.31759045577E+03  0.19131365661E+03  0.39167877286E+03  0.25500000920E-02 0.  1.
</event>
<event>
 5   0  0.3907093E-04  0.1397932E+04  0.7818609E-02  0.8955317E-01
        1   -1    0    0  501    0  0.00000000000E+00  0.00000000000E+00  0.19706447438E+04  0.19706447438E+04  0.50400001928E-02 0.  1.
       -1   -1    0    0    0  501  0.00000000000E+00  0.00000000000E+00 -0.24791550931E+03  0.24791550936E+03  0.50400001928E-02 0. -1.
    10030    2    1    2    0    0  0.00000000000E+00  0.00000000000E+00  0.17227292344E+04  0.22185602531E+04  0.13979318945E+04 0.  0.
        4    1    3    3  502    0  0.53510777771E+03  0.20401912541E+03  0.22538780821E+03  0.61543920438E+03  0.12699999809E+01 0. -1.
       -4    1    3    3    0  502 -0.53510777771E+03 -0.20401912541E+03  0.14973414262E+04  0.16031210487E+04  0.12699999809E+01 0.  1.
</event>
<event>
 5   0  0.7296966E-04  0.1377178E+04  0.7818609E-02  0.8970506E-01
       -2   -1    0    0    0  501  0.00000000000E+00  0.00000000000E+00  0.49317176869E+03  0.49317176870E+03  0.25500000920E-02 0.  1.
        2   -1    0    0  501    0  0.00000000000E+00  0.00000000000E+00 -0.96144013293E+03  0.96144013294E+03  0.25500000920E-02 0. -1.
    10030    2    1    2    0    0  0.00000000000E+00  0.00000000000E+00 -0.46826836424E+03  0.14546119016E+04  0.13771784646E+04 0.  0.
        3    1    3    3  502    0 -0.69628752050E+02 -0.59660033208E+03 -0.58977824772E+03  0.84179481528E+03  0.10100000352E+00 0. -1.
       -3    1    3    3    0  502  0.69628752050E+02  0.59660033208E+03  0.12150988348E+03  0.61281708635E+03  0.10100000352E+00 0.  1.
</event>
<event>
 5   0  0.3907270E-04  0.1347050E+04  0.7818609E-02  0.8993064E-01
        1   -1    0    0  501    0  0.00000000000E+00  0.00000000000E+00  0.95858180104E+03  0.95858180105E+03  0.50400001928E-02 0.  1.
       -1   -1    0    0    0  501  0.00000000000E+00  0.00000000000E+00 -0.47323668242E+03  0.47323668245E+03  0.50400001928E-02 0. -1.
    10030    2    1    2    0    0  0.00000000000E+00  0.00000000000E+00  0.48534511862E+03  0.14318184835E+04  0.13470502164E+04 0.  0.
        3    1    3    3  502    0 -0.16139326235E+03 -0.54048750865E+03  0.63388455695E+03  0.84851881174E+03  0.10100000352E+00 0.  1.
       -3    1    3    3    0  502  0.16139326235E+03  0.54048750865E+03 -0.14853943833E+03  0.58329967176E+03  0.10100000352E+00 0. -1.
</event>
<event>
 5   0  0.3784219E-04  0.1424113E+04  0.7818609E-02  0.8936547E-01
        1   -1    0    0  501    0  0.00000000000E+00  0.00000000000E+00  0.17261834295E+04  0.17261834295E+04  0.50400001928E-02 0. -1.
       -1   -1    0    0    0  501  0.00000000000E+00  0.00000000000E+00 -0.29372591555E+03  0.29372591559E+03  0.50400001928E-02 0.  1.
    10030    2    1    2    0    0  0.00000000000E+00  0.00000000000E+00  0.14324575139E+04  0.20199093451E+04  0.14241134902E+04 0.  0.
        1    1    3    3  502    0  0.69047080187E+03  0.13143654959E+03  0.87794270724E+03  0.11246372269E+04  0.50400001928E-02 0. -1.
       -1    1    3    3    0  502 -0.69047080187E+03 -0.13143654959E+03  0.55451480667E+03  0.89527211821E+03  0.50400001928E-02 0.  1.
</event>
<event>
 5   0  0.3907093E-04  0.1404842E+04  0.7818609E-02  0.8950321E-01
       -1   -1    0    0    0  501  0.00000000000E+00  0.00000000000E+00  0.10217189496E+04  0.10217189496E+04  0.50400001928E-02 0.  1.
        1   -1    0    0  501    0  0.00000000000E+00  0.00000000000E+00 -0.48290711153E+03  0.48290711156E+03  0.50400001928E-02 0. -1.
    10030    2    1    2    0    0  0.00000000000E+00  0.00000000000E+00  0.53881183811E+03  0.15046260612E+04  0.14048421218E+04 0.  0.
        4    1    3    3  502    0  0.50466940247E+03  0.47404971044E+03  0.14277337631E+03  0.70696547557E+03  0.12699999809E+01 0. -1.
       -4    1    3    3    0  502 -0.50466940247E+03 -0.47404971044E+03  0.39603846180E+03  0.79766058564E+03  0.12699999809E+01 0.  1.
</event>
<event>
 5   0  0.6870835E-04  0.1392773E+04  0.7818609E-02  0.8959066E-01
       -2   -1    0    0    0  501  0.00000000000E+00  0.00000000000E+00  0.69925009411E+03  0.69925009411E+03  0.25500000920E-02 0. -1.
        2   -1    0    0  501    0  0.00000000000E+00  0.00000000000E+00 -0.69353468044E+03  0.69353468045E+03  0.25500000920E-02 0.  1.
    10030    2    1    2    0    0  0.00000000000E+00  0.00000000000E+00  0.57154136689E+01  0.13927847746E+04  0.13927730477E+04 0.  0.
        2    1    3    3  502    0  0.56378273891E+02  0.16788797200E+03  0.67635377065E+03  0.69915613706E+03  0.25500000920E-02 0. -1.
       -2    1    3    3    0  502 -0.56378273891E+02 -0.16788797200E+03 -0.67063835698E+03  0.69362863750E+03  0.25500000920E-02 0.  1.
</event>
<event>
 5   0  0.6870835E-04  0.1408646E+04  0.7818609E-02  0.8947584E-01
        2   -1    0    0  501    0  0.00000000000E+00  0.00000000000E+00  0.51421206021E+03  0.51421206022E+03  0.25500000920E-02 0. -1.
       -2   -1    0    0    0  501  0.00000000000E+00  0.00000000000E+00 -0.96472085780E+03  0.96472085781E+03  0.25500000920E-02 0.  1.
    10030    2    1    2    0    0  0.00000000000E+00  0.00000000000E+00 -0.45050879759E+03  0.14789329180E+04  0.14086463003E+04 0.  0.
        2    1    3    3  502    0 -0.14200587633E+03 -0.47735401105E+03 -0.74813933925E+03  0.89874634449E+03  0.25500000920E-02 0.  1.
       -2    1    3    3    0  502  0.14200587633E+03  0.47735401105E+03  0.29763054166E+03  0.58018657354E+03  0.25500000920E-02 0. -1.
</event>
<event>
 5   0  0.6870835E-04  0.1409728E+04  0.7818609E-02  0.8946807E-01
        2   -1    0    0  501    0  0.00000000000E+00  0.00000000000E+00  0.11279788280E+04  0.11279788280E+04  0.25500000920E-02 0. -1.
       -2   -1    0    0    0  501  0.00000000000E+00  0.00000000000E+00 -0.44046309639E+03  0.44046309640E+03  0.25500000920E-02 0.  1.
    10030    2    1    2    0    0  0.00000000000E+00  0.00000000000E+00  0.68751573163E+03  0.15684419244E+04  0.14097277003E+04 0.  0.
        2    1    3    3  502    0  0.38234165081E+03  0.55952770266E+03  0.12808659748E+03  0.68968294487E+03  0.25500000920E-02 0.  1.
       -2    1    3    3    0  502 -0.38234165081E+03 -0.55952770266E+03  0.55942913415E+03  0.87875897955E+03  0.25500000920E-02 0. -1.
</event>
<event>
 5   0  0.3756664E-04  0.1360963E+04  0.7818609E-02  0.8982571E-01
       -1   -1    0    0    0  501  0.00000000000E+00  0.00000000000E+00  0.36035934443E+03  0.36035934446E+03  0.50400001928E-02 0.  1.
        1   -1    0    0  501    0  0.00000000000E+00  0.00000000000E+00 -0.12849812377E+04  0.12849812377E+04  0.50400001928E-02 0. -1.
    10030    2    1    2    0    0  0.00000000000E+00  0.00000000000E+00 -0.92462189328E+03  0.16453405822E+04  0.13609628892E+04 0.  0.
        2    1    3    3  502    0  0.74017593209E+02 -0.42620118553E+03 -0.10973612888E+04  0.11795456129E+04  0.25500000920E-02 0. -1.
       -2    1    3    3    0  502 -0.74017593209E+02  0.42620118553E+03  0.17273939554E+03  0.46579496930E+03  0.25500000920E-02 0.  1.
</event>
<event>
 5   0  0.3907093E-04  0.1399250E+04  0.7818609E-02  0.8954361E-01
        1   -1    0    0  501    0  0.00000000000E+00  0.00000000000E+00  0.65574024786E+03  0.65574024788E+03  0.50400001928E-02 0. -1.
       -1   -1    0    0    0  501  0.00000000000E+00  0.00000000000E+00 -0.74644696490E+03  0.74644696492E+03  0.50400001928E-02 0.  1.
    10030    2    1    2    0    0  0.00000000000E+00  0.00000000000E+00 -0.90706717040E+02  0.14021872128E+04  0.13992502533E+04 0.  0.
        4    1    3    3  502    0  0.57585943808E+03  0.39597840355E+03 -0.77990360007E+02  0.70320487602E+03  0.12699999809E+01 0.  1.
       -4    1    3    3    0  502 -0.57585943808E+03 -0.39597840355E+03 -0.12716357033E+02  0.69898233679E+03  0.12699999809E+01 0. -1.
</event>
<event>
 5   0  0.3907270E-04  0.1395157E+04  0.7818609E-02  0.8957332E-01
       -1   -1    0    0    0  501  0.00000000000E+00  0.00000000000E+00  0.55222530054E+03  0.55222530057E+03  0.50400001928E-02 0. -1.
        1   -1    0    0  501    0  0.00000000000E+00  0.00000000000E+00 -0.88119035101E+03  0.88119035102E+03  0.50400001928E-02 0.  1.
    10030    2    1    2    0    0  0.00000000000E+00  0.00000000000E+00 -0.32896505047E+03  0.14334156516E+04  0.13951567746E+04 0.  0.
        3    1    3    3  502    0 -0.64547219260E+02 -0.61842904633E+03 -0.48937358981E+03  0.79126945440E+03  0.10100000352E+00 0.  1.
       -3    1    3    3    0  502  0.64547219260E+02  0.61842904633E+03  0.16040853935E+03  0.64214619719E+03  0.10100000352E+00 0. -1.
</event>
<event>
 5   0  0.6959748E-04  0.1401771E+04  0.7818609E-02  0.8952538E-01
       -2   -1    0    0    0  501  0.00000000000E+00  0.00000000000E+00  0.47123563968E+03  0.47123563968E+03  0.25500000920E-02 0. -1.
        2   -1    0    0  501    0  0.00000000000E+00  0.00000000000E+00 -0.10424514952E+04  0.10424514952E+04  0.25500000920E-02 0.  1.
    10030    2    1    2    0    0  0.00000000000E+00  0.00000000000E+00 -0.57121585547E+03  0.15136871348E+04  0.14017707333E+04 0.  0.
        5    1    3    3  502    0 -0.32190185339E+03 -0.59724423623E+03 -0.95799555944E+02  0.68521611616E+03  0.46999998093E+01 0. -1.
       -5    1    3    3    0  502  0.32190185339E+03  0.59724423623E+03 -0.47541629953E+03  0.82847101868E+03  0.46999998093E+01 0.  1.
</event>
<event>
 5   0  0.3907093E-04  0.1406484E+04  0.7818609E-02  0.8949138E-01
        1   -1    0    0  501    0  0.00000000000E+00  0.00000000000E+00  0.16977400869E+04  0.16977400869E+04  0.50400001928E-02 0.  1.
       -1   -1    0    0    0  501  0.00000000000E+00  0.00000000000E+00 -0.29129857275E+03  0.29129857279E+03  0.50400001928E-02 0. -1.
    10030    2    1    2    0    0  0.00000000000E+00  0.00000000000E+00  0.14064415141E+04  0.19890386597E+04  0.14064839342E+04 0.  0.
        4    1    3    3  502    0 -0.63934224649E+03  0.23179114610E+03  0.44999737422E+03  0.81546605893E+03  0.12699999809E+01 0. -1.
       -4    1    3    3    0  502  0.63934224649E+03 -0.23179114610E+03  0.95644413992E+03  0.11735726008E+04  0.12699999809E+01 0.  1.
</event>
<event>
 5   0  0.6959748E-04  0.1444356E+04  0.7818609E-02  0.8922323E-01
       -2   -1    0    0    0  501  0.00000000000E+00  0.00000000000E+00  0.11328673927E+04  0.11328673927E+04  0.25500000920E-02 0. -1.
        2   -1    0    0  501    0  0.00000000000E+00  0.00000000000E+00 -0.46037230486E+03  0.46037230487E+03  0.25500000920E-02 0.  1.
    10030    2    1    2    0    0  0.00000000000E+00  0.00000000000E+00  0.67249508780E+03  0.15932396975E+04  0.14443555970E+04 0.  0.
        5    1    3    3  502    0 -0.58273016644E+03  0.41858607706E+03  0.24575509852E+03  0.75842363441E+03  0.46999998093E+01 0.  1.
       -5    1    3    3    0  502  0.58273016644E+03 -0.41858607706E+03  0.42673998928E+03  0.83481606311E+03  0.46999998093E+01 0. -1.
</event>
<event>
 5   0  0.3907093E-04  0.1307729E+04  0.7818609E-02  0.9023458E-01
        1   -1    0    0  501    0  0.00000000000E+00  0.00000000000E+00  0.20444597648E+04  0.20444597648E+04  0.50400001928E-02 0.  1.
       -1   -1    0    0    0  501  0.00000000000E+00  0.00000000000E+00 -0.20912078462E+03  0.20912078468E+03  0.50400001928E-02 0. -1.
    10030    2    1    2    0    0  0.00000000000E+00  0.00000000000E+00  0.18353389802E+04  0.22535805495E+04  0.13077293760E+04 0.  0.
        4    1    3    3  502    0 -0.54455633819E+03 -0.32062456657E+03  0.62830406367E+03  0.89112812069E+03  0.12699999809E+01 0. -1.
       -4    1    3    3    0  502  0.54455633819E+03  0.32062456657E+03  0.12070349165E+04  0.13624524288E+04  0.12699999809E+01 0.  1.
</event>
<event>
 5   0  0.3977658E-04  0.1405836E+04  0.7818609E-02  0.8949605E-01
       -1   -1    0    0    0  501  0.00000000000E+00  0.00000000000E+00  0.43625092336E+03  0.43625092339E+03  0.50400001928E-02 0.  1.
        1   -1    0    0  501    0  0.00000000000E+00  0.00000000000E+00 -0.11325912295E+04  0.11325912295E+04  0.50400001928E-02 0. -1.
    10030    2    1    2    0    0  0.00000000000E+00  0.00000000000E+00 -0.69634030610E+03  0.15688421529E+04  0.14058363627E+04 0.  0.
        5    1    3    3  502    0 -0.39099141109E+03  0.56408631179E+03 -0.51742780754E+03  0.85954713467E+03  0.46999998093E+01 0. -1.
       -5    1    3    3    0  502  0.39099141109E+03 -0.56408631179E+03 -0.17891249855E+03  0.70929501820E+03  0.46999998093E+01 0.  1.
</event>
<event>
 5   0  0.3907270E-04  0.1404775E+04  0.7818609E-02  0.8950370E-01
       -1   -1    0    0    0  501  0.00000000000E+00  0.00000000000E+00  0.11910939203E+04  0.11910939203E+04  0.50400001928E-02 0.  1.
        1   -1    0    0  501    0  0.00000000000E+00  0.00000000000E+00 -0.41419738710E+03  0.41419738713E+03  0.50400001928E-02 0. -1.
    10030    2    1    2    0    0  0.00000000000E+00  0.00000000000E+00  0.77689653322E+03  0.16052913075E+04  0.14047747003E+04 0.  0.
        3    1    3    3  502    0 -0.34000151355E+03 -0.21319195761E+03  0.10471818799E+04  0.11214462715E+04  0.10100000352E+00 0.  1.
       -3    1    3    3    0  502  0.34000151355E+03  0.21319195761E+03 -0.27028534669E+03  0.48384503598E+03  0.10100000352E+00 0. -1.
</event>
<event>
 5   0  0.3784219E-04  0.1427605E+04  0.7818609E-02  0.8934075E-01
        1   -1    0    0  501    0  0.00000000000E+00  0.00000000000E+00  0.84237845398E+03  0.84237845400E+03  0.50400001928E-02 0. -1.
       -1   -1    0    0    0  501  0.00000000000E+00  0.00000000000E+00 -0.60485186345E+03  0.60485186347E+03  0.50400001928E-02 0.  1.
    10030    2    1    2    0    0  0.00000000000E+00  0.00000000000E+00  0.23752659053E+03  0.14472303175E+04  0.14276052363E+04 0.  0.
        1    1    3    3  502    0  0.39478850042E+03  0.36079593589E+03  0.59800134264E+03  0.80227007501E+03  0.50400001928E-02 0.  1.
       -1    1    3    3    0  502 -0.39478850042E+03 -0.36079593589E+03 -0.36047475211E+03  0.64496024246E+03  0.50400001928E-02 0. -1.
</event>
<event>
 5   0  0.6895048E-04  0.1406937E+04  0.7818609E-02  0.8948813E-01
        2   -1    0    0  501    0  0.00000000000E+00  0.00000000000E+00  0.12180508076E+04  0.12180508076E+04  0.25500000920E-02 0.  1.
       -2   -1    0    0    0  501  0.00000000000E+00  0.00000000000E+00 -0.40627844520E+03  0.40627844521E+03  0.25500000920E-02 0. -1.
    10030    2    1    2    0    0  0.00000000000E+00  0.00000000000E+00  0.81177236245E+03  0.16243292529E+04  0.14069367979E+04 0.  0.
        4    1    3    3  502    0 -0.16763052300E+03 -0.57234434416E+03  0.83661168215E+03  0.10274233597E+04  0.12699999809E+01 0. -1.
       -4    1    3    3    0  502  0.16763052300E+03  0.57234434416E+03 -0.24839319702E+02  0.59690589312E+03  0.12699999809E+01 0.  1.
</event>
<event>
 5   0  0.6870835E-04  0.1403343E+04  0.7818609E-02  0.8951402E-01
        2   -1    0    0  501    0  0.00000000000E+00  0.00000000000E+00  0.16079778922E+04  0.16079778922E+04  0.25500000920E-02 0.  1.
       -2   -1    0    0    0  501  0.00000000000E+00  0.00000000000E+00 -0.30618750501E+03  0.30618750502E+03  0.25500000920E-02 0. -1.
    10030    2    1    2    0    0  0.00000000000E+00  0.00000000000E+00  0.13017903871E+04  0.19141653972E+04  0.14033427791E+04 0.  0.
        2    1    3    3  502    0 -0.58386336111E+03 -0.35428742089E+03  0.87052416879E+03  0.11064485209E+04  0.25500000920E-02 0.  1.
       -2    1    3    3    0  502  0.58386336111E+03  0.35428742089E+03  0.43126621835E+03  0.80771687623E+03  0.25500000920E-02 0. -1.
</event>
<event>
 5   0  0.3907270E-04  0.1382855E+04  0.7818609E-02  0.8966323E-01
        1   -1    0    0  501    0  0.00000000000E+00  0.00000000000E+00  0.20452046556E+04  0.20452046556E+04  0.50400001928E-02 0. -1.
       -1   -1    0    0    0  501  0.00000000000E+00  0.00000000000E+00 -0.23375258002E+03  0.23375258007E+03  0.50400001928E-02 0.  1.
    10030    2    1    2    0    0  0.00000000000E+00  0.00000000000E+00  0.18114520756E+04  0.22789572357E+04  0.13828548224E+04 0.  0.
        3    1    3    3  502    0 -0.83525368324E+02  0.35487253546E+03  0.18739377968E+04  0.19090714707E+04  0.10100000352E+00 0. -1.
       -3    1    3    3    0  502  0.83525368324E+02 -0.35487253546E+03 -0.62485721258E+02  0.36988576499E+03  0.10100000352E+00 0.  1.
</event>
<event>
 5   0  0.7296966E-04  0.1393039E+04  0.7818609E-02  0.8958873E-01
       -2   -1    0    0    0  501  0.00000000000E+00  0.00000000000E+00  0.94633352268E+03  0.94633352268E+03  0.25500000920E-02 0.  1.
        2   -1    0    0  501    0  0.00000000000E+00  0.00000000000E+00 -0.51265156811E+03  0.51265156811E+03  0.25500000920E-02 0. -1.
    10030    2    1    2    0    0  0.00000000000E+00  0.00000000000E+00  0.43368195457E+03  0.14589850908E+04  0.13930389289E+04 0.  0.
        3    1    3    3  502    0  0.38966339179E+03  0.13568790352E+03 -0.37087492353E+03  0.55479454320E+03  0.10100000352E+00 0. -1.
       -3    1    3    3    0  502 -0.38966339179E+03 -0.13568790352E+03  0.80455687810E+03  0.90419054760E+03  0.10100000352E+00 0.  1.
</event>
<event>
 5   0  0.3784219E-04  0.1402656E+04  0.7818609E-02  0.8951898E-01
        1   -1    0    0  501    0  0.00000000000E+00  0.00000000000E+00  0.83684446300E+03  0.83684446301E+03  0.50400001928E-02 0. -1.
       -1   -1    0    0    0  501  0.00000000000E+00  0.00000000000E+00 -0.58775685805E+03  0.58775685807E+03  0.50400001928E-02 0.  1.
    10030    2    1    2    0    0  0.00000000000E+00  0.00000000000E+00  0.24908760495E+03  0.14246013211E+04  0.14026561550E+04 0.  0.
        1    1    3    3  502    0 -0.33233178797E+02 -0.69111905153E+03  0.24083890668E+03  0.73263453820E+03  0.50400001928E-02 0. -1.
       -1    1    3    3    0  502  0.33233178797E+02  0.69111905153E+03  0.82486982690E+01  0.69196678288E+03  0.50400001928E-02 0.  1.
</event>
<event>
 5   0  0.3907093E-04  0.1416118E+04  0.7818609E-02  0.8942233E-01
        1   -1    0    0  501    0  0.00000000000E+00  0.00000000000E+00  0.10805119872E+04  0.10805119872E+04  0.50400001928E-02 0.  1.
       -1   -1    0    0    0  501  0.00000000000E+00  0.00000000000E+00 -0.46399095570E+03  0.46399095573E+03  0.50400001928E-02 0. -1.
    10030    2    1    2    0    0  0.00000000000E+00  0.00000000000E+00  0.61652103149E+03  0.15445029429E+04  0.14161183420E+04 0.  0.
        4    1    3    3  502    0  0.47286631757E+03 -0.34324434228E+03 -0.12790367943E+03  0.59814730369E+03  0.12699999809E+01 0. -1.
       -4    1    3    3    0  502 -0.47286631757E+03  0.34324434228E+03  0.74442471093E+03  0.94635563925E+03  0.12699999809E+01 0.  1.
</event>
<event>
 5   0  0.3977658E-04  0.1383699E+04  0.7818609E-02  0.8965703E-01
       -1   -1    0    0    0  501  0.00000000000E+00  0.00000000000E+00  0.47345891324E+03  0.47345891327E+03  0.50400001928E-02 0. -1.
        1   -1    0    0  501    0  0.00000000000E+00  0.00000000000E+00 -0.10109764751E+04  0.10109764751E+04  0.50400001928E-02 0.  1.
    10030    2    1    2    0    0  0.00000000000E+00  0.00000000000E+00 -0.53751756185E+03  0.14844353884E+04  0.13836991338E+04 0.  0.
        5    1    3    3  502    0 -0.61940692895E+02  0.68180550679E+03 -0.16180985197E+03  0.70349123428E+03  0.46999998093E+01 0. -1.
       -5    1    3    3    0  502  0.61940692895E+02 -0.68180550679E+03 -0.37570770988E+03  0.78094415408E+03  0.46999998093E+01 0.  1.
</event>
<event>
 5   0  0.7296966E-04  0.1394506E+04  0.7818609E-02  0.8957805E-01
        2   -1    0    0  501    0  0.00000000000E+00  0.00000000000E+00  0.13793974616E+04  0.13793974616E+04  0.25500000920E-02 0. -1.
       -2   -1    0    0    0  501  0.00000000000E+00  0.00000000000E+00 -0.35244500356E+03  0.35244500357E+03  0.25500000920E-02 0.  1.
    10030    2    1    2    0    0  0.00000000000E+00  0.00000000000E+00  0.10269524580E+04  0.17318424651E+04  0.13945059960E+04 0.  0.
        3    1    3    3  502    0  0.41534593010E+03  0.47345286466E+02 -0.17955502714E+03  0.45496575231E+03  0.10100000352E+00 0.  1.
       -3    1    3    3    0  502 -0.41534593010E+03 -0.47345286466E+02  0.12065074851E+04  0.12768767128E+04  0.10100000352E+00 0. -1.
</event>
<event>
 5   0  0.3784219E-04  0.1399334E+04  0.7818609E-02  0.8954301E-01
       -1   -1    0    0    0  501  0.00000000000E+00  0.00000000000E+00  0.42403800124E+03  0.42403800127E+03  0.50400001928E-02 0. -1.
        1   -1    0    0  501    0  0.00000000000E+00  0.00000000000E+00 -0.11544577232E+04  0.11544577232E+04  0.50400001928E-02 0.  1.
    10030    2    1    2    0    0  0.00000000000E+00  0.00000000000E+00 -0.73041972198E+03  0.15784957245E+04  0.13993340495E+04 0.  0.
        1    1    3    3  502    0 -0.29912929202E+02  0.36866291181E+03 -0.10351580992E+04  0.10992540272E+04  0.50400001928E-02 0.  1.
       -1    1    3    3    0  502  0.29912929202E+02 -0.36866291181E+03  0.30473837723E+03  0.47924169733E+03  0.50400001928E-02 0. -1.
</event>
<event>
 5   0  0.7065539E-04  0.1405773E+04  0.7818609E-02  0.8949650E-01
       -2   -1    0    0    0  501  0.00000000000E+00  0.00000000000E+00  0.24281555876E+03  0.24281555877E+03  0.25500000920E-02 0. -1.
        2   -1    0    0  501    0  0.00000000000E+00  0.00000000000E+00 -0.20346692441E+04  0.20346692441E+04  0.25500000920E-02 0.  1.
    10030    2    1    2    0    0  0.00000000000E+00  0.00000000000E+00 -0.17918536854E+04  0.22774848029E+04  0.14057728827E+04 0.  0.
        1    1    3    3  502    0  0.66642575943E+03 -0.10096475656E+03 -0.57299453709E+03  0.88466938144E+03  0.50400001928E-02 0. -1.
       -1    1    3    3    0  502 -0.66642575943E+03  0.10096475656E+03 -0.12188591483E+04  0.13928154215E+04  0.50400001928E-02 0.  1.
</event>
<event>
 5   0  0.3907093E-04  0.1400832E+04  0.7818609E-02  0.8953216E-01
        1   -1    0    0  501    0  0.00000000000E+00  0.00000000000E+00  0.44940207764E+03  0.44940207767E+03  0.50400001928E-02 0.  1.
       -1   -1    0    0    0  501  0.00000000000E+00  0.00000000000E+00 -0.10916342489E+04  0.10916342490E+04  0.50400001928E-02 0. -1.
    10030    2    1    2    0    0  0.00000000000E+00  0.00000000000E+00 -0.64223217130E+03  0.15410363266E+04  0.14008321806E+04 0.  0.
        4    1    3    3  502    0 -0.38339155066E+03  0.50987423814E+03 -0.63922990857E+03  0.90309318941E+03  0.12699999809E+01 0. -1.
       -4    1    3    3    0  502  0.38339155066E+03 -0.50987423814E+03 -0.30022627269E+01  0.63794313721E+03  0.12699999809E+01 0.  1.
</event>
<event>
 5   0  0.3977658E-04  0.1419871E+04  0.7818609E-02  0.8939559E-01
       -1   -1    0    0    0  501  0.00000000000E+00  0.00000000000E+00  0.41050142781E+03  0.41050142784E+03  0.50400001928E-02 0.  1.
        1   -1    0    0  501    0  0.00000000000E+00  0.00000000000E+00 -0.12277874500E+04  0.12277874500E+04  0.50400001928E-02 0. -1.
    10030    2    1    2    0    0  0.00000000000E+00  0.00000000000E+00 -0.81728602218E+03  0.16382888778E+04  0.14198711227E+04 0.  0.
        5    1    3    3  502    0 -0.55861466958E+03  0.92206638167E+01  0.96743489139E+02  0.56702448131E+03  0.46999998093E+01 0.  1.
       -5    1    3    3    0  502  0.55861466958E+03 -0.92206638167E+01 -0.91402951132E+03  0.10712643965E+04  0.46999998093E+01 0. -1.
</event>
<event>
 5   0  0.3756664E-04  0.1397408E+04  0.7818609E-02  0.8955697E-01
        1   -1    0    0  501    0  0.00000000000E+00  0.00000000000E+00  0.18876538010E+04  0.18876538010E+04  0.50400001928E-02 0.  1.
       -1   -1    0    0    0  501  0.00000000000E+00  0.00000000000E+00 -0.25862115015E+03  0.25862115020E+03  0.50400001928E-02 0. -1.
    10030    2    1    2    0    0  0.00000000000E+00  0.00000000000E+00  0.16290326508E+04  0.21462749512E+04  0.13974078820E+04 0.  0.
        2    1    3    3  502    0 -0.47863507047E+03 -0.34401255546E+03  0.23829681852E+03  0.63578419508E+03  0.25500000920E-02 0. -1.
       -2    1    3    3    0  502  0.47863507047E+03  0.34401255546E+03  0.13907358323E+04  0.15104907561E+04  0.25500000920E-02 0.  1.
</event>
<event>
 5   0  0.3756664E-04  0.1393290E+04  0.7818609E-02  0.8958690E-01
       -1   -1    0    0    0  501  0.00000000000E+00  0.00000000000E+00  0.47067549053E+03  0.47067549056E+03  0.50400001928E-02 0.  1.
        1   -1    0    0  501    0  0.00000000000E+00  0.00000000000E+00 -0.10311021896E+04  0.10311021896E+04  0.50400001928E-02 0. -1.
    10030    2    1    2    0    0  0.00000000000E+00  0.00000000000E+00 -0.56042669903E+03  0.15017776801E+04  0.13932903917E+04 0.  0.
        2    1    3    3  502    0 -0.52492922892E+03 -0.30925321548E+03  0.83916966648E+02  0.61500431215E+03  0.25500000920E-02 0. -1.
       -2    1    3    3    0  502  0.52492922892E+03  0.30925321548E+03 -0.64434366567E+03  0.88677336798E+03  0.25500000920E-02 0.  1.
</event>
<event>
 5   0  0.3977658E-04  0.1401481E+04  0.7818609E-02  0.8952747E-01
        1   -1    0    0  501    0  0.00000000000E+00  0.00000000000E+00  0.14256463520E+04  0.14256463520E+04  0.50400001928E-02 0.  1.
       -1   -1    0    0    0  501  0.00000000000E+00  0.00000000000E+00 -0.34443121746E+03  0.34443121749E+03  0.50400001928E-02 0. -1.
    10030    2    1    2    0    0  0.00000000000E+00  0.00000000000E+00  0.10812151346E+04  0.17700775695E+04  0.14014808008E+04 0.  0.
        5    1    3    3  502    0  0.32585707883E+03  0.60222081775E+03  0.72863112357E+03  0.99988907054E+03  0.46999998093E+01 0.  1.
       -5    1    3    3    0  502 -0.32585707883E+03 -0.60222081775E+03  0.35258401099E+03  0.77018849898E+03  0.46999998093E+01 0. -1.
</event>
<event>
 5   0  0.6870835E-04  0.1397311E+04  0.7818609E-02  0.8955767E-01
       -2   -1    0    0    0  501  0.00000000000E+00  0.00000000000E+00  0.49589110973E+03  0.49589110973E+03  0.25500000920E-02 0.  1.
        2   -1    0    0  501    0  0.00000000000E+00  0.00000000000E+00 -0.98432840249E+03  0.98432840250E+03  0.25500000920E-02 0. -1.
    10030    2    1    2    0    0  0.00000000000E+00  0.00000000000E+00 -0.48843729277E+03  0.14802195122E+04  0.13973112808E+04 0.  0.
        2    1    3    3  502    0  0.52512832600E+02  0.22475757378E+03  0.45433661635E+03  0.50960310588E+03  0.25500000920E-02 0.  1.
       -2    1    3    3    0  502 -0.52512832600E+02 -0.22475757378E+03 -0.94277390912E+03  0.97061640635E+03  0.25500000920E-02 0. -1.
</event>
<event>
 5   0  0.3907093E-04  0.1411997E+04  0.7818609E-02  0.8945180E-01
        1   -1    0    0  501    0  0.00000000000E+00  0.00000000000E+00  0.10980462834E+04  0.10980462834E+04  0.50400001928E-02 0. -1.
       -1   -1    0    0    0  501  0.00000000000E+00  0.00000000000E+00 -0.45392767207E+03  0.45392767210E+03  0.50400001928E-02 0.  1.
    10030    2    1    2    0    0  0.00000000000E+00  0.00000000000E+00  0.64411861131E+03  0.15519739555E+04  0.14119965910E+04 0.  0.
        4    1    3    3  502    0  0.30213903079E+03 -0.57150918445E+03  0.10166035543E+02  0.64654133898E+03  0.12699999809E+01 0.  1.
       -4    1    3    3    0  502 -0.30213903079E+03  0.57150918445E+03  0.63395257577E+03  0.90543261652E+03  0.12699999809E+01 0. -1.
</event>
<event>
 5   0  0.3784219E-04  0.1389320E+04  0.7818609E-02  0.8961586E-01
       -1   -1    0    0    0  501  0.00000000000E+00  0.00000000000E+00  0.49232471624E+03  0.49232471627E+03  0.50400001928E-02 0. -1.
        1   -1    0    0  501    0  0.00000000000E+00  0.00000000000E+00 -0.98015095742E+03  0.98015095743E+03  0.50400001928E-02 0.  1.
    10030    2    1    2    0    0  0.00000000000E+00  0.00000000000E+00 -0.48782624117E+03  0.14724756737E+04  0.13893200380E+04 0.  0.
        1    1    3    3  502    0  0.39500688571E+02  0.69057145520E+03 -0.31180418456E+03  0.75872991813E+03  0.50400001928E-02 0. -1.
       -1    1    3    3    0  502 -0.39500688571E+02 -0.69057145520E+03 -0.17602205662E+03  0.71374575556E+03  0.50400001928E-02 0.  1.
</event>
<event>
 5   0  0.3784219E-04  0.1407698E+04  0.7818609E-02  0.8948265E-01
        1   -1    0    0  501    0  0.00000000000E+00  0.00000000000E+00  0.24984019458E+04  0.24984019458E+04  0.50400001928E-02 0.  1.
       -1   -1    0    0    0  501  0.00000000000E+00  0.00000000000E+00 -0.19828804346E+03  0.19828804353E+03  0.50400001928E-02 0. -1.
    10030    2    1    2    0    0  0.00000000000E+00  0.00000000000E+00  0.23001139024E+04  0.26966899893E+04  0.14076977427E+04 0.  0.
        1    1    3    3  502    0  0.56304102658E+03 -0.25825447017E+03  0.50983002579E+03  0.80227004444E+03  0.50400001928E-02 0. -1.
       -1    1    3    3    0  502 -0.56304102658E+03  0.25825447017E+03  0.17902838766E+04  0.18944199449E+04  0.50400001928E-02 0.  1.
</event>
<event>
 5   0  0.2660250E-04  0.1408989E+04  0.7818609E-02  0.8947337E-01
        3   -1    0    0  501    0  0.00000000000E+00  0.00000000000E+00  0.78260079832E+03  0.78260080484E+03  0.10100000352E+00 0.  1.
       -3   -1    0    0    0  501  0.00000000000E+00  0.00000000000E+00 -0.63418381368E+03  0.63418382172E+03  0.10100000352E+00 0. -1.
    10030    2    1    2    0    0  0.00000000000E+00  0.00000000000E+00  0.14841698465E+03  0.14167846266E+04  0.14089893813E+04 0.  0.
        5    1    3    3  502    0  0.59190387559E+02  0.52572213072E+03 -0.39355699340E+03  0.65939097489E+03  0.46999998093E+01 0. -1.
       -5    1    3    3    0  502 -0.59190387559E+02 -0.52572213072E+03  0.54197397805E+03  0.75739365167E+03  0.46999998093E+01 0.  1.
</event>
<event>
 5   0  0.6895048E-04  0.1404311E+04  0.7818609E-02  0.8950704E-01
       -2   -1    0    0    0  501  0.00000000000E+00  0.00000000000E+00  0.22823722111E+03  0.22823722113E+03  0.25500000920E-02 0.  1.
        2   -1    0    0  501    0  0.00000000000E+00  0.00000000000E+00 -0.21601299335E+04  0.21601299335E+04  0.25500000920E-02 0. -1.
    10030    2    1    2    0    0  0.00000000000E+00  0.00000000000E+00 -0.19318927124E+04  0.23883671546E+04  0.14043105829E+04 0.  0.
        4    1    3    3  502    0  0.11712261683E+03 -0.24770960869E+03 -0.20654490163E+04  0.20835448182E+04  0.12699999809E+01 0. -1.
       -4    1    3    3    0  502 -0.11712261683E+03  0.24770960869E+03  0.13355630387E+03  0.30482233647E+03  0.12699999809E+01 0.  1.
</event>
<event>
 5   0  0.3784219E-04  0.1378492E+04  0.7818609E-02  0.8969536E-01
        1   -1    0    0  501    0  0.00000000000E+00  0.00000000000E+00  0.98504517003E+03  0.98504517004E+03  0.50400001928E-02 0. -1.
       -1   -1    0    0    0  501  0.00000000000E+00  0.00000000000E+00 -0.48227230224E+03  0.48227230226E+03  0.50400001928E-02 0.  1.
    10030    2    1    2    0    0  0.00000000000E+00  0.00000000000E+00  0.50277286779E+03  0.14673174723E+04  0.13784919325E+04 0.  0.
        1    1    3    3  502    0  0.27841022234E+03 -0.62080271834E+03  0.13404834664E+03  0.69345311757E+03  0.50400001928E-02 0. -1.
       -1    1    3    3    0  502 -0.27841022234E+03  0.62080271834E+03  0.36872452115E+03  0.77386435473E+03  0.50400001928E-02 0.  1.
</event>
<event>
 5   0  0.6895048E-04  0.1390022E+04  0.7818609E-02  0.8961073E-01
        2   -1    0    0  501    0  0.00000000000E+00  0.00000000000E+00  0.11989200024E+04  0.11989200024E+04  0.25500000920E-02 0.  1.
       -2   -1    0    0    0  501  0.00000000000E+00  0.00000000000E+00 -0.40289608037E+03  0.40289608038E+03  0.25500000920E-02 0. -1.
    10030    2    1    2    0    0  0.00000000000E+00  0.00000000000E+00  0.79602392202E+03  0.16018160828E+04  0.13900218267E+04 0.  0.
        4    1    3    3  502    0  0.31724861153E+03  0.34060250686E+03  0.99277409471E+03  0.10964756109E+04  0.12699999809E+01 0.  1.
       -4    1    3    3    0  502 -0.31724861153E+03 -0.34060250686E+03 -0.19675017269E+03  0.50534047191E+03  0.12699999809E+01 0. -1.
</event>
<event>
 5   0  0.7296966E-04  0.1395417E+04  0.7818609E-02  0.8957143E-01
        2   -1    0    0  501    0  0.00000000000E+00  0.00000000000E+00  0.22973893607E+04  0.22973893607E+04  0.25500000920E-02 0. -1.
       -2   -1    0    0    0  501  0.00000000000E+00  0.00000000000E+00 -0.21189143961E+03  0.21189143962E+03  0.25500000920E-02 0.  1.
    10030    2    1    2    0    0  0.00000000000E+00  0.00000000000E+00  0.20854979211E+04  0.25092808003E+04  0.13954169828E+04 0.  0.
        3    1    3    3  502    0  0.26982423041E+03  0.14253689922E+03  0.21710222662E+04  0.21923639236E+04  0.10100000352E+00 0. -1.
       -3    1    3    3    0  502 -0.26982423041E+03 -0.14253689922E+03 -0.85524345096E+02  0.31691687674E+03  0.10100000352E+00 0.  1.
</event>
<event>
 5   0  0.7065539E-04  0.1397155E+04  0.7818609E-02  0.8955880E-01
        2   -1    0    0  501    0  0.00000000000E+00  0.00000000000E+00  0.17654262598E+04  0.17654262598E+04  0.25500000920E-02 0.  1.
       -2   -1    0    0    0  501  0.00000000000E+00  0.00000000000E+00 -0.27642664885E+03  0.27642664886E+03  0.25500000920E-02 0. -1.
    10030    2    1    2    0    0  0.00000000000E+00  0.00000000000E+00  0.14889996110E+04  0.20418529087E+04  0.13971554886E+04 0.  0.
        1    1    3    3  502    0 -0.53125348543E+03  0.45325966205E+03  0.77129943452E+03  0.10404698000E+04  0.50400001928E-02 0. -1.
       -1    1    3    3    0  502  0.53125348543E+03 -0.45325966205E+03  0.71770017648E+03  0.10013831087E+04  0.50400001928E-02 0.  1.
</event>
<event>
 5   0  0.6895048E-04  0.1401080E+04  0.7818609E-02  0.8953037E-01
        2   -1    0    0  501    0  0.00000000000E+00  0.00000000000E+00  0.10457382784E+04  0.10457382784E+04  0.25500000920E-02 0.  1.
       -2   -1    0    0    0  501  0.00000000000E+00  0.00000000000E+00 -0.46929163916E+03  0.46929163917E+03  0.25500000920E-02 0. -1.
    10030    2    1    2    0    0  0.00000000000E+00  0.00000000000E+00  0.57644663927E+03  0.15150299176E+04  0.14010799133E+04 0.  0.
        4    1    3    3  502    0 -0.21407085352E+03  0.50354563658E+03  0.76126054744E+03  0.93749867863E+03  0.12699999809E+01 0.  1.
       -4    1    3    3    0  502  0.21407085352E+03 -0.50354563658E+03 -0.18481390817E+03  0.57753123898E+03  0.12699999809E+01 0. -1.
</event>
<event>
 5   0  0.3784219E-04  0.1405668E+04  0.7818609E-02  0.8949726E-01
        1   -1    0    0  501    0  0.00000000000E+00  0.00000000000E+00  0.95787422744E+03  0.95787422745E+03  0.50400001928E-02 0.  1.
       -1   -1    0    0    0  501  0.00000000000E+00  0.00000000000E+00 -0.51569977561E+03  0.51569977564E+03  0.50400001928E-02 0. -1.
    10030    2    1    2    0    0  0.00000000000E+00  0.00000000000E+00  0.44217445182E+03  0.14735740031E+04  0.14056678472E+04 0.  0.
        1    1    3    3  502    0  0.12582539318E+03 -0.54377300766E+03  0.66886901102E+03  0.87115260853E+03  0.50400001928E-02 0.  1.
       -1    1    3    3    0  502 -0.12582539318E+03  0.54377300766E+03 -0.22669455920E+03  0.60242139456E+03  0.50400001928E-02 0. -1.
</event>
<event>
 5   0  0.7296966E-04  0.1398656E+04  0.7818609E-02  0.8954792E-01
        2   -1    0    0  501    0  0.00000000000E+00  0.00000000000E+00  0.51967487249E+03  0.51967487250E+03  0.25500000920E-02 0. -1.
       -2   -1    0    0    0  501  0.00000000000E+00  0.00000000000E+00 -0.94108802443E+03  0.94108802443E+03  0.25500000920E-02 0.  1.
    10030    2    1    2    0    0  0.00000000000E+00  0.00000000000E+00 -0.42141315194E+03  0.14607628969E+04  0.13986562109E+04 0.  0.
        3    1    3    3  502    0  0.56991361260E+03 -0.15842143327E+03 -0.60031414469E+03  0.84277871287E+03  0.10100000352E+00 0. -1.
       -3    1    3    3    0  502 -0.56991361260E+03  0.15842143327E+03  0.17890099275E+03  0.61798418407E+03  0.10100000352E+00 0.  1.
</event>
<event>
 5   0  0.3784219E-04  0.1402671E+04  0.7818609E-02  0.8951887E-01
       -1   -1    0    0    0  501  0.00000000000E+00  0.00000000000E+00  0.37407336706E+03  0.37407336709E+03  0.50400001928E-02 0.  1.
        1   -1    0    0  501    0  0.00000000000E+00  0.00000000000E+00 -0.13149067362E+04  0.13149067362E+04  0.50400001928E-02 0. -1.
    10030    2    1    2    0    0  0.00000000000E+00  0.00000000000E+00 -0.94083336911E+03  0.16889801033E+04  0.14026711521E+04 0.  0.
        1    1    3    3  502    0  0.59255552464E+03  0.10434349633E+03 -0.36496682076E+02  0.60277825345E+03  0.50400001928E-02 0.  1.
       -1    1    3    3    0  502 -0.59255552464E+03 -0.10434349633E+03 -0.90433668703E+03  0.10862018498E+04  0.50400001928E-02 0. -1.
</event>
<event>
 5   0  0.6895048E-04  0.1402302E+04  0.7818609E-02  0.8952154E-01
        2   -1    0    0  501    0  0.00000000000E+00  0.00000000000E+00  0.19474312530E+04  0.19474312530E+04  0.25500000920E-02 0.  1.
       -2   -1    0    0    0  501  0.00000000000E+00  0.00000000000E+00 -0.25244168362E+03  0.25244168363E+03  0.25500000920E-02 0. -1.
    10030    2    1    2    0    0  0.00000000000E+00  0.00000000000E+00  0.16949895694E+04  0.21998729366E+04  0.14023021418E+04 0.  0.
        4    1    3    3  502    0 -0.46046291064E+03  0.43070588585E+03  0.13286653144E+04  0.14706756211E+04  0.12699999809E+01 0.  1.
       -4    1    3    3    0  502  0.46046291064E+03 -0.43070588585E+03  0.36632425501E+03  0.72919731547E+03  0.12699999809E+01 0. -1.
</event>
<event>
 5   0  0.6870835E-04  0.1404827E+04  0.7818609E-02  0.8950332E-01
       -2   -1    0    0    0  501  0.00000000000E+00  0.00000000000E+00  0.78774710761E+03  0.78774710762E+03  0.25500000920E-02 0.  1.
        2   -1    0    0  501    0  0.00000000000E+00  0.00000000000E+00 -0.62632407867E+03  0.62632407867E+03  0.25500000920E-02 0. -1.
    10030    2    1    2    0    0  0.00000000000E+00  0.00000000000E+00  0.16142302894E+03  0.14140711863E+04  0.14048273651E+04 0.  0.
        2    1    3    3  502    0 -0.23849532591E+02 -0.13825730295E+03 -0.61207673182E+03  0.62795048186E+03  0.25500000920E-02 0. -1.
       -2    1    3    3    0  502  0.23849532591E+02  0.13825730295E+03  0.77349976076E+03  0.78612070443E+03  0.25500000920E-02 0.  1.
</event>
<event>
 5   0  0.7065539E-04  0.1391593E+04  0.7818609E-02  0.8959926E-01
        2   -1    0    0  501    0  0.00000000000E+00  0.00000000000E+00  0.98957481722E+03  0.98957481722E+03  0.25500000920E-02 0. -1.
       -2   -1    0    0    0  501  0.00000000000E+00  0.00000000000E+00 -0.48923341405E+03  0.48923341406E+03  0.25500000920E-02 0.  1.
    10030    2    1    2    0    0  0.00000000000E+00  0.00000000000E+00  0.50034140317E+03  0.14788082313E+04  0.13915934267E+04 0.  0.
        1    1    3    3  502    0  0.52048657402E+03  0.13456512431E+02 -0.24032577523E+03  0.57344906463E+03  0.50400001928E-02 0.  1.
       -1    1    3    3    0  502 -0.52048657402E+03 -0.13456512431E+02  0.74066717839E+03  0.90535916665E+03  0.50400001928E-02 0. -1.
</event>
<event>
 5   0  0.7296966E-04  0.1393736E+04  0.7818609E-02  0.8958365E-01
        2   -1    0    0  501    0  0.00000000000E+00  0.00000000000E+00  0.10033115148E+04  0.10033115148E+04  0.25500000920E-02 0. -1.
       -2   -1    0    0    0  501  0.00000000000E+00  0.00000000000E+00 -0.48402229899E+03  0.48402229899E+03  0.25500000920E-02 0.  1.
    10030    2    1    2    0    0  0.00000000000E+00  0.00000000000E+00  0.51928921585E+03  0.14873338138E+04  0.13937361960E+04 0.  0.
        3    1    3    3  502    0 -0.16045358208E+03  0.46190048052E+03  0.78950415124E+03  0.92866259800E+03  0.10100000352E+00 0. -1.
       -3    1    3    3    0  502  0.16045358208E+03 -0.46190048052E+03 -0.27021493538E+03  0.55867121584E+03  0.10100000352E+00 0.  1.
</event>
<event>
 5   0  0.2660250E-04  0.1390283E+04  0.7818609E-02  0.8960882E-01
        3   -1    0    0  501    0  0.00000000000E+00  0.00000000000E+00  0.41049101901E+03  0.41049103144E+03  0.10100000352E+00 0. -1.
       -3   -1    0    0    0  501  0.00000000000E+00  0.00000000000E+00 -0.11771798530E+04  0.11771798573E+04  0.10100000352E+00 0.  1.
    10030    2    1    2    0    0  0.00000000000E+00  0.00000000000E+00 -0.76668883394E+03  0.15876708887E+04  0.13902830945E+04 0.  0.
        5    1    3    3  502    0 -0.23798589260E+03  0.59228480192E+03 -0.69018347715E+02  0.64204687834E+03  0.46999998093E+01 0. -1.
       -5    1    3    3    0  502  0.23798589260E+03 -0.59228480192E+03 -0.69767048623E+03  0.94562401038E+03  0.46999998093E+01 0.  1.
</event>
<event>
 5   0  0.6870835E-04  0.1396321E+04  0.7818609E-02  0.8956486E-01
        2   -1    0    0  501    0  0.00000000000E+00  0.00000000000E+00  0.17072694806E+04  0.17072694806E+04  0.25500000920E-02 0. -1.
       -2   -1    0    0    0  501  0.00000000000E+00  0.00000000000E+00 -0.28550157571E+03  0.28550157572E+03  0.25500000920E-02 0.  1.
    10030    2    1    2    0    0  0.00000000000E+00  0.00000000000E+00  0.14217679048E+04  0.19927710563E+04  0.13963210617E+04 0.  0.
        2    1    3    3  502    0 -0.20290811540E+03  0.35442427588E+03 -0.97245379859E+02  0.41981535768E+03  0.25500000920E-02 0.  1.
       -2    1    3    3    0  502  0.20290811540E+03 -0.35442427588E+03  0.15190132847E+04  0.15729556986E+04  0.25500000920E-02 0. -1.
</event>
<event>
 5   0  0.3756664E-04  0.1401388E+04  0.7818609E-02  0.8952815E-01
        1   -1    0    0  501    0  0.00000000000E+00  0.00000000000E+00  0.57845902432E+03  0.57845902434E+03  0.50400001928E-02 0. -1.
       -1   -1    0    0    0  501  0.00000000000E+00  0.00000000000E+00 -0.84875807299E+03  0.84875807301E+03  0.50400001928E-02 0.  1.
    10030    2    1    2    0    0  0.00000000000E+00  0.00000000000E+00 -0.27029904867E+03  0.14272170974E+04  0.14013875507E+04 0.  0.
        2    1    3    3  502    0 -0.57146206439E+02  0.44847296205E+03  0.41004723925E+03  0.61035434383E+03  0.25500000920E-02 0. -1.
       -2    1    3    3    0  502  0.57146206439E+02 -0.44847296205E+03 -0.68034628792E+03  0.81686275352E+03  0.25500000920E-02 0.  1.
</event>
<event>
 5   0  0.3756664E-04  0.1382778E+04  0.7818609E-02  0.8966380E-01
        1   -1    0    0  501    0  0.00000000000E+00  0.00000000000E+00  0.96569222562E+03  0.96569222563E+03  0.50400001928E-02 0.  1.
       -1   -1    0    0    0  501  0.00000000000E+00  0.00000000000E+00 -0.49500083860E+03  0.49500083863E+03  0.50400001928E-02 0. -1.
    10030    2    1    2    0    0  0.00000000000E+00  0.00000000000E+00  0.47069138701E+03  0.14606930643E+04  0.13827775838E+04 0.  0.
        2    1    3    3  502    0  0.15010142012E+03  0.67489843722E+03  0.23571865786E+03  0.73046671556E+03  0.25500000920E-02 0.  1.
       -2    1    3    3    0  502 -0.15010142012E+03 -0.67489843722E+03  0.23497272915E+03  0.73022634870E+03  0.25500000920E-02 0. -1.
</event>
<event>
 5   0  0.3907093E-04  0.1391163E+04  0.7818609E-02  0.8960240E-01
        1   -1    0    0  501    0  0.00000000000E+00  0.00000000000E+00  0.38664514754E+03  0.38664514757E+03  0.50400001928E-02 0.  1.
       -1   -1    0    0    0  501  0.00000000000E+00  0.00000000000E+00 -0.12513642639E+04  0.12513642639E+04  0.50400001928E-02 0. -1.
    10030    2    1    2    0    0  0.00000000000E+00  0.00000000000E+00 -0.86471911637E+03  0.16380094115E+04  0.13911634275E+04 0.  0.
        4    1    3    3  502    0  0.63509760241E+03  0.25774399444E+03 -0.29278776012E+03  0.74532356506E+03  0.12699999809E+01 0.  1.
       -4    1    3    3    0  502 -0.63509760241E+03 -0.25774399444E+03 -0.57193135625E+03  0.89268584643E+03  0.12699999809E+01 0. -1.
</event>
<event>
 5   0  0.3977658E-04  0.1399228E+04  0.7818609E-02  0.8954377E-01
       -1   -1    0    0    0  501  0.00000000000E+00  0.00000000000E+00  0.50330246599E+03  0.50330246602E+03  0.50400001928E-02 0.  1.
        1   -1    0    0  501    0  0.00000000000E+00  0.00000000000E+00 -0.97249685770E+03  0.97249685771E+03  0.50400001928E-02 0. -1.
    10030    2    1    2    0    0  0.00000000000E+00  0.00000000000E+00 -0.46919439170E+03  0.14757993237E+04  0.13992284541E+04 0.  0.
        5    1    3    3  502    0  0.43414256163E+03  0.22213549059E+03 -0.76365863803E+03  0.90610184054E+03  0.46999998093E+01 0. -1.
       -5    1    3    3    0  502 -0.43414256163E+03 -0.22213549059E+03  0.29446424632E+03  0.56969748319E+03  0.46999998093E+01 0.  1.
</event>
<event>
 5   0  0.3977658E-04  0.1401146E+04  0.7818609E-02  0.8952989E-01
       -1   -1    0    0    0  501  0.00000000000E+00  0.00000000000E+00  0.34307710241E+03  0.34307710245E+03  0.50400001928E-02 0.  1.
        1   -1    0    0  501    0  0.00000000000E+00  0.00000000000E+00 -0.14305903615E+04  0.14305903615E+04  0.50400001928E-02 0. -1.
    10030    2    1    2    0    0  0.00000000000E+00  0.00000000000E+00 -0.10875132591E+04  0.17736674639E+04  0.14011463821E+04 0.  0.
        5    1    3    3  502    0 -0.65749761525E+03 -0.12138501166E+03 -0.27900154051E+03  0.72450078310E+03  0.46999998093E+01 0.  1.
       -5    1    3    3    0  502  0.65749761525E+03  0.12138501166E+03 -0.80851171855E+03  0.10491666808E+04  0.46999998093E+01 0. -1.
</event>
<event>
 5   0  0.7296966E-04  0.1403422E+04  0.7818609E-02  0.8951345E-01
       -2   -1    0    0    0  501  0.00000000000E+00  0.00000000000E+00  0.42058421311E+03  0.42058421312E+03  0.25500000920E-02 0.  1.
        2   -1    0    0  501    0  0.00000000000E+00  0.00000000000E+00 -0.11707485302E+04  0.11707485302E+04  0.25500000920E-02 0. -1.
    10030    2    1    2    0    0  0.00000000000E+00  0.00000000000E+00 -0.75016431711E+03  0.15913327433E+04  0.14034220311E+04 0.  0.
        3    1    3    3  502    0  0.75942061393E+02 -0.67811655705E+03 -0.18949343342E+03  0.70817867317E+03  0.10100000352E+00 0. -1.
       -3    1    3    3    0  502 -0.75942061393E+02  0.67811655705E+03 -0.56067088369E+03  0.88315407017E+03  0.10100000352E+00 0.  1.
</event>
<event>
 5   0  0.7296966E-04  0.1398545E+04  0.7818609E-02  0.8954872E-01
       -2   -1    0    0    0  501  0.00000000000E+00  0.00000000000E+00  0.50246167890E+03  0.50246167890E+03  0.25500000920E-02 0.  1.
        2   -1    0    0  501    0  0.00000000000E+00  0.00000000000E+00 -0.97317283299E+03  0.97317283300E+03  0.25500000920E-02 0. -1.
    10030    2    1    2    0    0  0.00000000000E+00  0.00000000000E+00 -0.47071115409E+03  0.14756345119E+04  0.13985450376E+04 0.  0.
        3    1    3    3  502    0  0.57739743471E+03  0.22823216458E+03 -0.57481010007E+03  0.84609950945E+03  0.10100000352E+00 0. -1.
       -3    1    3    3    0  502 -0.57739743471E+03 -0.22823216458E+03  0.10409894597E+03  0.62953500245E+03  0.10100000352E+00 0.  1.
</event>
<event>
 5   0  0.3977658E-04  0.1401166E+04  0.7818609E-02  0.8952975E-01
       -1   -1    0    0    0  501  0.00000000000E+00  0.00000000000E+00  0.40010115403E+03  0.40010115406E+03  0.50400001928E-02 0.  1.
        1   -1    0    0  501    0  0.00000000000E+00  0.00000000000E+00 -0.12267315074E+04  0.12267315074E+04  0.50400001928E-02 0. -1.
    10030    2    1    2    0    0  0.00000000000E+00  0.00000000000E+00 -0.82663035332E+03  0.16268326614E+04  0.14011662169E+04 0.  0.
        5    1    3    3  502    0 -0.12639510061E+03 -0.59161342849E+03 -0.31279355666E+01  0.60499094556E+03  0.46999998093E+01 0.  1.
       -5    1    3    3    0  502  0.12639510061E+03  0.59161342849E+03 -0.82350241776E+03  0.10218417159E+04  0.46999998093E+01 0. -1.
</event>
<event>
 5   0  0.7065539E-04  0.1402167E+04  0.7818609E-02  0.8952252E-01
       -2   -1    0    0    0  501  0.00000000000E+00  0.00000000000E+00  0.25653008225E+03  0.25653008226E+03  0.25500000920E-02 0. -1.
        2   -1    0    0  501    0  0.00000000000E+00  0.00000000000E+00 -0.19160248049E+04  0.19160248049E+04  0.25500000920E-02 0.  1.
    10030    2    1    2    0    0  0.00000000000E+00  0.00000000000E+00 -0.16594947227E+04  0.21725548872E+04  0.14021668957E+04 0.  0.
        1    1    3    3  502    0 -0.48533639143E+02  0.43398585346E+03  0.20065912227E+02  0.43715200559E+03  0.50400001928E-02 0. -1.
       -1    1    3    3    0  502  0.48533639143E+02 -0.43398585346E+03 -0.16795606349E+04  0.17354028816E+04  0.50400001928E-02 0.  1.
</event>
<event>
 5   0  0.3756664E-04  0.1409421E+04  0.7818609E-02  0.8947027E-01
        1   -1    0    0  501    0  0.00000000000E+00  0.00000000000E+00  0.13446372847E+04  0.13446372847E+04  0.50400001928E-02 0.  1.
       -1   -1    0    0    0  501  0.00000000000E+00  0.00000000000E+00 -0.36933148853E+03  0.36933148856E+03  0.50400001928E-02 0. -1.
    10030    2    1    2    0    0  0.00000000000E+00  0.00000000000E+00  0.97530579618E+03  0.17139687733E+04  0.14094210016E+04 0.  0.
        2    1    3    3  502    0 -0.25805921871E+03 -0.15259499297E+02 -0.30958889235E+03  0.40332703226E+03  0.25500000920E-02 0. -1.
       -2    1    3    3    0  502  0.25805921871E+03  0.15259499297E+02  0.12848946885E+04  0.13106417410E+04  0.25500000920E-02 0.  1.
</event>
<event>
 5   0  0.7296966E-04  0.1393941E+04  0.7818609E-02  0.8958216E-01
        2   -1    0    0  501    0  0.00000000000E+00  0.00000000000E+00  0.55546832215E+03  0.55546832216E+03  0.25500000920E-02 0.  1.
       -2   -1    0    0    0  501  0.00000000000E+00  0.00000000000E+00 -0.87451946162E+03  0.87451946163E+03  0.25500000920E-02 0. -1.
    10030    2    1    2    0    0  0.00000000000E+00  0.00000000000E+00 -0.31905113947E+03  0.14299877838E+04  0.13939409716E+04 0.  0.
        3    1    3    3  502    0 -0.65384536501E+03 -0.22700664935E+03 -0.24363397207E+03  0.73375970368E+03  0.10100000352E+00 0. -1.
       -3    1    3    3    0  502  0.65384536501E+03  0.22700664935E+03 -0.75417167403E+02  0.69622808011E+03  0.10100000352E+00 0.  1.
</event>
<event>
 5   0  0.6895048E-04  0.1392199E+04  0.7818609E-02  0.8959485E-01
       -2   -1    0    0    0  501  0.00000000000E+00  0.00000000000E+00  0.25624941512E+03  0.25624941513E+03  0.25500000920E-02 0. -1.
        2   -1    0    0  501    0  0.00000000000E+00  0.00000000000E+00 -0.18909484362E+04  0.18909484362E+04  0.25500000920E-02 0.  1.
    10030    2    1    2    0    0  0.00000000000E+00  0.00000000000E+00 -0.16346990211E+04  0.21471978513E+04  0.13921988806E+04 0.  0.
        4    1    3    3  502    0 -0.55866088374E+03  0.12336749220E+02 -0.17715535103E+03  0.58620799184E+03  0.12699999809E+01 0. -1.
       -4    1    3    3    0  502  0.55866088374E+03 -0.12336749220E+02 -0.14575436701E+04  0.15609898595E+04  0.12699999809E+01 0.  1.
</event>
<event>
 5   0  0.6959748E-04  0.1387247E+04  0.7818609E-02  0.8963102E-01
       -2   -1    0    0    0  501  0.00000000000E+00  0.00000000000E+00  0.28248295524E+03  0.28248295525E+03  0.25500000920E-02 0. -1.
        2   -1    0    0  501    0  0.00000000000E+00  0.00000000000E+00 -0.17031585951E+04  0.17031585951E+04  0.25500000920E-02 0.  1.
    10030    2    1    2    0    0  0.00000000000E+00  0.00000000000E+00 -0.14206756399E+04  0.19856415504E+04  0.13872465869E+04 0.  0.
        5    1    3    3  502    0  0.34727625353E+03  0.54857006051E+03 -0.36101321030E+03  0.74288796973E+03  0.46999998093E+01 0.  1.
       -5    1    3    3    0  502 -0.34727625353E+03 -0.54857006051E+03 -0.10596624296E+04  0.12427535807E+04  0.46999998093E+01 0. -1.
</event>
<event>
 5   0  0.3784219E-04  0.1394167E+04  0.7818609E-02  0.8958052E-01
        1   -1    0    0  501    0  0.00000000000E+00  0.00000000000E+00  0.45112133038E+03  0.45112133041E+03  0.50400001928E-02 0. -1.
       -1   -1    0    0    0  501  0.00000000000E+00  0.00000000000E+00 -0.10771499189E+04  0.10771499189E+04  0.50400001928E-02 0.  1.
    10030    2    1    2    0    0  0.00000000000E+00  0.00000000000E+00 -0.62602858852E+03  0.15282712493E+04  0.13941668544E+04 0.  0.
        1    1    3    3  502    0  0.66822124800E+03  0.14325335769E+03 -0.46365222371E+03  0.82584171930E+03  0.50400001928E-02 0.  1.
       -1    1    3    3    0  502 -0.66822124800E+03 -0.14325335769E+03 -0.16237636481E+03  0.70242953002E+03  0.50400001928E-02 0. -1.
</event>
<event>
 5   0  0.3907270E-04  0.1403911E+04  0.7818609E-02  0.8950993E-01
        1   -1    0    0  501    0  0.00000000000E+00  0.00000000000E+00  0.15231614049E+04  0.15231614049E+04  0.50400001928E-02 0.  1.
       -1   -1    0    0    0  501  0.00000000000E+00  0.00000000000E+00 -0.32349911757E+03  0.32349911761E+03  0.50400001928E-02 0. -1.
    10030    2    1    2    0    0  0.00000000000E+00  0.00000000000E+00  0.11996622873E+04  0.18466605225E+04  0.14039107813E+04 0.  0.
        3    1    3    3  502    0 -0.36383019782E+03 -0.58325427675E+03  0.78670333439E+03  0.10447296831E+04  0.10100000352E+00 0. -1.
       -3    1    3    3    0  502  0.36383019782E+03  0.58325427675E+03  0.41295895294E+03  0.80193083941E+03  0.10100000352E+00 0.  1.
</event>
<event>
 5   0  0.3907093E-04  0.1387820E+04  0.7818609E-02  0.8962683E-01
       -1   -1    0    0    0  501  0.00000000000E+00  0.00000000000E+00  0.47698971275E+03  0.47698971278E+03  0.50400001928E-02 0.  1.
        1   -1    0    0  501    0  0.00000000000E+00  0.00000000000E+00 -0.10094786050E+04  0.10094786050E+04  0.50400001928E-02 0. -1.
    10030    2    1    2    0    0  0.00000000000E+00  0.00000000000E+00 -0.53248889222E+03  0.14864683178E+04  0.13878197431E+04 0.  0.
        4    1    3    3  502    0  0.14321216348E+03 -0.51824336745E+02  0.45886584382E+03  0.48348212084E+03  0.12699999809E+01 0.  1.
       -4    1    3    3    0  502 -0.14321216348E+03  0.51824336745E+02 -0.99135473604E+03  0.10029861969E+04  0.12699999809E+01 0. -1.
</event>
<event>
 5   0  0.3977658E-04  0.1398287E+04  0.7818609E-02  0.8955059E-01
        1   -1    0    0  501    0  0.00000000000E+00  0.00000000000E+00  0.13668142991E+04  0.13668142991E+04  0.50400001928E-02 0.  1.
       -1   -1    0    0    0  501  0.00000000000E+00  0.00000000000E+00 -0.35762127499E+03  0.35762127503E+03  0.50400001928E-02 0. -1.
    10030    2    1    2    0    0  0.00000000000E+00  0.00000000000E+00  0.10091930241E+04  0.17244355741E+04  0.13982873415E+04 0.  0.
        5    1    3    3  502    0 -0.16742791095E+03  0.64146838988E+03  0.23086542734E+03  0.70202189148E+03  0.46999998093E+01 0. -1.
       -5    1    3    3    0  502  0.16742791095E+03 -0.64146838988E+03  0.77832759672E+03  0.10224136826E+04  0.46999998093E+01 0.  1.
</event>
<event>
 5   0  0.7296966E-04  0.1403807E+04  0.7818609E-02  0.8951067E-01
       -2   -1    0    0    0  501  0.00000000000E+00  0.00000000000E+00  0.12723743600E+04  0.12723743600E+04  0.25500000920E-02 0. -1.
        2   -1    0    0  501    0  0.00000000000E+00  0.00000000000E+00 -0.38720432205E+03  0.38720432206E+03  0.25500000920E-02 0.  1.
    10030    2    1    2    0    0  0.00000000000E+00  0.00000000000E+00  0.88517003799E+03  0.16595786821E+04  0.14038074676E+04 0.  0.
        3    1    3    3  502    0  0.13474348352E+03 -0.27901653519E+03  0.11871473151E+04  0.12269167825E+04  0.10100000352E+00 0. -1.
       -3    1    3    3    0  502 -0.13474348352E+03  0.27901653519E+03 -0.30197727712E+03  0.43266189959E+03  0.10100000352E+00 0.  1.
</event>
<event>
 5   0  0.3756664E-04  0.1391744E+04  0.7818609E-02  0.8959816E-01
       -1   -1    0    0    0  501  0.00000000000E+00  0.00000000000E+00  0.34149786496E+03  0.34149786500E+03  0.50400001928E-02 0. -1.
        1   -1    0    0  501    0  0.00000000000E+00  0.00000000000E+00 -0.14179818697E+04  0.14179818697E+04  0.50400001928E-02 0.  1.
    10030    2    1    2    0    0  0.00000000000E+00  0.00000000000E+00 -0.10764840047E+04  0.17594797347E+04  0.13917439148E+04 0.  0.
        2    1    3    3  502    0  0.63082701072E+02 -0.29261096936E+03  0.25594712015E+03  0.39383947858E+03  0.25500000920E-02 0. -1.
       -2    1    3    3    0  502 -0.63082701072E+02  0.29261096936E+03 -0.13324311249E+04  0.13656402561E+04  0.25500000920E-02 0.  1.
</event>
<event>
 5   0  0.3907093E-04  0.1397644E+04  0.7818609E-02  0.8955526E-01
        1   -1    0    0  501    0  0.00000000000E+00  0.00000000000E+00  0.70532942870E+03  0.70532942872E+03  0.50400001928E-02 0.  1.
       -1   -1    0    0    0  501  0.00000000000E+00  0.00000000000E+00 -0.69237488455E+03  0.69237488457E+03  0.50400001928E-02 0. -1.
    10030    2    1    2    0    0  0.00000000000E+00  0.00000000000E+00  0.12954544147E+02  0.13977043133E+04  0.13976442778E+04 0.  0.
        4    1    3    3  502    0  0.45479090527E+03  0.26061432049E+03  0.46866178900E+03  0.70313588796E+03  0.12699999809E+01 0.  1.
       -4    1    3    3    0  502 -0.45479090527E+03 -0.26061432049E+03 -0.45570724485E+03  0.69456842534E+03  0.12699999809E+01 0. -1.
</event>
<event>
 5   0  0.3907270E-04  0.1400641E+04  0.7818609E-02  0.8953355E-01
        1   -1    0    0  501    0  0.00000000000E+00  0.00000000000E+00  0.61499151019E+03  0.61499151021E+03  0.50400001928E-02 0.  1.
       -1   -1    0    0    0  501  0.00000000000E+00  0.00000000000E+00 -0.79748890631E+03  0.79748890633E+03  0.50400001928E-02 0. -1.
    10030    2    1    2    0    0  0.00000000000E+00  0.00000000000E+00 -0.18249739612E+03  0.14124804165E+04  0.14006411487E+04 0.  0.
        3    1    3    3  502    0 -0.36979536378E+03  0.33524622603E+03 -0.58663437087E+03  0.77024576495E+03  0.10100000352E+00 0. -1.
       -3    1    3    3    0  502  0.36979536378E+03 -0.33524622603E+03  0.40413697475E+03  0.64223465159E+03  0.10100000352E+00 0.  1.
</event>
<event>
 5   0  0.3907093E-04  0.1401265E+04  0.7818609E-02  0.8952904E-01
        1   -1    0    0  501    0  0.00000000000E+00  0.00000000000E+00  0.16512088607E+04  0.16512088607E+04  0.50400001928E-02 0.  1.
       -1   -1    0    0    0  501  0.00000000000E+00  0.00000000000E+00 -0.29728860019E+03  0.29728860024E+03  0.50400001928E-02 0. -1.
    10030    2    1    2    0    0  0.00000000000E+00  0.00000000000E+00  0.13539202605E+04  0.19484974610E+04  0.14012645302E+04 0.  0.
        4    1    3    3  502    0 -0.36561060360E+03 -0.42275266255E+03  0.12644364252E+04  0.13824586842E+04  0.12699999809E+01 0.  1.
       -4    1    3    3    0  502  0.36561060360E+03  0.42275266255E+03  0.89483835341E+02  0.56603877681E+03  0.12699999809E+01 0. -1.
</event>
<event>
 5   0  0.6870835E-04  0.1399408E+04  0.7818609E-02  0.8954247E-01
       -2   -1    0    0    0  501  0.00000000000E+00  0.00000000000E+00  0.52338202408E+03  0.52338202408E+03  0.25500000920E-02 0. -1.
        2   -1    0    0  501    0  0.00000000000E+00  0.00000000000E+00 -0.93542752859E+03  0.93542752859E+03  0.25500000920E-02 0.  1.
    10030    2    1    2    0    0  0.00000000000E+00  0.00000000000E+00 -0.41204550451E+03  0.14588095527E+04  0.13994083797E+04 0.  0.
        2    1    3    3  502    0  0.61556697566E+03  0.20576062678E+03 -0.47851022608E+03  0.80636974988E+03  0.25500000920E-02 0.  1.
       -2    1    3    3    0  502 -0.61556697566E+03 -0.20576062678E+03  0.66464721572E+02  0.65243980280E+03  0.25500000920E-02 0. -1.
</event>
<event>
 5   0  0.6959748E-04  0.1399726E+04  0.7818609E-02  0.8954017E-01
        2   -1    0    0  501    0  0.00000000000E+00  0.00000000000E+00  0.12684554204E+04  0.12684554204E+04  0.25500000920E-02 0.  1.
       -2   -1    0    0    0  501  0.00000000000E+00  0.00000000000E+00 -0.38614535883E+03  0.38614535884E+03  0.25500000920E-02 0. -1.
    10030    2    1    2    0    0  0.00000000000E+00  0.00000000000E+00  0.88231006153E+03  0.16546007792E+04  0.13997259353E+04 0.  0.
        5    1    3    3  502    0  0.42459589026E+03 -0.36529027305E+03 -0.54854163896E+02  0.56280522644E+03  0.46999998093E+01 0. -1.
       -5    1    3    3    0  502 -0.42459589026E+03  0.36529027305E+03  0.93716422543E+03  0.10917955528E+04  0.46999998093E+01 0.  1.
</event>
<event>
 5   0  0.7296966E-04  0.1400123E+04  0.7818609E-02  0.8953730E-01
        2   -1    0    0  501    0  0.00000000000E+00  0.00000000000E+00  0.20322281626E+04  0.20322281626E+04  0.25500000920E-02 0. -1.
       -2   -1    0    0    0  501  0.00000000000E+00  0.00000000000E+00 -0.24115701924E+03  0.24115701926E+03  0.25500000920E-02 0.  1.
    10030    2    1    2    0    0  0.00000000000E+00  0.00000000000E+00  0.17910711434E+04  0.22733851819E+04  0.14001229748E+04 0.  0.
        3    1    3    3  502    0 -0.51034195763E+03 -0.46962712770E+03  0.74075030922E+03  0.10147460685E+04  0.10100000352E+00 0. -1.
       -3    1    3    3    0  502  0.51034195763E+03  0.46962712770E+03  0.10503208342E+04  0.12586391134E+04  0.10100000352E+00 0.  1.
</event>
<event>
 5   0  0.6959748E-04  0.1394108E+04  0.7818609E-02  0.8958094E-01
       -2   -1    0    0    0  501  0.00000000000E+00  0.00000000000E+00  0.49157476441E+03  0.49157476442E+03  0.25500000920E-02 0. -1.
        2   -1    0    0  501    0  0.00000000000E+00  0.00000000000E+00 -0.98842454632E+03  0.98842454632E+03  0.25500000920E-02 0.  1.
    10030    2    1    2    0    0  0.00000000000E+00  0.00000000000E+00 -0.49684978191E+03  0.14799993107E+04  0.13941084083E+04 0.  0.
        5    1    3    3  502    0  0.43770785092E+03 -0.54045369326E+03 -0.19881105177E+03  0.72334381979E+03  0.46999998093E+01 0.  1.
       -5    1    3    3    0  502 -0.43770785092E+03  0.54045369326E+03 -0.29803873014E+03  0.75665549095E+03  0.46999998093E+01 0. -1.
</event>
<event>
 5   0  0.3907093E-04  0.1344720E+04  0.7818609E-02  0.8994835E-01
       -1   -1    0    0    0  501  0.00000000000E+00  0.00000000000E+00  0.80448094393E+03  0.80448094395E+03  0.50400001928E-02 0. -1.
        1   -1    0    0  501    0  0.00000000000E+00  0.00000000000E+00 -0.56193746446E+03  0.56193746449E+03  0.50400001928E-02 0.  1.
    10030    2    1    2    0    0  0.00000000000E+00  0.00000000000E+00  0.24254347947E+03  0.13664184084E+04  0.13447200182E+04 0.  0.
        4    1    3    3  502    0  0.34654271445E+03 -0.19889641038E+03  0.67075119624E+03  0.78074350151E+03  0.12699999809E+01 0. -1.
       -4    1    3    3    0  502 -0.34654271445E+03  0.19889641038E+03 -0.42820771677E+03  0.58567490692E+03  0.12699999809E+01 0.  1.
</event>
<event>
 5   0  0.3907270E-04  0.1401637E+04  0.7818609E-02  0.8952634E-01
       -1   -1    0    0    0  501  0.00000000000E+00  0.00000000000E+00  0.30058211540E+03  0.30058211545E+03  0.50400001928E-02 0.  1.
        1   -1    0    0  501    0  0.00000000000E+00  0.00000000000E+00 -0.16339854435E+04  0.16339854435E+04  0.50400001928E-02 0. -1.
    10030    2    1    2    0    0  0.00000000000E+00  0.00000000000E+00 -0.13334033281E+04  0.19345675589E+04  0.14016373300E+04 0.  0.
        3    1    3    3  502    0 -0.14698290313E+03 -0.43534345334E+03 -0.13970699613E+04  0.14706911244E+04  0.10100000352E+00 0. -1.
       -3    1    3    3    0  502  0.14698290313E+03  0.43534345334E+03  0.63666633260E+02  0.46387643459E+03  0.10100000352E+00 0.  1.
</event>
<event>
 5   0  0.3907270E-04  0.1401239E+04  0.7818609E-02  0.8952922E-01
       -1   -1    0    0    0  501  0.00000000000E+00  0.00000000000E+00  0.66538288140E+03  0.66538288141E+03  0.50400001928E-02 0. -1.
        1   -1    0    0  501    0  0.00000000000E+00  0.00000000000E+00 -0.73772264714E+03  0.73772264716E+03  0.50400001928E-02 0.  1.
    10030    2    1    2    0    0  0.00000000000E+00  0.00000000000E+00 -0.72339765744E+02  0.14031055286E+04  0.14012394808E+04 0.  0.
        3    1    3    3  502    0 -0.61318732807E+03  0.33870629909E+03 -0.24014767695E+02  0.70092608428E+03  0.10100000352E+00 0.  1.
       -3    1    3    3    0  502  0.61318732807E+03 -0.33870629909E+03 -0.48324998049E+02  0.70217944429E+03  0.10100000352E+00 0. -1.
</event>
<event>
 5   0  0.3977658E-04  0.1387710E+04  0.7818609E-02  0.8962763E-01
       -1   -1    0    0    0  501  0.00000000000E+00  0.00000000000E+00  0.60374550329E+03  0.60374550331E+03  0.50400001928E-02 0.  1.
        1   -1    0    0  501    0  0.00000000000E+00  0.00000000000E+00 -0.79741334760E+03  0.79741334762E+03  0.50400001928E-02 0. -1.
    10030    2    1    2    0    0  0.00000000000E+00  0.00000000000E+00 -0.19366784431E+03  0.14011588509E+04  0.13877099451E+04 0.  0.
        5    1    3    3  502    0  0.53488121159E+03 -0.38038575858E+03  0.13033856729E+03  0.66917969781E+03  0.46999998093E+01 0.  1.
       -5    1    3    3    0  502 -0.53488121159E+03  0.38038575858E+03 -0.32400641160E+03  0.73197915312E+03  0.46999998093E+01 0. -1.
</event>
<event>
 5   0  0.6870835E-04  0.1444404E+04  0.7818609E-02  0.8922289E-01
       -2   -1    0    0    0  501  0.00000000000E+00  0.00000000000E+00  0.93535682911E+03  0.93535682911E+03  0.25500000920E-02 0. -1.
        2   -1    0    0  501    0  0.00000000000E+00  0.00000000000E+00 -0.55762220476E+03  0.55762220476E+03  0.25500000920E-02 0.  1.
    10030    2    1    2    0    0  0.00000000000E+00  0.00000000000E+00  0.37773462435E+03  0.14929790339E+04  0.14444040118E+04 0.  0.
        2    1    3    3  502    0 -0.44911793767E+02  0.12429547942E+03  0.92275124306E+03  0.93216752357E+03  0.25500000920E-02 0. -1.
       -2    1    3    3    0  502  0.44911793767E+02 -0.12429547942E+03 -0.54501661871E+03  0.56081151031E+03  0.25500000920E-02 0.  1.
</event>
<event>
 5   0  0.7296966E-04  0.1391782E+04  0.7818609E-02  0.8959789E-01
        2   -1    0    0  501    0  0.00000000000E+00  0.00000000000E+00  0.12053373624E+04  0.12053373624E+04  0.25500000920E-02 0.  1.
       -2   -1    0    0    0  501  0.00000000000E+00  0.00000000000E+00 -0.40176639877E+03  0.40176639878E+03  0.25500000920E-02 0. -1.
    10030    2    1    2    0    0  0.00000000000E+00  0.00000000000E+00  0.80357096360E+03  0.16071037612E+04  0.13917816659E+04 0.  0.
        3    1    3    3  502    0  0.33562875978E+03  0.33015884411E+03  0.99352492031E+03  0.10994286262E+04  0.10100000352E+00 0.  1.
       -3    1    3    3    0  502 -0.33562875978E+03 -0.33015884411E+03 -0.18995395671E+03  0.50767513491E+03  0.10100000352E+00 0. -1.
</event>
<event>
 5   0  0.7296966E-04  0.1399433E+04  0.7818609E-02  0.8954229E-01
        2   -1    0    0  501    0  0.00000000000E+00  0.00000000000E+00  0.17892672138E+04  0.17892672138E+04  0.25500000920E-02 0. -1.
       -2   -1    0    0    0  501  0.00000000000E+00  0.00000000000E+00 -0.27363325250E+03  0.27363325252E+03  0.25500000920E-02 0.  1.
    10030    2    1    2    0    0  0.00000000000E+00  0.00000000000E+00  0.15156339613E+04  0.20629004663E+04  0.13994327527E+04 0.  0.
        3    1    3    3  502    0  0.51376222447E+03  0.11571128960E+02  0.14578464897E+04  0.15457690358E+04  0.10100000352E+00 0. -1.
       -3    1    3    3    0  502 -0.51376222447E+03 -0.11571128960E+02  0.57787471568E+02  0.51713143048E+03  0.10100000352E+00 0.  1.
</event>
<event>
 5   0  0.3756664E-04  0.1407059E+04  0.7818609E-02  0.8948725E-01
        1   -1    0    0  501    0  0.00000000000E+00  0.00000000000E+00  0.98940019031E+03  0.98940019033E+03  0.50400001928E-02 0.  1.
       -1   -1    0    0    0  501  0.00000000000E+00  0.00000000000E+00 -0.50025606305E+03  0.50025606307E+03  0.50400001928E-02 0. -1.
    10030    2    1    2    0    0  0.00000000000E+00  0.00000000000E+00  0.48914412726E+03  0.14896562534E+04  0.14070585546E+04 0.  0.
        2    1    3    3  502    0  0.10615305538E+03 -0.32551693619E+02  0.98006577280E+03  0.98633513723E+03  0.25500000920E-02 0.  1.
       -2    1    3    3    0  502 -0.10615305538E+03  0.32551693619E+02 -0.49092164553E+03  0.50332111617E+03  0.25500000920E-02 0. -1.
</event>
<event>
 5   0  0.6895048E-04  0.1399935E+04  0.7818609E-02  0.8953866E-01
       -2   -1    0    0    0  501  0.00000000000E+00  0.00000000000E+00  0.25997937817E+03  0.25997937818E+03  0.25500000920E-02 0. -1.
        2   -1    0    0  501    0  0.00000000000E+00  0.00000000000E+00 -0.18845896593E+04  0.18845896593E+04  0.25500000920E-02 0.  1.
    10030    2    1    2    0    0  0.00000000000E+00  0.00000000000E+00 -0.16246102811E+04  0.21445690374E+04  0.13999349238E+04 0.  0.
        4    1    3    3  502    0 -0.30589624232E+03  0.89115297465E+02  0.14245323860E+03  0.34901086716E+03  0.12699999809E+01 0. -1.
       -4    1    3    3    0  502  0.30589624232E+03 -0.89115297465E+02 -0.17670635197E+04  0.17955581703E+04  0.12699999809E+01 0.  1.
</event>
<event>
 5   0  0.7296966E-04  0.1394433E+04  0.7818609E-02  0.8957858E-01
       -2   -1    0    0    0  501  0.00000000000E+00  0.00000000000E+00  0.17763053527E+03  0.17763053529E+03  0.25500000920E-02 0. -1.
        2   -1    0    0  501    0  0.00000000000E+00  0.00000000000E+00 -0.27366408902E+04  0.27366408902E+04  0.25500000920E-02 0.  1.
    10030    2    1    2    0    0  0.00000000000E+00  0.00000000000E+00 -0.25590103550E+04  0.29142714255E+04  0.13944331984E+04 0.  0.
        3    1    3    3  502    0 -0.54260352969E+03 -0.35946094501E+02 -0.36756561464E+03  0.65636514487E+03  0.10100000352E+00 0. -1.
       -3    1    3    3    0  502  0.54260352969E+03  0.35946094501E+02 -0.21914447403E+04  0.22579062807E+04  0.10100000352E+00 0.  1.
</event>
<event>
 5   0  0.7296966E-04  0.1399707E+04  0.7818609E-02  0.8954031E-01
       -2   -1    0    0    0  501  0.00000000000E+00  0.00000000000E+00  0.58040958371E+03  0.58040958371E+03  0.25500000920E-02 0.  1.
        2   -1    0    0  501    0  0.00000000000E+00  0.00000000000E+00 -0.84387833520E+03  0.84387833521E+03  0.25500000920E-02 0. -1.
    10030    2    1    2    0    0  0.00000000000E+00  0.00000000000E+00 -0.26346875149E+03  0.14242879189E+04  0.13997072169E+04 0.  0.
        3    1    3    3  502    0 -0.27573636400E+03  0.63412056680E+03 -0.24159154798E+03  0.73246564557E+03  0.10100000352E+00 0. -1.
       -3    1    3    3    0  502  0.27573636400E+03 -0.63412056680E+03 -0.21877203511E+02  0.69182227336E+03  0.10100000352E+00 0.  1.
</event>
<event>
 5   0  0.7296966E-04  0.1399841E+04  0.7818609E-02  0.8953934E-01
       -2   -1    0    0    0  501  0.00000000000E+00  0.00000000000E+00  0.33247856207E+03  0.33247856207E+03  0.25500000920E-02 0. -1.
        2   -1    0    0  501    0  0.00000000000E+00  0.00000000000E+00 -0.14734444922E+04  0.14734444922E+04  0.25500000920E-02 0.  1.
    10030    2    1    2    0    0  0.00000000000E+00  0.00000000000E+00 -0.11409659301E+04  0.18059230543E+04  0.13998409996E+04 0.  0.
        3    1    3    3  502    0 -0.43682092087E+03  0.93430198093E+02  0.12466809158E+03  0.46377134677E+03  0.10100000352E+00 0. -1.
       -3    1    3    3    0  502  0.43682092087E+03 -0.93430198093E+02 -0.12656340217E+04  0.13421517075E+04  0.10100000352E+00 0.  1.
</event>
<event>
 5   0  0.6959748E-04  0.1400436E+04  0.7818609E-02  0.8953503E-01
       -2   -1    0    0    0  501  0.00000000000E+00  0.00000000000E+00  0.67858995090E+03  0.67858995090E+03  0.25500000920E-02 0. -1.
        2   -1    0    0  501    0  0.00000000000E+00  0.00000000000E+00 -0.72253569735E+03  0.72253569736E+03  0.25500000920E-02 0.  1.
    10030    2    1    2    0    0  0.00000000000E+00  0.00000000000E+00 -0.43945746456E+02  0.14011256483E+04  0.14004363083E+04 0.  0.
        5    1    3    3  502    0 -0.63194926560E+03  0.25042275106E+03  0.14607392190E+03  0.69529210351E+03  0.46999998093E+01 0. -1.
       -5    1    3    3    0  502  0.63194926560E+03 -0.25042275106E+03 -0.19001966835E+03  0.70583354475E+03  0.46999998093E+01 0.  1.
</event>
<event>
 5   0  0.3907270E-04  0.1380220E+04  0.7818609E-02  0.8968262E-01
        1   -1    0    0  501    0  0.00000000000E+00  0.00000000000E+00  0.54696961448E+03  0.54696961450E+03  0.50400001928E-02 0.  1.
       -1   -1    0    0    0  501  0.00000000000E+00  0.00000000000E+00 -0.87071004803E+03  0.87071004805E+03  0.50400001928E-02 0. -1.
    10030    2    1    2    0    0  0.00000000000E+00  0.00000000000E+00 -0.32374043356E+03  0.14176796625E+04  0.13802201843E+04 0.  0.
        3    1    3    3  502    0 -0.38526875373E+02  0.25234542821E+03 -0.82043404151E+03  0.85922905091E+03  0.10100000352E+00 0. -1.
       -3    1    3    3    0  502  0.38526875373E+02 -0.25234542821E+03  0.49669360795E+03  0.55845061164E+03  0.10100000352E+00 0.  1.
</event>
<event>
 5   0  0.2660250E-04  0.1399261E+04  0.7818609E-02  0.8954354E-01
        3   -1    0    0  501    0  0.00000000000E+00  0.00000000000E+00  0.66201197595E+03  0.66201198366E+03  0.10100000352E+00 0.  1.
       -3   -1    0    0    0  501  0.00000000000E+00  0.00000000000E+00 -0.73938660228E+03  0.73938660918E+03  0.10100000352E+00 0. -1.
    10030    2    1    2    0    0  0.00000000000E+00  0.00000000000E+00 -0.77374626326E+02  0.14013985928E+04  0.13992609418E+04 0.  0.
        5    1    3    3  502    0  0.16195109875E+03 -0.68016791391E+03 -0.63304454528E+02  0.70205846869E+03  0.46999998093E+01 0. -1.
       -5    1    3    3    0  502 -0.16195109875E+03  0.68016791391E+03 -0.14070171798E+02  0.69934012414E+03  0.46999998093E+01 0.  1.
</event>
<event>
 5   0  0.3756664E-04  0.1400102E+04  0.7818609E-02  0.8953744E-01
        1   -1    0    0  501    0  0.00000000000E+00  0.00000000000E+00  0.11805831002E+04  0.11805831002E+04  0.50400001928E-02 0. -1.
       -1   -1    0    0    0  501  0.00000000000E+00  0.00000000000E+00 -0.41510982331E+03  0.41510982334E+03  0.50400001928E-02 0.  1.
    10030    2    1    2    0    0  0.00000000000E+00  0.00000000000E+00  0.76547327692E+03  0.15956929236E+04  0.14001023422E+04 0.  0.
        2    1    3    3  502    0  0.57286006933E+03 -0.29913884203E+03  0.68943793207E+03  0.94497479757E+03  0.25500000920E-02 0. -1.
       -2    1    3    3    0  502 -0.57286006933E+03  0.29913884203E+03  0.76035344849E+02  0.65071812601E+03  0.25500000920E-02 0.  1.
</event>
<event>
 5   0  0.3907093E-04  0.1397936E+04  0.7818609E-02  0.8955314E-01
       -1   -1    0    0    0  501  0.00000000000E+00  0.00000000000E+00  0.52290163321E+03  0.52290163324E+03  0.50400001928E-02 0. -1.
        1   -1    0    0  501    0  0.00000000000E+00  0.00000000000E+00 -0.93431798294E+03  0.93431798296E+03  0.50400001928E-02 0.  1.
    10030    2    1    2    0    0  0.00000000000E+00  0.00000000000E+00 -0.41141634973E+03  0.14572196162E+04  0.13979361920E+04 0.  0.
        4    1    3    3  502    0 -0.58870429005E+03 -0.41215393096E+02 -0.59613594783E+03  0.83883915679E+03  0.12699999809E+01 0.  1.
       -4    1    3    3    0  502  0.58870429005E+03  0.41215393096E+02  0.18471959810E+03  0.61838045941E+03  0.12699999809E+01 0. -1.
</event>
<event>
 5   0  0.7296966E-04  0.1396581E+04  0.7818609E-02  0.8956297E-01
        2   -1    0    0  501    0  0.00000000000E+00  0.00000000000E+00  0.12928871938E+04  0.12928871938E+04  0.25500000920E-02 0. -1.
       -2   -1    0    0    0  501  0.00000000000E+00  0.00000000000E+00 -0.37714789984E+03  0.37714789985E+03  0.25500000920E-02 0.  1.
    10030    2    1    2    0    0  0.00000000000E+00  0.00000000000E+00  0.91573929393E+03  0.16700350936E+04  0.13965810966E+04 0.  0.
        3    1    3    3  502    0 -0.21025850109E+03 -0.31873282621E+03 -0.24125094165E+03  0.45166500731E+03  0.10100000352E+00 0.  1.
       -3    1    3    3    0  502  0.21025850109E+03  0.31873282621E+03  0.11569902356E+04  0.12183700863E+04  0.10100000352E+00 0. -1.
</event>
<event>
 5   0  0.7296966E-04  0.1394583E+04  0.7818609E-02  0.8957749E-01
        2   -1    0    0  501    0  0.00000000000E+00  0.00000000000E+00  0.23465837612E+04  0.23465837612E+04  0.25500000920E-02 0. -1.
       -2   -1    0    0    0  501  0.00000000000E+00  0.00000000000E+00 -0.20720146831E+03  0.20720146833E+03  0.25500000920E-02 0.  1.
    10030    2    1    2    0    0  0.00000000000E+00  0.00000000000E+00  0.21393822929E+04  0.25537852295E+04  0.13945832365E+04 0.  0.
        3    1    3    3  502    0  0.28063922156E+03  0.27248726645E+02 -0.98152973280E+02  0.29855465521E+03  0.10100000352E+00 0.  1.
       -3    1    3    3    0  502 -0.28063922156E+03 -0.27248726645E+02  0.22375352662E+04  0.22552305743E+04  0.10100000352E+00 0. -1.
</event>
<event>
 5   0  0.7065539E-04  0.1396031E+04  0.7818609E-02  0.8956696E-01
       -2   -1    0    0    0  501  0.00000000000E+00  0.00000000000E+00  0.60942801303E+03  0.60942801304E+03  0.25500000920E-02 0.  1.
        2   -1    0    0  501    0  0.00000000000E+00  0.00000000000E+00 -0.79948050268E+03  0.79948050269E+03  0.25500000920E-02 0. -1.
    10030    2    1    2    0    0  0.00000000000E+00  0.00000000000E+00 -0.19005248965E+03  0.14089085157E+04  0.13960312521E+04 0.  0.
        1    1    3    3  502    0  0.62977323199E+03  0.20255913975E+03  0.12969624814E+03  0.67414067200E+03  0.50400001928E-02 0.  1.
       -1    1    3    3    0  502 -0.62977323199E+03 -0.20255913975E+03 -0.31974873779E+03  0.73476784373E+03  0.50400001928E-02 0. -1.
</event>
<event>
 5   0  0.3784219E-04  0.1401021E+04  0.7818609E-02  0.8953080E-01
        1   -1    0    0  501    0  0.00000000000E+00  0.00000000000E+00  0.60455064881E+03  0.60455064883E+03  0.50400001928E-02 0.  1.
       -1   -1    0    0    0  501  0.00000000000E+00  0.00000000000E+00 -0.81170142473E+03  0.81170142474E+03  0.50400001928E-02 0. -1.
    10030    2    1    2    0    0  0.00000000000E+00  0.00000000000E+00 -0.20715077592E+03  0.14162520736E+04  0.14010205180E+04 0.  0.
        1    1    3    3  502    0 -0.52139766549E+03  0.46767813351E+03 -0.11537537596E+03  0.70985198425E+03  0.50400001928E-02 0.  1.
       -1    1    3    3    0  502  0.52139766549E+03 -0.46767813351E+03 -0.91775399957E+02  0.70640008933E+03  0.50400001928E-02 0. -1.
</event>
<event>
 5   0  0.6870835E-04  0.1399064E+04  0.7818609E-02  0.8954496E-01
       -2   -1    0    0    0  501  0.00000000000E+00  0.00000000000E+00  0.62930754984E+03  0.62930754984E+03  0.25500000920E-02 0. -1.
        2   -1    0    0  501    0  0.00000000000E+00  0.00000000000E+00 -0.77759311140E+03  0.77759311140E+03  0.25500000920E-02 0.  1.
    10030    2    1    2    0    0  0.00000000000E+00  0.00000000000E+00 -0.14828556156E+03  0.14069006612E+04  0.13990642812E+04 0.  0.
        2    1    3    3  502    0 -0.48178997217E+03 -0.18562907809E+03 -0.54876680245E+03  0.75347510602E+03  0.25500000920E-02 0.  1.
       -2    1    3    3    0  502  0.48178997217E+03  0.18562907809E+03  0.40048124089E+03  0.65342555523E+03  0.25500000920E-02 0. -1.
</event>
<event>
 5   0  0.7296966E-04  0.1396832E+04  0.7818609E-02  0.8956115E-01
       -2   -1    0    0    0  501  0.00000000000E+00  0.00000000000E+00  0.53055942334E+03  0.53055942334E+03  0.25500000920E-02 0. -1.
        2   -1    0    0  501    0  0.00000000000E+00  0.00000000000E+00 -0.91937873056E+03  0.91937873056E+03  0.25500000920E-02 0.  1.
    10030    2    1    2    0    0  0.00000000000E+00  0.00000000000E+00 -0.38881930723E+03  0.14499381539E+04  0.13968322005E+04 0.  0.
        3    1    3    3  502    0  0.62067747431E+03  0.28680589425E+03 -0.46562493798E+02  0.68532198573E+03  0.10100000352E+00 0. -1.
       -3    1    3    3    0  502 -0.62067747431E+03 -0.28680589425E+03 -0.34225681343E+03  0.76461616818E+03  0.10100000352E+00 0.  1.
</event>
<event>
 5   0  0.3784219E-04  0.1390588E+04  0.7818609E-02  0.8960660E-01
       -1   -1    0    0    0  501  0.00000000000E+00  0.00000000000E+00  0.77253614910E+03  0.77253614911E+03  0.50400001928E-02 0.  1.
        1   -1    0    0  501    0  0.00000000000E+00  0.00000000000E+00 -0.62577453468E+03  0.62577453470E+03  0.50400001928E-02 0. -1.
    10030    2    1    2    0    0  0.00000000000E+00  0.00000000000E+00  0.14676161441E+03  0.13983106838E+04  0.13905875726E+04 0.  0.
        1    1    3    3  502    0  0.60929543233E+03  0.16020075260E+03  0.36917134552E+03  0.73020044328E+03  0.50400001928E-02 0.  1.
       -1    1    3    3    0  502 -0.60929543233E+03 -0.16020075260E+03 -0.22240973111E+03  0.66811024053E+03  0.50400001928E-02 0. -1.
</event>
<event>
 5   0  0.6895048E-04  0.1414912E+04  0.7818609E-02  0.8943095E-01
        2   -1    0    0  501    0  0.00000000000E+00  0.00000000000E+00  0.17061965205E+04  0.17061965205E+04  0.25500000920E-02 0. -1.
       -2   -1    0    0    0  501  0.00000000000E+00  0.00000000000E+00 -0.29333906174E+03  0.29333906175E+03  0.25500000920E-02 0.  1.
    10030    2    1    2    0    0  0.00000000000E+00  0.00000000000E+00  0.14128574587E+04  0.19995355822E+04  0.14149121336E+04 0.  0.
        4    1    3    3  502    0  0.95388711122E+01  0.65219251566E+03  0.31929178725E+03  0.72621961269E+03  0.12699999809E+01 0. -1.
       -4    1    3    3    0  502 -0.95388711122E+01 -0.65219251566E+03  0.10935656715E+04  0.12733159695E+04  0.12699999809E+01 0.  1.
</event>
<event>
 5   0  0.3977658E-04  0.1412702E+04  0.7818609E-02  0.8944675E-01
       -1   -1    0    0    0  501  0.00000000000E+00  0.00000000000E+00  0.63141004935E+03  0.63141004937E+03  0.50400001928E-02 0.  1.
        1   -1    0    0  501    0  0.00000000000E+00  0.00000000000E+00 -0.79018688458E+03  0.79018688459E+03  0.50400001928E-02 0. -1.
    10030    2    1    2    0    0  0.00000000000E+00  0.00000000000E+00 -0.15877683522E+03  0.14215969340E+04  0.14127022897E+04 0.  0.
        5    1    3    3  502    0 -0.68480295117E+03 -0.12103637876E+03  0.45103733072E+02  0.69689405482E+03  0.46999998093E+01 0.  1.
       -5    1    3    3    0  502  0.68480295117E+03  0.12103637876E+03 -0.20388056830E+03  0.72470287914E+03  0.46999998093E+01 0. -1.
</event>
<event>
 5   0  0.6959748E-04  0.1402274E+04  0.7818609E-02  0.8952174E-01
       -2   -1    0    0    0  501  0.00000000000E+00  0.00000000000E+00  0.41732369417E+03  0.41732369418E+03  0.25500000920E-02 0.  1.
        2   -1    0    0  501    0  0.00000000000E+00  0.00000000000E+00 -0.11779657108E+04  0.11779657108E+04  0.25500000920E-02 0. -1.
    10030    2    1    2    0    0  0.00000000000E+00  0.00000000000E+00 -0.76064201664E+03  0.15952894050E+04  0.14022738706E+04 0.  0.
        5    1    3    3  502    0 -0.70107255830E+03  0.35736051523E+01 -0.38878935020E+03  0.80168245052E+03  0.46999998093E+01 0.  1.
       -5    1    3    3    0  502  0.70107255830E+03 -0.35736051523E+01 -0.37185266643E+03  0.79360695447E+03  0.46999998093E+01 0. -1.
</event>
<event>
 5   0  0.6895048E-04  0.1258360E+04  0.7818609E-02  0.9063254E-01
        2   -1    0    0  501    0  0.00000000000E+00  0.00000000000E+00  0.11517082668E+04  0.11517082668E+04  0.25500000920E-02 0.  1.
       -2   -1    0    0    0  501  0.00000000000E+00  0.00000000000E+00 -0.34372203581E+03  0.34372203582E+03  0.25500000920E-02 0. -1.
    10030    2    1    2    0    0  0.00000000000E+00  0.00000000000E+00  0.80798623103E+03  0.14954303027E+04  0.12583600600E+04 0.  0.
        4    1    3    3  502    0 -0.42160451396E+02 -0.61075401803E+03  0.57648636870E+03  0.84091386028E+03  0.12699999809E+01 0.  1.
       -4    1    3    3    0  502  0.42160451396E+02  0.61075401803E+03  0.23149986232E+03  0.65451644239E+03  0.12699999809E+01 0. -1.
</event>
<event>
 5   0  0.7296966E-04  0.1398433E+04  0.7818609E-02  0.8954954E-01
       -2   -1    0    0    0  501  0.00000000000E+00  0.00000000000E+00  0.48459142611E+03  0.48459142612E+03  0.25500000920E-02 0.  1.
        2   -1    0    0  501    0  0.00000000000E+00  0.00000000000E+00 -0.10088987234E+04  0.10088987234E+04  0.25500000920E-02 0. -1.
    10030    2    1    2    0    0  0.00000000000E+00  0.00000000000E+00 -0.52430729734E+03  0.14934901496E+04  0.13984329390E+04 0.  0.
        3    1    3    3  502    0 -0.41101006369E+03 -0.10427897517E+03 -0.85591294131E+03  0.95519126379E+03  0.10100000352E+00 0. -1.
       -3    1    3    3    0  502  0.41101006369E+03  0.10427897517E+03  0.33160564397E+03  0.53829888578E+03  0.10100000352E+00 0.  1.
</event>
<event>
 5   0  0.7296966E-04  0.1407112E+04  0.7818609E-02  0.8948687E-01
        2   -1    0    0  501    0  0.00000000000E+00  0.00000000000E+00  0.20987837481E+04  0.20987837481E+04  0.25500000920E-02 0. -1.
       -2   -1    0    0    0  501  0.00000000000E+00  0.00000000000E+00 -0.23584649159E+03  0.23584649160E+03  0.25500000920E-02 0.  1.
    10030    2    1    2    0    0  0.00000000000E+00  0.00000000000E+00  0.18629372565E+04  0.23346302397E+04  0.14071116283E+04 0.  0.
        3    1    3    3  502    0 -0.27149587006E+03 -0.12785238472E+03 -0.12433211261E+03  0.32483030056E+03  0.10100000352E+00 0.  1.
       -3    1    3    3    0  502  0.27149587006E+03  0.12785238472E+03  0.19872693691E+04  0.20097999391E+04  0.10100000352E+00 0. -1.
</event>
<event>
 5   0  0.6870835E-04  0.1431438E+04  0.7818609E-02  0.8931371E-01
       -2   -1    0    0    0  501  0.00000000000E+00  0.00000000000E+00  0.25265703573E+03  0.25265703574E+03  0.25500000920E-02 0.  1.
        2   -1    0    0  501    0  0.00000000000E+00  0.00000000000E+00 -0.20274673075E+04  0.20274673075E+04  0.25500000920E-02 0. -1.
    10030    2    1    2    0    0  0.00000000000E+00  0.00000000000E+00 -0.17748102717E+04  0.22801243432E+04  0.14314382697E+04 0.  0.
        2    1    3    3  502    0 -0.18019695738E+02  0.61270711217E+03 -0.29885600960E+03  0.68194547379E+03  0.25500000920E-02 0.  1.
       -2    1    3    3    0  502  0.18019695738E+02 -0.61270711217E+03 -0.14759542621E+04  0.15981788694E+04  0.25500000920E-02 0. -1.
</event>
<event>
 5   0  0.7296966E-04  0.1398643E+04  0.7818609E-02  0.8954802E-01
        2   -1    0    0  501    0  0.00000000000E+00  0.00000000000E+00  0.16316829803E+04  0.16316829803E+04  0.25500000920E-02 0. -1.
       -2   -1    0    0    0  501  0.00000000000E+00  0.00000000000E+00 -0.29972145974E+03  0.29972145975E+03  0.25500000920E-02 0.  1.
    10030    2    1    2    0    0  0.00000000000E+00  0.00000000000E+00  0.13319615205E+04  0.19314044400E+04  0.13986427774E+04 0.  0.
        3    1    3    3  502    0  0.36064484821E+03 -0.59914194817E+03  0.66070178845E+03  0.96206166334E+03  0.10100000352E+00 0.  1.
       -3    1    3    3    0  502 -0.36064484821E+03  0.59914194817E+03  0.67125973209E+03  0.96934277669E+03  0.10100000352E+00 0. -1.
</event>
<event>
 5   0  0.2660250E-04  0.1404142E+04  0.7818609E-02  0.8950826E-01
        3   -1    0    0  501    0  0.00000000000E+00  0.00000000000E+00  0.82748768149E+03  0.82748768765E+03  0.10100000352E+00 0.  1.
       -3   -1    0    0    0  501  0.00000000000E+00  0.00000000000E+00 -0.59566265391E+03  0.59566266247E+03  0.10100000352E+00 0. -1.
    10030    2    1    2    0    0  0.00000000000E+00  0.00000000000E+00  0.23182502758E+03  0.14231503501E+04  0.14041417577E+04 0.  0.
        5    1    3    3  502    0 -0.19158779335E+03  0.57866465310E+03  0.46894199934E+03  0.76908214909E+03  0.46999998093E+01 0. -1.
       -5    1    3    3    0  502  0.19158779335E+03 -0.57866465310E+03 -0.23711697176E+03  0.65406820103E+03  0.46999998093E+01 0.  1.
</event>
<event>
 5   0  0.3977658E-04  0.1417818E+04  0.7818609E-02  0.8941021E-01
       -1   -1    0    0    0  501  0.00000000000E+00  0.00000000000E+00  0.46842214985E+03  0.46842214988E+03  0.50400001928E-02 0. -1.
        1   -1    0    0  501    0  0.00000000000E+00  0.00000000000E+00 -0.10728619119E+04  0.10728619119E+04  0.50400001928E-02 0.  1.
    10030    2    1    2    0    0  0.00000000000E+00  0.00000000000E+00 -0.60443976202E+03  0.15412840618E+04  0.14178184415E+04 0.  0.
        5    1    3    3  502    0 -0.99750878918E+02 -0.42628933424E+03  0.30387782879E+03  0.53295089751E+03  0.46999998093E+01 0. -1.
       -5    1    3    3    0  502  0.99750878918E+02  0.42628933424E+03 -0.90831759081E+03  0.10083331642E+04  0.46999998093E+01 0.  1.
</event>
<event>
 5   0  0.7065539E-04  0.1390357E+04  0.7818609E-02  0.8960828E-01
       -2   -1    0    0    0  501  0.00000000000E+00  0.00000000000E+00  0.17640936662E+03  0.17640936664E+03  0.25500000920E-02 0.  1.
        2   -1    0    0  501    0  0.00000000000E+00  0.00000000000E+00 -0.27394994888E+04  0.27394994888E+04  0.25500000920E-02 0. -1.
    10030    2    1    2    0    0  0.00000000000E+00  0.00000000000E+00 -0.25630901222E+04  0.29159088554E+04  0.13903573205E+04 0.  0.
        1    1    3    3  502    0 -0.29585618394E+03  0.16958766712E+03 -0.11058132860E+02  0.34119369974E+03  0.50400001928E-02 0.  1.
       -1    1    3    3    0  502  0.29585618394E+03 -0.16958766712E+03 -0.25520319893E+04  0.25747151557E+04  0.50400001928E-02 0. -1.
</event>
<event>
 5   0  0.3784219E-04  0.1395247E+04  0.7818609E-02  0.8957266E-01
       -1   -1    0    0    0  501  0.00000000000E+00  0.00000000000E+00  0.50290718487E+03  0.50290718489E+03  0.50400001928E-02 0.  1.
        1   -1    0    0  501    0  0.00000000000E+00  0.00000000000E+00 -0.96773085480E+03  0.96773085481E+03  0.50400001928E-02 0. -1.
    10030    2    1    2    0    0  0.00000000000E+00  0.00000000000E+00 -0.46482366993E+03  0.14706380397E+04  0.13952473615E+04 0.  0.
        1    1    3    3  502    0 -0.64605611651E+03  0.81741217665E+02  0.31325623021E+02  0.65195968206E+03  0.50400001928E-02 0.  1.
       -1    1    3    3    0  502  0.64605611651E+03 -0.81741217665E+02 -0.49614929295E+03  0.81867835764E+03  0.50400001928E-02 0. -1.
</event>
<event>
 5   0  0.6895048E-04  0.1388017E+04  0.7818609E-02  0.8962538E-01
        2   -1    0    0  501    0  0.00000000000E+00  0.00000000000E+00  0.12817620900E+04  0.12817620900E+04  0.25500000920E-02 0.  1.
       -2   -1    0    0    0  501  0.00000000000E+00  0.00000000000E+00 -0.37577000005E+03  0.37577000006E+03  0.25500000920E-02 0. -1.
    10030    2    1    2    0    0  0.00000000000E+00  0.00000000000E+00  0.90599208993E+03  0.16575320901E+04  0.13880169172E+04 0.  0.
        4    1    3    3  502    0 -0.35583273888E+03  0.57919515038E+03  0.62001881107E+03  0.92005918248E+03  0.12699999809E+01 0. -1.
       -4    1    3    3    0  502  0.35583273888E+03 -0.57919515038E+03  0.28597327886E+03  0.73747290757E+03  0.12699999809E+01 0.  1.
</event>
<event>
 5   0  0.6895048E-04  0.1420890E+04  0.7818609E-02  0.8938835E-01
       -2   -1    0    0    0  501  0.00000000000E+00  0.00000000000E+00  0.64629188633E+03  0.64629188633E+03  0.25500000920E-02 0.  1.
        2   -1    0    0  501    0  0.00000000000E+00  0.00000000000E+00 -0.78096624206E+03  0.78096624206E+03  0.25500000920E-02 0. -1.
    10030    2    1    2    0    0  0.00000000000E+00  0.00000000000E+00 -0.13467435573E+03  0.14272581284E+04  0.14208900672E+04 0.  0.
        4    1    3    3  502    0 -0.55010291863E+03 -0.44945463158E+03 -0.56905747052E+02  0.71264476697E+03  0.12699999809E+01 0. -1.
       -4    1    3    3    0  502  0.55010291863E+03  0.44945463158E+03 -0.77768608680E+02  0.71461336143E+03  0.12699999809E+01 0.  1.
</event>
<event>
 5   0  0.2660250E-04  0.1397946E+04  0.7818609E-02  0.8955307E-01
       -3   -1    0    0    0  501  0.00000000000E+00  0.00000000000E+00  0.99079501806E+03  0.99079502320E+03  0.10100000352E+00 0.  1.
        3   -1    0    0  501    0  0.00000000000E+00  0.00000000000E+00 -0.49310207469E+03  0.49310208504E+03  0.10100000352E+00 0. -1.
    10030    2    1    2    0    0  0.00000000000E+00  0.00000000000E+00  0.49769294336E+03  0.14838971082E+04  0.13979457650E+04 0.  0.
        4    1    3    3  502    0 -0.93080070567E+02  0.79344108952E+02  0.97934655710E+03  0.98695525682E+03  0.12699999809E+01 0.  1.
       -4    1    3    3    0  502  0.93080070567E+02 -0.79344108952E+02 -0.48165361374E+03  0.49694185142E+03  0.12699999809E+01 0. -1.
</event>
<event>
 5   0  0.6895048E-04  0.1342008E+04  0.7818609E-02  0.8996900E-01
       -2   -1    0    0    0  501  0.00000000000E+00  0.00000000000E+00  0.10229652642E+04  0.10229652642E+04  0.25500000920E-02 0. -1.
        2   -1    0    0  501    0  0.00000000000E+00  0.00000000000E+00 -0.44013876983E+03  0.44013876983E+03  0.25500000920E-02 0.  1.
    10030    2    1    2    0    0  0.00000000000E+00  0.00000000000E+00  0.58282649434E+03  0.14631040340E+04  0.13420084544E+04 0.  0.
        4    1    3    3  502    0  0.45996669179E+03  0.35927963442E+02  0.82259908337E+03  0.94314953267E+03  0.12699999809E+01 0. -1.
       -4    1    3    3    0  502 -0.45996669179E+03 -0.35927963442E+02 -0.23977258903E+03  0.51995450134E+03  0.12699999809E+01 0.  1.
</event>
<event>
 5   0  0.7065539E-04  0.1376376E+04  0.7818609E-02  0.8971099E-01
        2   -1    0    0  501    0  0.00000000000E+00  0.00000000000E+00  0.95661929543E+03  0.95661929543E+03  0.25500000920E-02 0.  1.
       -2   -1    0    0    0  501  0.00000000000E+00  0.00000000000E+00 -0.49507961006E+03  0.49507961007E+03  0.25500000920E-02 0. -1.
    10030    2    1    2    0    0  0.00000000000E+00  0.00000000000E+00  0.46153968537E+03  0.14516989055E+04  0.13763759774E+04 0.  0.
        1    1    3    3  502    0 -0.63529297926E+03  0.28447219878E+02  0.50821738541E+03  0.81405855113E+03  0.50400001928E-02 0. -1.
       -1    1    3    3    0  502  0.63529297926E+03 -0.28447219878E+02 -0.46677700039E+02  0.63764035437E+03  0.50400001928E-02 0.  1.
</event>
<event>
 5   0  0.3907093E-04  0.1398528E+04  0.7818609E-02  0.8954885E-01
        1   -1    0    0  501    0  0.00000000000E+00  0.00000000000E+00  0.13650140541E+04  0.13650140541E+04  0.50400001928E-02 0.  1.
       -1   -1    0    0    0  501  0.00000000000E+00  0.00000000000E+00 -0.35821617435E+03  0.35821617439E+03  0.50400001928E-02 0. -1.
    10030    2    1    2    0    0  0.00000000000E+00  0.00000000000E+00  0.10067978797E+04  0.17232302285E+04  0.13985279581E+04 0.  0.
        4    1    3    3  502    0 -0.44042445704E+03  0.54313340546E+03  0.50456856445E+03  0.86229846783E+03  0.12699999809E+01 0.  1.
       -4    1    3    3    0  502  0.44042445704E+03 -0.54313340546E+03  0.50222931530E+03  0.86093176067E+03  0.12699999809E+01 0. -1.
</event>
<event>
 5   0  0.2660250E-04  0.1401704E+04  0.7818609E-02  0.8952586E-01
       -3   -1    0    0    0  501  0.00000000000E+00  0.00000000000E+00  0.11900409477E+04  0.11900409519E+04  0.10100000352E+00 0. -1.
        3   -1    0    0  501    0  0.00000000000E+00  0.00000000000E+00 -0.41275340615E+03  0.41275341851E+03  0.10100000352E+00 0.  1.
    10030    2    1    2    0    0  0.00000000000E+00  0.00000000000E+00  0.77728754151E+03  0.16027943705E+04  0.14017039173E+04 0.  0.
        4    1    3    3  502    0 -0.37932271974E+03  0.24836667087E+03 -0.22246135243E+03  0.50503702353E+03  0.12699999809E+01 0.  1.
       -4    1    3    3    0  502  0.37932271974E+03 -0.24836667087E+03  0.99974889394E+03  0.10977573469E+04  0.12699999809E+01 0. -1.
</event>
<event>
 5   0  0.3907270E-04  0.1395883E+04  0.7818609E-02  0.8956804E-01
       -1   -1    0    0    0  501  0.00000000000E+00  0.00000000000E+00  0.54066361125E+03  0.54066361127E+03  0.50400001928E-02 0.  1.
        1   -1    0    0  501    0  0.00000000000E+00  0.00000000000E+00 -0.90097054524E+03  0.90097054525E+03  0.50400001928E-02 0. -1.
    10030    2    1    2    0    0  0.00000000000E+00  0.00000000000E+00 -0.36030693399E+03  0.14416341565E+04  0.13958825003E+04 0.  0.
        3    1    3    3  502    0  0.64144698411E+03 -0.21071027065E+03  0.24725675146E+01  0.67517344096E+03  0.10100000352E+00 0. -1.
       -3    1    3    3    0  502 -0.64144698411E+03  0.21071027065E+03 -0.36277950151E+03  0.76646071556E+03  0.10100000352E+00 0.  1.
</event>
<event>
 5   0  0.6895048E-04  0.1406612E+04  0.7818609E-02  0.8949046E-01
       -2   -1    0    0    0  501  0.00000000000E+00  0.00000000000E+00  0.25978689239E+03  0.25978689241E+03  0.25500000920E-02 0. -1.
        2   -1    0    0  501    0  0.00000000000E+00  0.00000000000E+00 -0.19040200236E+04  0.19040200236E+04  0.25500000920E-02 0.  1.
    10030    2    1    2    0    0  0.00000000000E+00  0.00000000000E+00 -0.16442331312E+04  0.21638069160E+04  0.14066121640E+04 0.  0.
        4    1    3    3  502    0  0.11066616108E+03 -0.57048473496E+03 -0.21270850719E+03  0.61882659442E+03  0.12699999809E+01 0.  1.
       -4    1    3    3    0  502 -0.11066616108E+03  0.57048473496E+03 -0.14315246240E+04  0.15449803216E+04  0.12699999809E+01 0. -1.
</event>
<event>
 5   0  0.7065539E-04  0.1379900E+04  0.7818609E-02  0.8968497E-01
        2   -1    0    0  501    0  0.00000000000E+00  0.00000000000E+00  0.20724179272E+04  0.20724179272E+04  0.25500000920E-02 0.  1.
       -2   -1    0    0    0  501  0.00000000000E+00  0.00000000000E+00 -0.22969852178E+03  0.22969852179E+03  0.25500000920E-02 0. -1.
    10030    2    1    2    0    0  0.00000000000E+00  0.00000000000E+00  0.18427194054E+04  0.23021164490E+04  0.13799004810E+04 0.  0.
        1    1    3    3  502    0 -0.29597232032E+03 -0.17389681176E+03  0.19198347864E+04  0.19502833955E+04  0.50400001928E-02 0.  1.
       -1    1    3    3    0  502  0.29597232032E+03  0.17389681176E+03 -0.77115380995E+02  0.35183305352E+03  0.50400001928E-02 0. -1.
</event>
<event>
 5   0  0.6870835E-04  0.1404162E+04  0.7818609E-02  0.8950811E-01
       -2   -1    0    0    0  501  0.00000000000E+00  0.00000000000E+00  0.12262723048E+04  0.12262723048E+04  0.25500000920E-02 0.  1.
        2   -1    0    0  501    0  0.00000000000E+00  0.00000000000E+00 -0.40196444674E+03  0.40196444675E+03  0.25500000920E-02 0. -1.
    10030    2    1    2    0    0  0.00000000000E+00  0.00000000000E+00  0.82430785803E+03  0.16282367515E+04  0.14041621965E+04 0.  0.
        2    1    3    3  502    0  0.66607192204E+03  0.67402356038E+02  0.65737945276E+03  0.93826575545E+03  0.25500000920E-02 0.  1.
       -2    1    3    3    0  502 -0.66607192204E+03 -0.67402356038E+02  0.16692840527E+03  0.68997099608E+03  0.25500000920E-02 0. -1.
</event>
<event>
 5   0  0.6959748E-04  0.1394206E+04  0.7818609E-02  0.8958023E-01
       -2   -1    0    0    0  501  0.00000000000E+00  0.00000000000E+00  0.43729250894E+03  0.43729250895E+03  0.25500000920E-02 0. -1.
        2   -1    0    0  501    0  0.00000000000E+00  0.00000000000E+00 -0.11112754948E+04  0.11112754948E+04  0.25500000920E-02 0.  1.
    10030    2    1    2    0    0  0.00000000000E+00  0.00000000000E+00 -0.67398298581E+03  0.15485680037E+04  0.13942057943E+04 0.  0.
        5    1    3    3  502    0 -0.62323015629E+03  0.30948790710E+03 -0.38321342705E+03  0.79440116630E+03  0.46999998093E+01 0.  1.
       -5    1    3    3    0  502  0.62323015629E+03 -0.30948790710E+03 -0.29076955876E+03  0.75416683740E+03  0.46999998093E+01 0. -1.
</event>
<event>
 5   0  0.6870835E-04  0.1400459E+04  0.7818609E-02  0.8953486E-01
        2   -1    0    0  501    0  0.00000000000E+00  0.00000000000E+00  0.79607704112E+03  0.79607704113E+03  0.25500000920E-02 0.  1.
       -2   -1    0    0    0  501  0.00000000000E+00  0.00000000000E+00 -0.61592205987E+03  0.61592205987E+03  0.25500000920E-02 0. -1.
    10030    2    1    2    0    0  0.00000000000E+00  0.00000000000E+00  0.18015498126E+03  0.14119991010E+04  0.14004590833E+04 0.  0.
        2    1    3    3  502    0  0.45659148007E+03 -0.49319022628E+03 -0.10803344641E+03  0.68072285441E+03  0.25500000920E-02 0.  1.
       -2    1    3    3    0  502 -0.45659148007E+03  0.49319022628E+03  0.28818842767E+03  0.73127624659E+03  0.25500000920E-02 0. -1.
</event>
<event>
 5   0  0.3907270E-04  0.1394559E+04  0.7818609E-02  0.8957767E-01
        1   -1    0    0  501    0  0.00000000000E+00  0.00000000000E+00  0.12673967906E+04  0.12673967906E+04  0.50400001928E-02 0. -1.
       -1   -1    0    0    0  501  0.00000000000E+00  0.00000000000E+00 -0.38361976105E+03  0.38361976108E+03  0.50400001928E-02 0.  1.
    10030    2    1    2    0    0  0.00000000000E+00  0.00000000000E+00  0.88377702956E+03  0.16510165517E+04  0.13945586456E+04 0.  0.
        3    1    3    3  502    0 -0.35050692318E+02  0.47443161523E+03  0.10454268537E+04  0.11485779143E+04  0.10100000352E+00 0. -1.
       -3    1    3    3    0  502  0.35050692318E+02 -0.47443161523E+03 -0.16164982411E+03  0.50243863745E+03  0.10100000352E+00 0.  1.
</event>
<event>
 5   0  0.7065539E-04  0.1408989E+04  0.7818609E-02  0.8947338E-01
        2   -1    0    0  501    0  0.00000000000E+00  0.00000000000E+00  0.11115799189E+04  0.11115799189E+04  0.25500000920E-02 0. -1.
       -2   -1    0    0    0  501  0.00000000000E+00  0.00000000000E+00 -0.44649275727E+03  0.44649275728E+03  0.25500000920E-02 0.  1.
    10030    2    1    2    0    0  0.00000000000E+00  0.00000000000E+00  0.66508716161E+03  0.15580726762E+04  0.14089888331E+04 0.  0.
        1    1    3    3  502    0  0.49201256169E+03  0.34009826782E+00 -0.22502539891E+03  0.54102948783E+03  0.50400001928E-02 0.  1.
       -1    1    3    3    0  502 -0.49201256169E+03 -0.34009826782E+00  0.89011256052E+03  0.10170431883E+04  0.50400001928E-02 0. -1.
</event>
<event>
 5   0  0.3756664E-04  0.1404513E+04  0.7818609E-02  0.8950558E-01
       -1   -1    0    0    0  501  0.00000000000E+00  0.00000000000E+00  0.13664000943E+04  0.13664000943E+04  0.50400001928E-02 0.  1.
        1   -1    0    0  501    0  0.00000000000E+00  0.00000000000E+00 -0.36092209689E+03  0.36092209692E+03  0.50400001928E-02 0. -1.
    10030    2    1    2    0    0  0.00000000000E+00  0.00000000000E+00  0.10054779974E+04  0.17273221912E+04  0.14045127087E+04 0.  0.
        2    1    3    3  502    0 -0.34973491065E+03 -0.48311605408E+03  0.46788749991E+02  0.59825146600E+03  0.25500000920E-02 0. -1.
       -2    1    3    3    0  502  0.34973491065E+03  0.48311605408E+03  0.95868924740E+03  0.11290707252E+04  0.25500000920E-02 0.  1.
</event>
<event>
 5   0  0.3907093E-04  0.1411577E+04  0.7818609E-02  0.8945481E-01
       -1   -1    0    0    0  501  0.00000000000E+00  0.00000000000E+00  0.49057194031E+03  0.49057194033E+03  0.50400001928E-02 0.  1.
        1   -1    0    0  501    0  0.00000000000E+00  0.00000000000E+00 -0.10154212117E+04  0.10154212117E+04  0.50400001928E-02 0. -1.
    10030    2    1    2    0    0  0.00000000000E+00  0.00000000000E+00 -0.52484927136E+03  0.15059931520E+04  0.14115766420E+04 0.  0.
        4    1    3    3  502    0 -0.55510136675E+03  0.36236071512E+03 -0.52089495182E+03  0.84307531037E+03  0.12699999809E+01 0.  1.
       -4    1    3    3    0  502  0.55510136675E+03 -0.36236071512E+03 -0.39543195360E+01  0.66291784164E+03  0.12699999809E+01 0. -1.
</event>
<event>
 5   0  0.7296966E-04  0.1393398E+04  0.7818609E-02  0.8958611E-01
       -2   -1    0    0    0  501  0.00000000000E+00  0.00000000000E+00  0.13078370895E+04  0.13078370895E+04  0.25500000920E-02 0. -1.
        2   -1    0    0  501    0  0.00000000000E+00  0.00000000000E+00 -0.37113919985E+03  0.37113919986E+03  0.25500000920E-02 0.  1.
    10030    2    1    2    0    0  0.00000000000E+00  0.00000000000E+00  0.93669788968E+03  0.16789762894E+04  0.13933981641E+04 0.  0.
        3    1    3    3  502    0  0.44342959144E+03 -0.36336742538E+03 -0.86714651474E+01  0.57335930524E+03  0.10100000352E+00 0.  1.
       -3    1    3    3    0  502 -0.44342959144E+03  0.36336742538E+03  0.94536935483E+03  0.11056169842E+04  0.10100000352E+00 0. -1.
</event>
<event>
 5   0  0.6959748E-04  0.1399567E+04  0.7818609E-02  0.8954132E-01
        2   -1    0    0  501    0  0.00000000000E+00  0.00000000000E+00  0.12969682075E+04  0.12969682075E+04  0.25500000920E-02 0. -1.
       -2   -1    0    0    0  501  0.00000000000E+00  0.00000000000E+00 -0.37757061525E+03  0.37757061526E+03  0.25500000920E-02 0.  1.
    10030    2    1    2    0    0  0.00000000000E+00  0.00000000000E+00  0.91939759223E+03  0.16745388227E+04  0.13995671961E+04 0.  0.
        5    1    3    3  502    0 -0.32202608021E+03  0.54139828922E+03  0.95095413576E+02  0.63708565482E+03  0.46999998093E+01 0.  1.
       -5    1    3    3    0  502  0.32202608021E+03 -0.54139828922E+03  0.82430217865E+03  0.10374531679E+04  0.46999998093E+01 0. -1.
</event>
<event>
 5   0  0.2660250E-04  0.1398132E+04  0.7818609E-02  0.8955172E-01
        3   -1    0    0  501    0  0.00000000000E+00  0.00000000000E+00  0.93128189992E+03  0.93128190540E+03  0.10100000352E+00 0. -1.
       -3   -1    0    0    0  501  0.00000000000E+00  0.00000000000E+00 -0.52475350825E+03  0.52475351797E+03  0.10100000352E+00 0.  1.
    10030    2    1    2    0    0  0.00000000000E+00  0.00000000000E+00  0.40652839167E+03  0.14560354234E+04  0.13981322616E+04 0.  0.
        4    1    3    3  502    0 -0.63204063986E+03 -0.28401959233E+03  0.10697222938E+03  0.70113277631E+03  0.12699999809E+01 0.  1.
       -4    1    3    3    0  502  0.63204063986E+03  0.28401959233E+03  0.29955616230E+03  0.75490264706E+03  0.12699999809E+01 0. -1.
</event>
<event>
 5   0  0.6959748E-04  0.1386627E+04  0.7818609E-02  0.8963556E-01
       -2   -1    0    0    0  501  0.00000000000E+00  0.00000000000E+00  0.52780143972E+03  0.52780143972E+03  0.25500000920E-02 0.  1.
        2   -1    0    0  501    0  0.00000000000E+00  0.00000000000E+00 -0.91072873547E+03  0.91072873548E+03  0.25500000920E-02 0. -1.
    10030    2    1    2    0    0  0.00000000000E+00  0.00000000000E+00 -0.38292729576E+03  0.14385301752E+04  0.13866274738E+04 0.  0.
        5    1    3    3  502    0 -0.61517651221E+02 -0.90802181961E+02 -0.90165491308E+03  0.90831334348E+03  0.46999998093E+01 0. -1.
       -5    1    3    3    0  502  0.61517651221E+02  0.90802181961E+02  0.51872761733E+03  0.53021683172E+03  0.46999998093E+01 0.  1.
</event>
<event>
 5   0  0.7065539E-04  0.1431102E+04  0.7818609E-02  0.8931608E-01
        2   -1    0    0  501    0  0.00000000000E+00  0.00000000000E+00  0.72836353007E+03  0.72836353008E+03  0.25500000920E-02 0. -1.
       -2   -1    0    0    0  501  0.00000000000E+00  0.00000000000E+00 -0.70296422542E+03  0.70296422543E+03  0.25500000920E-02 0.  1.
    10030    2    1    2    0    0  0.00000000000E+00  0.00000000000E+00  0.25399304648E+02  0.14313277555E+04  0.14311023789E+04 0.  0.
        1    1    3    3  502    0 -0.33371309071E+03 -0.53566694661E+03  0.34996189167E+03  0.72164868894E+03  0.50400001928E-02 0. -1.
       -1    1    3    3    0  502  0.33371309071E+03  0.53566694661E+03 -0.32456258702E+03  0.70967906657E+03  0.50400001928E-02 0.  1.
</event>
<event>
 5   0  0.3907093E-04  0.1397170E+04  0.7818609E-02  0.8955869E-01
       -1   -1    0    0    0  501  0.00000000000E+00  0.00000000000E+00  0.28756704554E+03  0.28756704558E+03  0.50400001928E-02 0.  1.
        1   -1    0    0  501    0  0.00000000000E+00  0.00000000000E+00 -0.16970689189E+04  0.16970689189E+04  0.50400001928E-02 0. -1.
    10030    2    1    2    0    0  0.00000000000E+00  0.00000000000E+00 -0.14095018734E+04  0.19846359645E+04  0.13971701330E+04 0.  0.
        4    1    3    3  502    0 -0.25110202879E+03  0.56078999028E+03 -0.11768976964E+04  0.13276398015E+04  0.12699999809E+01 0. -1.
       -4    1    3    3    0  502  0.25110202879E+03 -0.56078999028E+03 -0.23260417701E+03  0.65699616294E+03  0.12699999809E+01 0.  1.
</event>
<event>
 5   0  0.3977658E-04  0.1385175E+04  0.7818609E-02  0.8964620E-01
        1   -1    0    0  501    0  0.00000000000E+00  0.00000000000E+00  0.64941670235E+03  0.64941670237E+03  0.50400001928E-02 0. -1.
       -1   -1    0    0    0  501  0.00000000000E+00  0.00000000000E+00 -0.73862761854E+03  0.73862761856E+03  0.50400001928E-02 0.  1.
    10030    2    1    2    0    0  0.00000000000E+00  0.00000000000E+00 -0.89210916189E+02  0.13880443209E+04  0.13851745194E+04 0.  0.
        5    1    3    3  502    0  0.66526027269E+02 -0.31562404712E+03  0.56953521168E+03  0.65455076103E+03  0.46999998093E+01 0. -1.
       -5    1    3    3    0  502 -0.66526027269E+02  0.31562404712E+03 -0.65874612787E+03  0.73349355990E+03  0.46999998093E+01 0.  1.
</event>
<event>
 5   0  0.6959748E-04  0.1399161E+04  0.7818609E-02  0.8954426E-01
       -2   -1    0    0    0  501  0.00000000000E+00  0.00000000000E+00  0.18719280893E+03  0.18719280895E+03  0.25500000920E-02 0. -1.
        2   -1    0    0  501    0  0.00000000000E+00  0.00000000000E+00 -0.26144840968E+04  0.26144840968E+04  0.25500000920E-02 0.  1.
    10030    2    1    2    0    0  0.00000000000E+00  0.00000000000E+00 -0.24272912879E+04  0.28016769058E+04  0.13991606370E+04 0.  0.
        5    1    3    3  502    0 -0.63711072752E+03 -0.28617333974E+03 -0.12933720960E+04  0.14699111294E+04  0.46999998093E+01 0. -1.
       -5    1    3    3    0  502  0.63711072752E+03  0.28617333974E+03 -0.11339191919E+04  0.13317657764E+04  0.46999998093E+01 0.  1.
</event>
<event>
 5   0  0.6870835E-04  0.1421006E+04  0.7818609E-02  0.8938752E-01
        2   -1    0    0  501    0  0.00000000000E+00  0.00000000000E+00  0.54702099445E+03  0.54702099445E+03  0.25500000920E-02 0. -1.
       -2   -1    0    0    0  501  0.00000000000E+00  0.00000000000E+00 -0.92284258877E+03  0.92284258877E+03  0.25500000920E-02 0.  1.
    10030    2    1    2    0    0  0.00000000000E+00  0.00000000000E+00 -0.37582159432E+03  0.14698635832E+04  0.14210056589E+04 0.  0.
        2    1    3    3  502    0 -0.32293304756E+02  0.12997832957E+03 -0.90966757869E+03  0.91947394059E+03  0.25500000920E-02 0.  1.
       -2    1    3    3    0  502  0.32293304756E+02 -0.12997832957E+03  0.53384598437E+03  0.55038964264E+03  0.25500000920E-02 0. -1.
</event>
<event>
 5   0  0.7296966E-04  0.1399280E+04  0.7818609E-02  0.8954340E-01
        2   -1    0    0  501    0  0.00000000000E+00  0.00000000000E+00  0.61667061704E+03  0.61667061705E+03  0.25500000920E-02 0.  1.
       -2   -1    0    0    0  501  0.00000000000E+00  0.00000000000E+00 -0.79377287326E+03  0.79377287326E+03  0.25500000920E-02 0. -1.
    10030    2    1    2    0    0  0.00000000000E+00  0.00000000000E+00 -0.17710225622E+03  0.14104434903E+04  0.13992803973E+04 0.  0.
        3    1    3    3  502    0  0.28447358286E+03 -0.62701611516E+03 -0.21372706722E+03  0.72093945479E+03  0.10100000352E+00 0. -1.
       -3    1    3    3    0  502 -0.28447358286E+03  0.62701611516E+03  0.36624811002E+02  0.68950403552E+03  0.10100000352E+00 0.  1.
</event>
<event>
 5   0  0.3784219E-04  0.1383248E+04  0.7818609E-02  0.8966034E-01
       -1   -1    0    0    0  501  0.00000000000E+00  0.00000000000E+00  0.69194716686E+03  0.69194716688E+03  0.50400001928E-02 0.  1.
        1   -1    0    0  501    0  0.00000000000E+00  0.00000000000E+00 -0.69130145946E+03  0.69130145948E+03  0.50400001928E-02 0. -1.
    10030    2    1    2    0    0  0.00000000000E+00  0.00000000000E+00  0.64570740384E+00  0.13832486264E+04  0.13832484756E+04 0.  0.
        1    1    3    3  502    0 -0.36705068897E+03 -0.58359321948E+03  0.55430320361E+02  0.69165003762E+03  0.50400001928E-02 0. -1.
       -1    1    3    3    0  502  0.36705068897E+03  0.58359321948E+03 -0.54784612957E+02  0.69159858874E+03  0.50400001928E-02 0.  1.
</event>
<event>
 5   0  0.7296966E-04  0.1399359E+04  0.7818609E-02  0.8954283E-01
        2   -1    0    0  501    0  0.00000000000E+00  0.00000000000E+00  0.88276697556E+03  0.88276697557E+03  0.25500000920E-02 0. -1.
       -2   -1    0    0    0  501  0.00000000000E+00  0.00000000000E+00 -0.55456461567E+03  0.55456461568E+03  0.25500000920E-02 0.  1.
    10030    2    1    2    0    0  0.00000000000E+00  0.00000000000E+00  0.32820235989E+03  0.14373315912E+04  0.13993588940E+04 0.  0.
        3    1    3    3  502    0  0.38130086955E+03  0.43657101752E+03 -0.23840856692E+03  0.62675614192E+03  0.10100000352E+00 0.  1.
       -3    1    3    3    0  502 -0.38130086955E+03 -0.43657101752E+03  0.56661092681E+03  0.81057544932E+03  0.10100000352E+00 0. -1.
</event>
<event>
 5   0  0.6959748E-04  0.1396998E+04  0.7818609E-02  0.8955995E-01
       -2   -1    0    0    0  501  0.00000000000E+00  0.00000000000E+00  0.66647879330E+03  0.66647879331E+03  0.25500000920E-02 0. -1.
        2   -1    0    0  501    0  0.00000000000E+00  0.00000000000E+00 -0.73205721017E+03  0.73205721018E+03  0.25500000920E-02 0.  1.
    10030    2    1    2    0    0  0.00000000000E+00  0.00000000000E+00 -0.65578416872E+02  0.13985360035E+04  0.13969976465E+04 0.  0.
        5    1    3    3  502    0 -0.18278041287E+03  0.36241165935E+03  0.53627991412E+03  0.67258391777E+03  0.46999998093E+01 0. -1.
       -5    1    3    3    0  502  0.18278041287E+03 -0.36241165935E+03 -0.60185833099E+03  0.72595208571E+03  0.46999998093E+01 0.  1.
</event>
<event>
 5   0  0.3784219E-04  0.1394724E+04  0.7818609E-02  0.8957647E-01
        1   -1    0    0  501    0  0.00000000000E+00  0.00000000000E+00  0.13991486010E+04  0.13991486010E+04  0.50400001928E-02 0. -1.
       -1   -1    0    0    0  501  0.00000000000E+00  0.00000000000E+00 -0.34757817999E+03  0.34757818003E+03  0.50400001928E-02 0.  1.
    10030    2    1    2    0    0  0.00000000000E+00  0.00000000000E+00  0.10515704210E+04  0.17467267810E+04  0.13947236634E+04 0.  0.
        1    1    3    3  502    0 -0.68727164115E+02  0.97911000608E+02  0.13862031093E+04  0.13913551119E+04  0.50400001928E-02 0. -1.
       -1    1    3    3    0  502  0.68727164115E+02 -0.97911000608E+02 -0.33463268829E+03  0.35537166914E+03  0.50400001928E-02 0.  1.
</event>
<event>
 5   0  0.3756664E-04  0.1395107E+04  0.7818609E-02  0.8957368E-01
        1   -1    0    0  501    0  0.00000000000E+00  0.00000000000E+00  0.59236038428E+03  0.59236038430E+03  0.50400001928E-02 0.  1.
       -1   -1    0    0    0  501  0.00000000000E+00  0.00000000000E+00 -0.82142664331E+03  0.82142664332E+03  0.50400001928E-02 0. -1.
    10030    2    1    2    0    0  0.00000000000E+00  0.00000000000E+00 -0.22906625903E+03  0.14137870276E+04  0.13951065939E+04 0.  0.
        2    1    3    3  502    0  0.42572729881E+03  0.17498861476E+02 -0.67422416063E+03  0.79757643012E+03  0.25500000920E-02 0. -1.
       -2    1    3    3    0  502 -0.42572729881E+03 -0.17498861476E+02  0.44515790161E+03  0.61621059750E+03  0.25500000920E-02 0.  1.
</event>
<event>
 5   0  0.6895048E-04  0.1383827E+04  0.7818609E-02  0.8965610E-01
       -2   -1    0    0    0  501  0.00000000000E+00  0.00000000000E+00  0.87357103289E+03  0.87357103290E+03  0.25500000920E-02 0.  1.
        2   -1    0    0  501    0  0.00000000000E+00  0.00000000000E+00 -0.54803104492E+03  0.54803104493E+03  0.25500000920E-02 0. -1.
    10030    2    1    2    0    0  0.00000000000E+00  0.00000000000E+00  0.32553998797E+03  0.14216020778E+04  0.13838266452E+04 0.  0.
        4    1    3    3  502    0 -0.64437597574E+03 -0.10324750699E+03 -0.73423594206E+02  0.65671385161E+03  0.12699999809E+01 0. -1.
       -4    1    3    3    0  502  0.64437597574E+03  0.10324750699E+03  0.39896358217E+03  0.76488822622E+03  0.12699999809E+01 0.  1.
</event>
<event>
 5   0  0.6895048E-04  0.1401297E+04  0.7818609E-02  0.8952880E-01
       -2   -1    0    0    0  501  0.00000000000E+00  0.00000000000E+00  0.48619739115E+03  0.48619739115E+03  0.25500000920E-02 0.  1.
        2   -1    0    0  501    0  0.00000000000E+00  0.00000000000E+00 -0.10096893211E+04  0.10096893211E+04  0.25500000920E-02 0. -1.
    10030    2    1    2    0    0  0.00000000000E+00  0.00000000000E+00 -0.52349192992E+03  0.14958867122E+04  0.14012969903E+04 0.  0.
        4    1    3    3  502    0  0.65453411996E+02  0.39627982200E+03  0.35110113910E+03  0.53347490029E+03  0.12699999809E+01 0.  1.
       -4    1    3    3    0  502 -0.65453411996E+02 -0.39627982200E+03 -0.87459306902E+03  0.96241181193E+03  0.12699999809E+01 0. -1.
</event>
<event>
 5   0  0.6870835E-04  0.1409142E+04  0.7818609E-02  0.8947228E-01
       -2   -1    0    0    0  501  0.00000000000E+00  0.00000000000E+00  0.17944613512E+03  0.17944613514E+03  0.25500000920E-02 0. -1.
        2   -1    0    0  501    0  0.00000000000E+00  0.00000000000E+00 -0.27664015092E+04  0.27664015092E+04  0.25500000920E-02 0.  1.
    10030    2    1    2    0    0  0.00000000000E+00  0.00000000000E+00 -0.25869553741E+04  0.29458476444E+04  0.14091416665E+04 0.  0.
        2    1    3    3  502    0 -0.53212266032E+03  0.38667540178E+03 -0.76565534035E+03  0.10094060096E+04  0.25500000920E-02 0. -1.
       -2    1    3    3    0  502  0.53212266032E+03 -0.38667540178E+03 -0.18213000338E+04  0.19364416348E+04  0.25500000920E-02 0.  1.
</event>
<event>
 5   0  0.7065539E-04  0.1402898E+04  0.7818609E-02  0.8951723E-01
       -2   -1    0    0    0  501  0.00000000000E+00  0.00000000000E+00  0.22900554327E+03  0.22900554329E+03  0.25500000920E-02 0.  1.
        2   -1    0    0  501    0  0.00000000000E+00  0.00000000000E+00 -0.21485545511E+04  0.21485545511E+04  0.25500000920E-02 0. -1.
    10030    2    1    2    0    0  0.00000000000E+00  0.00000000000E+00 -0.19195490078E+04  0.23775600944E+04  0.14028982889E+04 0.  0.
        1    1    3    3  502    0 -0.38996829566E+03  0.23902606884E+03 -0.58489714725E+02  0.46111796751E+03  0.50400001928E-02 0.  1.
       -1    1    3    3    0  502  0.38996829566E+03 -0.23902606884E+03 -0.18610592931E+04  0.19164421269E+04  0.50400001928E-02 0. -1.
</event>
<event>
 5   0  0.6895048E-04  0.1420441E+04  0.7818609E-02  0.8939154E-01
       -2   -1    0    0    0  501  0.00000000000E+00  0.00000000000E+00  0.64902508677E+03  0.64902508678E+03  0.25500000920E-02 0.  1.
        2   -1    0    0  501    0  0.00000000000E+00  0.00000000000E+00 -0.77718554064E+03  0.77718554064E+03  0.25500000920E-02 0. -1.
    10030    2    1    2    0    0  0.00000000000E+00  0.00000000000E+00 -0.12816045386E+03  0.14262106274E+04  0.14204406541E+04 0.  0.
        4    1    3    3  502    0  0.12510655311E+03  0.53398699802E+03 -0.51715320800E+03  0.75381882248E+03  0.12699999809E+01 0. -1.
       -4    1    3    3    0  502 -0.12510655311E+03 -0.53398699802E+03  0.38899275413E+03  0.67239180494E+03  0.12699999809E+01 0.  1.
</event>
<event>
 5   0  0.7296966E-04  0.1409874E+04  0.7818609E-02  0.8946702E-01
       -2   -1    0    0    0  501  0.00000000000E+00  0.00000000000E+00  0.33585158981E+03  0.33585158982E+03  0.25500000920E-02 0. -1.
        2   -1    0    0  501    0  0.00000000000E+00  0.00000000000E+00 -0.14796295669E+04  0.14796295669E+04  0.25500000920E-02 0.  1.
    10030    2    1    2    0    0  0.00000000000E+00  0.00000000000E+00 -0.11437779771E+04  0.18154811568E+04  0.14098736715E+04 0.  0.
        3    1    3    3  502    0 -0.59807583523E+02  0.46154523839E+03  0.10990032499E+03  0.47820397924E+03  0.10100000352E+00 0. -1.
       -3    1    3    3    0  502  0.59807583523E+02 -0.46154523839E+03 -0.12536783021E+04  0.13372771775E+04  0.10100000352E+00 0.  1.
</event>
<event>
 5   0  0.3784219E-04  0.1397302E+04  0.7818609E-02  0.8955774E-01
        1   -1    0    0  501    0  0.00000000000E+00  0.00000000000E+00  0.10803856962E+04  0.10803856962E+04  0.50400001928E-02 0. -1.
       -1   -1    0    0    0  501  0.00000000000E+00  0.00000000000E+00 -0.45179515272E+03  0.45179515275E+03  0.50400001928E-02 0.  1.
    10030    2    1    2    0    0  0.00000000000E+00  0.00000000000E+00  0.62859054346E+03  0.15321808489E+04  0.13973017149E+04 0.  0.
        1    1    3    3  502    0  0.23673437801E+03 -0.64850128348E+03  0.19662424626E+03  0.71781486098E+03  0.50400001928E-02 0.  1.
       -1    1    3    3    0  502 -0.23673437801E+03  0.64850128348E+03  0.43196629720E+03  0.81436598796E+03  0.50400001928E-02 0. -1.
</event>
<event>
 5   0  0.3784219E-04  0.1419775E+04  0.7818609E-02  0.8939628E-01
        1   -1    0    0  501    0  0.00000000000E+00  0.00000000000E+00  0.64674971989E+03  0.64674971991E+03  0.50400001928E-02 0.  1.
       -1   -1    0    0    0  501  0.00000000000E+00  0.00000000000E+00 -0.77918847354E+03  0.77918847356E+03  0.50400001928E-02 0. -1.
    10030    2    1    2    0    0  0.00000000000E+00  0.00000000000E+00 -0.13243875365E+03  0.14259381935E+04  0.14197745272E+04 0.  0.
        1    1    3    3  502    0  0.19883085237E+03 -0.16088025433E+03 -0.73130550177E+03  0.77474118325E+03  0.50400001928E-02 0. -1.
       -1    1    3    3    0  502 -0.19883085237E+03  0.16088025433E+03  0.59886674811E+03  0.65119701021E+03  0.50400001928E-02 0.  1.
</event>
<event>
 5   0  0.3907093E-04  0.1443599E+04  0.7818609E-02  0.8922850E-01
        1   -1    0    0  501    0  0.00000000000E+00  0.00000000000E+00  0.72634014964E+03  0.72634014966E+03  0.50400001928E-02 0.  1.
       -1   -1    0    0    0  501  0.00000000000E+00  0.00000000000E+00 -0.71728721433E+03  0.71728721434E+03  0.50400001928E-02 0. -1.
    10030    2    1    2    0    0  0.00000000000E+00  0.00000000000E+00  0.90529353135E+01  0.14436273640E+04  0.14435989784E+04 0.  0.
        4    1    3    3  502    0  0.19465360591E+03  0.50513022773E+03  0.48197309377E+03  0.72480773263E+03  0.12699999809E+01 0.  1.
       -4    1    3    3    0  502 -0.19465360591E+03 -0.50513022773E+03 -0.47292015846E+03  0.71881963137E+03  0.12699999809E+01 0. -1.
</event>
<event>
 5   0  0.3784219E-04  0.1384672E+04  0.7818609E-02  0.8964989E-01
       -1   -1    0    0    0  501  0.00000000000E+00  0.00000000000E+00  0.41571107707E+03  0.41571107710E+03  0.50400001928E-02 0.  1.
        1   -1    0    0  501    0  0.00000000000E+00  0.00000000000E+00 -0.11530343547E+04  0.11530343547E+04  0.50400001928E-02 0. -1.
    10030    2    1    2    0    0  0.00000000000E+00  0.00000000000E+00 -0.73732327761E+03  0.15687454318E+04  0.13846720240E+04 0.  0.
        1    1    3    3  502    0  0.27147716674E+03  0.36381273690E+03  0.22358310096E+03  0.50601280879E+03  0.50400001928E-02 0.  1.
       -1    1    3    3    0  502 -0.27147716674E+03 -0.36381273690E+03 -0.96090637857E+03  0.10627326230E+04  0.50400001928E-02 0. -1.
</event>
<event>
 5   0  0.7065539E-04  0.1392339E+04  0.7818609E-02  0.8959383E-01
        2   -1    0    0  501    0  0.00000000000E+00  0.00000000000E+00  0.74885876918E+03  0.74885876918E+03  0.25500000920E-02 0.  1.
       -2   -1    0    0    0  501  0.00000000000E+00  0.00000000000E+00 -0.64718729931E+03  0.64718729931E+03  0.25500000920E-02 0. -1.
    10030    2    1    2    0    0  0.00000000000E+00  0.00000000000E+00  0.10167146987E+03  0.13960460685E+04  0.13923388731E+04 0.  0.
        1    1    3    3  502    0  0.39040563387E+03 -0.27544640667E+03  0.55850845993E+03  0.73499590594E+03  0.50400001928E-02 0.  1.
       -1    1    3    3    0  502 -0.39040563387E+03  0.27544640667E+03 -0.45683699006E+03  0.66105016256E+03  0.50400001928E-02 0. -1.
</event>
<event>
 5   0  0.6895048E-04  0.1385337E+04  0.7818609E-02  0.8964501E-01
        2   -1    0    0  501    0  0.00000000000E+00  0.00000000000E+00  0.42651757800E+03  0.42651757801E+03  0.25500000920E-02 0.  1.
       -2   -1    0    0    0  501  0.00000000000E+00  0.00000000000E+00 -0.11249005499E+04  0.11249005499E+04  0.25500000920E-02 0. -1.
    10030    2    1    2    0    0  0.00000000000E+00  0.00000000000E+00 -0.69838297188E+03  0.15514181279E+04  0.13853372990E+04 0.  0.
        4    1    3    3  502    0 -0.47088881332E+03 -0.10945660445E+03 -0.90471666453E+03  0.10257830564E+04  0.12699999809E+01 0. -1.
       -4    1    3    3    0  502  0.47088881332E+03  0.10945660445E+03  0.20633369266E+03  0.52563507151E+03  0.12699999809E+01 0.  1.
</event>
<event>
 5   0  0.6870835E-04  0.1392487E+04  0.7818609E-02  0.8959275E-01
        2   -1    0    0  501    0  0.00000000000E+00  0.00000000000E+00  0.42474948310E+03  0.42474948311E+03  0.25500000920E-02 0. -1.
       -2   -1    0    0    0  501  0.00000000000E+00  0.00000000000E+00 -0.11412734861E+04  0.11412734861E+04  0.25500000920E-02 0.  1.
    10030    2    1    2    0    0  0.00000000000E+00  0.00000000000E+00 -0.71652400302E+03  0.15660229692E+04  0.13924874482E+04 0.  0.
        2    1    3    3  502    0  0.27245303999E+03 -0.40163944776E+03 -0.91968465902E+03  0.10398869059E+04  0.25500000920E-02 0. -1.
       -2    1    3    3    0  502 -0.27245303999E+03  0.40163944776E+03  0.20316065600E+03  0.52613606335E+03  0.25500000920E-02 0.  1.
</event>
<event>
 5   0  0.3977658E-04  0.1399359E+04  0.7818609E-02  0.8954283E-01
       -1   -1    0    0    0  501  0.00000000000E+00  0.00000000000E+00  0.16740178673E+03  0.16740178681E+03  0.50400001928E-02 0. -1.
        1   -1    0    0  501    0  0.00000000000E+00  0.00000000000E+00 -0.29244078180E+04  0.29244078180E+04  0.50400001928E-02 0.  1.
    10030    2    1    2    0    0  0.00000000000E+00  0.00000000000E+00 -0.27570060313E+04  0.30918096048E+04  0.13993585588E+04 0.  0.
        5    1    3    3  502    0 -0.59808854521E+03 -0.18190366086E+03 -0.68426460042E+03  0.92684355914E+03  0.46999998093E+01 0. -1.
       -5    1    3    3    0  502  0.59808854521E+03  0.18190366086E+03 -0.20727414309E+04  0.21649660457E+04  0.46999998093E+01 0.  1.
</event>
<event>
 5   0  0.3907270E-04  0.1404026E+04  0.7818609E-02  0.8950910E-01
       -1   -1    0    0    0  501  0.00000000000E+00  0.00000000000E+00  0.50294548064E+03  0.50294548066E+03  0.50400001928E-02 0. -1.
        1   -1    0    0  501    0  0.00000000000E+00  0.00000000000E+00 -0.97987154331E+03  0.97987154332E+03  0.50400001928E-02 0.  1.
    10030    2    1    2    0    0  0.00000000000E+00  0.00000000000E+00 -0.47692606267E+03  0.14828170240E+04  0.14040255900E+04 0.  0.
        3    1    3    3  502    0 -0.56572557123E+03  0.17225091244E+03 -0.63798594954E+03  0.86990912214E+03  0.10100000352E+00 0.  1.
       -3    1    3    3    0  502  0.56572557123E+03 -0.17225091244E+03  0.16105988687E+03  0.61290790184E+03  0.10100000352E+00 0. -1.
</event>
<event>
 5   0  0.7065539E-04  0.1417498E+04  0.7818609E-02  0.8941249E-01
        2   -1    0    0  501    0  0.00000000000E+00  0.00000000000E+00  0.17314581016E+04  0.17314581016E+04  0.25500000920E-02 0.  1.
       -2   -1    0    0    0  501  0.00000000000E+00  0.00000000000E+00 -0.29011687938E+03  0.29011687939E+03  0.25500000920E-02 0. -1.
    10030    2    1    2    0    0  0.00000000000E+00  0.00000000000E+00  0.14413412223E+04  0.20215749810E+04  0.14174981076E+04 0.  0.
        1    1    3    3  502    0 -0.33904933672E+03 -0.68597502613E+02 -0.16154923444E+03  0.38178295571E+03  0.50400001928E-02 0. -1.
       -1    1    3    3    0  502  0.33904933672E+03  0.68597502613E+02  0.16028904567E+04  0.16397920253E+04  0.50400001928E-02 0.  1.
</event>
<event>
 5   0  0.3907093E-04  0.1404058E+04  0.7818609E-02  0.8950886E-01
       -1   -1    0    0    0  501  0.00000000000E+00  0.00000000000E+00  0.42559672868E+03  0.42559672871E+03  0.50400001928E-02 0.  1.
        1   -1    0    0  501    0  0.00000000000E+00  0.00000000000E+00 -0.11580089262E+04  0.11580089262E+04  0.50400001928E-02 0. -1.
    10030    2    1    2    0    0  0.00000000000E+00  0.00000000000E+00 -0.73241219751E+03  0.15836056549E+04  0.14040581338E+04 0.  0.
        4    1    3    3  502    0 -0.52684598587E+03  0.42314471333E+03 -0.15153850370E+03  0.69251979918E+03  0.12699999809E+01 0. -1.
       -4    1    3    3    0  502  0.52684598587E+03 -0.42314471333E+03 -0.58087369380E+03  0.89108585574E+03  0.12699999809E+01 0.  1.
</event>
<event>
 5   0  0.3907270E-04  0.1419889E+04  0.7818609E-02  0.8939547E-01
        1   -1    0    0  501    0  0.00000000000E+00  0.00000000000E+00  0.54096668447E+03  0.54096668449E+03  0.50400001928E-02 0. -1.
       -1   -1    0    0    0  501  0.00000000000E+00  0.00000000000E+00 -0.93170408406E+03  0.93170408408E+03  0.50400001928E-02 0.  1.
    10030    2    1    2    0    0  0.00000000000E+00  0.00000000000E+00 -0.39073739960E+03  0.14726707686E+04  0.14198885439E+04 0.  0.
        3    1    3    3  502    0  0.98304693562E+01 -0.55133231872E+03  0.26841940292E+03  0.61328048220E+03  0.10100000352E+00 0. -1.
       -3    1    3    3    0  502 -0.98304693562E+01  0.55133231872E+03 -0.65915680251E+03  0.85939028636E+03  0.10100000352E+00 0.  1.
</event>
<event>
 5   0  0.3784219E-04  0.1393895E+04  0.7818609E-02  0.8958250E-01
       -1   -1    0    0    0  501  0.00000000000E+00  0.00000000000E+00  0.25195022351E+04  0.25195022351E+04  0.50400001928E-02 0. -1.
        1   -1    0    0  501    0  0.00000000000E+00  0.00000000000E+00 -0.19279033113E+03  0.19279033120E+03  0.50400001928E-02 0.  1.
    10030    2    1    2    0    0  0.00000000000E+00  0.00000000000E+00  0.23267119040E+04  0.27122925663E+04  0.13938947884E+04 0.  0.
        1    1    3    3  502    0  0.47291944314E+03 -0.51079971054E+03  0.10968969521E+04  0.12991351229E+04  0.50400001928E-02 0.  1.
       -1    1    3    3    0  502 -0.47291944314E+03  0.51079971054E+03  0.12298149519E+04  0.14131574434E+04  0.50400001928E-02 0. -1.
</event>
<event>
 5   0  0.2660250E-04  0.1396324E+04  0.7818609E-02  0.8956484E-01
        3   -1    0    0  501    0  0.00000000000E+00  0.00000000000E+00  0.31347752497E+03  0.31347754124E+03  0.10100000352E+00 0. -1.
       -3   -1    0    0    0  501  0.00000000000E+00  0.00000000000E+00 -0.15549120848E+04  0.15549120881E+04  0.10100000352E+00 0.  1.
    10030    2    1    2    0    0  0.00000000000E+00  0.00000000000E+00 -0.12414345599E+04  0.18683896294E+04  0.13963237593E+04 0.  0.
        5    1    3    3  502    0  0.16951517610E+03  0.20607265335E+03  0.24253114510E+03  0.36061722051E+03  0.46999998093E+01 0. -1.
       -5    1    3    3    0  502 -0.16951517610E+03 -0.20607265335E+03 -0.14839657050E+04  0.15077724088E+04  0.46999998093E+01 0.  1.
</event>
<event>
 5   0  0.3977658E-04  0.1424916E+04  0.7818609E-02  0.8935978E-01
        1   -1    0    0  501    0  0.00000000000E+00  0.00000000000E+00  0.10071397135E+04  0.10071397135E+04  0.50400001928E-02 0.  1.
       -1   -1    0    0    0  501  0.00000000000E+00  0.00000000000E+00 -0.50399769870E+03  0.50399769872E+03  0.50400001928E-02 0. -1.
    10030    2    1    2    0    0  0.00000000000E+00  0.00000000000E+00  0.50314201480E+03  0.15111374122E+04  0.14249155735E+04 0.  0.
        5    1    3    3  502    0  0.52090950243E+03 -0.20461788497E+03 -0.21596703149E+03  0.59989918925E+03  0.46999998093E+01 0. -1.
       -5    1    3    3    0  502 -0.52090950243E+03  0.20461788497E+03  0.71910904629E+03  0.91123822298E+03  0.46999998093E+01 0.  1.
</event>
<event>
 5   0  0.3907270E-04  0.1404111E+04  0.7818609E-02  0.8950848E-01
       -1   -1    0    0    0  501  0.00000000000E+00  0.00000000000E+00  0.38741067943E+03  0.38741067946E+03  0.50400001928E-02 0. -1.
        1   -1    0    0  501    0  0.00000000000E+00  0.00000000000E+00 -0.12722462320E+04  0.12722462320E+04  0.50400001928E-02 0.  1.
    10030    2    1    2    0    0  0.00000000000E+00  0.00000000000E+00 -0.88483555253E+03  0.16596569114E+04  0.14041107893E+04 0.  0.
        3    1    3    3  502    0 -0.36322654391E+02  0.69536320706E+03 -0.54835308622E+03  0.88630719410E+03  0.10100000352E+00 0. -1.
       -3    1    3    3    0  502  0.36322654391E+02 -0.69536320706E+03 -0.33648246631E+03  0.77334971733E+03  0.10100000352E+00 0.  1.
</event>
<event>
 5   0  0.6895048E-04  0.1399002E+04  0.7818609E-02  0.8954541E-01
       -2   -1    0    0    0  501  0.00000000000E+00  0.00000000000E+00  0.32446874384E+03  0.32446874385E+03  0.25500000920E-02 0. -1.
        2   -1    0    0  501    0  0.00000000000E+00  0.00000000000E+00 -0.15080089264E+04  0.15080089264E+04  0.25500000920E-02 0.  1.
    10030    2    1    2    0    0  0.00000000000E+00  0.00000000000E+00 -0.11835401826E+04  0.18324776703E+04  0.13990021616E+04 0.  0.
        4    1    3    3  502    0 -0.68542252515E+03 -0.71642914319E+02 -0.43478840359E+03  0.81484925842E+03  0.12699999809E+01 0.  1.
       -4    1    3    3    0  502  0.68542252515E+03  0.71642914319E+02 -0.74875177899E+03  0.10176284118E+04  0.12699999809E+01 0. -1.
</event>
<event>
 5   0  0.7065539E-04  0.1401986E+04  0.7818609E-02  0.8952382E-01
        2   -1    0    0  501    0  0.00000000000E+00  0.00000000000E+00  0.62812867416E+03  0.62812867417E+03  0.25500000920E-02 0.  1.
       -2   -1    0    0    0  501  0.00000000000E+00  0.00000000000E+00 -0.78230961416E+03  0.78230961417E+03  0.25500000920E-02 0. -1.
    10030    2    1    2    0    0  0.00000000000E+00  0.00000000000E+00 -0.15418094000E+03  0.14104382883E+04  0.14019858783E+04 0.  0.
        1    1    3    3  502    0  0.65830135981E+03 -0.75559431366E+02 -0.30720776889E+03  0.73037423372E+03  0.50400001928E-02 0. -1.
       -1    1    3    3    0  502 -0.65830135981E+03  0.75559431366E+02  0.15302682889E+03  0.68006405461E+03  0.50400001928E-02 0.  1.
</event>
<event>
 5   0  0.3907093E-04  0.1410597E+04  0.7818609E-02  0.8946183E-01
        1   -1    0    0  501    0  0.00000000000E+00  0.00000000000E+00  0.74065614281E+03  0.74065614283E+03  0.50400001928E-02 0. -1.
       -1   -1    0    0    0  501  0.00000000000E+00  0.00000000000E+00 -0.67162919091E+03  0.67162919093E+03  0.50400001928E-02 0.  1.
    10030    2    1    2    0    0  0.00000000000E+00  0.00000000000E+00  0.69026951902E+02  0.14122853338E+04  0.14105974422E+04 0.  0.
        4    1    3    3  502    0 -0.67730015313E+02  0.69930506739E+03 -0.27445473994E+02  0.70311435712E+03  0.12699999809E+01 0. -1.
       -4    1    3    3    0  502  0.67730015313E+02 -0.69930506739E+03  0.96472425896E+02  0.70917097664E+03  0.12699999809E+01 0.  1.
</event>
<event>
 5   0  0.6959748E-04  0.1373960E+04  0.7818609E-02  0.8972886E-01
       -2   -1    0    0    0  501  0.00000000000E+00  0.00000000000E+00  0.77732659021E+03  0.77732659021E+03  0.25500000920E-02 0.  1.
        2   -1    0    0  501    0  0.00000000000E+00  0.00000000000E+00 -0.60713404223E+03  0.60713404224E+03  0.25500000920E-02 0. -1.
    10030    2    1    2    0    0  0.00000000000E+00  0.00000000000E+00  0.17019254798E+03  0.13844606325E+04  0.13739598755E+04 0.  0.
        5    1    3    3  502    0 -0.25105997619E+02  0.64112267259E+03  0.33243253908E+03  0.72263550665E+03  0.46999998093E+01 0. -1.
       -5    1    3    3    0  502  0.25105997619E+02 -0.64112267259E+03 -0.16223999111E+03  0.66182512580E+03  0.46999998093E+01 0.  1.
</event>
<event>
 5   0  0.3907093E-04  0.1414550E+04  0.7818609E-02  0.8943353E-01
       -1   -1    0    0    0  501  0.00000000000E+00  0.00000000000E+00  0.89142995523E+03  0.89142995524E+03  0.50400001928E-02 0.  1.
        1   -1    0    0  501    0  0.00000000000E+00  0.00000000000E+00 -0.56116365378E+03  0.56116365381E+03  0.50400001928E-02 0. -1.
    10030    2    1    2    0    0  0.00000000000E+00  0.00000000000E+00  0.33026630144E+03  0.14525936091E+04  0.14145502335E+04 0.  0.
        4    1    3    3  502    0 -0.26210267642E+03  0.64044006502E+03  0.31526772826E+03  0.76043187942E+03  0.12699999809E+01 0.  1.
       -4    1    3    3    0  502  0.26210267642E+03 -0.64044006502E+03  0.14998573189E+02  0.69216172963E+03  0.12699999809E+01 0. -1.
</event>
<event>
 5   0  0.3784219E-04  0.1406197E+04  0.7818609E-02  0.8949345E-01
       -1   -1    0    0    0  501  0.00000000000E+00  0.00000000000E+00  0.41596910563E+03  0.41596910566E+03  0.50400001928E-02 0.  1.
        1   -1    0    0  501    0  0.00000000000E+00  0.00000000000E+00 -0.11884227963E+04  0.11884227963E+04  0.50400001928E-02 0. -1.
    10030    2    1    2    0    0  0.00000000000E+00  0.00000000000E+00 -0.77245369065E+03  0.16043919020E+04  0.14061965264E+04 0.  0.
        1    1    3    3  502    0  0.11096828264E+03 -0.69147331703E+03 -0.31499445035E+03  0.76790026155E+03  0.50400001928E-02 0.  1.
       -1    1    3    3    0  502 -0.11096828264E+03  0.69147331703E+03 -0.45745924030E+03  0.83649164041E+03  0.50400001928E-02 0. -1.
</event>
<event>
 5   0  0.3784219E-04  0.1398030E+04  0.7818609E-02  0.8955246E-01
       -1   -1    0    0    0  501  0.00000000000E+00  0.00000000000E+00  0.26601609466E+03  0.26601609471E+03  0.50400001928E-02 0.  1.
        1   -1    0    0  501    0  0.00000000000E+00  0.00000000000E+00 -0.18368131307E+04  0.18368131307E+04  0.50400001928E-02 0. -1.
    10030    2    1    2    0    0  0.00000000000E+00  0.00000000000E+00 -0.15707970361E+04  0.21028292255E+04  0.13980298362E+04 0.  0.
        1    1    3    3  502    0 -0.43872868332E+03 -0.18695704837E+03 -0.16688463724E+02  0.47719419564E+03  0.50400001928E-02 0.  1.
       -1    1    3    3    0  502  0.43872868332E+03  0.18695704837E+03 -0.15541085724E+04  0.16256350298E+04  0.50400001928E-02 0. -1.
</event>
<event>
 5   0  0.3907270E-04  0.1395729E+04  0.7818609E-02  0.8956916E-01
        1   -1    0    0  501    0  0.00000000000E+00  0.00000000000E+00  0.86372702367E+03  0.86372702368E+03  0.50400001928E-02 0. -1.
       -1   -1    0    0    0  501  0.00000000000E+00  0.00000000000E+00 -0.56385309788E+03  0.56385309790E+03  0.50400001928E-02 0.  1.
    10030    2    1    2    0    0  0.00000000000E+00  0.00000000000E+00  0.29987392579E+03  0.14275801216E+04  0.13957294266E+04 0.  0.
        3    1    3    3  502    0 -0.35093131068E+02 -0.30817994271E+03 -0.48947593513E+03  0.57947657952E+03  0.10100000352E+00 0.  1.
       -3    1    3    3    0  502  0.35093131068E+02  0.30817994271E+03  0.78934986092E+03  0.84810354207E+03  0.10100000352E+00 0. -1.
</event>
<event>
 5   0  0.6959748E-04  0.1397055E+04  0.7818609E-02  0.8955953E-01
       -2   -1    0    0    0  501  0.00000000000E+00  0.00000000000E+00  0.47153061362E+03  0.47153061362E+03  0.25500000920E-02 0. -1.
        2   -1    0    0  501    0  0.00000000000E+00  0.00000000000E+00 -0.10348016737E+04  0.10348016738E+04  0.25500000920E-02 0.  1.
    10030    2    1    2    0    0  0.00000000000E+00  0.00000000000E+00 -0.56327106013E+03  0.15063322874E+04  0.13970549999E+04 0.  0.
        5    1    3    3  502    0  0.60858259533E+03  0.76291517517E+02 -0.64203426198E+03  0.88793201009E+03  0.46999998093E+01 0.  1.
       -5    1    3    3    0  502 -0.60858259533E+03 -0.76291517517E+02  0.78763201848E+02  0.61840027729E+03  0.46999998093E+01 0. -1.
</event>
<event>
 5   0  0.7065539E-04  0.1401707E+04  0.7818609E-02  0.8952584E-01
        2   -1    0    0  501    0  0.00000000000E+00  0.00000000000E+00  0.44340898215E+03  0.44340898215E+03  0.25500000920E-02 0.  1.
       -2   -1    0    0    0  501  0.00000000000E+00  0.00000000000E+00 -0.11077710479E+04  0.11077710479E+04  0.25500000920E-02 0. -1.
    10030    2    1    2    0    0  0.00000000000E+00  0.00000000000E+00 -0.66436206572E+03  0.15511800300E+04  0.14017070062E+04 0.  0.
        1    1    3    3  502    0 -0.35779900564E+03  0.60008458210E+03 -0.39353699878E+03  0.80186844529E+03  0.50400001928E-02 0.  1.
       -1    1    3    3    0  502  0.35779900564E+03 -0.60008458210E+03 -0.27082506694E+03  0.74931158474E+03  0.50400001928E-02 0. -1.
</event>
<event>
 5   0  0.3907093E-04  0.1380568E+04  0.7818609E-02  0.8968006E-01
        1   -1    0    0  501    0  0.00000000000E+00  0.00000000000E+00  0.14531438937E+04  0.14531438937E+04  0.50400001928E-02 0.  1.
       -1   -1    0    0    0  501  0.00000000000E+00  0.00000000000E+00 -0.32790424393E+03  0.32790424396E+03  0.50400001928E-02 0. -1.
    10030    2    1    2    0    0  0.00000000000E+00  0.00000000000E+00  0.11252396498E+04  0.17810481377E+04  0.13805680712E+04 0.  0.
        4    1    3    3  502    0 -0.24486940790E+02 -0.60938843777E+03  0.14550854766E+03  0.62699938493E+03  0.12699999809E+01 0. -1.
       -4    1    3    3    0  502  0.24486940790E+02  0.60938843777E+03  0.97973110213E+03  0.11540487528E+04  0.12699999809E+01 0.  1.
</event>
<event>
 5   0  0.3907270E-04  0.1405972E+04  0.7818609E-02  0.8949507E-01
       -1   -1    0    0    0  501  0.00000000000E+00  0.00000000000E+00  0.51410127981E+03  0.51410127984E+03  0.50400001928E-02 0.  1.
        1   -1    0    0  501    0  0.00000000000E+00  0.00000000000E+00 -0.96126780964E+03  0.96126780965E+03  0.50400001928E-02 0. -1.
    10030    2    1    2    0    0  0.00000000000E+00  0.00000000000E+00 -0.44716652983E+03  0.14753690895E+04  0.14059715661E+04 0.  0.
        3    1    3    3  502    0 -0.65409658170E+03 -0.42342138170E+02  0.43032035793E+02  0.65687667120E+03  0.10100000352E+00 0.  1.
       -3    1    3    3    0  502  0.65409658170E+03  0.42342138170E+02 -0.49019856562E+03  0.81849241829E+03  0.10100000352E+00 0. -1.
</event>
<event>
 5   0  0.6959748E-04  0.1404850E+04  0.7818609E-02  0.8950315E-01
        2   -1    0    0  501    0  0.00000000000E+00  0.00000000000E+00  0.11311232507E+04  0.11311232507E+04  0.25500000920E-02 0.  1.
       -2   -1    0    0    0  501  0.00000000000E+00  0.00000000000E+00 -0.43620433561E+03  0.43620433561E+03  0.25500000920E-02 0. -1.
    10030    2    1    2    0    0  0.00000000000E+00  0.00000000000E+00  0.69491891506E+03  0.15673275863E+04  0.14048499793E+04 0.  0.
        5    1    3    3  502    0  0.48025316465E+02 -0.83619373655E+02 -0.42876703913E+03  0.43950187089E+03  0.46999998093E+01 0. -1.
       -5    1    3    3    0  502 -0.48025316465E+02  0.83619373655E+02  0.11236859542E+04  0.11278257154E+04  0.46999998093E+01 0.  1.
</event>
<event>
 5   0  0.3907270E-04  0.1409619E+04  0.7818609E-02  0.8946885E-01
        1   -1    0    0  501    0  0.00000000000E+00  0.00000000000E+00  0.10715425994E+04  0.10715425994E+04  0.50400001928E-02 0.  1.
       -1   -1    0    0    0  501  0.00000000000E+00  0.00000000000E+00 -0.46359013329E+03  0.46359013332E+03  0.50400001928E-02 0. -1.
    10030    2    1    2    0    0  0.00000000000E+00  0.00000000000E+00  0.60795246615E+03  0.15351327328E+04  0.14096192061E+04 0.  0.
        3    1    3    3  502    0 -0.67132810275E+03 -0.10404413979E+03  0.50844333843E+03  0.84854065499E+03  0.10100000352E+00 0. -1.
       -3    1    3    3    0  502  0.67132810275E+03  0.10404413979E+03  0.99509127715E+02  0.68659207778E+03  0.10100000352E+00 0.  1.
</event>
<event>
 5   0  0.3784219E-04  0.1382196E+04  0.7818609E-02  0.8966807E-01
        1   -1    0    0  501    0  0.00000000000E+00  0.00000000000E+00  0.51022095571E+03  0.51022095573E+03  0.50400001928E-02 0. -1.
       -1   -1    0    0    0  501  0.00000000000E+00  0.00000000000E+00 -0.93609787355E+03  0.93609787356E+03  0.50400001928E-02 0.  1.
    10030    2    1    2    0    0  0.00000000000E+00  0.00000000000E+00 -0.42587691784E+03  0.14463188293E+04  0.13821964429E+04 0.  0.
        1    1    3    3  502    0 -0.47143406812E+03 -0.46453604483E+03 -0.42109659739E+03  0.78445277863E+03  0.50400001928E-02 0.  1.
       -1    1    3    3    0  502  0.47143406812E+03  0.46453604483E+03 -0.47803204549E+01  0.66186605067E+03  0.50400001928E-02 0. -1.
</event>
<event>
 5   0  0.6895048E-04  0.1398851E+04  0.7818609E-02  0.8954651E-01
       -2   -1    0    0    0  501  0.00000000000E+00  0.00000000000E+00  0.47274926580E+03  0.47274926580E+03  0.25500000920E-02 0. -1.
        2   -1    0    0  501    0  0.00000000000E+00  0.00000000000E+00 -0.10347890660E+04  0.10347890660E+04  0.25500000920E-02 0.  1.
    10030    2    1    2    0    0  0.00000000000E+00  0.00000000000E+00 -0.56203980021E+03  0.15075383318E+04  0.13988506299E+04 0.  0.
        4    1    3    3  502    0 -0.44009907716E+03  0.39920957697E+03 -0.67865780731E+03  0.90201636148E+03  0.12699999809E+01 0.  1.
       -4    1    3    3    0  502  0.44009907716E+03 -0.39920957697E+03  0.11661800710E+03  0.60552197032E+03  0.12699999809E+01 0. -1.
</event>
<event>
 5   0  0.6870835E-04  0.1398078E+04  0.7818609E-02  0.8955211E-01
        2   -1    0    0  501    0  0.00000000000E+00  0.00000000000E+00  0.13097190729E+04  0.13097190729E+04  0.25500000920E-02 0. -1.
       -2   -1    0    0    0  501  0.00000000000E+00  0.00000000000E+00 -0.37309928898E+03  0.37309928899E+03  0.25500000920E-02 0.  1.
    10030    2    1    2    0    0  0.00000000000E+00  0.00000000000E+00  0.93661978395E+03  0.16828183619E+04  0.13980776157E+04 0.  0.
        2    1    3    3  502    0 -0.93495120708E+02 -0.31630928174E+03  0.12101649947E+04  0.12543094569E+04  0.25500000920E-02 0. -1.
       -2    1    3    3    0  502  0.93495120708E+02  0.31630928174E+03 -0.27354521076E+03  0.42850890498E+03  0.25500000920E-02 0.  1.
</event>
<event>
 5   0  0.3756664E-04  0.1404854E+04  0.7818609E-02  0.8950312E-01
        1   -1    0    0  501    0  0.00000000000E+00  0.00000000000E+00  0.74509090530E+03  0.74509090532E+03  0.50400001928E-02 0. -1.
       -1   -1    0    0    0  501  0.00000000000E+00  0.00000000000E+00 -0.66220597447E+03  0.66220597449E+03  0.50400001928E-02 0.  1.
    10030    2    1    2    0    0  0.00000000000E+00  0.00000000000E+00  0.82884930829E+02  0.14072968798E+04  0.14048539412E+04 0.  0.
        2    1    3    3  502    0  0.78405785589E+02 -0.52742428923E+03  0.49949004181E+03  0.73062586182E+03  0.25500000920E-02 0. -1.
       -2    1    3    3    0  502 -0.78405785589E+02  0.52742428923E+03 -0.41660511098E+03  0.67667101799E+03  0.25500000920E-02 0.  1.
</event>
<event>
 5   0  0.6870835E-04  0.1386159E+04  0.7818609E-02  0.8963899E-01
       -2   -1    0    0    0  501  0.00000000000E+00  0.00000000000E+00  0.37930430885E+03  0.37930430886E+03  0.25500000920E-02 0.  1.
        2   -1    0    0  501    0  0.00000000000E+00  0.00000000000E+00 -0.12664212619E+04  0.12664212620E+04  0.25500000920E-02 0. -1.
    10030    2    1    2    0    0  0.00000000000E+00  0.00000000000E+00 -0.88711695309E+03  0.16457255708E+04  0.13861587809E+04 0.  0.
        2    1    3    3  502    0 -0.12135644112E+02  0.32055753512E+03 -0.11729770499E+04  0.12160508076E+04  0.25500000920E-02 0. -1.
       -2    1    3    3    0  502  0.12135644112E+02 -0.32055753512E+03  0.28586009678E+03  0.42967476319E+03  0.25500000920E-02 0.  1.
</event>
<event>
 5   0  0.3756664E-04  0.1393249E+04  0.7818609E-02  0.8958720E-01
       -1   -1    0    0    0  501  0.00000000000E+00  0.00000000000E+00  0.46607349467E+03  0.46607349470E+03  0.50400001928E-02 0.  1.
        1   -1    0    0  501    0  0.00000000000E+00  0.00000000000E+00 -0.10412216000E+04  0.10412216000E+04  0.50400001928E-02 0. -1.
    10030    2    1    2    0    0  0.00000000000E+00  0.00000000000E+00 -0.57514810530E+03  0.15072950947E+04  0.13932491376E+04 0.  0.
        2    1    3    3  502    0  0.62112199963E+03 -0.59542307497E+02  0.47535946731E+02  0.62577750922E+03  0.25500000920E-02 0.  1.
       -2    1    3    3    0  502 -0.62112199963E+03  0.59542307497E+02 -0.62268405203E+03  0.88151758546E+03  0.25500000920E-02 0. -1.
</event>
<event>
 5   0  0.2660250E-04  0.1398923E+04  0.7818609E-02  0.8954598E-01
       -3   -1    0    0    0  501  0.00000000000E+00  0.00000000000E+00  0.41823457949E+03  0.41823459169E+03  0.10100000352E+00 0. -1.
        3   -1    0    0  501    0  0.00000000000E+00  0.00000000000E+00 -0.11697894619E+04  0.11697894662E+04  0.10100000352E+00 0.  1.
    10030    2    1    2    0    0  0.00000000000E+00  0.00000000000E+00 -0.75155488238E+03  0.15880240579E+04  0.13989230384E+04 0.  0.
        2    1    3    3  502    0  0.22156084439E+03  0.66087577303E+03 -0.44197312047E+03  0.82534007195E+03  0.25500000920E-02 0.  1.
       -2    1    3    3    0  502 -0.22156084439E+03 -0.66087577303E+03 -0.30958176191E+03  0.76268398597E+03  0.25500000920E-02 0. -1.
</event>
<event>
 5   0  0.3784219E-04  0.1454419E+04  0.7818609E-02  0.8915343E-01
       -1   -1    0    0    0  501  0.00000000000E+00  0.00000000000E+00  0.85931344861E+03  0.85931344862E+03  0.50400001928E-02 0. -1.
        1   -1    0    0  501    0  0.00000000000E+00  0.00000000000E+00 -0.61541409459E+03  0.61541409461E+03  0.50400001928E-02 0.  1.
    10030    2    1    2    0    0  0.00000000000E+00  0.00000000000E+00  0.24389935402E+03  0.14747275432E+04  0.14544189327E+04 0.  0.
        1    1    3    3  502    0 -0.48292568718E+03 -0.54162720228E+03  0.73785217012E+02  0.72939804213E+03  0.50400001928E-02 0.  1.
       -1    1    3    3    0  502  0.48292568718E+03  0.54162720228E+03  0.17011413701E+03  0.74532950111E+03  0.50400001928E-02 0. -1.
</event>
<event>
 5   0  0.6870835E-04  0.1425001E+04  0.7818609E-02  0.8935918E-01
       -2   -1    0    0    0  501  0.00000000000E+00  0.00000000000E+00  0.38748707120E+03  0.38748707121E+03  0.25500000920E-02 0.  1.
        2   -1    0    0  501    0  0.00000000000E+00  0.00000000000E+00 -0.13101255499E+04  0.13101255499E+04  0.25500000920E-02 0. -1.
    10030    2    1    2    0    0  0.00000000000E+00  0.00000000000E+00 -0.92263847871E+03  0.16976126211E+04  0.14250006488E+04 0.  0.
        2    1    3    3  502    0 -0.49808132391E+03 -0.32635615261E+03  0.47593651139E+01  0.59549642747E+03  0.25500000920E-02 0. -1.
       -2    1    3    3    0  502  0.49808132391E+03  0.32635615261E+03 -0.92739784383E+03  0.11021161937E+04  0.25500000920E-02 0.  1.
</event>
<event>
 5   0  0.6895048E-04  0.1393016E+04  0.7818609E-02  0.8958889E-01
       -2   -1    0    0    0  501  0.00000000000E+00  0.00000000000E+00  0.31908788776E+03  0.31908788777E+03  0.25500000920E-02 0.  1.
        2   -1    0    0  501    0  0.00000000000E+00  0.00000000000E+00 -0.15203450429E+04  0.15203450429E+04  0.25500000920E-02 0. -1.
    10030    2    1    2    0    0  0.00000000000E+00  0.00000000000E+00 -0.12012571552E+04  0.18394329307E+04  0.13930164226E+04 0.  0.
        4    1    3    3  502    0  0.15449377110E+03  0.40713905647E+03 -0.13184232749E+04  0.13884783331E+04  0.12699999809E+01 0. -1.
       -4    1    3    3    0  502 -0.15449377110E+03 -0.40713905647E+03  0.11716611976E+03  0.45095459763E+03  0.12699999809E+01 0.  1.
</event>
<event>
 5   0  0.7065539E-04  0.1440039E+04  0.7818609E-02  0.8925336E-01
        2   -1    0    0  501    0  0.00000000000E+00  0.00000000000E+00  0.17501220047E+04  0.17501220047E+04  0.25500000920E-02 0. -1.
       -2   -1    0    0    0  501  0.00000000000E+00  0.00000000000E+00 -0.29622376504E+03  0.29622376505E+03  0.25500000920E-02 0.  1.
    10030    2    1    2    0    0  0.00000000000E+00  0.00000000000E+00  0.14538982396E+04  0.20463457697E+04  0.14400385127E+04 0.  0.
        1    1    3    3  502    0 -0.15932060967E+03 -0.58382098193E+03  0.12813309706E+04  0.14170529460E+04  0.50400001928E-02 0. -1.
       -1    1    3    3    0  502  0.15932060967E+03  0.58382098193E+03  0.17256726905E+03  0.62929282371E+03  0.50400001928E-02 0.  1.
</event>
<event>
 5   0  0.7065539E-04  0.1423899E+04  0.7818609E-02  0.8936698E-01
        2   -1    0    0  501    0  0.00000000000E+00  0.00000000000E+00  0.16708064317E+04  0.16708064317E+04  0.25500000920E-02 0.  1.
       -2   -1    0    0    0  501  0.00000000000E+00  0.00000000000E+00 -0.30336989057E+03  0.30336989058E+03  0.25500000920E-02 0. -1.
    10030    2    1    2    0    0  0.00000000000E+00  0.00000000000E+00  0.13674365411E+04  0.19741763223E+04  0.14238993846E+04 0.  0.
        1    1    3    3  502    0 -0.51732570332E+03 -0.48670413523E+03  0.75115152975E+03  0.10337966044E+04  0.50400001928E-02 0. -1.
       -1    1    3    3    0  502  0.51732570332E+03  0.48670413523E+03  0.61628501138E+03  0.94037971790E+03  0.50400001928E-02 0.  1.
</event>
<event>
 5   0  0.3756664E-04  0.1399921E+04  0.7818609E-02  0.8953876E-01
       -1   -1    0    0    0  501  0.00000000000E+00  0.00000000000E+00  0.34338665057E+03  0.34338665061E+03  0.50400001928E-02 0. -1.
        1   -1    0    0  501    0  0.00000000000E+00  0.00000000000E+00 -0.14268016936E+04  0.14268016936E+04  0.50400001928E-02 0.  1.
    10030    2    1    2    0    0  0.00000000000E+00  0.00000000000E+00 -0.10834150431E+04  0.17701883442E+04  0.13999209330E+04 0.  0.
        2    1    3    3  502    0 -0.45319660300E+03 -0.17662315017E+03  0.94775026204E+02  0.49554535993E+03  0.25500000920E-02 0. -1.
       -2    1    3    3    0  502  0.45319660300E+03  0.17662315017E+03 -0.11781900693E+04  0.12746429843E+04  0.25500000920E-02 0.  1.
</event>
<event>
 5   0  0.2660250E-04  0.1459631E+04  0.7818609E-02  0.8911751E-01
       -4   -1    0    0    0  501  0.00000000000E+00  0.00000000000E+00  0.45065638750E+03  0.45065817700E+03  0.12699999809E+01 0. -1.
        4   -1    0    0  501    0  0.00000000000E+00  0.00000000000E+00 -0.11818945141E+04  0.11818951964E+04  0.12699999809E+01 0.  1.
    10030    2    1    2    0    0  0.00000000000E+00  0.00000000000E+00 -0.73123812656E+03  0.16325533734E+04  0.14596305420E+04 0.  0.
        4    1    3    3  502    0  0.60883867443E+03 -0.29748487029E+03 -0.66873675984E+03  0.95204634677E+03  0.12699999809E+01 0.  1.
       -4    1    3    3    0  502 -0.60883867443E+03  0.29748487029E+03 -0.62501366725E+02  0.68050702662E+03  0.12699999809E+01 0. -1.
</event>
<event>
 5   0  0.7065539E-04  0.1396872E+04  0.7818609E-02  0.8956086E-01
       -2   -1    0    0    0  501  0.00000000000E+00  0.00000000000E+00  0.59757700707E+03  0.59757700708E+03  0.25500000920E-02 0. -1.
        2   -1    0    0  501    0  0.00000000000E+00  0.00000000000E+00 -0.81631753148E+03  0.81631753148E+03  0.25500000920E-02 0.  1.
    10030    2    1    2    0    0  0.00000000000E+00  0.00000000000E+00 -0.21874052441E+03  0.14138945386E+04  0.13968716294E+04 0.  0.
        1    1    3    3  502    0 -0.18968134060E+03 -0.53928892618E+03 -0.51550940494E+03  0.76978016568E+03  0.50400001928E-02 0.  1.
       -1    1    3    3    0  502  0.18968134060E+03  0.53928892618E+03  0.29676888053E+03  0.64411437288E+03  0.50400001928E-02 0. -1.
</event>
<event>
 5   0  0.6959748E-04  0.1392456E+04  0.7818609E-02  0.8959297E-01
       -2   -1    0    0    0  501  0.00000000000E+00  0.00000000000E+00  0.51979330303E+03  0.51979330304E+03  0.25500000920E-02 0. -1.
        2   -1    0    0  501    0  0.00000000000E+00  0.00000000000E+00 -0.93255059711E+03  0.93255059711E+03  0.25500000920E-02 0.  1.
    10030    2    1    2    0    0  0.00000000000E+00  0.00000000000E+00 -0.41275729408E+03  0.14523439001E+04  0.13924561826E+04 0.  0.
        5    1    3    3  502    0  0.32279678566E+03 -0.40698970095E+03 -0.68985911679E+03  0.86357748496E+03  0.46999998093E+01 0.  1.
       -5    1    3    3    0  502 -0.32279678566E+03  0.40698970095E+03  0.27710182271E+03  0.58876641519E+03  0.46999998093E+01 0. -1.
</event>
<event>
 5   0  0.6895048E-04  0.1401985E+04  0.7818609E-02  0.8952383E-01
        2   -1    0    0  501    0  0.00000000000E+00  0.00000000000E+00  0.60936057224E+03  0.60936057225E+03  0.25500000920E-02 0.  1.
       -2   -1    0    0    0  501  0.00000000000E+00  0.00000000000E+00 -0.80640310868E+03  0.80640310869E+03  0.25500000920E-02 0. -1.
    10030    2    1    2    0    0  0.00000000000E+00  0.00000000000E+00 -0.19704253644E+03  0.14157636809E+04  0.14019846786E+04 0.  0.
        4    1    3    3  502    0 -0.43204303429E+03  0.11586186570E+02  0.45880256841E+03  0.63031486805E+03  0.12699999809E+01 0.  1.
       -4    1    3    3    0  502  0.43204303429E+03 -0.11586186570E+02 -0.65584510485E+03  0.78544881288E+03  0.12699999809E+01 0. -1.
</event>
<event>
 5   0  0.3784219E-04  0.1398429E+04  0.7818609E-02  0.8954957E-01
        1   -1    0    0  501    0  0.00000000000E+00  0.00000000000E+00  0.40827667915E+03  0.40827667918E+03  0.50400001928E-02 0. -1.
       -1   -1    0    0    0  501  0.00000000000E+00  0.00000000000E+00 -0.11974736974E+04  0.11974736975E+04  0.50400001928E-02 0.  1.
    10030    2    1    2    0    0  0.00000000000E+00  0.00000000000E+00 -0.78919701830E+03  0.16057503766E+04  0.13984285246E+04 0.  0.
        1    1    3    3  502    0  0.59355501911E+03  0.36194638530E+03 -0.30876444763E+03  0.76068931285E+03  0.50400001928E-02 0.  1.
       -1    1    3    3    0  502 -0.59355501911E+03 -0.36194638530E+03 -0.48043257067E+03  0.84506106379E+03  0.50400001928E-02 0. -1.
</event>
<event>
 5   0  0.7296966E-04  0.1390799E+04  0.7818609E-02  0.8960506E-01
        2   -1    0    0  501    0  0.00000000000E+00  0.00000000000E+00  0.10088245749E+04  0.10088245749E+04  0.25500000920E-02 0. -1.
       -2   -1    0    0    0  501  0.00000000000E+00  0.00000000000E+00 -0.47935013907E+03  0.47935013908E+03  0.25500000920E-02 0.  1.
    10030    2    1    2    0    0  0.00000000000E+00  0.00000000000E+00  0.52947443586E+03  0.14881747140E+04  0.13907986199E+04 0.  0.
        3    1    3    3  502    0 -0.40130698923E+03  0.27610416590E+03 -0.26629556082E+03  0.55515236282E+03  0.10100000352E+00 0.  1.
       -3    1    3    3    0  502  0.40130698923E+03 -0.27610416590E+03  0.79576999668E+03  0.93302235120E+03  0.10100000352E+00 0. -1.
</event>
<event>
 5   0  0.7065539E-04  0.1399696E+04  0.7818609E-02  0.8954038E-01
        2   -1    0    0  501    0  0.00000000000E+00  0.00000000000E+00  0.41560918987E+03  0.41560918988E+03  0.25500000920E-02 0.  1.
       -2   -1    0    0    0  501  0.00000000000E+00  0.00000000000E+00 -0.11784806383E+04  0.11784806383E+04  0.25500000920E-02 0. -1.
    10030    2    1    2    0    0  0.00000000000E+00  0.00000000000E+00 -0.76287144839E+03  0.15940898281E+04  0.13996962290E+04 0.  0.
        1    1    3    3  502    0  0.40310851393E+03 -0.45523355642E+03 -0.77604390316E+03  0.98588954988E+03  0.50400001928E-02 0. -1.
       -1    1    3    3    0  502 -0.40310851393E+03  0.45523355642E+03  0.13172454773E+02  0.60820027827E+03  0.50400001928E-02 0.  1.
</event>
<event>
 5   0  0.3907093E-04  0.1385029E+04  0.7818609E-02  0.8964728E-01
        1   -1    0    0  501    0  0.00000000000E+00  0.00000000000E+00  0.74158728540E+03  0.74158728542E+03  0.50400001928E-02 0.  1.
       -1   -1    0    0    0  501  0.00000000000E+00  0.00000000000E+00 -0.64668854888E+03  0.64668854890E+03  0.50400001928E-02 0. -1.
    10030    2    1    2    0    0  0.00000000000E+00  0.00000000000E+00  0.94898736521E+02  0.13882758343E+04  0.13850285275E+04 0.  0.
        4    1    3    3  502    0  0.79186237102E+02  0.67577406671E+03 -0.81823331736E+02  0.68530118919E+03  0.12699999809E+01 0. -1.
       -4    1    3    3    0  502 -0.79186237102E+02 -0.67577406671E+03  0.17672206826E+03  0.70297464513E+03  0.12699999809E+01 0.  1.
</event>
<event>
 5   0  0.7296966E-04  0.1412755E+04  0.7818609E-02  0.8944637E-01
        2   -1    0    0  501    0  0.00000000000E+00  0.00000000000E+00  0.51835577308E+03  0.51835577309E+03  0.25500000920E-02 0. -1.
       -2   -1    0    0    0  501  0.00000000000E+00  0.00000000000E+00 -0.96260003934E+03  0.96260003935E+03  0.25500000920E-02 0.  1.
    10030    2    1    2    0    0  0.00000000000E+00  0.00000000000E+00 -0.44424426626E+03  0.14809558124E+04  0.14127551629E+04 0.  0.
        3    1    3    3  502    0 -0.56984311932E+03  0.17653093036E+03  0.17440429794E+03  0.62153135026E+03  0.10100000352E+00 0. -1.
       -3    1    3    3    0  502  0.56984311932E+03 -0.17653093036E+03 -0.61864856420E+03  0.85942446218E+03  0.10100000352E+00 0.  1.
</event>
<event>
 5   0  0.7065539E-04  0.1407396E+04  0.7818609E-02  0.8948482E-01
       -2   -1    0    0    0  501  0.00000000000E+00  0.00000000000E+00  0.44478824867E+03  0.44478824868E+03  0.25500000920E-02 0. -1.
        2   -1    0    0  501    0  0.00000000000E+00  0.00000000000E+00 -0.11133189003E+04  0.11133189003E+04  0.25500000920E-02 0.  1.
    10030    2    1    2    0    0  0.00000000000E+00  0.00000000000E+00 -0.66853065166E+03  0.15581071490E+04  0.14073964103E+04 0.  0.
        1    1    3    3  502    0 -0.26825841065E+03 -0.63728522095E+03 -0.47901908973E+03  0.84116247900E+03  0.50400001928E-02 0. -1.
       -1    1    3    3    0  502  0.26825841065E+03  0.63728522095E+03 -0.18951156193E+03  0.71694467001E+03  0.50400001928E-02 0.  1.
</event>
<event>
 5   0  0.3756664E-04  0.1402666E+04  0.7818609E-02  0.8951891E-01
       -1   -1    0    0    0  501  0.00000000000E+00  0.00000000000E+00  0.42995038819E+03  0.42995038821E+03  0.50400001928E-02 0.  1.
        1   -1    0    0  501    0  0.00000000000E+00  0.00000000000E+00 -0.11440113336E+04  0.11440113336E+04  0.50400001928E-02 0. -1.
    10030    2    1    2    0    0  0.00000000000E+00  0.00000000000E+00 -0.71406094544E+03  0.15739617219E+04  0.14026661998E+04 0.  0.
        2    1    3    3  502    0  0.19717158517E+03  0.18812409948E+03 -0.10821681959E+04  0.11159548893E+04  0.25500000920E-02 0. -1.
       -2    1    3    3    0  502 -0.19717158517E+03 -0.18812409948E+03  0.36810725045E+03  0.45800683253E+03  0.25500000920E-02 0.  1.
</event>
<event>
 5   0  0.6959748E-04  0.1398021E+04  0.7818609E-02  0.8955252E-01
       -2   -1    0    0    0  501  0.00000000000E+00  0.00000000000E+00  0.37438743120E+03  0.37438743121E+03  0.25500000920E-02 0. -1.
        2   -1    0    0  501    0  0.00000000000E+00  0.00000000000E+00 -0.13051079712E+04  0.13051079712E+04  0.25500000920E-02 0.  1.
    10030    2    1    2    0    0  0.00000000000E+00  0.00000000000E+00 -0.93072053996E+03  0.16794954024E+04  0.13980214888E+04 0.  0.
        5    1    3    3  502    0  0.48015444393E+03 -0.24360529650E+03 -0.10008685634E+04  0.11365086017E+04  0.46999998093E+01 0.  1.
       -5    1    3    3    0  502 -0.48015444393E+03  0.24360529650E+03  0.70148023456E+02  0.54298680067E+03  0.46999998093E+01 0. -1.
</event>
<event>
 5   0  0.3784219E-04  0.1404239E+04  0.7818609E-02  0.8950756E-01
        1   -1    0    0  501    0  0.00000000000E+00  0.00000000000E+00  0.59105076661E+03  0.59105076663E+03  0.50400001928E-02 0.  1.
       -1   -1    0    0    0  501  0.00000000000E+00  0.00000000000E+00 -0.83405961827E+03  0.83405961829E+03  0.50400001928E-02 0. -1.
    10030    2    1    2    0    0  0.00000000000E+00  0.00000000000E+00 -0.24300885166E+03  0.14251103849E+04  0.14042386931E+04 0.  0.
        1    1    3    3  502    0 -0.47034091087E+03  0.47441602191E+03 -0.34077232283E+03  0.74994460483E+03  0.50400001928E-02 0. -1.
       -1    1    3    3    0  502  0.47034091087E+03 -0.47441602191E+03  0.97763471161E+02  0.67516578009E+03  0.50400001928E-02 0.  1.
</event>
<event>
 5   0  0.7065539E-04  0.1402333E+04  0.7818609E-02  0.8952131E-01
        2   -1    0    0  501    0  0.00000000000E+00  0.00000000000E+00  0.11312786017E+04  0.11312786017E+04  0.25500000920E-02 0. -1.
       -2   -1    0    0    0  501  0.00000000000E+00  0.00000000000E+00 -0.43458331619E+03  0.43458331619E+03  0.25500000920E-02 0.  1.
    10030    2    1    2    0    0  0.00000000000E+00  0.00000000000E+00  0.69669528549E+03  0.15658619179E+04  0.14023334928E+04 0.  0.
        1    1    3    3  502    0  0.38299843587E+03  0.41347355404E+03  0.81410538900E+03  0.99015946504E+03  0.50400001928E-02 0.  1.
       -1    1    3    3    0  502 -0.38299843587E+03 -0.41347355404E+03 -0.11741010351E+03  0.57570245284E+03  0.50400001928E-02 0. -1.
</event>
<event>
 5   0  0.6870835E-04  0.1400365E+04  0.7818609E-02  0.8953554E-01
        2   -1    0    0  501    0  0.00000000000E+00  0.00000000000E+00  0.20315882006E+04  0.20315882006E+04  0.25500000920E-02 0.  1.
       -2   -1    0    0    0  501  0.00000000000E+00  0.00000000000E+00 -0.24131638024E+03  0.24131638025E+03  0.25500000920E-02 0. -1.
    10030    2    1    2    0    0  0.00000000000E+00  0.00000000000E+00  0.17902718204E+04  0.22729045809E+04  0.14003649678E+04 0.  0.
        2    1    3    3  502    0  0.50398043325E+03  0.48451088334E+03  0.95817408556E+03  0.11861048231E+04  0.25500000920E-02 0. -1.
       -2    1    3    3    0  502 -0.50398043325E+03 -0.48451088334E+03  0.83209773484E+03  0.10867997578E+04  0.25500000920E-02 0.  1.
</event>
<event>
 5   0  0.3977658E-04  0.1390338E+04  0.7818609E-02  0.8960842E-01
        1   -1    0    0  501    0  0.00000000000E+00  0.00000000000E+00  0.14967197105E+04  0.14967197105E+04  0.50400001928E-02 0.  1.
       -1   -1    0    0    0  501  0.00000000000E+00  0.00000000000E+00 -0.32287923879E+03  0.32287923883E+03  0.50400001928E-02 0. -1.
    10030    2    1    2    0    0  0.00000000000E+00  0.00000000000E+00  0.11738404717E+04  0.18195989493E+04  0.13903376868E+04 0.  0.
        5    1    3    3  502    0  0.20805885101E+03 -0.65845315983E+03  0.48231399200E+03  0.84231699855E+03  0.46999998093E+01 0.  1.
       -5    1    3    3    0  502 -0.20805885101E+03  0.65845315983E+03  0.69152647970E+03  0.97728195077E+03  0.46999998093E+01 0. -1.
</event>
<event>
 5   0  0.3907270E-04  0.1402385E+04  0.7818609E-02  0.8952094E-01
       -1   -1    0    0    0  501  0.00000000000E+00  0.00000000000E+00  0.45918251494E+03  0.45918251497E+03  0.50400001928E-02 0. -1.
        1   -1    0    0  501    0  0.00000000000E+00  0.00000000000E+00 -0.10707528029E+04  0.10707528029E+04  0.50400001928E-02 0.  1.
    10030    2    1    2    0    0  0.00000000000E+00  0.00000000000E+00 -0.61157028796E+03  0.15299353179E+04  0.14023850612E+04 0.  0.
        3    1    3    3  502    0  0.35500636203E+03  0.33227891623E+03  0.24536952518E+03  0.54465127315E+03  0.10100000352E+00 0. -1.
       -3    1    3    3    0  502 -0.35500636203E+03 -0.33227891623E+03 -0.85693981314E+03  0.98528404473E+03  0.10100000352E+00 0.  1.
</event>
<event>
 5   0  0.7296966E-04  0.1413193E+04  0.7818609E-02  0.8944324E-01
        2   -1    0    0  501    0  0.00000000000E+00  0.00000000000E+00  0.75979851079E+03  0.75979851080E+03  0.25500000920E-02 0. -1.
       -2   -1    0    0    0  501  0.00000000000E+00  0.00000000000E+00 -0.65711991657E+03  0.65711991657E+03  0.25500000920E-02 0.  1.
    10030    2    1    2    0    0  0.00000000000E+00  0.00000000000E+00  0.10267859423E+03  0.14169184274E+04  0.14131931701E+04 0.  0.
        3    1    3    3  502    0  0.53409786975E+03 -0.46091950369E+03  0.91084686698E+02  0.71133940823E+03  0.10100000352E+00 0. -1.
       -3    1    3    3    0  502 -0.53409786975E+03  0.46091950369E+03  0.11593907528E+02  0.70557901914E+03  0.10100000352E+00 0.  1.
</event>
<event>
 5   0  0.6959748E-04  0.1395025E+04  0.7818609E-02  0.8957428E-01
        2   -1    0    0  501    0  0.00000000000E+00  0.00000000000E+00  0.42242185420E+03  0.42242185420E+03  0.25500000920E-02 0.  1.
       -2   -1    0    0    0  501  0.00000000000E+00  0.00000000000E+00 -0.11517477357E+04  0.11517477357E+04  0.25500000920E-02 0. -1.
    10030    2    1    2    0    0  0.00000000000E+00  0.00000000000E+00 -0.72932588148E+03  0.15741695899E+04  0.13950246078E+04 0.  0.
        5    1    3    3  502    0 -0.33987546924E+03  0.59177330658E+03 -0.20195809847E+03  0.71170228643E+03  0.46999998093E+01 0.  1.
       -5    1    3    3    0  502  0.33987546924E+03 -0.59177330658E+03 -0.52736778301E+03  0.86246730345E+03  0.46999998093E+01 0. -1.
</event>
<event>
 5   0  0.3977658E-04  0.1378265E+04  0.7818609E-02  0.8969703E-01
        1   -1    0    0  501    0  0.00000000000E+00  0.00000000000E+00  0.67715888054E+03  0.67715888056E+03  0.50400001928E-02 0.  1.
       -1   -1    0    0    0  501  0.00000000000E+00  0.00000000000E+00 -0.70131779480E+03  0.70131779482E+03  0.50400001928E-02 0. -1.
    10030    2    1    2    0    0  0.00000000000E+00  0.00000000000E+00 -0.24158914261E+02  0.13784766754E+04  0.13782649569E+04 0.  0.
        5    1    3    3  502    0 -0.17723211258E+02  0.45201557557E+01 -0.70105895069E+03  0.70131325837E+03  0.46999998093E+01 0. -1.
       -5    1    3    3    0  502  0.17723211258E+02 -0.45201557557E+01  0.67690003643E+03  0.67716341701E+03  0.46999998093E+01 0.  1.
</event>
<event>
 5   0  0.7065539E-04  0.1407533E+04  0.7818609E-02  0.8948384E-01
       -2   -1    0    0    0  501  0.00000000000E+00  0.00000000000E+00  0.74806933714E+03  0.74806933714E+03  0.25500000920E-02 0.  1.
        2   -1    0    0  501    0  0.00000000000E+00  0.00000000000E+00 -0.66208749850E+03  0.66208749850E+03  0.25500000920E-02 0. -1.
    10030    2    1    2    0    0  0.00000000000E+00  0.00000000000E+00  0.85981838638E+02  0.14101568356E+04  0.14075330989E+04 0.  0.
        1    1    3    3  502    0 -0.30595890561E+03  0.49969126365E+02 -0.58999341940E+03  0.66648330847E+03  0.50400001928E-02 0. -1.
       -1    1    3    3    0  502  0.30595890561E+03 -0.49969126365E+02  0.67597525804E+03  0.74367352717E+03  0.50400001928E-02 0.  1.
</event>
<event>
 5   0  0.3784219E-04  0.1400787E+04  0.7818609E-02  0.8953249E-01
       -1   -1    0    0    0  501  0.00000000000E+00  0.00000000000E+00  0.74338025981E+03  0.74338025983E+03  0.50400001928E-02 0.  1.
        1   -1    0    0  501    0  0.00000000000E+00  0.00000000000E+00 -0.65989229380E+03  0.65989229382E+03  0.50400001928E-02 0. -1.
    10030    2    1    2    0    0  0.00000000000E+00  0.00000000000E+00  0.83487966008E+02  0.14032725536E+04  0.14007867858E+04 0.  0.
        1    1    3    3  502    0 -0.60588964448E+03  0.34357096432E+03 -0.31923141832E+02  0.69725343730E+03  0.50400001928E-02 0. -1.
       -1    1    3    3    0  502  0.60588964448E+03 -0.34357096432E+03  0.11541110784E+03  0.70601911635E+03  0.50400001928E-02 0.  1.
</event>
<event>
 5   0  0.7296966E-04  0.1405095E+04  0.7818609E-02  0.8950138E-01
        2   -1    0    0  501    0  0.00000000000E+00  0.00000000000E+00  0.85940889659E+03  0.85940889660E+03  0.25500000920E-02 0.  1.
       -2   -1    0    0    0  501  0.00000000000E+00  0.00000000000E+00 -0.57431722382E+03  0.57431722383E+03  0.25500000920E-02 0. -1.
    10030    2    1    2    0    0  0.00000000000E+00  0.00000000000E+00  0.28509167277E+03  0.14337261204E+04  0.14050954866E+04 0.  0.
        3    1    3    3  502    0 -0.12870823938E+03  0.12929331346E+03  0.83481738374E+03  0.85451895602E+03  0.10100000352E+00 0.  1.
       -3    1    3    3    0  502  0.12870823938E+03 -0.12929331346E+03 -0.54972571097E+03  0.57920716440E+03  0.10100000352E+00 0. -1.
</event>
<event>
 5   0  0.6895048E-04  0.1390791E+04  0.7818609E-02  0.8960512E-01
        2   -1    0    0  501    0  0.00000000000E+00  0.00000000000E+00  0.22656270078E+04  0.22656270078E+04  0.25500000920E-02 0. -1.
       -2   -1    0    0    0  501  0.00000000000E+00  0.00000000000E+00 -0.21343976302E+03  0.21343976304E+03  0.25500000920E-02 0.  1.
    10030    2    1    2    0    0  0.00000000000E+00  0.00000000000E+00  0.20521872448E+04  0.24790667709E+04  0.13907909860E+04 0.  0.
        4    1    3    3  502    0 -0.48755155675E+03 -0.39031424187E+03  0.15712011846E+04  0.16907768934E+04  0.12699999809E+01 0.  1.
       -4    1    3    3    0  502  0.48755155675E+03  0.39031424187E+03  0.48098606019E+03  0.78828987745E+03  0.12699999809E+01 0. -1.
</event>
<event>
 5   0  0.6870835E-04  0.1398275E+04  0.7818609E-02  0.8955068E-01
        2   -1    0    0  501    0  0.00000000000E+00  0.00000000000E+00  0.16351356851E+04  0.16351356851E+04  0.25500000920E-02 0. -1.
       -2   -1    0    0    0  501  0.00000000000E+00  0.00000000000E+00 -0.29893134330E+03  0.29893134331E+03  0.25500000920E-02 0.  1.
    10030    2    1    2    0    0  0.00000000000E+00  0.00000000000E+00  0.13362043418E+04  0.19340670284E+04  0.13982750900E+04 0.  0.
        2    1    3    3  502    0 -0.24705887817E+03  0.13093591373E+03 -0.21822526382E+03  0.35468939731E+03  0.25500000920E-02 0.  1.
       -2    1    3    3    0  502  0.24705887817E+03 -0.13093591373E+03  0.15544296056E+04  0.15793776311E+04  0.25500000920E-02 0. -1.
</event>
<event>
 5   0  0.6870835E-04  0.1383467E+04  0.7818609E-02  0.8965873E-01
       -2   -1    0    0    0  501  0.00000000000E+00  0.00000000000E+00  0.17320475142E+03  0.17320475144E+03  0.25500000920E-02 0. -1.
        2   -1    0    0  501    0  0.00000000000E+00  0.00000000000E+00 -0.27625997189E+04  0.27625997189E+04  0.25500000920E-02 0.  1.
    10030    2    1    2    0    0  0.00000000000E+00  0.00000000000E+00 -0.25893949675E+04  0.29358044703E+04  0.13834672351E+04 0.  0.
        2    1    3    3  502    0  0.55247704726E+03 -0.32545449523E+03 -0.18453876498E+04  0.19536138549E+04  0.25500000920E-02 0.  1.
       -2    1    3    3    0  502 -0.55247704726E+03  0.32545449523E+03 -0.74400731770E+03  0.98219061541E+03  0.25500000920E-02 0. -1.
</event>
<event>
 5   0  0.7065539E-04  0.1354602E+04  0.7818609E-02  0.8987352E-01
       -2   -1    0    0    0  501  0.00000000000E+00  0.00000000000E+00  0.55571037560E+03  0.55571037561E+03  0.25500000920E-02 0.  1.
        2   -1    0    0  501    0  0.00000000000E+00  0.00000000000E+00 -0.82549603641E+03  0.82549603641E+03  0.25500000920E-02 0. -1.
    10030    2    1    2    0    0  0.00000000000E+00  0.00000000000E+00 -0.26978566081E+03  0.13812064120E+04  0.13546021002E+04 0.  0.
        1    1    3    3  502    0  0.54121687010E+03  0.27006968694E+03 -0.44564619364E+03  0.75130144830E+03  0.50400001928E-02 0. -1.
       -1    1    3    3    0  502 -0.54121687010E+03 -0.27006968694E+03  0.17586053283E+03  0.62990496372E+03  0.50400001928E-02 0.  1.
</event>
<event>
 5   0  0.3977658E-04  0.1533139E+04  0.7818609E-02  0.8862710E-01
        1   -1    0    0  501    0  0.00000000000E+00  0.00000000000E+00  0.99649288006E+03  0.99649288007E+03  0.50400001928E-02 0.  1.
       -1   -1    0    0    0  501  0.00000000000E+00  0.00000000000E+00 -0.58969727704E+03  0.58969727706E+03  0.50400001928E-02 0. -1.
    10030    2    1    2    0    0  0.00000000000E+00  0.00000000000E+00  0.40679560302E+03  0.15861901571E+04  0.15331394431E+04 0.  0.
        5    1    3    3  502    0 -0.60276633643E+03 -0.10549852568E+03  0.68105476360E+03  0.91559536711E+03  0.46999998093E+01 0.  1.
       -5    1    3    3    0  502  0.60276633643E+03  0.10549852568E+03 -0.27425916058E+03  0.67059479003E+03  0.46999998093E+01 0. -1.
</event>
<event>
 5   0  0.3784219E-04  0.1376625E+04  0.7818609E-02  0.8970914E-01
       -1   -1    0    0    0  501  0.00000000000E+00  0.00000000000E+00  0.56232492666E+03  0.56232492669E+03  0.50400001928E-02 0.  1.
        1   -1    0    0  501    0  0.00000000000E+00  0.00000000000E+00 -0.84252769378E+03  0.84252769379E+03  0.50400001928E-02 0. -1.
    10030    2    1    2    0    0  0.00000000000E+00  0.00000000000E+00 -0.28020276712E+03  0.14048526205E+04  0.13766253283E+04 0.  0.
        1    1    3    3  502    0 -0.55724177102E+02 -0.64793898776E+03 -0.37021152151E+03  0.74832258182E+03  0.50400001928E-02 0. -1.
       -1    1    3    3    0  502  0.55724177102E+02  0.64793898776E+03  0.90008754393E+02  0.65653003866E+03  0.50400001928E-02 0.  1.
</event>
<event>
 5   0  0.7065539E-04  0.1390418E+04  0.7818609E-02  0.8960784E-01
       -2   -1    0    0    0  501  0.00000000000E+00  0.00000000000E+00  0.63147513433E+03  0.63147513434E+03  0.25500000920E-02 0. -1.
        2   -1    0    0  501    0  0.00000000000E+00  0.00000000000E+00 -0.76537489618E+03  0.76537489618E+03  0.25500000920E-02 0.  1.
    10030    2    1    2    0    0  0.00000000000E+00  0.00000000000E+00 -0.13389976184E+03  0.13968500305E+04  0.13904175134E+04 0.  0.
        1    1    3    3  502    0 -0.25395228815E+03  0.63026022743E+03 -0.21458379982E+03  0.71257696153E+03  0.50400001928E-02 0. -1.
       -1    1    3    3    0  502  0.25395228815E+03 -0.63026022743E+03  0.80684037972E+02  0.68427306899E+03  0.50400001928E-02 0.  1.
</event>
<event>
 5   0  0.3756664E-04  0.1397672E+04  0.7818609E-02  0.8955505E-01
        1   -1    0    0  501    0  0.00000000000E+00  0.00000000000E+00  0.39613589329E+03  0.39613589332E+03  0.50400001928E-02 0.  1.
       -1   -1    0    0    0  501  0.00000000000E+00  0.00000000000E+00 -0.12328390099E+04  0.12328390100E+04  0.50400001928E-02 0. -1.
    10030    2    1    2    0    0  0.00000000000E+00  0.00000000000E+00 -0.83670311665E+03  0.16289749033E+04  0.13976720395E+04 0.  0.
        2    1    3    3  502    0  0.10113376425E+03  0.47286762170E+03 -0.10063647904E+04  0.11165132857E+04  0.25500000920E-02 0. -1.
       -2    1    3    3    0  502 -0.10113376425E+03 -0.47286762170E+03  0.16966167371E+03  0.51246161754E+03  0.25500000920E-02 0.  1.
</event>
<event>
 5   0  0.3907270E-04  0.1391495E+04  0.7818609E-02  0.8959998E-01
       -1   -1    0    0    0  501  0.00000000000E+00  0.00000000000E+00  0.92256823509E+03  0.92256823510E+03  0.50400001928E-02 0.  1.
        1   -1    0    0  501    0  0.00000000000E+00  0.00000000000E+00 -0.52469243429E+03  0.52469243431E+03  0.50400001928E-02 0. -1.
    10030    2    1    2    0    0  0.00000000000E+00  0.00000000000E+00  0.39787580080E+03  0.14472606694E+04  0.13914949847E+04 0.  0.
        3    1    3    3  502    0 -0.66975424490E+03 -0.16358633815E+03  0.29613535868E+03  0.75035151726E+03  0.10100000352E+00 0.  1.
       -3    1    3    3    0  502  0.66975424490E+03  0.16358633815E+03  0.10174044212E+03  0.69690915216E+03  0.10100000352E+00 0. -1.
</event>
<event>
 5   0  0.3907093E-04  0.1407658E+04  0.7818609E-02  0.8948294E-01
        1   -1    0    0  501    0  0.00000000000E+00  0.00000000000E+00  0.13722684614E+04  0.13722684614E+04  0.50400001928E-02 0.  1.
       -1   -1    0    0    0  501  0.00000000000E+00  0.00000000000E+00 -0.36099000866E+03  0.36099000870E+03  0.50400001928E-02 0. -1.
    10030    2    1    2    0    0  0.00000000000E+00  0.00000000000E+00  0.10112784528E+04  0.17332584701E+04  0.14076579184E+04 0.  0.
        4    1    3    3  502    0 -0.62213115361E+03  0.22850325113E+02  0.10135741047E+03  0.63074895736E+03  0.12699999809E+01 0. -1.
       -4    1    3    3    0  502  0.62213115361E+03 -0.22850325113E+02  0.90992104231E+03  0.11025095128E+04  0.12699999809E+01 0.  1.
</event>
<event>
 5   0  0.7065539E-04  0.1477742E+04  0.7818609E-02  0.8899391E-01
        2   -1    0    0  501    0  0.00000000000E+00  0.00000000000E+00  0.22091049437E+04  0.22091049437E+04  0.25500000920E-02 0. -1.
       -2   -1    0    0    0  501  0.00000000000E+00  0.00000000000E+00 -0.24712742352E+03  0.24712742353E+03  0.25500000920E-02 0.  1.
    10030    2    1    2    0    0  0.00000000000E+00  0.00000000000E+00  0.19619775202E+04  0.24562323672E+04  0.14777420790E+04 0.  0.
        1    1    3    3  502    0 -0.13523284154E+03 -0.53237541898E+03  0.18023996374E+04  0.18842388281E+04  0.50400001928E-02 0. -1.
       -1    1    3    3    0  502  0.13523284154E+03  0.53237541898E+03  0.15957788276E+03  0.57199353917E+03  0.50400001928E-02 0.  1.
</event>
<event>
 5   0  0.3756664E-04  0.1413200E+04  0.7818609E-02  0.8944318E-01
       -1   -1    0    0    0  501  0.00000000000E+00  0.00000000000E+00  0.67891892829E+03  0.67891892830E+03  0.50400001928E-02 0. -1.
        1   -1    0    0  501    0  0.00000000000E+00  0.00000000000E+00 -0.73541010362E+03  0.73541010364E+03  0.50400001928E-02 0.  1.
    10030    2    1    2    0    0  0.00000000000E+00  0.00000000000E+00 -0.56491175337E+02  0.14143290319E+04  0.14132003955E+04 0.  0.
        2    1    3    3  502    0  0.55492898225E+03 -0.17748029157E+03 -0.42836284349E+03  0.72314601217E+03  0.25500000920E-02 0.  1.
       -2    1    3    3    0  502 -0.55492898225E+03  0.17748029157E+03  0.37187166815E+03  0.69118301977E+03  0.25500000920E-02 0. -1.
</event>
<event>
 5   0  0.3907270E-04  0.1403532E+04  0.7818609E-02  0.8951266E-01
        1   -1    0    0  501    0  0.00000000000E+00  0.00000000000E+00  0.82928742628E+03  0.82928742630E+03  0.50400001928E-02 0. -1.
       -1   -1    0    0    0  501  0.00000000000E+00  0.00000000000E+00 -0.59385364355E+03  0.59385364357E+03  0.50400001928E-02 0.  1.
    10030    2    1    2    0    0  0.00000000000E+00  0.00000000000E+00  0.23543378274E+03  0.14231410699E+04  0.14035317733E+04 0.  0.
        3    1    3    3  502    0  0.31978894530E+03  0.61938496306E+03  0.35512338264E+02  0.69797123033E+03  0.10100000352E+00 0.  1.
       -3    1    3    3    0  502 -0.31978894530E+03 -0.61938496306E+03  0.19992144447E+03  0.72516983953E+03  0.10100000352E+00 0. -1.
</event>
<event>
 5   0  0.3977658E-04  0.1390649E+04  0.7818609E-02  0.8960615E-01
        1   -1    0    0  501    0  0.00000000000E+00  0.00000000000E+00  0.10181815669E+04  0.10181815669E+04  0.50400001928E-02 0.  1.
       -1   -1    0    0    0  501  0.00000000000E+00  0.00000000000E+00 -0.47484290685E+03  0.47484290687E+03  0.50400001928E-02 0. -1.
    10030    2    1    2    0    0  0.00000000000E+00  0.00000000000E+00  0.54333866005E+03  0.14930244738E+04  0.13906491936E+04 0.  0.
        5    1    3    3  502    0 -0.41748078507E+03  0.47902418788E+03 -0.31425149537E+02  0.63621066362E+03  0.46999998093E+01 0. -1.
       -5    1    3    3    0  502  0.41748078507E+03 -0.47902418788E+03  0.57476380958E+03  0.85681381016E+03  0.46999998093E+01 0.  1.
</event>
<event>
 5   0  0.7065539E-04  0.1402639E+04  0.7818609E-02  0.8951911E-01
       -2   -1    0    0    0  501  0.00000000000E+00  0.00000000000E+00  0.66827741309E+03  0.66827741309E+03  0.25500000920E-02 0. -1.
        2   -1    0    0  501    0  0.00000000000E+00  0.00000000000E+00 -0.73599521832E+03  0.73599521832E+03  0.25500000920E-02 0.  1.
    10030    2    1    2    0    0  0.00000000000E+00  0.00000000000E+00 -0.67717805235E+02  0.14042726314E+04  0.14026389137E+04 0.  0.
        1    1    3    3  502    0  0.29689050259E+02 -0.68630460113E+03  0.10756260901E+03  0.69531658985E+03  0.50400001928E-02 0. -1.
       -1    1    3    3    0  502 -0.29689050259E+02  0.68630460113E+03 -0.17528041424E+03  0.70895604157E+03  0.50400001928E-02 0.  1.
</event>
<event>
 5   0  0.2660250E-04  0.1299983E+04  0.7818609E-02  0.9029579E-01
        3   -1    0    0  501    0  0.00000000000E+00  0.00000000000E+00  0.79861017932E+03  0.79861018570E+03  0.10100000352E+00 0.  1.
       -3   -1    0    0    0  501  0.00000000000E+00  0.00000000000E+00 -0.52903037643E+03  0.52903038607E+03  0.10100000352E+00 0. -1.
    10030    2    1    2    0    0  0.00000000000E+00  0.00000000000E+00  0.26957980289E+03  0.13276405718E+04  0.12999831605E+04 0.  0.
        1    1    3    3  502    0 -0.21743233220E+02 -0.40865656053E+03  0.65052488346E+03  0.76854120038E+03  0.50400001928E-02 0.  1.
       -1    1    3    3    0  502  0.21743233220E+02  0.40865656053E+03 -0.38094508057E+03  0.55909937139E+03  0.50400001928E-02 0. -1.
</event>
<event>
 5   0  0.3977658E-04  0.1400888E+04  0.7818609E-02  0.8953176E-01
        1   -1    0    0  501    0  0.00000000000E+00  0.00000000000E+00  0.10386086769E+04  0.10386086769E+04  0.50400001928E-02 0.  1.
       -1   -1    0    0    0  501  0.00000000000E+00  0.00000000000E+00 -0.47238383824E+03  0.47238383827E+03  0.50400001928E-02 0. -1.
    10030    2    1    2    0    0  0.00000000000E+00  0.00000000000E+00  0.56622483864E+03  0.15109925152E+04  0.14008882229E+04 0.  0.
        5    1    3    3  502    0 -0.23148912209E+03  0.19995177951E+03 -0.39651602850E+03  0.50081431552E+03  0.46999998093E+01 0. -1.
       -5    1    3    3    0  502  0.23148912209E+03 -0.19995177951E+03  0.96274086714E+03  0.10101781996E+04  0.46999998093E+01 0.  1.
</event>
<event>
 5   0  0.6870835E-04  0.1336082E+04  0.7818609E-02  0.9001431E-01
       -2   -1    0    0    0  501  0.00000000000E+00  0.00000000000E+00  0.41557271501E+03  0.41557271501E+03  0.25500000920E-02 0.  1.
        2   -1    0    0  501    0  0.00000000000E+00  0.00000000000E+00 -0.10738886802E+04  0.10738886802E+04  0.25500000920E-02 0. -1.
    10030    2    1    2    0    0  0.00000000000E+00  0.00000000000E+00 -0.65831596515E+03  0.14894613952E+04  0.13360820850E+04 0.  0.
        2    1    3    3  502    0 -0.13921936507E+03  0.46026877907E+03 -0.84612791242E+03  0.97322239225E+03  0.25500000920E-02 0. -1.
       -2    1    3    3    0  502  0.13921936507E+03 -0.46026877907E+03  0.18781194727E+03  0.51623900292E+03  0.25500000920E-02 0.  1.
</event>
<event>
 5   0  0.3756664E-04  0.1407306E+04  0.7818609E-02  0.8948547E-01
       -1   -1    0    0    0  501  0.00000000000E+00  0.00000000000E+00  0.29050437180E+03  0.29050437184E+03  0.50400001928E-02 0. -1.
        1   -1    0    0  501    0  0.00000000000E+00  0.00000000000E+00 -0.17043716739E+04  0.17043716739E+04  0.50400001928E-02 0.  1.
    10030    2    1    2    0    0  0.00000000000E+00  0.00000000000E+00 -0.14138673021E+04  0.19948760458E+04  0.14073058267E+04 0.  0.
        2    1    3    3  502    0  0.31714452166E+03  0.61979515386E+03 -0.85149746376E+03  0.10998975458E+04  0.25500000920E-02 0.  1.
       -2    1    3    3    0  502 -0.31714452166E+03 -0.61979515386E+03 -0.56236983836E+03  0.89497850001E+03  0.25500000920E-02 0. -1.
</event>
<event>
 5   0  0.6959748E-04  0.1397566E+04  0.7818609E-02  0.8955582E-01
        2   -1    0    0  501    0  0.00000000000E+00  0.00000000000E+00  0.91791220655E+03  0.91791220656E+03  0.25500000920E-02 0. -1.
       -2   -1    0    0    0  501  0.00000000000E+00  0.00000000000E+00 -0.53196557518E+03  0.53196557518E+03  0.25500000920E-02 0.  1.
    10030    2    1    2    0    0  0.00000000000E+00  0.00000000000E+00  0.38594663137E+03  0.14498777817E+04  0.13975660198E+04 0.  0.
        5    1    3    3  502    0 -0.31607789214E+03 -0.58178409889E+03  0.42471226603E+03  0.78662606780E+03  0.46999998093E+01 0. -1.
       -5    1    3    3    0  502  0.31607789214E+03  0.58178409889E+03 -0.38765634656E+02  0.66325171395E+03  0.46999998093E+01 0.  1.
</event>
<event>
 5   0  0.6895048E-04  0.1406119E+04  0.7818609E-02  0.8949401E-01
        2   -1    0    0  501    0  0.00000000000E+00  0.00000000000E+00  0.20409932598E+04  0.20409932598E+04  0.25500000920E-02 0. -1.
       -2   -1    0    0    0  501  0.00000000000E+00  0.00000000000E+00 -0.24218252839E+03  0.24218252841E+03  0.25500000920E-02 0.  1.
    10030    2    1    2    0    0  0.00000000000E+00  0.00000000000E+00  0.17988107314E+04  0.22831757882E+04  0.14061193521E+04 0.  0.
        4    1    3    3  502    0  0.28297051959E+03 -0.11405242317E+03  0.19279037038E+04  0.19518951238E+04  0.12699999809E+01 0. -1.
       -4    1    3    3    0  502 -0.28297051959E+03  0.11405242317E+03 -0.12909297241E+03  0.33128066441E+03  0.12699999809E+01 0.  1.
</event>
<event>
 5   0  0.6895048E-04  0.1309671E+04  0.7818609E-02  0.9021931E-01
        2   -1    0    0  501    0  0.00000000000E+00  0.00000000000E+00  0.11764077542E+04  0.11764077542E+04  0.25500000920E-02 0.  1.
       -2   -1    0    0    0  501  0.00000000000E+00  0.00000000000E+00 -0.36450776639E+03  0.36450776640E+03  0.25500000920E-02 0. -1.
    10030    2    1    2    0    0  0.00000000000E+00  0.00000000000E+00  0.81189998783E+03  0.15409155206E+04  0.13096713525E+04 0.  0.
        4    1    3    3  502    0 -0.17738416662E+03 -0.24585921243E+03 -0.27696176893E+03  0.41063527522E+03  0.12699999809E+01 0. -1.
       -4    1    3    3    0  502  0.17738416662E+03  0.24585921243E+03  0.10888617568E+04  0.11302802454E+04  0.12699999809E+01 0.  1.
</event>
<event>
 5   0  0.3977658E-04  0.1389146E+04  0.7818609E-02  0.8961713E-01
        1   -1    0    0  501    0  0.00000000000E+00  0.00000000000E+00  0.79162222491E+03  0.79162222492E+03  0.50400001928E-02 0. -1.
       -1   -1    0    0    0  501  0.00000000000E+00  0.00000000000E+00 -0.60942146624E+03  0.60942146626E+03  0.50400001928E-02 0.  1.
    10030    2    1    2    0    0  0.00000000000E+00  0.00000000000E+00  0.18220075867E+03  0.14010436912E+04  0.13891458916E+04 0.  0.
        5    1    3    3  502    0 -0.35904980796E+03 -0.44264343423E+03  0.49143775169E+03  0.75258429976E+03  0.46999998093E+01 0. -1.
       -5    1    3    3    0  502  0.35904980796E+03  0.44264343423E+03 -0.30923699302E+03  0.64845939142E+03  0.46999998093E+01 0.  1.
</event>
<event>
 5   0  0.3977658E-04  0.1418016E+04  0.7818609E-02  0.8940880E-01
       -1   -1    0    0    0  501  0.00000000000E+00  0.00000000000E+00  0.41746943363E+03  0.41746943366E+03  0.50400001928E-02 0.  1.
        1   -1    0    0  501    0  0.00000000000E+00  0.00000000000E+00 -0.12041418503E+04  0.12041418503E+04  0.50400001928E-02 0. -1.
    10030    2    1    2    0    0  0.00000000000E+00  0.00000000000E+00 -0.78667241667E+03  0.16216112840E+04  0.14180161019E+04 0.  0.
        5    1    3    3  502    0 -0.16095751728E+03 -0.17105177412E+00  0.39628145689E+03  0.42774809725E+03  0.46999998093E+01 0.  1.
       -5    1    3    3    0  502  0.16095751728E+03  0.17105177412E+00 -0.11829538736E+04  0.11938631867E+04  0.46999998093E+01 0. -1.
</event>
<event>
 5   0  0.3977658E-04  0.1395097E+04  0.7818609E-02  0.8957375E-01
        1   -1    0    0  501    0  0.00000000000E+00  0.00000000000E+00  0.65796559464E+03  0.65796559466E+03  0.50400001928E-02 0.  1.
       -1   -1    0    0    0  501  0.00000000000E+00  0.00000000000E+00 -0.73951304417E+03  0.73951304418E+03  0.50400001928E-02 0. -1.
    10030    2    1    2    0    0  0.00000000000E+00  0.00000000000E+00 -0.81547449529E+02  0.13974786388E+04  0.13950973298E+04 0.  0.
        5    1    3    3  502    0 -0.12276879262E+02 -0.68107321405E+03 -0.19116528228E+03  0.70751515871E+03  0.46999998093E+01 0. -1.
       -5    1    3    3    0  502  0.12276879262E+02  0.68107321405E+03  0.10961783275E+03  0.68996348013E+03  0.46999998093E+01 0.  1.
</event>
<event>
 5   0  0.6895048E-04  0.1403488E+04  0.7818609E-02  0.8951297E-01
        2   -1    0    0  501    0  0.00000000000E+00  0.00000000000E+00  0.41241712667E+03  0.41241712667E+03  0.25500000920E-02 0.  1.
       -2   -1    0    0    0  501  0.00000000000E+00  0.00000000000E+00 -0.11940457507E+04  0.11940457507E+04  0.25500000920E-02 0. -1.
    10030    2    1    2    0    0  0.00000000000E+00  0.00000000000E+00 -0.78162862405E+03  0.16064628774E+04  0.14034883934E+04 0.  0.
        4    1    3    3  502    0  0.23793551108E+03 -0.42405421425E+03 -0.96996110353E+03  0.10850167922E+04  0.12699999809E+01 0. -1.
       -4    1    3    3    0  502 -0.23793551108E+03  0.42405421425E+03  0.18833247948E+03  0.52144608521E+03  0.12699999809E+01 0.  1.
</event>
<event>
 5   0  0.6959748E-04  0.1424894E+04  0.7818609E-02  0.8935994E-01
       -2   -1    0    0    0  501  0.00000000000E+00  0.00000000000E+00  0.54597006919E+03  0.54597006920E+03  0.25500000920E-02 0.  1.
        2   -1    0    0  501    0  0.00000000000E+00  0.00000000000E+00 -0.92968571949E+03  0.92968571949E+03  0.25500000920E-02 0. -1.
    10030    2    1    2    0    0  0.00000000000E+00  0.00000000000E+00 -0.38371565030E+03  0.14756557887E+04  0.14248937878E+04 0.  0.
        5    1    3    3  502    0 -0.44069231753E+03 -0.37174717586E+03  0.24156434399E+03  0.62512487054E+03  0.46999998093E+01 0.  1.
       -5    1    3    3    0  502  0.44069231753E+03  0.37174717586E+03 -0.62527999428E+03  0.85053091815E+03  0.46999998093E+01 0. -1.
</event>
<event>
 5   0  0.3907270E-04  0.1391072E+04  0.7818609E-02  0.8960306E-01
       -1   -1    0    0    0  501  0.00000000000E+00  0.00000000000E+00  0.47531572328E+03  0.47531572330E+03  0.50400001928E-02 0. -1.
        1   -1    0    0  501    0  0.00000000000E+00  0.00000000000E+00 -0.10177879376E+04  0.10177879376E+04  0.50400001928E-02 0.  1.
    10030    2    1    2    0    0  0.00000000000E+00  0.00000000000E+00 -0.54247221433E+03  0.14931036609E+04  0.13910724061E+04 0.  0.
        3    1    3    3  502    0  0.66448981060E+03  0.80680591828E+02 -0.47408036298E+03  0.82024890555E+03  0.10100000352E+00 0.  1.
       -3    1    3    3    0  502 -0.66448981060E+03 -0.80680591828E+02 -0.68391851348E+02  0.67285475537E+03  0.10100000352E+00 0. -1.
</event>
<event>
 5   0  0.6895048E-04  0.1399505E+04  0.7818609E-02  0.8954177E-01
        2   -1    0    0  501    0  0.00000000000E+00  0.00000000000E+00  0.83049065285E+03  0.83049065286E+03  0.25500000920E-02 0. -1.
       -2   -1    0    0    0  501  0.00000000000E+00  0.00000000000E+00 -0.58959584953E+03  0.58959584953E+03  0.25500000920E-02 0.  1.
    10030    2    1    2    0    0  0.00000000000E+00  0.00000000000E+00  0.24089480333E+03  0.14200865024E+04  0.13995054012E+04 0.  0.
        4    1    3    3  502    0 -0.48237390517E+03 -0.48321705246E+03 -0.35001199564E+02  0.68367389964E+03  0.12699999809E+01 0.  1.
       -4    1    3    3    0  502  0.48237390517E+03  0.48321705246E+03  0.27589600289E+03  0.73641260275E+03  0.12699999809E+01 0. -1.
</event>
<event>
 5   0  0.7065539E-04  0.1327024E+04  0.7818609E-02  0.9008405E-01
        2   -1    0    0  501    0  0.00000000000E+00  0.00000000000E+00  0.73879242531E+03  0.73879242531E+03  0.25500000920E-02 0.  1.
       -2   -1    0    0    0  501  0.00000000000E+00  0.00000000000E+00 -0.59590249116E+03  0.59590249116E+03  0.25500000920E-02 0. -1.
    10030    2    1    2    0    0  0.00000000000E+00  0.00000000000E+00  0.14288993415E+03  0.13346949165E+04  0.13270241093E+04 0.  0.
        1    1    3    3  502    0  0.13970201082E+03  0.52014493922E+03 -0.31832686771E+03  0.62561921674E+03  0.50400001928E-02 0. -1.
       -1    1    3    3    0  502 -0.13970201082E+03 -0.52014493922E+03  0.46121680186E+03  0.70907569974E+03  0.50400001928E-02 0.  1.
</event>
<event>
 5   0  0.3784219E-04  0.1440821E+04  0.7818609E-02  0.8924789E-01
        1   -1    0    0  501    0  0.00000000000E+00  0.00000000000E+00  0.82977580641E+03  0.82977580643E+03  0.50400001928E-02 0. -1.
       -1   -1    0    0    0  501  0.00000000000E+00  0.00000000000E+00 -0.62545929909E+03  0.62545929911E+03  0.50400001928E-02 0.  1.
    10030    2    1    2    0    0  0.00000000000E+00  0.00000000000E+00  0.20431650732E+03  0.14552351055E+04  0.14408205916E+04 0.  0.
        1    1    3    3  502    0  0.35253927012E+03  0.22895384129E+02  0.73627923596E+03  0.81664879166E+03  0.50400001928E-02 0. -1.
       -1    1    3    3    0  502 -0.35253927012E+03 -0.22895384129E+02 -0.53196272864E+03  0.63858631388E+03  0.50400001928E-02 0.  1.
</event>
<event>
 5   0  0.7296966E-04  0.1379763E+04  0.7818609E-02  0.8968599E-01
       -2   -1    0    0    0  501  0.00000000000E+00  0.00000000000E+00  0.30234133655E+03  0.30234133656E+03  0.25500000920E-02 0. -1.
        2   -1    0    0  501    0  0.00000000000E+00  0.00000000000E+00 -0.15741687286E+04  0.15741687286E+04  0.25500000920E-02 0.  1.
    10030    2    1    2    0    0  0.00000000000E+00  0.00000000000E+00 -0.12718273920E+04  0.18765100651E+04  0.13797627004E+04 0.  0.
        3    1    3    3  502    0  0.23027109608E+03  0.34639436554E+03 -0.13844488755E+04  0.14455838036E+04  0.10100000352E+00 0.  1.
       -3    1    3    3    0  502 -0.23027109608E+03 -0.34639436554E+03  0.11262148345E+03  0.43092626156E+03  0.10100000352E+00 0. -1.
</event>
<event>
 5   0  0.3907270E-04  0.1402948E+04  0.7818609E-02  0.8951687E-01
        1   -1    0    0  501    0  0.00000000000E+00  0.00000000000E+00  0.12205956395E+04  0.12205956395E+04  0.50400001928E-02 0.  1.
       -1   -1    0    0    0  501  0.00000000000E+00  0.00000000000E+00 -0.40313582468E+03  0.40313582471E+03  0.50400001928E-02 0. -1.
    10030    2    1    2    0    0  0.00000000000E+00  0.00000000000E+00  0.81745981482E+03  0.16237314642E+04  0.14029480814E+04 0.  0.
        3    1    3    3  502    0  0.50446463660E+03  0.25531712160E+03 -0.71815250963E+02  0.56993757784E+03  0.10100000352E+00 0. -1.
       -3    1    3    3    0  502 -0.50446463660E+03 -0.25531712160E+03  0.88927506578E+03  0.10537938864E+04  0.10100000352E+00 0.  1.
</event>
<event>
 5   0  0.3977658E-04  0.1401676E+04  0.7818609E-02  0.8952607E-01
       -1   -1    0    0    0  501  0.00000000000E+00  0.00000000000E+00  0.44194115241E+03  0.44194115244E+03  0.50400001928E-02 0.  1.
        1   -1    0    0  501    0  0.00000000000E+00  0.00000000000E+00 -0.11114003703E+04  0.11114003704E+04  0.50400001928E-02 0. -1.
    10030    2    1    2    0    0  0.00000000000E+00  0.00000000000E+00 -0.66945921793E+03  0.15533415228E+04  0.14016755124E+04 0.  0.
        5    1    3    3  502    0  0.24532856816E+03  0.23015313610E+03  0.34660811359E+03  0.48302779094E+03  0.46999998093E+01 0.  1.
       -5    1    3    3    0  502 -0.24532856816E+03 -0.23015313610E+03 -0.10160673315E+04  0.10703137319E+04  0.46999998093E+01 0. -1.
</event>
<event>
 5   0  0.3784219E-04  0.1390989E+04  0.7818609E-02  0.8960367E-01
       -1   -1    0    0    0  501  0.00000000000E+00  0.00000000000E+00  0.26126168950E+03  0.26126168955E+03  0.50400001928E-02 0. -1.
        1   -1    0    0  501    0  0.00000000000E+00  0.00000000000E+00 -0.18514473528E+04  0.18514473528E+04  0.50400001928E-02 0.  1.
    10030    2    1    2    0    0  0.00000000000E+00  0.00000000000E+00 -0.15901856633E+04  0.21127090424E+04  0.13909885168E+04 0.  0.
        1    1    3    3  502    0  0.22047031842E+03  0.40198669760E+03 -0.15894287078E+04  0.16542321734E+04  0.50400001928E-02 0.  1.
       -1    1    3    3    0  502 -0.22047031842E+03 -0.40198669760E+03 -0.75695550230E+00  0.45847686895E+03  0.50400001928E-02 0. -1.
</event>
<event>
 5   0  0.3784219E-04  0.1405085E+04  0.7818609E-02  0.8950146E-01
       -1   -1    0    0    0  501  0.00000000000E+00  0.00000000000E+00  0.74945654907E+03  0.74945654909E+03  0.50400001928E-02 0. -1.
        1   -1    0    0  501    0  0.00000000000E+00  0.00000000000E+00 -0.65856560882E+03  0.65856560883E+03  0.50400001928E-02 0.  1.
    10030    2    1    2    0    0  0.00000000000E+00  0.00000000000E+00  0.90890940259E+02  0.14080221579E+04  0.14050854900E+04 0.  0.
        1    1    3    3  502    0  0.67981834713E+03  0.68175886287E+02  0.20938866036E+03  0.71459397400E+03  0.50400001928E-02 0.  1.
       -1    1    3    3    0  502 -0.67981834713E+03 -0.68175886287E+02 -0.11849772010E+03  0.69342818392E+03  0.50400001928E-02 0. -1.
</event>
<event>
 5   0  0.7296966E-04  0.1395922E+04  0.7818609E-02  0.8956776E-01
        2   -1    0    0  501    0  0.00000000000E+00  0.00000000000E+00  0.62519238354E+03  0.62519238355E+03  0.25500000920E-02 0.  1.
       -2   -1    0    0    0  501  0.00000000000E+00  0.00000000000E+00 -0.77919950344E+03  0.77919950344E+03  0.25500000920E-02 0. -1.
    10030    2    1    2    0    0  0.00000000000E+00  0.00000000000E+00 -0.15400711989E+03  0.14043918870E+04  0.13959220534E+04 0.  0.
        3    1    3    3  502    0  0.13464326982E+03 -0.68318845336E+03 -0.12498266425E+03  0.70745738351E+03  0.10100000352E+00 0. -1.
       -3    1    3    3    0  502 -0.13464326982E+03  0.68318845336E+03 -0.29024455641E+02  0.69693450348E+03  0.10100000352E+00 0.  1.
</event>
<event>
 5   0  0.3784219E-04  0.1399996E+04  0.7818609E-02  0.8953822E-01
       -1   -1    0    0    0  501  0.00000000000E+00  0.00000000000E+00  0.22561970150E+03  0.22561970156E+03  0.50400001928E-02 0. -1.
        1   -1    0    0  501    0  0.00000000000E+00  0.00000000000E+00 -0.21717827129E+04  0.21717827129E+04  0.50400001928E-02 0.  1.
    10030    2    1    2    0    0  0.00000000000E+00  0.00000000000E+00 -0.19461630114E+04  0.23974024144E+04  0.13999956678E+04 0.  0.
        1    1    3    3  502    0  0.20544992474E+02 -0.40363438237E+02 -0.21692709838E+04  0.21697437418E+04  0.50400001928E-02 0.  1.
       -1    1    3    3    0  502 -0.20544992474E+02  0.40363438237E+02  0.22310797241E+03  0.22765867267E+03  0.50400001928E-02 0. -1.
</event>
<event>
 5   0  0.3756664E-04  0.1384658E+04  0.7818609E-02  0.8965000E-01
       -1   -1    0    0    0  501  0.00000000000E+00  0.00000000000E+00  0.53823749111E+03  0.53823749113E+03  0.50400001928E-02 0.  1.
        1   -1    0    0  501    0  0.00000000000E+00  0.00000000000E+00 -0.89053467751E+03  0.89053467752E+03  0.50400001928E-02 0. -1.
    10030    2    1    2    0    0  0.00000000000E+00  0.00000000000E+00 -0.35229718640E+03  0.14287721687E+04  0.13846575759E+04 0.  0.
        2    1    3    3  502    0  0.23285255653E+03  0.63635708425E+03 -0.29680865860E+02  0.67827104137E+03  0.25500000920E-02 0.  1.
       -2    1    3    3    0  502 -0.23285255653E+03 -0.63635708425E+03 -0.32261632054E+03  0.75050112728E+03  0.25500000920E-02 0. -1.
</event>
<event>
 5   0  0.3977658E-04  0.1391057E+04  0.7818609E-02  0.8960317E-01
       -1   -1    0    0    0  501  0.00000000000E+00  0.00000000000E+00  0.80230258584E+03  0.80230258585E+03  0.50400001928E-02 0.  1.
        1   -1    0    0  501    0  0.00000000000E+00  0.00000000000E+00 -0.60296479021E+03  0.60296479023E+03  0.50400001928E-02 0. -1.
    10030    2    1    2    0    0  0.00000000000E+00  0.00000000000E+00  0.19933779563E+03  0.14052673761E+04  0.13910574544E+04 0.  0.
        5    1    3    3  502    0 -0.29717665201E+03 -0.58081034278E+03 -0.14379821112E+03  0.66809777151E+03  0.46999998093E+01 0. -1.
       -5    1    3    3    0  502  0.29717665201E+03  0.58081034278E+03  0.34313600675E+03  0.73716960457E+03  0.46999998093E+01 0.  1.
</event>
<event>
 5   0  0.6895048E-04  0.1403016E+04  0.7818609E-02  0.8951638E-01
        2   -1    0    0  501    0  0.00000000000E+00  0.00000000000E+00  0.14281177683E+04  0.14281177683E+04  0.25500000920E-02 0.  1.
       -2   -1    0    0    0  501  0.00000000000E+00  0.00000000000E+00 -0.34458901426E+03  0.34458901427E+03  0.25500000920E-02 0. -1.
    10030    2    1    2    0    0  0.00000000000E+00  0.00000000000E+00  0.10835287540E+04  0.17727067826E+04  0.14030163136E+04 0.  0.
        4    1    3    3  502    0 -0.66199067626E+03 -0.23184346583E+03  0.55611677980E+03  0.89512598766E+03  0.12699999809E+01 0.  1.
       -4    1    3    3    0  502  0.66199067626E+03  0.23184346583E+03  0.52741197423E+03  0.87758079490E+03  0.12699999809E+01 0. -1.
</event>
<event>
 5   0  0.7296966E-04  0.1398274E+04  0.7818609E-02  0.8955069E-01
       -2   -1    0    0    0  501  0.00000000000E+00  0.00000000000E+00  0.57656623387E+03  0.57656623387E+03  0.25500000920E-02 0.  1.
        2   -1    0    0  501    0  0.00000000000E+00  0.00000000000E+00 -0.84776520956E+03  0.84776520956E+03  0.25500000920E-02 0. -1.
    10030    2    1    2    0    0  0.00000000000E+00  0.00000000000E+00 -0.27119897569E+03  0.14243314434E+04  0.13982743566E+04 0.  0.
        3    1    3    3  502    0 -0.11006970805E+03 -0.40676929278E+03 -0.70386298096E+03  0.82036559188E+03  0.10100000352E+00 0. -1.
       -3    1    3    3    0  502  0.11006970805E+03  0.40676929278E+03  0.43266400527E+03  0.60396585155E+03  0.10100000352E+00 0.  1.
</event>
<event>
 5   0  0.3907093E-04  0.1385766E+04  0.7818609E-02  0.8964187E-01
        1   -1    0    0  501    0  0.00000000000E+00  0.00000000000E+00  0.62941020737E+03  0.62941020739E+03  0.50400001928E-02 0. -1.
       -1   -1    0    0    0  501  0.00000000000E+00  0.00000000000E+00 -0.76275645090E+03  0.76275645092E+03  0.50400001928E-02 0.  1.
    10030    2    1    2    0    0  0.00000000000E+00  0.00000000000E+00 -0.13334624353E+03  0.13921666583E+04  0.13857657752E+04 0.  0.
        4    1    3    3  502    0  0.64508439797E+03  0.14431546148E+03 -0.27529611654E+03  0.71606591709E+03  0.12699999809E+01 0.  1.
       -4    1    3    3    0  502 -0.64508439797E+03 -0.14431546148E+03  0.14194987301E+03  0.67610074122E+03  0.12699999809E+01 0. -1.
</event>
<event>
 5   0  0.3756664E-04  0.1391381E+04  0.7818609E-02  0.8960081E-01
        1   -1    0    0  501    0  0.00000000000E+00  0.00000000000E+00  0.11555739132E+04  0.11555739132E+04  0.50400001928E-02 0. -1.
       -1   -1    0    0    0  501  0.00000000000E+00  0.00000000000E+00 -0.41882676723E+03  0.41882676726E+03  0.50400001928E-02 0.  1.
    10030    2    1    2    0    0  0.00000000000E+00  0.00000000000E+00  0.73674714599E+03  0.15744006805E+04  0.13913810210E+04 0.  0.
        2    1    3    3  502    0  0.39514368271E+03 -0.36770289167E+03  0.86501613864E+03  0.10196062312E+04  0.25500000920E-02 0. -1.
       -2    1    3    3    0  502 -0.39514368271E+03  0.36770289167E+03 -0.12826899265E+03  0.55479444933E+03  0.25500000920E-02 0.  1.
</event>
<event>
 5   0  0.3907093E-04  0.1394083E+04  0.7818609E-02  0.8958113E-01
        1   -1    0    0  501    0  0.00000000000E+00  0.00000000000E+00  0.86485627714E+03  0.86485627715E+03  0.50400001928E-02 0. -1.
       -1   -1    0    0    0  501  0.00000000000E+00  0.00000000000E+00 -0.56178934420E+03  0.56178934422E+03  0.50400001928E-02 0.  1.
    10030    2    1    2    0    0  0.00000000000E+00  0.00000000000E+00  0.30306693294E+03  0.14266456214E+04  0.13940832698E+04 0.  0.
        4    1    3    3  502    0 -0.58014732690E+03  0.11750644797E+03 -0.22514933502E+03  0.63330286766E+03  0.12699999809E+01 0.  1.
       -4    1    3    3    0  502  0.58014732690E+03 -0.11750644797E+03  0.52821626797E+03  0.79334275371E+03  0.12699999809E+01 0. -1.
</event>
<event>
 5   0  0.3784219E-04  0.1466941E+04  0.7818609E-02  0.8906739E-01
       -1   -1    0    0    0  501  0.00000000000E+00  0.00000000000E+00  0.14215895943E+04  0.14215895943E+04  0.50400001928E-02 0. -1.
        1   -1    0    0  501    0  0.00000000000E+00  0.00000000000E+00 -0.37843474550E+03  0.37843474553E+03  0.50400001928E-02 0.  1.
    10030    2    1    2    0    0  0.00000000000E+00  0.00000000000E+00  0.10431548488E+04  0.18000243399E+04  0.14669408937E+04 0.  0.
        1    1    3    3  502    0  0.10943022032E+03  0.57637483642E+03  0.10617569689E+04  0.12130584430E+04  0.50400001928E-02 0. -1.
       -1    1    3    3    0  502 -0.10943022032E+03 -0.57637483642E+03 -0.18602120053E+02  0.58696589685E+03  0.50400001928E-02 0.  1.
</event>
<event>
 5   0  0.2660250E-04  0.1414104E+04  0.7818609E-02  0.8943672E-01
        3   -1    0    0  501    0  0.00000000000E+00  0.00000000000E+00  0.29798945671E+03  0.29798947383E+03  0.10100000352E+00 0. -1.
       -3   -1    0    0    0  501  0.00000000000E+00  0.00000000000E+00 -0.16776520036E+04  0.16776520067E+04  0.10100000352E+00 0.  1.
    10030    2    1    2    0    0  0.00000000000E+00  0.00000000000E+00 -0.13796625469E+04  0.19756414805E+04  0.14141041391E+04 0.  0.
        4    1    3    3  502    0 -0.62417345848E+03  0.32757576315E+03 -0.76664152427E+03  0.10414601416E+04  0.12699999809E+01 0. -1.
       -4    1    3    3    0  502  0.62417345848E+03 -0.32757576315E+03 -0.61302102265E+03  0.93418133892E+03  0.12699999809E+01 0.  1.
</event>
<event>
 5   0  0.3907093E-04  0.1415320E+04  0.7818609E-02  0.8942803E-01
        1   -1    0    0  501    0  0.00000000000E+00  0.00000000000E+00  0.11644177517E+04  0.11644177517E+04  0.50400001928E-02 0.  1.
       -1   -1    0    0    0  501  0.00000000000E+00  0.00000000000E+00 -0.43007156074E+03  0.43007156077E+03  0.50400001928E-02 0. -1.
    10030    2    1    2    0    0  0.00000000000E+00  0.00000000000E+00  0.73434619093E+03  0.15944893125E+04  0.14153204017E+04 0.  0.
        4    1    3    3  502    0  0.60749007410E+03 -0.17846552104E+03  0.72323195547E+03  0.96122848826E+03  0.12699999809E+01 0.  1.
       -4    1    3    3    0  502 -0.60749007410E+03  0.17846552104E+03  0.11114235457E+02  0.63326082419E+03  0.12699999809E+01 0. -1.
</event>
<event>
 5   0  0.6895048E-04  0.1405244E+04  0.7818609E-02  0.8950032E-01
       -2   -1    0    0    0  501  0.00000000000E+00  0.00000000000E+00  0.48571879499E+03  0.48571879499E+03  0.25500000920E-02 0. -1.
        2   -1    0    0  501    0  0.00000000000E+00  0.00000000000E+00 -0.10163851660E+04  0.10163851660E+04  0.25500000920E-02 0.  1.
    10030    2    1    2    0    0  0.00000000000E+00  0.00000000000E+00 -0.53066637104E+03  0.15021039610E+04  0.14052435776E+04 0.  0.
        4    1    3    3  502    0 -0.27530104445E+02 -0.49571772098E+03 -0.79677610737E+03  0.93880122695E+03  0.12699999809E+01 0.  1.
       -4    1    3    3    0  502  0.27530104445E+02  0.49571772098E+03  0.26610973633E+03  0.56330273408E+03  0.12699999809E+01 0. -1.
</event>
<event>
 5   0  0.2660250E-04  0.1440652E+04  0.7818609E-02  0.8924907E-01
       -3   -1    0    0    0  501  0.00000000000E+00  0.00000000000E+00  0.67986186152E+03  0.67986186903E+03  0.10100000352E+00 0.  1.
        3   -1    0    0  501    0  0.00000000000E+00  0.00000000000E+00 -0.76319827297E+03  0.76319827966E+03  0.10100000352E+00 0. -1.
    10030    2    1    2    0    0  0.00000000000E+00  0.00000000000E+00 -0.83336411449E+02  0.14430601487E+04  0.14406518092E+04 0.  0.
        5    1    3    3  502    0 -0.26612203793E+03 -0.31976549370E+03 -0.63067877000E+03  0.75554530703E+03  0.46999998093E+01 0. -1.
       -5    1    3    3    0  502  0.26612203793E+03  0.31976549370E+03  0.54734235855E+03  0.68751484166E+03  0.46999998093E+01 0.  1.
</event>
<event>
 5   0  0.6895048E-04  0.1416255E+04  0.7818609E-02  0.8942135E-01
       -2   -1    0    0    0  501  0.00000000000E+00  0.00000000000E+00  0.33605037275E+03  0.33605037276E+03  0.25500000920E-02 0.  1.
        2   -1    0    0  501    0  0.00000000000E+00  0.00000000000E+00 -0.14921714625E+04  0.14921714625E+04  0.25500000920E-02 0. -1.
    10030    2    1    2    0    0  0.00000000000E+00  0.00000000000E+00 -0.11561210897E+04  0.18282218352E+04  0.14162553106E+04 0.  0.
        4    1    3    3  502    0  0.52669647225E+03  0.46948692743E+03 -0.65568568813E+03  0.96319908815E+03  0.12699999809E+01 0. -1.
       -4    1    3    3    0  502 -0.52669647225E+03 -0.46948692743E+03 -0.50043540161E+03  0.86502274709E+03  0.12699999809E+01 0.  1.
</event>
<event>
 5   0  0.3784219E-04  0.1404902E+04  0.7818609E-02  0.8950278E-01
        1   -1    0    0  501    0  0.00000000000E+00  0.00000000000E+00  0.28245863729E+04  0.28245863729E+04  0.50400001928E-02 0.  1.
       -1   -1    0    0    0  501  0.00000000000E+00  0.00000000000E+00 -0.17469373975E+03  0.17469373982E+03  0.50400001928E-02 0. -1.
    10030    2    1    2    0    0  0.00000000000E+00  0.00000000000E+00  0.26498926332E+04  0.29992801127E+04  0.14049022128E+04 0.  0.
        1    1    3    3  502    0 -0.11573007086E+03  0.28991028564E+03 -0.18487896565E+02  0.31270309459E+03  0.50400001928E-02 0. -1.
       -1    1    3    3    0  502  0.11573007086E+03 -0.28991028564E+03  0.26683805297E+04  0.26865770181E+04  0.50400001928E-02 0.  1.
</event>
<event>
 5   0  0.3907093E-04  0.1456182E+04  0.7818609E-02  0.8914126E-01
       -1   -1    0    0    0  501  0.00000000000E+00  0.00000000000E+00  0.35090388534E+03  0.35090388538E+03  0.50400001928E-02 0.  1.
        1   -1    0    0  501    0  0.00000000000E+00  0.00000000000E+00 -0.15107172332E+04  0.15107172332E+04  0.50400001928E-02 0. -1.
    10030    2    1    2    0    0  0.00000000000E+00  0.00000000000E+00 -0.11598133479E+04  0.18616211186E+04  0.14561820584E+04 0.  0.
        4    1    3    3  502    0 -0.93317975721E+00 -0.71963101690E+03 -0.43843819858E+03  0.84267392162E+03  0.12699999809E+01 0.  1.
       -4    1    3    3    0  502  0.93317975721E+00  0.71963101690E+03 -0.72137514929E+03  0.10189471970E+04  0.12699999809E+01 0. -1.
</event>
<event>
 5   0  0.6895048E-04  0.1396289E+04  0.7818609E-02  0.8956509E-01
       -2   -1    0    0    0  501  0.00000000000E+00  0.00000000000E+00  0.37869699879E+03  0.37869699880E+03  0.25500000920E-02 0.  1.
        2   -1    0    0  501    0  0.00000000000E+00  0.00000000000E+00 -0.12870595740E+04  0.12870595740E+04  0.25500000920E-02 0. -1.
    10030    2    1    2    0    0  0.00000000000E+00  0.00000000000E+00 -0.90836257519E+03  0.16657565728E+04  0.13962887924E+04 0.  0.
        4    1    3    3  502    0  0.36242000536E+03 -0.19203868721E+03  0.21980643812E+03  0.46534245541E+03  0.12699999809E+01 0.  1.
       -4    1    3    3    0  502 -0.36242000536E+03  0.19203868721E+03 -0.11281690133E+04  0.12004141174E+04  0.12699999809E+01 0. -1.
</event>
<event>
 5   0  0.6895048E-04  0.1400320E+04  0.7818609E-02  0.8953587E-01
        2   -1    0    0  501    0  0.00000000000E+00  0.00000000000E+00  0.17376963893E+04  0.17376963893E+04  0.25500000920E-02 0. -1.
       -2   -1    0    0    0  501  0.00000000000E+00  0.00000000000E+00 -0.28211137750E+03  0.28211137751E+03  0.25500000920E-02 0.  1.
    10030    2    1    2    0    0  0.00000000000E+00  0.00000000000E+00  0.14555850118E+04  0.20198077668E+04  0.14003198521E+04 0.  0.
        4    1    3    3  502    0  0.50728727363E+03 -0.22987350935E+03  0.13398150444E+04  0.14509611209E+04  0.12699999809E+01 0. -1.
       -4    1    3    3    0  502 -0.50728727363E+03  0.22987350935E+03  0.11576996740E+03  0.56884664589E+03  0.12699999809E+01 0.  1.
</event>
<event>
 5   0  0.6959748E-04  0.1431643E+04  0.7818609E-02  0.8931227E-01
       -2   -1    0    0    0  501  0.00000000000E+00  0.00000000000E+00  0.60554467873E+03  0.60554467874E+03  0.25500000920E-02 0.  1.
        2   -1    0    0  501    0  0.00000000000E+00  0.00000000000E+00 -0.84618108957E+03  0.84618108958E+03  0.25500000920E-02 0. -1.
    10030    2    1    2    0    0  0.00000000000E+00  0.00000000000E+00 -0.24063641084E+03  0.14517257683E+04  0.14316430505E+04 0.  0.
        5    1    3    3  502    0 -0.51515587063E+03 -0.12826336015E+03 -0.60720075613E+03  0.80656798154E+03  0.46999998093E+01 0. -1.
       -5    1    3    3    0  502  0.51515587063E+03  0.12826336015E+03  0.36656434529E+03  0.64515778677E+03  0.46999998093E+01 0.  1.
</event>
<event>
 5   0  0.7065539E-04  0.1393743E+04  0.7818609E-02  0.8958360E-01
        2   -1    0    0  501    0  0.00000000000E+00  0.00000000000E+00  0.70450430358E+03  0.70450430358E+03  0.25500000920E-02 0. -1.
       -2   -1    0    0    0  501  0.00000000000E+00  0.00000000000E+00 -0.68932126597E+03  0.68932126598E+03  0.25500000920E-02 0.  1.
    10030    2    1    2    0    0  0.00000000000E+00  0.00000000000E+00  0.15183037605E+02  0.13938255696E+04  0.13937428722E+04 0.  0.
        1    1    3    3  502    0 -0.65385752981E+03  0.10824010452E+03 -0.20779119510E+03  0.69456660609E+03  0.50400001928E-02 0.  1.
       -1    1    3    3    0  502  0.65385752981E+03 -0.10824010452E+03  0.22297423270E+03  0.69925896347E+03  0.50400001928E-02 0. -1.
</event>
<event>
 5   0  0.3977658E-04  0.1382685E+04  0.7818609E-02  0.8966448E-01
        1   -1    0    0  501    0  0.00000000000E+00  0.00000000000E+00  0.22960515387E+04  0.22960515387E+04  0.50400001928E-02 0. -1.
       -1   -1    0    0    0  501  0.00000000000E+00  0.00000000000E+00 -0.20816372349E+03  0.20816372355E+03  0.50400001928E-02 0.  1.
    10030    2    1    2    0    0  0.00000000000E+00  0.00000000000E+00  0.20878878152E+04  0.25042152622E+04  0.13826852682E+04 0.  0.
        5    1    3    3  502    0 -0.60387246638E+03 -0.33356522680E+03  0.96285017988E+03  0.11844957894E+04  0.46999998093E+01 0. -1.
       -5    1    3    3    0  502  0.60387246638E+03  0.33356522680E+03  0.11250376353E+04  0.13197194729E+04  0.46999998093E+01 0.  1.
</event>
<event>
 5   0  0.6959748E-04  0.1392320E+04  0.7818609E-02  0.8959396E-01
        2   -1    0    0  501    0  0.00000000000E+00  0.00000000000E+00  0.78871732763E+03  0.78871732763E+03  0.25500000920E-02 0.  1.
       -2   -1    0    0    0  501  0.00000000000E+00  0.00000000000E+00 -0.61446456648E+03  0.61446456648E+03  0.25500000920E-02 0. -1.
    10030    2    1    2    0    0  0.00000000000E+00  0.00000000000E+00  0.17425276115E+03  0.14031818941E+04  0.13923201511E+04 0.  0.
        5    1    3    3  502    0 -0.22349403199E+03 -0.24830105086E+03 -0.52838670967E+03  0.62515406033E+03  0.46999998093E+01 0. -1.
       -5    1    3    3    0  502  0.22349403199E+03  0.24830105086E+03  0.70263947082E+03  0.77802783379E+03  0.46999998093E+01 0.  1.
</event>
<event>
 5   0  0.3756664E-04  0.1444447E+04  0.7818609E-02  0.8922259E-01
        1   -1    0    0  501    0  0.00000000000E+00  0.00000000000E+00  0.18676098191E+04  0.18676098191E+04  0.50400001928E-02 0.  1.
       -1   -1    0    0    0  501  0.00000000000E+00  0.00000000000E+00 -0.27929103798E+03  0.27929103802E+03  0.50400001928E-02 0. -1.
    10030    2    1    2    0    0  0.00000000000E+00  0.00000000000E+00  0.15883187811E+04  0.21469008571E+04  0.14444468629E+04 0.  0.
        2    1    3    3  502    0 -0.18166829012E+03  0.10210915334E+03 -0.23363153317E+03  0.31307082287E+03  0.25500000920E-02 0. -1.
       -2    1    3    3    0  502  0.18166829012E+03 -0.10210915334E+03  0.18219503143E+04  0.18338300342E+04  0.25500000920E-02 0.  1.
</event>
<event>
 5   0  0.6959748E-04  0.1410836E+04  0.7818609E-02  0.8946012E-01
        2   -1    0    0  501    0  0.00000000000E+00  0.00000000000E+00  0.19835608646E+04  0.19835608646E+04  0.25500000920E-02 0.  1.
       -2   -1    0    0    0  501  0.00000000000E+00  0.00000000000E+00 -0.25086918781E+03  0.25086918782E+03  0.25500000920E-02 0. -1.
    10030    2    1    2    0    0  0.00000000000E+00  0.00000000000E+00  0.17326916768E+04  0.22344300524E+04  0.14108356433E+04 0.  0.
        5    1    3    3  502    0  0.43434760282E+03 -0.46621574567E+03  0.38707153656E+03  0.74556114839E+03  0.46999998093E+01 0. -1.
       -5    1    3    3    0  502 -0.43434760282E+03  0.46621574567E+03  0.13456201402E+04  0.14888689040E+04  0.46999998093E+01 0.  1.
</event>
<event>
 5   0  0.3907270E-04  0.1406305E+04  0.7818609E-02  0.8949268E-01
       -1   -1    0    0    0  501  0.00000000000E+00  0.00000000000E+00  0.46813290686E+03  0.46813290689E+03  0.50400001928E-02 0. -1.
        1   -1    0    0  501    0  0.00000000000E+00  0.00000000000E+00 -0.10561596765E+04  0.10561596765E+04  0.50400001928E-02 0.  1.
    10030    2    1    2    0    0  0.00000000000E+00  0.00000000000E+00 -0.58802676964E+03  0.15242925834E+04  0.14063045182E+04 0.  0.
        3    1    3    3  502    0 -0.35150375490E+03  0.38361186087E+03 -0.80667617759E+03  0.95991635844E+03  0.10100000352E+00 0.  1.
       -3    1    3    3    0  502  0.35150375490E+03 -0.38361186087E+03  0.21864940795E+03  0.56437622496E+03  0.10100000352E+00 0. -1.
</event>
<event>
 5   0  0.3907093E-04  0.1361551E+04  0.7818609E-02  0.8982130E-01
        1   -1    0    0  501    0  0.00000000000E+00  0.00000000000E+00  0.18673445788E+04  0.18673445788E+04  0.50400001928E-02 0.  1.
       -1   -1    0    0    0  501  0.00000000000E+00  0.00000000000E+00 -0.24818944805E+03  0.24818944810E+03  0.50400001928E-02 0. -1.
    10030    2    1    2    0    0  0.00000000000E+00  0.00000000000E+00  0.16191551307E+04  0.21155340269E+04  0.13615509104E+04 0.  0.
        4    1    3    3  502    0  0.64604391070E+02 -0.10077982676E+02 -0.24329743754E+03  0.25193362041E+03  0.12699999809E+01 0. -1.
       -4    1    3    3    0  502 -0.64604391070E+02  0.10077982676E+02  0.18624525683E+04  0.18636004065E+04  0.12699999809E+01 0.  1.
</event>
<event>
 5   0  0.3907270E-04  0.1391097E+04  0.7818609E-02  0.8960288E-01
       -1   -1    0    0    0  501  0.00000000000E+00  0.00000000000E+00  0.10738313336E+04  0.10738313336E+04  0.50400001928E-02 0. -1.
        1   -1    0    0  501    0  0.00000000000E+00  0.00000000000E+00 -0.45052484177E+03  0.45052484179E+03  0.50400001928E-02 0.  1.
    10030    2    1    2    0    0  0.00000000000E+00  0.00000000000E+00  0.62330649181E+03  0.15243561754E+04  0.13910969652E+04 0.  0.
        3    1    3    3  502    0 -0.53353426958E+03  0.42553049206E+03  0.16442209306E+03  0.70197553474E+03  0.10100000352E+00 0.  1.
       -3    1    3    3    0  502  0.53353426958E+03 -0.42553049206E+03  0.45888439876E+03  0.82238064065E+03  0.10100000352E+00 0. -1.
</event>
<event>
 5   0  0.3907270E-04  0.1406532E+04  0.7818609E-02  0.8949104E-01
       -1   -1    0    0    0  501  0.00000000000E+00  0.00000000000E+00  0.24862225916E+03  0.24862225921E+03  0.50400001928E-02 0.  1.
        1   -1    0    0  501    0  0.00000000000E+00  0.00000000000E+00 -0.19892954401E+04  0.19892954401E+04  0.50400001928E-02 0. -1.
    10030    2    1    2    0    0  0.00000000000E+00  0.00000000000E+00 -0.17406731809E+04  0.22379176993E+04  0.14065320850E+04 0.  0.
        3    1    3    3  502    0 -0.56859942719E+03  0.41342928225E+03 -0.90027428522E+03  0.11422446668E+04  0.10100000352E+00 0. -1.
       -3    1    3    3    0  502  0.56859942719E+03 -0.41342928225E+03 -0.84039889568E+03  0.10956730325E+04  0.10100000352E+00 0.  1.
</event>
<event>
 5   0  0.6870835E-04  0.1384249E+04  0.7818609E-02  0.8965300E-01
        2   -1    0    0  501    0  0.00000000000E+00  0.00000000000E+00  0.75229957023E+03  0.75229957023E+03  0.25500000920E-02 0. -1.
       -2   -1    0    0    0  501  0.00000000000E+00  0.00000000000E+00 -0.63676241061E+03  0.63676241062E+03  0.25500000920E-02 0.  1.
    10030    2    1    2    0    0  0.00000000000E+00  0.00000000000E+00  0.11553715962E+03  0.13890619809E+04  0.13842486595E+04 0.  0.
        2    1    3    3  502    0 -0.10257181746E+03 -0.41116325718E+03  0.60690069122E+03  0.74020581652E+03  0.25500000920E-02 0. -1.
       -2    1    3    3    0  502  0.10257181746E+03  0.41116325718E+03 -0.49136353161E+03  0.64885616433E+03  0.25500000920E-02 0.  1.
</event>
<event>
 5   0  0.3977658E-04  0.1392448E+04  0.7818609E-02  0.8959303E-01
       -1   -1    0    0    0  501  0.00000000000E+00  0.00000000000E+00  0.43103309951E+03  0.43103309954E+03  0.50400001928E-02 0.  1.
        1   -1    0    0  501    0  0.00000000000E+00  0.00000000000E+00 -0.11245726929E+04  0.11245726929E+04  0.50400001928E-02 0. -1.
    10030    2    1    2    0    0  0.00000000000E+00  0.00000000000E+00 -0.69353959338E+03  0.15556057924E+04  0.13924482805E+04 0.  0.
        5    1    3    3  502    0  0.41869302409E+03  0.24585426677E+02  0.27403846389E+03  0.50102640780E+03  0.46999998093E+01 0.  1.
       -5    1    3    3    0  502 -0.41869302409E+03 -0.24585426677E+02 -0.96757805726E+03  0.10545793846E+04  0.46999998093E+01 0. -1.
</event>
<event>
 5   0  0.3756664E-04  0.1373368E+04  0.7818609E-02  0.8973325E-01
        1   -1    0    0  501    0  0.00000000000E+00  0.00000000000E+00  0.46442393894E+03  0.46442393897E+03  0.50400001928E-02 0. -1.
       -1   -1    0    0    0  501  0.00000000000E+00  0.00000000000E+00 -0.10153111908E+04  0.10153111908E+04  0.50400001928E-02 0.  1.
    10030    2    1    2    0    0  0.00000000000E+00  0.00000000000E+00 -0.55088725182E+03  0.14797351297E+04  0.13733678640E+04 0.  0.
        2    1    3    3  502    0  0.32269069490E+03 -0.23544176738E+02  0.37714887830E+03  0.49691537432E+03  0.25500000920E-02 0. -1.
       -2    1    3    3    0  502 -0.32269069490E+03  0.23544176738E+02 -0.92803613012E+03  0.98281975542E+03  0.25500000920E-02 0.  1.
</event>
<event>
 5   0  0.3907270E-04  0.1429654E+04  0.7818609E-02  0.8932628E-01
        1   -1    0    0  501    0  0.00000000000E+00  0.00000000000E+00  0.42739971936E+03  0.42739971939E+03  0.50400001928E-02 0.  1.
       -1   -1    0    0    0  501  0.00000000000E+00  0.00000000000E+00 -0.11955505658E+04  0.11955505658E+04  0.50400001928E-02 0. -1.
    10030    2    1    2    0    0  0.00000000000E+00  0.00000000000E+00 -0.76815084640E+03  0.16229502852E+04  0.14296544706E+04 0.  0.
        3    1    3    3  502    0 -0.25258062534E+03  0.20458148567E+03 -0.11068071441E+04  0.11535478408E+04  0.10100000352E+00 0. -1.
       -3    1    3    3    0  502  0.25258062534E+03 -0.20458148567E+03  0.33865629772E+03  0.46940244435E+03  0.10100000352E+00 0.  1.
</event>
<event>
 5   0  0.7065539E-04  0.1397589E+04  0.7818609E-02  0.8955565E-01
       -2   -1    0    0    0  501  0.00000000000E+00  0.00000000000E+00  0.80148575901E+03  0.80148575902E+03  0.25500000920E-02 0.  1.
        2   -1    0    0  501    0  0.00000000000E+00  0.00000000000E+00 -0.60926104471E+03  0.60926104472E+03  0.25500000920E-02 0. -1.
    10030    2    1    2    0    0  0.00000000000E+00  0.00000000000E+00  0.19222471430E+03  0.14107468037E+04  0.13975894259E+04 0.  0.
        1    1    3    3  502    0 -0.29256712595E+03 -0.66844407584E+02 -0.54089955459E+03  0.61857580473E+03  0.50400001928E-02 0. -1.
       -1    1    3    3    0  502  0.29256712595E+03  0.66844407584E+02  0.73312426889E+03  0.79217099901E+03  0.50400001928E-02 0.  1.
</event>
<event>
 5   0  0.6870835E-04  0.1391212E+04  0.7818609E-02  0.8960204E-01
        2   -1    0    0  501    0  0.00000000000E+00  0.00000000000E+00  0.77268906790E+03  0.77268906790E+03  0.25500000920E-02 0.  1.
       -2   -1    0    0    0  501  0.00000000000E+00  0.00000000000E+00 -0.62621288148E+03  0.62621288149E+03  0.25500000920E-02 0. -1.
    10030    2    1    2    0    0  0.00000000000E+00  0.00000000000E+00  0.14647618642E+03  0.13989019494E+04  0.13912122019E+04 0.  0.
        2    1    3    3  502    0  0.84267660560E+02 -0.52118614692E+03 -0.38218012794E+03  0.65176505626E+03  0.25500000920E-02 0. -1.
       -2    1    3    3    0  502 -0.84267660560E+02  0.52118614692E+03  0.52865631436E+03  0.74713689313E+03  0.25500000920E-02 0.  1.
</event>
<event>
 5   0  0.3907270E-04  0.1408611E+04  0.7818609E-02  0.8947609E-01
        1   -1    0    0  501    0  0.00000000000E+00  0.00000000000E+00  0.54566923765E+03  0.54566923768E+03  0.50400001928E-02 0. -1.
       -1   -1    0    0    0  501  0.00000000000E+00  0.00000000000E+00 -0.90906076587E+03  0.90906076588E+03  0.50400001928E-02 0.  1.
    10030    2    1    2    0    0  0.00000000000E+00  0.00000000000E+00 -0.36339152821E+03  0.14547300036E+04  0.14086113660E+04 0.  0.
        3    1    3    3  502    0  0.21959725338E+03 -0.12204886144E+03 -0.86121045121E+03  0.89710775816E+03  0.10100000352E+00 0.  1.
       -3    1    3    3    0  502 -0.21959725338E+03  0.12204886144E+03  0.49781892300E+03  0.55762224540E+03  0.10100000352E+00 0. -1.
</event>
<event>
 5   0  0.7065539E-04  0.1399801E+04  0.7818609E-02  0.8953963E-01
        2   -1    0    0  501    0  0.00000000000E+00  0.00000000000E+00  0.68067089805E+03  0.68067089806E+03  0.25500000920E-02 0.  1.
       -2   -1    0    0    0  501  0.00000000000E+00  0.00000000000E+00 -0.71967311741E+03  0.71967311742E+03  0.25500000920E-02 0. -1.
    10030    2    1    2    0    0  0.00000000000E+00  0.00000000000E+00 -0.39002219359E+02  0.14003440155E+04  0.13998007675E+04 0.  0.
        1    1    3    3  502    0 -0.57492535782E+02  0.57986092816E+03  0.36835602197E+03  0.68936945582E+03  0.50400001928E-02 0.  1.
       -1    1    3    3    0  502  0.57492535782E+02 -0.57986092816E+03 -0.40735824133E+03  0.71097455966E+03  0.50400001928E-02 0. -1.
</event>
<event>
 5   0  0.3784219E-04  0.1401403E+04  0.7818609E-02  0.8952803E-01
        1   -1    0    0  501    0  0.00000000000E+00  0.00000000000E+00  0.10284924096E+04  0.10284924096E+04  0.50400001928E-02 0. -1.
       -1   -1    0    0    0  501  0.00000000000E+00  0.00000000000E+00 -0.47738106744E+03  0.47738106747E+03  0.50400001928E-02 0.  1.
    10030    2    1    2    0    0  0.00000000000E+00  0.00000000000E+00  0.55111134212E+03  0.15058734770E+04  0.14014033029E+04 0.  0.
        1    1    3    3  502    0  0.32679135189E+02 -0.14829935559E+03  0.10105976843E+04  0.10219433959E+04  0.50400001928E-02 0. -1.
       -1    1    3    3    0  502 -0.32679135189E+02  0.14829935559E+03 -0.45948634222E+03  0.48393008117E+03  0.50400001928E-02 0.  1.
</event>
<event>
 5   0  0.3907270E-04  0.1395087E+04  0.7818609E-02  0.8957383E-01
        1   -1    0    0  501    0  0.00000000000E+00  0.00000000000E+00  0.58563361113E+03  0.58563361115E+03  0.50400001928E-02 0.  1.
       -1   -1    0    0    0  501  0.00000000000E+00  0.00000000000E+00 -0.83083837518E+03  0.83083837520E+03  0.50400001928E-02 0. -1.
    10030    2    1    2    0    0  0.00000000000E+00  0.00000000000E+00 -0.24520476405E+03  0.14164719863E+04  0.13950869191E+04 0.  0.
        3    1    3    3  502    0 -0.44020474089E+03 -0.16385781550E+02  0.42653769431E+03  0.61317462652E+03  0.10100000352E+00 0.  1.
       -3    1    3    3    0  502  0.44020474089E+03  0.16385781550E+02 -0.67174245836E+03  0.80329735983E+03  0.10100000352E+00 0. -1.
</event>
<event>
 5   0  0.6895048E-04  0.1406911E+04  0.7818609E-02  0.8948832E-01
        2   -1    0    0  501    0  0.00000000000E+00  0.00000000000E+00  0.11105009307E+04  0.11105009307E+04  0.25500000920E-02 0. -1.
       -2   -1    0    0    0  501  0.00000000000E+00  0.00000000000E+00 -0.44560908739E+03  0.44560908739E+03  0.25500000920E-02 0.  1.
    10030    2    1    2    0    0  0.00000000000E+00  0.00000000000E+00  0.66489184327E+03  0.15561100180E+04  0.14069105249E+04 0.  0.
        4    1    3    3  502    0 -0.47618716683E+03 -0.49990752425E+03  0.18328957776E+03  0.71432375914E+03  0.12699999809E+01 0. -1.
       -4    1    3    3    0  502  0.47618716683E+03  0.49990752425E+03  0.48160226550E+03  0.84178625891E+03  0.12699999809E+01 0.  1.
</event>
<event>
 5   0  0.6959748E-04  0.1428844E+04  0.7818609E-02  0.8933201E-01
        2   -1    0    0  501    0  0.00000000000E+00  0.00000000000E+00  0.81674345316E+03  0.81674345317E+03  0.25500000920E-02 0. -1.
       -2   -1    0    0    0  501  0.00000000000E+00  0.00000000000E+00 -0.62491900073E+03  0.62491900074E+03  0.25500000920E-02 0.  1.
    10030    2    1    2    0    0  0.00000000000E+00  0.00000000000E+00  0.19182445243E+03  0.14416624539E+04  0.14288435920E+04 0.  0.
        5    1    3    3  502    0  0.41144331672E+03 -0.12536156775E+03 -0.47962203057E+03  0.64425189775E+03  0.46999998093E+01 0.  1.
       -5    1    3    3    0  502 -0.41144331672E+03  0.12536156775E+03  0.67144648300E+03  0.79741055616E+03  0.46999998093E+01 0. -1.
</event>
<event>
 5   0  0.2660250E-04  0.1401238E+04  0.7818609E-02  0.8952923E-01
       -3   -1    0    0    0  501  0.00000000000E+00  0.00000000000E+00  0.46359578700E+03  0.46359579801E+03  0.10100000352E+00 0. -1.
        3   -1    0    0  501    0  0.00000000000E+00  0.00000000000E+00 -0.10588248598E+04  0.10588248646E+04  0.10100000352E+00 0.  1.
    10030    2    1    2    0    0  0.00000000000E+00  0.00000000000E+00 -0.59522907283E+03  0.15224206627E+04  0.14012376761E+04 0.  0.
        1    1    3    3  502    0 -0.21177072131E+03  0.22091153814E+03  0.38714380195E+03  0.49348664572E+03  0.50400001928E-02 0. -1.
       -1    1    3    3    0  502  0.21177072131E+03 -0.22091153814E+03 -0.98237287478E+03  0.10289340169E+04  0.50400001928E-02 0.  1.
</event>
<event>
 5   0  0.7065539E-04  0.1389489E+04  0.7818609E-02  0.8961462E-01
       -2   -1    0    0    0  501  0.00000000000E+00  0.00000000000E+00  0.28645012309E+03  0.28645012311E+03  0.25500000920E-02 0. -1.
        2   -1    0    0  501    0  0.00000000000E+00  0.00000000000E+00 -0.16850054574E+04  0.16850054574E+04  0.25500000920E-02 0.  1.
    10030    2    1    2    0    0  0.00000000000E+00  0.00000000000E+00 -0.13985553344E+04  0.19714555806E+04  0.13894891446E+04 0.  0.
        1    1    3    3  502    0  0.21620053841E+02 -0.45596792543E+03  0.43812393858E+02  0.45857791228E+03  0.50400001928E-02 0. -1.
       -1    1    3    3    0  502 -0.21620053841E+02  0.45596792543E+03 -0.14423677282E+04  0.15128776683E+04  0.50400001928E-02 0.  1.
</event>
<event>
 5   0  0.6959748E-04  0.1396808E+04  0.7818609E-02  0.8956132E-01
        2   -1    0    0  501    0  0.00000000000E+00  0.00000000000E+00  0.23600764160E+04  0.23600764160E+04  0.25500000920E-02 0. -1.
       -2   -1    0    0    0  501  0.00000000000E+00  0.00000000000E+00 -0.20667479912E+03  0.20667479913E+03  0.25500000920E-02 0.  1.
    10030    2    1    2    0    0  0.00000000000E+00  0.00000000000E+00  0.21534016169E+04  0.25667512151E+04  0.13968082463E+04 0.  0.
        5    1    3    3  502    0 -0.55049025222E+03  0.42470628022E+03  0.11976367708E+04  0.13848360433E+04  0.46999998093E+01 0.  1.
       -5    1    3    3    0  502  0.55049025222E+03 -0.42470628022E+03  0.95576484611E+03  0.11819151718E+04  0.46999998093E+01 0. -1.
</event>
<event>
 5   0  0.6895048E-04  0.1399518E+04  0.7818609E-02  0.8954167E-01
        2   -1    0    0  501    0  0.00000000000E+00  0.00000000000E+00  0.10470396167E+04  0.10470396167E+04  0.25500000920E-02 0. -1.
       -2   -1    0    0    0  501  0.00000000000E+00  0.00000000000E+00 -0.46766402309E+03  0.46766402310E+03  0.25500000920E-02 0.  1.
    10030    2    1    2    0    0  0.00000000000E+00  0.00000000000E+00  0.57937559357E+03  0.15147036398E+04  0.13995181449E+04 0.  0.
        4    1    3    3  502    0  0.60412346342E+03  0.26429530246E+03  0.54315024171E+03  0.85430144793E+03  0.12699999809E+01 0. -1.
       -4    1    3    3    0  502 -0.60412346342E+03 -0.26429530246E+03  0.36225351853E+02  0.66040219183E+03  0.12699999809E+01 0.  1.
</event>
<event>
 5   0  0.3907270E-04  0.1400625E+04  0.7818609E-02  0.8953366E-01
        1   -1    0    0  501    0  0.00000000000E+00  0.00000000000E+00  0.55312098428E+03  0.55312098430E+03  0.50400001928E-02 0.  1.
       -1   -1    0    0    0  501  0.00000000000E+00  0.00000000000E+00 -0.88667329398E+03  0.88667329399E+03  0.50400001928E-02 0. -1.
    10030    2    1    2    0    0  0.00000000000E+00  0.00000000000E+00 -0.33355230970E+03  0.14397942783E+04  0.14006250107E+04 0.  0.
        3    1    3    3  502    0 -0.64047133466E+03  0.22684074917E+03  0.76067396462E+01  0.67949843906E+03  0.10100000352E+00 0.  1.
       -3    1    3    3    0  502  0.64047133466E+03 -0.22684074917E+03 -0.34115904934E+03  0.76029583923E+03  0.10100000352E+00 0. -1.
</event>
<event>
 5   0  0.3907270E-04  0.1380464E+04  0.7818609E-02  0.8968082E-01
       -1   -1    0    0    0  501  0.00000000000E+00  0.00000000000E+00  0.39533322255E+03  0.39533322259E+03  0.50400001928E-02 0.  1.
        1   -1    0    0  501    0  0.00000000000E+00  0.00000000000E+00 -0.12051105502E+04  0.12051105502E+04  0.50400001928E-02 0. -1.
    10030    2    1    2    0    0  0.00000000000E+00  0.00000000000E+00 -0.80977732761E+03  0.16004437728E+04  0.13804640341E+04 0.  0.
        3    1    3    3  502    0  0.64455020875E+03 -0.58972156724E+02 -0.12689176069E+03  0.65956365576E+03  0.10100000352E+00 0.  1.
       -3    1    3    3    0  502 -0.64455020875E+03  0.58972156724E+02 -0.68288556691E+03  0.94088011700E+03  0.10100000352E+00 0. -1.
</event>
<event>
 5   0  0.7296966E-04  0.1402519E+04  0.7818609E-02  0.8951997E-01
        2   -1    0    0  501    0  0.00000000000E+00  0.00000000000E+00  0.78515689751E+03  0.78515689751E+03  0.25500000920E-02 0. -1.
       -2   -1    0    0    0  501  0.00000000000E+00  0.00000000000E+00 -0.62632654100E+03  0.62632654100E+03  0.25500000920E-02 0.  1.
    10030    2    1    2    0    0  0.00000000000E+00  0.00000000000E+00  0.15883035651E+03  0.14114834385E+04  0.14025185970E+04 0.  0.
        3    1    3    3  502    0  0.60058684735E+03  0.35722553499E+03  0.13852688883E+03  0.71239339778E+03  0.10100000352E+00 0. -1.
       -3    1    3    3    0  502 -0.60058684735E+03 -0.35722553499E+03  0.20303467675E+02  0.69909004074E+03  0.10100000352E+00 0.  1.
</event>
<event>
 5   0  0.6895048E-04  0.1394863E+04  0.7818609E-02  0.8957545E-01
       -2   -1    0    0    0  501  0.00000000000E+00  0.00000000000E+00  0.46805704278E+03  0.46805704279E+03  0.25500000920E-02 0.  1.
        2   -1    0    0  501    0  0.00000000000E+00  0.00000000000E+00 -0.10392125688E+04  0.10392125688E+04  0.25500000920E-02 0. -1.
    10030    2    1    2    0    0  0.00000000000E+00  0.00000000000E+00 -0.57115552604E+03  0.15072696116E+04  0.13948630926E+04 0.  0.
        4    1    3    3  502    0 -0.19797642618E+03 -0.44319134416E+03  0.25557463862E+03  0.54857382518E+03  0.12699999809E+01 0.  1.
       -4    1    3    3    0  502  0.19797642618E+03  0.44319134416E+03 -0.82673016467E+03  0.95869578644E+03  0.12699999809E+01 0. -1.
</event>
<event>
 5   0  0.3756664E-04  0.1390217E+04  0.7818609E-02  0.8960930E-01
       -1   -1    0    0    0  501  0.00000000000E+00  0.00000000000E+00  0.40111667029E+03  0.40111667033E+03  0.50400001928E-02 0. -1.
        1   -1    0    0  501    0  0.00000000000E+00  0.00000000000E+00 -0.12045769957E+04  0.12045769957E+04  0.50400001928E-02 0.  1.
    10030    2    1    2    0    0  0.00000000000E+00  0.00000000000E+00 -0.80346032543E+03  0.16056936661E+04  0.13902171250E+04 0.  0.
        2    1    3    3  502    0  0.40384144272E+03  0.88928994320E+02 -0.10470608920E+04  0.11257587612E+04  0.25500000920E-02 0.  1.
       -2    1    3    3    0  502 -0.40384144272E+03 -0.88928994320E+02  0.24360056654E+03  0.47993490487E+03  0.25500000920E-02 0. -1.
</event>
<event>
 5   0  0.3784219E-04  0.1427995E+04  0.7818609E-02  0.8933800E-01
        1   -1    0    0  501    0  0.00000000000E+00  0.00000000000E+00  0.96502740683E+03  0.96502740684E+03  0.50400001928E-02 0. -1.
       -1   -1    0    0    0  501  0.00000000000E+00  0.00000000000E+00 -0.52826761063E+03  0.52826761066E+03  0.50400001928E-02 0.  1.
    10030    2    1    2    0    0  0.00000000000E+00  0.00000000000E+00  0.43675979620E+03  0.14932950175E+04  0.14279954096E+04 0.  0.
        1    1    3    3  502    0  0.41377414559E+03  0.23369871697E+03  0.77563487523E+03  0.90963376893E+03  0.50400001928E-02 0. -1.
       -1    1    3    3    0  502 -0.41377414559E+03 -0.23369871697E+03 -0.33887507904E+03  0.58366124857E+03  0.50400001928E-02 0.  1.
</event>
<event>
 5   0  0.3756664E-04  0.1398741E+04  0.7818609E-02  0.8954731E-01
       -1   -1    0    0    0  501  0.00000000000E+00  0.00000000000E+00  0.24350564643E+03  0.24350564648E+03  0.50400001928E-02 0. -1.
        1   -1    0    0  501    0  0.00000000000E+00  0.00000000000E+00 -0.20086554118E+04  0.20086554118E+04  0.50400001928E-02 0.  1.
    10030    2    1    2    0    0  0.00000000000E+00  0.00000000000E+00 -0.17651497654E+04  0.22521610583E+04  0.13987407688E+04 0.  0.
        2    1    3    3  502    0  0.10703724896E+03  0.18018624211E+03 -0.19569038654E+04  0.19680947114E+04  0.25500000920E-02 0.  1.
       -2    1    3    3    0  502 -0.10703724896E+03 -0.18018624211E+03  0.19175410009E+03  0.28406634685E+03  0.25500000920E-02 0. -1.
</event>
<event>
 5   0  0.2660250E-04  0.1401947E+04  0.7818609E-02  0.8952410E-01
       -3   -1    0    0    0  501  0.00000000000E+00  0.00000000000E+00  0.92086602371E+03  0.92086602925E+03  0.10100000352E+00 0. -1.
        3   -1    0    0  501    0  0.00000000000E+00  0.00000000000E+00 -0.53358880051E+03  0.53358881007E+03  0.10100000352E+00 0.  1.
    10030    2    1    2    0    0  0.00000000000E+00  0.00000000000E+00  0.38727722320E+03  0.14544548393E+04  0.14019469434E+04 0.  0.
        3    1    3    3  502    0  0.29206997304E+03 -0.15466345231E+03 -0.44768740545E+03  0.55646174696E+03  0.10100000352E+00 0.  1.
       -3    1    3    3    0  502 -0.29206997304E+03  0.15466345231E+03  0.83496462865E+03  0.89799309236E+03  0.10100000352E+00 0. -1.
</event>
<event>
 5   0  0.6895048E-04  0.1391387E+04  0.7818609E-02  0.8960077E-01
        2   -1    0    0  501    0  0.00000000000E+00  0.00000000000E+00  0.19127790427E+04  0.19127790427E+04  0.25500000920E-02 0.  1.
       -2   -1    0    0    0  501  0.00000000000E+00  0.00000000000E+00 -0.25302934462E+03  0.25302934463E+03  0.25500000920E-02 0. -1.
    10030    2    1    2    0    0  0.00000000000E+00  0.00000000000E+00  0.16597496980E+04  0.21658083873E+04  0.13913866861E+04 0.  0.
        4    1    3    3  502    0  0.27314233334E+03  0.31170558662E+03 -0.39892100216E+02  0.41636534384E+03  0.12699999809E+01 0. -1.
       -4    1    3    3    0  502 -0.27314233334E+03 -0.31170558662E+03  0.16996417983E+04  0.17494430435E+04  0.12699999809E+01 0.  1.
</event>
<event>
 5   0  0.6895048E-04  0.1401570E+04  0.7818609E-02  0.8952683E-01
        2   -1    0    0  501    0  0.00000000000E+00  0.00000000000E+00  0.12716229394E+04  0.12716229394E+04  0.25500000920E-02 0. -1.
       -2   -1    0    0    0  501  0.00000000000E+00  0.00000000000E+00 -0.38619888630E+03  0.38619888631E+03  0.25500000920E-02 0.  1.
    10030    2    1    2    0    0  0.00000000000E+00  0.00000000000E+00  0.88542405315E+03  0.16578218258E+04  0.14015696387E+04 0.  0.
        4    1    3    3  502    0  0.53594173983E+03 -0.31819656899E+02  0.97544859579E+03  0.11134395426E+04  0.12699999809E+01 0. -1.
       -4    1    3    3    0  502 -0.53594173983E+03  0.31819656899E+02 -0.90024542638E+02  0.54438228317E+03  0.12699999809E+01 0.  1.
</event>
<event>
 5   0  0.6959748E-04  0.1385958E+04  0.7818609E-02  0.8964046E-01
        2   -1    0    0  501    0  0.00000000000E+00  0.00000000000E+00  0.71657479700E+03  0.71657479701E+03  0.25500000920E-02 0.  1.
       -2   -1    0    0    0  501  0.00000000000E+00  0.00000000000E+00 -0.67015999424E+03  0.67015999425E+03  0.25500000920E-02 0. -1.
    10030    2    1    2    0    0  0.00000000000E+00  0.00000000000E+00  0.46414802760E+02  0.13867347913E+04  0.13859578087E+04 0.  0.
        5    1    3    3  502    0  0.60759408973E+03  0.11697335554E+03 -0.28896803515E+03  0.68291870608E+03  0.46999998093E+01 0.  1.
       -5    1    3    3    0  502 -0.60759408973E+03 -0.11697335554E+03  0.33538283791E+03  0.70381608517E+03  0.46999998093E+01 0. -1.
</event>
<event>
 5   0  0.3907270E-04  0.1403120E+04  0.7818609E-02  0.8951564E-01
       -1   -1    0    0    0  501  0.00000000000E+00  0.00000000000E+00  0.10262903094E+04  0.10262903095E+04  0.50400001928E-02 0. -1.
        1   -1    0    0  501    0  0.00000000000E+00  0.00000000000E+00 -0.47957790355E+03  0.47957790357E+03  0.50400001928E-02 0.  1.
    10030    2    1    2    0    0  0.00000000000E+00  0.00000000000E+00  0.54671240590E+03  0.15058682130E+04  0.14031196030E+04 0.  0.
        3    1    3    3  502    0  0.42479953539E+03  0.45457543579E+03  0.62127548022E+03  0.87924780614E+03  0.10100000352E+00 0. -1.
       -3    1    3    3    0  502 -0.42479953539E+03 -0.45457543579E+03 -0.74563074312E+02  0.62662040689E+03  0.10100000352E+00 0.  1.
</event>
<event>
 5   0  0.3756664E-04  0.1393099E+04  0.7818609E-02  0.8958829E-01
       -1   -1    0    0    0  501  0.00000000000E+00  0.00000000000E+00  0.19631758527E+03  0.19631758533E+03  0.50400001928E-02 0.  1.
        1   -1    0    0  501    0  0.00000000000E+00  0.00000000000E+00 -0.24714085789E+04  0.24714085789E+04  0.50400001928E-02 0. -1.
    10030    2    1    2    0    0  0.00000000000E+00  0.00000000000E+00 -0.22750909936E+04  0.26677261642E+04  0.13930986534E+04 0.  0.
        2    1    3    3  502    0  0.16553862307E+03 -0.36484057536E+03 -0.46406752595E+02  0.40331782486E+03  0.25500000920E-02 0.  1.
       -2    1    3    3    0  502 -0.16553862307E+03  0.36484057536E+03 -0.22286842410E+04  0.22644083394E+04  0.25500000920E-02 0. -1.
</event>
<event>
 5   0  0.7065539E-04  0.1383342E+04  0.7818609E-02  0.8965966E-01
        2   -1    0    0  501    0  0.00000000000E+00  0.00000000000E+00  0.18557641783E+04  0.18557641783E+04  0.25500000920E-02 0. -1.
       -2   -1    0    0    0  501  0.00000000000E+00  0.00000000000E+00 -0.25779598817E+03  0.25779598818E+03  0.25500000920E-02 0.  1.
    10030    2    1    2    0    0  0.00000000000E+00  0.00000000000E+00  0.15979681902E+04  0.21135601665E+04  0.13833416934E+04 0.  0.
        1    1    3    3  502    0 -0.56622145751E+01 -0.27058397812E+03  0.17715048180E+04  0.17920594494E+04  0.50400001928E-02 0. -1.
       -1    1    3    3    0  502  0.56622145751E+01  0.27058397812E+03 -0.17353662784E+03  0.32150071714E+03  0.50400001928E-02 0.  1.
</event>
<event>
 5   0  0.3907093E-04  0.1400089E+04  0.7818609E-02  0.8953754E-01
        1   -1    0    0  501    0  0.00000000000E+00  0.00000000000E+00  0.41354884317E+03  0.41354884320E+03  0.50400001928E-02 0.  1.
       -1   -1    0    0    0  501  0.00000000000E+00  0.00000000000E+00 -0.11850164761E+04  0.11850164761E+04  0.50400001928E-02 0. -1.
    10030    2    1    2    0    0  0.00000000000E+00  0.00000000000E+00 -0.77146763291E+03  0.15985653193E+04  0.14000888441E+04 0.  0.
        4    1    3    3  502    0  0.63250676997E+03  0.24672610635E+03 -0.19089057399E+03  0.70525130964E+03  0.12699999809E+01 0.  1.
       -4    1    3    3    0  502 -0.63250676997E+03 -0.24672610635E+03 -0.58057705892E+03  0.89331400966E+03  0.12699999809E+01 0. -1.
</event>
<event>
 5   0  0.6895048E-04  0.1401302E+04  0.7818609E-02  0.8952877E-01
       -2   -1    0    0    0  501  0.00000000000E+00  0.00000000000E+00  0.70991069567E+03  0.70991069567E+03  0.25500000920E-02 0.  1.
        2   -1    0    0  501    0  0.00000000000E+00  0.00000000000E+00 -0.69151204929E+03  0.69151204929E+03  0.25500000920E-02 0. -1.
    10030    2    1    2    0    0  0.00000000000E+00  0.00000000000E+00  0.18398646382E+02  0.14014227450E+04  0.14013019660E+04 0.  0.
        4    1    3    3  502    0 -0.69324431262E+03  0.85160305414E+02  0.64613777548E+02  0.70143888383E+03  0.12699999809E+01 0. -1.
       -4    1    3    3    0  502  0.69324431262E+03 -0.85160305414E+02 -0.46215131166E+02  0.69998386113E+03  0.12699999809E+01 0.  1.
</event>
<event>
 5   0  0.2660250E-04  0.1386300E+04  0.7818609E-02  0.8963795E-01
       -3   -1    0    0    0  501  0.00000000000E+00  0.00000000000E+00  0.65313438443E+03  0.65313439224E+03  0.10100000352E+00 0.  1.
        3   -1    0    0  501    0  0.00000000000E+00  0.00000000000E+00 -0.73561738476E+03  0.73561739170E+03  0.10100000352E+00 0. -1.
    10030    2    1    2    0    0  0.00000000000E+00  0.00000000000E+00 -0.82483000330E+02  0.13887517839E+04  0.13863001378E+04 0.  0.
        4    1    3    3  502    0 -0.24292112822E+03  0.35862433661E+03 -0.58333925169E+03  0.72657304162E+03  0.12699999809E+01 0. -1.
       -4    1    3    3    0  502  0.24292112822E+03 -0.35862433661E+03  0.50085625136E+03  0.66217874232E+03  0.12699999809E+01 0.  1.
</event>
<event>
 5   0  0.6870835E-04  0.1398939E+04  0.7818609E-02  0.8954587E-01
        2   -1    0    0  501    0  0.00000000000E+00  0.00000000000E+00  0.12948600747E+04  0.12948600747E+04  0.25500000920E-02 0. -1.
       -2   -1    0    0    0  501  0.00000000000E+00  0.00000000000E+00 -0.37784591384E+03  0.37784591385E+03  0.25500000920E-02 0.  1.
    10030    2    1    2    0    0  0.00000000000E+00  0.00000000000E+00  0.91701416090E+03  0.16727059886E+04  0.13989390097E+04 0.  0.
        2    1    3    3  502    0 -0.66214301291E+03 -0.20292797444E+03  0.34108231637E+03  0.77197815960E+03  0.25500000920E-02 0.  1.
       -2    1    3    3    0  502  0.66214301291E+03  0.20292797444E+03  0.57593184453E+03  0.90072782898E+03  0.25500000920E-02 0. -1.
</event>
<event>
 5   0  0.3907093E-04  0.1416606E+04  0.7818609E-02  0.8941885E-01
       -1   -1    0    0    0  501  0.00000000000E+00  0.00000000000E+00  0.66219784933E+03  0.66219784935E+03  0.50400001928E-02 0. -1.
        1   -1    0    0  501    0  0.00000000000E+00  0.00000000000E+00 -0.75761825739E+03  0.75761825740E+03  0.50400001928E-02 0.  1.
    10030    2    1    2    0    0  0.00000000000E+00  0.00000000000E+00 -0.95420408052E+02  0.14198161068E+04  0.14166060577E+04 0.  0.
        4    1    3    3  502    0 -0.35960575559E+02  0.61311615657E+03 -0.40133684476E+03  0.73367394686E+03  0.12699999809E+01 0.  1.
       -4    1    3    3    0  502  0.35960575559E+02 -0.61311615657E+03  0.30591643671E+03  0.68614215990E+03  0.12699999809E+01 0. -1.
</event>
<event>
 5   0  0.6895048E-04  0.1402497E+04  0.7818609E-02  0.8952013E-01
        2   -1    0    0  501    0  0.00000000000E+00  0.00000000000E+00  0.45503060304E+03  0.45503060305E+03  0.25500000920E-02 0. -1.
       -2   -1    0    0    0  501  0.00000000000E+00  0.00000000000E+00 -0.10806951003E+04  0.10806951003E+04  0.25500000920E-02 0.  1.
    10030    2    1    2    0    0  0.00000000000E+00  0.00000000000E+00 -0.62566449725E+03  0.15357257033E+04  0.14024968352E+04 0.  0.
        4    1    3    3  502    0 -0.60827585267E+03 -0.11123412589E+03  0.49303306410E+02  0.62032650486E+03  0.12699999809E+01 0. -1.
       -4    1    3    3    0  502  0.60827585267E+03  0.11123412589E+03 -0.67496780366E+03  0.91539919848E+03  0.12699999809E+01 0.  1.
</event>
<event>
 5   0  0.3907270E-04  0.1401802E+04  0.7818609E-02  0.8952515E-01
        1   -1    0    0  501    0  0.00000000000E+00  0.00000000000E+00  0.59780490833E+03  0.59780490835E+03  0.50400001928E-02 0. -1.
       -1   -1    0    0    0  501  0.00000000000E+00  0.00000000000E+00 -0.82177671709E+03  0.82177671710E+03  0.50400001928E-02 0.  1.
    10030    2    1    2    0    0  0.00000000000E+00  0.00000000000E+00 -0.22397180876E+03  0.14195816254E+04  0.14018019190E+04 0.  0.
        3    1    3    3  502    0  0.61062927908E+03  0.61872039930E+02  0.23078295954E+03  0.65571110286E+03  0.10100000352E+00 0. -1.
       -3    1    3    3    0  502 -0.61062927908E+03 -0.61872039930E+02 -0.45475476830E+03  0.76387052259E+03  0.10100000352E+00 0.  1.
</event>
<event>
 5   0  0.6959748E-04  0.1405729E+04  0.7818609E-02  0.8949682E-01
       -2   -1    0    0    0  501  0.00000000000E+00  0.00000000000E+00  0.53271849206E+03  0.53271849206E+03  0.25500000920E-02 0.  1.
        2   -1    0    0  501    0  0.00000000000E+00  0.00000000000E+00 -0.92735392915E+03  0.92735392915E+03  0.25500000920E-02 0. -1.
    10030    2    1    2    0    0  0.00000000000E+00  0.00000000000E+00 -0.39463543709E+03  0.14600724212E+04  0.14057291158E+04 0.  0.
        5    1    3    3  502    0  0.67773603811E+02  0.62803414950E+03  0.12277845165E+03  0.64351906926E+03  0.46999998093E+01 0.  1.
       -5    1    3    3    0  502 -0.67773603811E+02 -0.62803414950E+03 -0.51741388875E+03  0.81655335195E+03  0.46999998093E+01 0. -1.
</event>
<event>
 5   0  0.6959748E-04  0.1398512E+04  0.7818609E-02  0.8954896E-01
        2   -1    0    0  501    0  0.00000000000E+00  0.00000000000E+00  0.19689326929E+04  0.19689326929E+04  0.25500000920E-02 0. -1.
       -2   -1    0    0    0  501  0.00000000000E+00  0.00000000000E+00 -0.24833713045E+03  0.24833713046E+03  0.25500000920E-02 0.  1.
    10030    2    1    2    0    0  0.00000000000E+00  0.00000000000E+00  0.17205955624E+04  0.22172698233E+04  0.13985122023E+04 0.  0.
        5    1    3    3  502    0 -0.64332041280E+03 -0.18440831274E+03  0.53899713341E+03  0.85930645241E+03  0.46999998093E+01 0.  1.
       -5    1    3    3    0  502  0.64332041280E+03  0.18440831274E+03  0.11815984290E+04  0.13579633709E+04  0.46999998093E+01 0. -1.
</event>
<event>
 5   0  0.7065539E-04  0.1397739E+04  0.7818609E-02  0.8955457E-01
       -2   -1    0    0    0  501  0.00000000000E+00  0.00000000000E+00  0.30733969886E+03  0.30733969887E+03  0.25500000920E-02 0. -1.
        2   -1    0    0  501    0  0.00000000000E+00  0.00000000000E+00 -0.15891809451E+04  0.15891809451E+04  0.25500000920E-02 0.  1.
    10030    2    1    2    0    0  0.00000000000E+00  0.00000000000E+00 -0.12818412462E+04  0.18965206439E+04  0.13977387354E+04 0.  0.
        1    1    3    3  502    0  0.89479789366E+02  0.41893784227E+03 -0.13901457116E+04  0.14546548208E+04  0.50400001928E-02 0.  1.
       -1    1    3    3    0  502 -0.89479789366E+02 -0.41893784227E+03  0.10830446535E+03  0.44186582311E+03  0.50400001928E-02 0. -1.
</event>
<event>
 5   0  0.3756664E-04  0.1407742E+04  0.7818609E-02  0.8948234E-01
       -1   -1    0    0    0  501  0.00000000000E+00  0.00000000000E+00  0.48732788304E+03  0.48732788306E+03  0.50400001928E-02 0.  1.
        1   -1    0    0  501    0  0.00000000000E+00  0.00000000000E+00 -0.10166339867E+04  0.10166339867E+04  0.50400001928E-02 0. -1.
    10030    2    1    2    0    0  0.00000000000E+00  0.00000000000E+00 -0.52930610366E+03  0.15039618698E+04  0.14077415794E+04 0.  0.
        2    1    3    3  502    0 -0.12892681776E+03  0.68517321628E+03 -0.36795560415E+03  0.78833735626E+03  0.25500000920E-02 0.  1.
       -2    1    3    3    0  502  0.12892681776E+03 -0.68517321628E+03 -0.16135049951E+03  0.71562451351E+03  0.25500000920E-02 0. -1.
</event>
<event>
 5   0  0.3907270E-04  0.1462299E+04  0.7818609E-02  0.8909918E-01
       -1   -1    0    0    0  501  0.00000000000E+00  0.00000000000E+00  0.69304633421E+03  0.69304633423E+03  0.50400001928E-02 0. -1.
        1   -1    0    0  501    0  0.00000000000E+00  0.00000000000E+00 -0.77134740631E+03  0.77134740633E+03  0.50400001928E-02 0.  1.
    10030    2    1    2    0    0  0.00000000000E+00  0.00000000000E+00 -0.78301072096E+02  0.14643937406E+04  0.14622988646E+04 0.  0.
        3    1    3    3  502    0  0.34196568992E+03 -0.59462823769E+03 -0.29260639446E+03  0.74574914443E+03  0.10100000352E+00 0. -1.
       -3    1    3    3    0  502 -0.34196568992E+03  0.59462823769E+03  0.21430532237E+03  0.71864459612E+03  0.10100000352E+00 0.  1.
</event>
<event>
 5   0  0.3784219E-04  0.1387590E+04  0.7818609E-02  0.8962851E-01
       -1   -1    0    0    0  501  0.00000000000E+00  0.00000000000E+00  0.55069597133E+03  0.55069597135E+03  0.50400001928E-02 0.  1.
        1   -1    0    0  501    0  0.00000000000E+00  0.00000000000E+00 -0.87407884110E+03  0.87407884112E+03  0.50400001928E-02 0. -1.
    10030    2    1    2    0    0  0.00000000000E+00  0.00000000000E+00 -0.32338286977E+03  0.14247748125E+04  0.13875902802E+04 0.  0.
        1    1    3    3  502    0  0.39053965777E+01 -0.61666586134E+03 -0.48810928179E+03  0.78647486143E+03  0.50400001928E-02 0. -1.
       -1    1    3    3    0  502 -0.39053965777E+01  0.61666586134E+03  0.16472641202E+03  0.63829995104E+03  0.50400001928E-02 0.  1.
</event>
<event>
 5   0  0.6895048E-04  0.1419785E+04  0.7818609E-02  0.8939620E-01
        2   -1    0    0  501    0  0.00000000000E+00  0.00000000000E+00  0.19708128520E+04  0.19708128521E+04  0.25500000920E-02 0. -1.
       -2   -1    0    0    0  501  0.00000000000E+00  0.00000000000E+00 -0.25570531047E+03  0.25570531048E+03  0.25500000920E-02 0.  1.
    10030    2    1    2    0    0  0.00000000000E+00  0.00000000000E+00  0.17151075416E+04  0.22265181625E+04  0.14197849305E+04 0.  0.
        4    1    3    3  502    0 -0.55845834252E+03 -0.32957797522E+03  0.13105687095E+04  0.14622206801E+04  0.12699999809E+01 0. -1.
       -4    1    3    3    0  502  0.55845834252E+03  0.32957797522E+03  0.40453883205E+03  0.76429748241E+03  0.12699999809E+01 0.  1.
</event>
<event>
 5   0  0.3977658E-04  0.1404728E+04  0.7818609E-02  0.8950403E-01
        1   -1    0    0  501    0  0.00000000000E+00  0.00000000000E+00  0.11995015628E+04  0.11995015628E+04  0.50400001928E-02 0.  1.
       -1   -1    0    0    0  501  0.00000000000E+00  0.00000000000E+00 -0.41126689881E+03  0.41126689884E+03  0.50400001928E-02 0. -1.
    10030    2    1    2    0    0  0.00000000000E+00  0.00000000000E+00  0.78823466399E+03  0.16107684617E+04  0.14047281415E+04 0.  0.
        5    1    3    3  502    0 -0.52852671362E+03 -0.41517948897E+03  0.16030021423E+03  0.69096508143E+03  0.46999998093E+01 0.  1.
       -5    1    3    3    0  502  0.52852671362E+03  0.41517948897E+03  0.62793444976E+03  0.91980338022E+03  0.46999998093E+01 0. -1.
</event>
<event>
 5   0  0.3907093E-04  0.1343955E+04  0.7818609E-02  0.8995417E-01
       -1   -1    0    0    0  501  0.00000000000E+00  0.00000000000E+00  0.23260723484E+03  0.23260723490E+03  0.50400001928E-02 0.  1.
        1   -1    0    0  501    0  0.00000000000E+00  0.00000000000E+00 -0.19412711425E+04  0.19412711425E+04  0.50400001928E-02 0. -1.
    10030    2    1    2    0    0  0.00000000000E+00  0.00000000000E+00 -0.17086639076E+04  0.21738783774E+04  0.13439549287E+04 0.  0.
        4    1    3    3  502    0 -0.55756329588E+03 -0.25024758525E+03 -0.40243341809E+03  0.73174787443E+03  0.12699999809E+01 0.  1.
       -4    1    3    3    0  502  0.55756329588E+03  0.25024758525E+03 -0.13062304895E+04  0.14421305030E+04  0.12699999809E+01 0. -1.
</event>
<event>
 5   0  0.3756664E-04  0.1395001E+04  0.7818609E-02  0.8957445E-01
        1   -1    0    0  501    0  0.00000000000E+00  0.00000000000E+00  0.91734167540E+03  0.91734167541E+03  0.50400001928E-02 0. -1.
       -1   -1    0    0    0  501  0.00000000000E+00  0.00000000000E+00 -0.53034430832E+03  0.53034430834E+03  0.50400001928E-02 0.  1.
    10030    2    1    2    0    0  0.00000000000E+00  0.00000000000E+00  0.38699736708E+03  0.14476859838E+04  0.13950009840E+04 0.  0.
        2    1    3    3  502    0 -0.37713400488E+03 -0.83038750895E+02 -0.40928356251E+03  0.56270642997E+03  0.25500000920E-02 0.  1.
       -2    1    3    3    0  502  0.37713400488E+03  0.83038750895E+02  0.79628092959E+03  0.88497955378E+03  0.25500000920E-02 0. -1.
</event>
<event>
 5   0  0.7296966E-04  0.1404151E+04  0.7818609E-02  0.8950819E-01
        2   -1    0    0  501    0  0.00000000000E+00  0.00000000000E+00  0.21754089496E+04  0.21754089496E+04  0.25500000920E-02 0.  1.
       -2   -1    0    0    0  501  0.00000000000E+00  0.00000000000E+00 -0.22658282850E+03  0.22658282851E+03  0.25500000920E-02 0. -1.
    10030    2    1    2    0    0  0.00000000000E+00  0.00000000000E+00  0.19488261211E+04  0.24019917782E+04  0.14041514348E+04 0.  0.
        3    1    3    3  502    0  0.20210902243E+03  0.29826383614E+03 -0.56379437068E+02  0.36467523089E+03  0.10100000352E+00 0. -1.
       -3    1    3    3    0  502 -0.20210902243E+03 -0.29826383614E+03  0.20052055582E+04  0.20373165473E+04  0.10100000352E+00 0.  1.
</event>
<event>
 5   0  0.6895048E-04  0.1394526E+04  0.7818609E-02  0.8957791E-01
        2   -1    0    0  501    0  0.00000000000E+00  0.00000000000E+00  0.81356638740E+03  0.81356638740E+03  0.25500000920E-02 0.  1.
       -2   -1    0    0    0  501  0.00000000000E+00  0.00000000000E+00 -0.59758555349E+03  0.59758555350E+03  0.25500000920E-02 0. -1.
    10030    2    1    2    0    0  0.00000000000E+00  0.00000000000E+00  0.21598083391E+03  0.14111519409E+04  0.13945257544E+04 0.  0.
        4    1    3    3  502    0 -0.10799023202E+03  0.14216522433E+03  0.79004497558E+03  0.80996636816E+03  0.12699999809E+01 0.  1.
       -4    1    3    3    0  502  0.10799023202E+03 -0.14216522433E+03 -0.57406414167E+03  0.60118557274E+03  0.12699999809E+01 0. -1.
</event>
<event>
 5   0  0.7065539E-04  0.1375362E+04  0.7818609E-02  0.8971848E-01
        2   -1    0    0  501    0  0.00000000000E+00  0.00000000000E+00  0.63657954771E+03  0.63657954771E+03  0.25500000920E-02 0. -1.
       -2   -1    0    0    0  501  0.00000000000E+00  0.00000000000E+00 -0.74288511636E+03  0.74288511636E+03  0.25500000920E-02 0.  1.
    10030    2    1    2    0    0  0.00000000000E+00  0.00000000000E+00 -0.10630556865E+03  0.13794646641E+04  0.13753624560E+04 0.  0.
        1    1    3    3  502    0  0.51459772270E+03 -0.66828024162E+02 -0.50575104213E+03  0.72461087327E+03  0.50400001928E-02 0.  1.
       -1    1    3    3    0  502 -0.51459772270E+03  0.66828024162E+02  0.39944547348E+03  0.65485379081E+03  0.50400001928E-02 0. -1.
</event>
<event>
 5   0  0.7296966E-04  0.1410046E+04  0.7818609E-02  0.8946578E-01
       -2   -1    0    0    0  501  0.00000000000E+00  0.00000000000E+00  0.84390421472E+03  0.84390421473E+03  0.25500000920E-02 0. -1.
        2   -1    0    0  501    0  0.00000000000E+00  0.00000000000E+00 -0.58899772287E+03  0.58899772287E+03  0.25500000920E-02 0.  1.
    10030    2    1    2    0    0  0.00000000000E+00  0.00000000000E+00  0.25490649186E+03  0.14329019376E+04  0.14100463266E+04 0.  0.
        3    1    3    3  502    0 -0.19191029357E+03 -0.67409481025E+03  0.49899266927E+02  0.70265448197E+03  0.10100000352E+00 0.  1.
       -3    1    3    3    0  502  0.19191029357E+03  0.67409481025E+03  0.20500722493E+03  0.73024745563E+03  0.10100000352E+00 0. -1.
</event>
<event>
 5   0  0.3977658E-04  0.1420190E+04  0.7818609E-02  0.8939332E-01
       -1   -1    0    0    0  501  0.00000000000E+00  0.00000000000E+00  0.40431443717E+03  0.40431443720E+03  0.50400001928E-02 0.  1.
        1   -1    0    0  501    0  0.00000000000E+00  0.00000000000E+00 -0.12471352040E+04  0.12471352040E+04  0.50400001928E-02 0. -1.
    10030    2    1    2    0    0  0.00000000000E+00  0.00000000000E+00 -0.84282076680E+03  0.16514496412E+04  0.14201898015E+04 0.  0.
        5    1    3    3  502    0 -0.42403715379E+03  0.46986781714E+03 -0.47075373129E+02  0.63468216781E+03  0.46999998093E+01 0.  1.
       -5    1    3    3    0  502  0.42403715379E+03 -0.46986781714E+03 -0.79574539367E+03  0.10167674734E+04  0.46999998093E+01 0. -1.
</event>
<event>
 5   0  0.3907093E-04  0.1315362E+04  0.7818609E-02  0.9017471E-01
        1   -1    0    0  501    0  0.00000000000E+00  0.00000000000E+00  0.80522117166E+03  0.80522117167E+03  0.50400001928E-02 0. -1.
       -1   -1    0    0    0  501  0.00000000000E+00  0.00000000000E+00 -0.53717461713E+03  0.53717461715E+03  0.50400001928E-02 0.  1.
    10030    2    1    2    0    0  0.00000000000E+00  0.00000000000E+00  0.26804655453E+03  0.13423957888E+04  0.13153621169E+04 0.  0.
        4    1    3    3  502    0 -0.10183001425E+03  0.63557535830E+03  0.27176900458E+03  0.69870264965E+03  0.12699999809E+01 0. -1.
       -4    1    3    3    0  502  0.10183001425E+03 -0.63557535830E+03 -0.37224500538E+01  0.64369313917E+03  0.12699999809E+01 0.  1.
</event>
<event>
 5   0  0.3977658E-04  0.1409307E+04  0.7818609E-02  0.8947109E-01
        1   -1    0    0  501    0  0.00000000000E+00  0.00000000000E+00  0.82673175434E+03  0.82673175436E+03  0.50400001928E-02 0.  1.
       -1   -1    0    0    0  501  0.00000000000E+00  0.00000000000E+00 -0.60060168749E+03  0.60060168751E+03  0.50400001928E-02 0. -1.
    10030    2    1    2    0    0  0.00000000000E+00  0.00000000000E+00  0.22613006685E+03  0.14273334419E+04  0.14093069031E+04 0.  0.
        5    1    3    3  502    0  0.24313298348E+01  0.36951128849E+03  0.72071426299E+03  0.80993557926E+03  0.46999998093E+01 0.  1.
       -5    1    3    3    0  502 -0.24313298348E+01 -0.36951128849E+03 -0.49458419614E+03  0.61739786261E+03  0.46999998093E+01 0. -1.
</event>
<event>
 5   0  0.3784219E-04  0.1345857E+04  0.7818609E-02  0.8993970E-01
        1   -1    0    0  501    0  0.00000000000E+00  0.00000000000E+00  0.53322848954E+03  0.53322848956E+03  0.50400001928E-02 0. -1.
       -1   -1    0    0    0  501  0.00000000000E+00  0.00000000000E+00 -0.84922820340E+03  0.84922820342E+03  0.50400001928E-02 0.  1.
    10030    2    1    2    0    0  0.00000000000E+00  0.00000000000E+00 -0.31599971387E+03  0.13824566930E+04  0.13458568604E+04 0.  0.
        1    1    3    3  502    0  0.43894313699E+03  0.86380640782E+02  0.35836332241E+03  0.57319888651E+03  0.50400001928E-02 0. -1.
       -1    1    3    3    0  502 -0.43894313699E+03 -0.86380640782E+02 -0.67436303628E+03  0.80925780647E+03  0.50400001928E-02 0.  1.
</event>
<event>
 5   0  0.6895048E-04  0.1397384E+04  0.7818609E-02  0.8955714E-01
       -2   -1    0    0    0  501  0.00000000000E+00  0.00000000000E+00  0.14052000199E+04  0.14052000199E+04  0.25500000920E-02 0.  1.
        2   -1    0    0  501    0  0.00000000000E+00  0.00000000000E+00 -0.34740284580E+03  0.34740284581E+03  0.25500000920E-02 0. -1.
    10030    2    1    2    0    0  0.00000000000E+00  0.00000000000E+00  0.10577971741E+04  0.17526028657E+04  0.13973839642E+04 0.  0.
        4    1    3    3  502    0 -0.52469865564E+03  0.42370301746E+03  0.75789261630E+03  0.10145125711E+04  0.12699999809E+01 0.  1.
       -4    1    3    3    0  502  0.52469865564E+03 -0.42370301746E+03  0.29990455776E+03  0.73809029454E+03  0.12699999809E+01 0. -1.
</event>
<event>
 5   0  0.7065539E-04  0.1411903E+04  0.7818609E-02  0.8945247E-01
        2   -1    0    0  501    0  0.00000000000E+00  0.00000000000E+00  0.60277245607E+03  0.60277245608E+03  0.25500000920E-02 0. -1.
       -2   -1    0    0    0  501  0.00000000000E+00  0.00000000000E+00 -0.82679265125E+03  0.82679265125E+03  0.25500000920E-02 0.  1.
    10030    2    1    2    0    0  0.00000000000E+00  0.00000000000E+00 -0.22402019517E+03  0.14295651073E+04  0.14119034486E+04 0.  0.
        1    1    3    3  502    0  0.31817308755E+03 -0.79566007788E+02 -0.74497243639E+03  0.81397100332E+03  0.50400001928E-02 0.  1.
       -1    1    3    3    0  502 -0.31817308755E+03  0.79566007788E+02  0.52095224122E+03  0.61559410401E+03  0.50400001928E-02 0. -1.
</event>
<event>
 5   0  0.6870835E-04  0.1393661E+04  0.7818609E-02  0.8958420E-01
       -2   -1    0    0    0  501  0.00000000000E+00  0.00000000000E+00  0.22466715205E+03  0.22466715206E+03  0.25500000920E-02 0. -1.
        2   -1    0    0  501    0  0.00000000000E+00  0.00000000000E+00 -0.21612977905E+04  0.21612977905E+04  0.25500000920E-02 0.  1.
    10030    2    1    2    0    0  0.00000000000E+00  0.00000000000E+00 -0.19366306385E+04  0.23859649426E+04  0.13936608186E+04 0.  0.
        2    1    3    3  502    0  0.35100876756E+03  0.27118783744E+03 -0.48241717474E+02  0.44618074968E+03  0.25500000920E-02 0. -1.
       -2    1    3    3    0  502 -0.35100876756E+03 -0.27118783744E+03 -0.18883889210E+04  0.19397841929E+04  0.25500000920E-02 0.  1.
</event>
<event>
 5   0  0.3907270E-04  0.1419577E+04  0.7818609E-02  0.8939768E-01
        1   -1    0    0  501    0  0.00000000000E+00  0.00000000000E+00  0.96891749965E+03  0.96891749966E+03  0.50400001928E-02 0. -1.
       -1   -1    0    0    0  501  0.00000000000E+00  0.00000000000E+00 -0.51996164548E+03  0.51996164550E+03  0.50400001928E-02 0.  1.
    10030    2    1    2    0    0  0.00000000000E+00  0.00000000000E+00  0.44895585417E+03  0.14888791452E+04  0.14195773138E+04 0.  0.
        3    1    3    3  502    0  0.52594955931E+03  0.19632316159E+03 -0.23104539701E+03  0.60708130295E+03  0.10100000352E+00 0. -1.
       -3    1    3    3    0  502 -0.52594955931E+03 -0.19632316159E+03  0.68000125119E+03  0.88179784221E+03  0.10100000352E+00 0.  1.
</event>
<event>
 5   0  0.7296966E-04  0.1403323E+04  0.7818609E-02  0.8951416E-01
        2   -1    0    0  501    0  0.00000000000E+00  0.00000000000E+00  0.11120356924E+04  0.11120356924E+04  0.25500000920E-02 0.  1.
       -2   -1    0    0    0  501  0.00000000000E+00  0.00000000000E+00 -0.44272783420E+03  0.44272783421E+03  0.25500000920E-02 0. -1.
    10030    2    1    2    0    0  0.00000000000E+00  0.00000000000E+00  0.66930785820E+03  0.15547635266E+04  0.14033234177E+04 0.  0.
        3    1    3    3  502    0  0.76035124520E+02  0.32689411701E+03 -0.34803055092E+03  0.48349392807E+03  0.10100000352E+00 0. -1.
       -3    1    3    3    0  502 -0.76035124520E+02 -0.32689411701E+03  0.10173384091E+04  0.10712695986E+04  0.10100000352E+00 0.  1.
</event>
<event>
 5   0  0.6959748E-04  0.1401380E+04  0.7818609E-02  0.8952820E-01
        2   -1    0    0  501    0  0.00000000000E+00  0.00000000000E+00  0.13072325066E+04  0.13072325066E+04  0.25500000920E-02 0. -1.
       -2   -1    0    0    0  501  0.00000000000E+00  0.00000000000E+00 -0.37557705811E+03  0.37557705811E+03  0.25500000920E-02 0.  1.
    10030    2    1    2    0    0  0.00000000000E+00  0.00000000000E+00  0.93165544847E+03  0.16828095647E+04  0.14013800899E+04 0.  0.
        5    1    3    3  502    0 -0.69704139850E+03 -0.67339040462E+02  0.49381467015E+03  0.85689922164E+03  0.46999998093E+01 0.  1.
       -5    1    3    3    0  502  0.69704139850E+03  0.67339040462E+02  0.43784077833E+03  0.82591034305E+03  0.46999998093E+01 0. -1.
</event>
<event>
 5   0  0.7065539E-04  0.1400192E+04  0.7818609E-02  0.8953680E-01
        2   -1    0    0  501    0  0.00000000000E+00  0.00000000000E+00  0.12558018831E+04  0.12558018831E+04  0.25500000920E-02 0.  1.
       -2   -1    0    0    0  501  0.00000000000E+00  0.00000000000E+00 -0.39029587155E+03  0.39029587156E+03  0.25500000920E-02 0. -1.
    10030    2    1    2    0    0  0.00000000000E+00  0.00000000000E+00  0.86550601152E+03  0.16460977546E+04  0.14001918304E+04 0.  0.
        1    1    3    3  502    0 -0.65211084587E+03  0.24459799235E+03  0.51635920640E+03  0.86700839859E+03  0.50400001928E-02 0. -1.
       -1    1    3    3    0  502  0.65211084587E+03 -0.24459799235E+03  0.34914680512E+03  0.77908935605E+03  0.50400001928E-02 0.  1.
</event>
<event>
 5   0  0.3907270E-04  0.1388410E+04  0.7818609E-02  0.8962251E-01
       -1   -1    0    0    0  501  0.00000000000E+00  0.00000000000E+00  0.53076518685E+03  0.53076518688E+03  0.50400001928E-02 0. -1.
        1   -1    0    0  501    0  0.00000000000E+00  0.00000000000E+00 -0.90797302835E+03  0.90797302836E+03  0.50400001928E-02 0.  1.
    10030    2    1    2    0    0  0.00000000000E+00  0.00000000000E+00 -0.37720784150E+03  0.14387382152E+04  0.13884098445E+04 0.  0.
        3    1    3    3  502    0 -0.50866271564E+03 -0.42943627718E+03 -0.39263496539E+03  0.77286188979E+03  0.10100000352E+00 0.  1.
       -3    1    3    3    0  502  0.50866271564E+03  0.42943627718E+03  0.15427123894E+02  0.66587632545E+03  0.10100000352E+00 0. -1.
</event>
<event>
 5   0  0.3907093E-04  0.1401667E+04  0.7818609E-02  0.8952613E-01
       -1   -1    0    0    0  501  0.00000000000E+00  0.00000000000E+00  0.13288911150E+04  0.13288911150E+04  0.50400001928E-02 0.  1.
        1   -1    0    0  501    0  0.00000000000E+00  0.00000000000E+00 -0.36960695054E+03  0.36960695058E+03  0.50400001928E-02 0. -1.
    10030    2    1    2    0    0  0.00000000000E+00  0.00000000000E+00  0.95928416441E+03  0.16984980655E+04  0.14016667117E+04 0.  0.
        4    1    3    3  502    0  0.57639425068E+03  0.39695457160E+03  0.52437127281E+03  0.87451135429E+03  0.12699999809E+01 0. -1.
       -4    1    3    3    0  502 -0.57639425068E+03 -0.39695457160E+03  0.43491289161E+03  0.82398671125E+03  0.12699999809E+01 0.  1.
</event>
<event>
 5   0  0.3907270E-04  0.1396358E+04  0.7818609E-02  0.8956459E-01
        1   -1    0    0  501    0  0.00000000000E+00  0.00000000000E+00  0.79171210197E+03  0.79171210198E+03  0.50400001928E-02 0. -1.
       -1   -1    0    0    0  501  0.00000000000E+00  0.00000000000E+00 -0.61569626989E+03  0.61569626991E+03  0.50400001928E-02 0.  1.
    10030    2    1    2    0    0  0.00000000000E+00  0.00000000000E+00  0.17601583208E+03  0.14074083719E+04  0.13963583896E+04 0.  0.
        3    1    3    3  502    0 -0.39005663458E+03  0.55779594201E+03  0.24471718196E+03  0.72330284145E+03  0.10100000352E+00 0.  1.
       -3    1    3    3    0  502  0.39005663458E+03 -0.55779594201E+03 -0.68701349879E+02  0.68410553044E+03  0.10100000352E+00 0. -1.
</event>
<event>
 5   0  0.6895048E-04  0.1399132E+04  0.7818609E-02  0.8954447E-01
       -2   -1    0    0    0  501  0.00000000000E+00  0.00000000000E+00  0.67442517745E+03  0.67442517746E+03  0.25500000920E-02 0.  1.
        2   -1    0    0  501    0  0.00000000000E+00  0.00000000000E+00 -0.72564353606E+03  0.72564353607E+03  0.25500000920E-02 0. -1.
    10030    2    1    2    0    0  0.00000000000E+00  0.00000000000E+00 -0.51218358614E+02  0.14000687135E+04  0.13991315458E+04 0.  0.
        4    1    3    3  502    0 -0.28656749041E+03  0.45255325671E+03 -0.47587199458E+03  0.71650620712E+03  0.12699999809E+01 0. -1.
       -4    1    3    3    0  502  0.28656749041E+03 -0.45255325671E+03  0.42465363597E+03  0.68356250640E+03  0.12699999809E+01 0.  1.
</event>
<event>
 5   0  0.6959748E-04  0.1404100E+04  0.7818609E-02  0.8950856E-01
       -2   -1    0    0    0  501  0.00000000000E+00  0.00000000000E+00  0.72149849116E+03  0.72149849117E+03  0.25500000920E-02 0. -1.
        2   -1    0    0  501    0  0.00000000000E+00  0.00000000000E+00 -0.68312594140E+03  0.68312594140E+03  0.25500000920E-02 0.  1.
    10030    2    1    2    0    0  0.00000000000E+00  0.00000000000E+00  0.38372549765E+02  0.14046244326E+04  0.14041001902E+04 0.  0.
        5    1    3    3  502    0 -0.10770039094E+03  0.24379155167E+03  0.66890436361E+03  0.72006168662E+03  0.46999998093E+01 0. -1.
       -5    1    3    3    0  502  0.10770039094E+03 -0.24379155167E+03 -0.63053181385E+03  0.68456274595E+03  0.46999998093E+01 0.  1.
</event>
<event>
 5   0  0.6870835E-04  0.1402223E+04  0.7818609E-02  0.8952211E-01
        2   -1    0    0  501    0  0.00000000000E+00  0.00000000000E+00  0.77455340695E+03  0.77455340696E+03  0.25500000920E-02 0.  1.
       -2   -1    0    0    0  501  0.00000000000E+00  0.00000000000E+00 -0.63463287338E+03  0.63463287338E+03  0.25500000920E-02 0. -1.
    10030    2    1    2    0    0  0.00000000000E+00  0.00000000000E+00  0.13992053358E+03  0.14091862803E+04  0.14022225989E+04 0.  0.
        2    1    3    3  502    0 -0.80314798748E+02  0.69625192549E+03  0.51433869092E+02  0.70275362222E+03  0.25500000920E-02 0.  1.
       -2    1    3    3    0  502  0.80314798748E+02 -0.69625192549E+03  0.88486664484E+02  0.70643265811E+03  0.25500000920E-02 0. -1.
</event>
<event>
 5   0  0.7296966E-04  0.1394410E+04  0.7818609E-02  0.8957875E-01
        2   -1    0    0  501    0  0.00000000000E+00  0.00000000000E+00  0.88321062184E+03  0.88321062184E+03  0.25500000920E-02 0. -1.
       -2   -1    0    0    0  501  0.00000000000E+00  0.00000000000E+00 -0.55037217841E+03  0.55037217841E+03  0.25500000920E-02 0.  1.
    10030    2    1    2    0    0  0.00000000000E+00  0.00000000000E+00  0.33283844343E+03  0.14335828003E+04  0.13944096298E+04 0.  0.
        3    1    3    3  502    0  0.67873218753E+03 -0.53966745831E+02  0.12188986390E+02  0.68098338719E+03  0.10100000352E+00 0. -1.
       -3    1    3    3    0  502 -0.67873218753E+03  0.53966745831E+02  0.32064945704E+03  0.75259941306E+03  0.10100000352E+00 0.  1.
</event>
<event>
 5   0  0.6870835E-04  0.1408699E+04  0.7818609E-02  0.8947546E-01
       -2   -1    0    0    0  501  0.00000000000E+00  0.00000000000E+00  0.36935001505E+03  0.36935001506E+03  0.25500000920E-02 0.  1.
        2   -1    0    0  501    0  0.00000000000E+00  0.00000000000E+00 -0.13431922293E+04  0.13431922293E+04  0.25500000920E-02 0. -1.
    10030    2    1    2    0    0  0.00000000000E+00  0.00000000000E+00 -0.97384221426E+03  0.17125422444E+04  0.14086987898E+04 0.  0.
        2    1    3    3  502    0  0.42044657102E+03 -0.49402246622E+03 -0.82046058688E+03  0.10459393342E+04  0.25500000920E-02 0. -1.
       -2    1    3    3    0  502 -0.42044657102E+03  0.49402246622E+03 -0.15338162738E+03  0.66660291016E+03  0.25500000920E-02 0.  1.
</event>
<event>
 5   0  0.7296966E-04  0.1430604E+04  0.7818609E-02  0.8931959E-01
        2   -1    0    0  501    0  0.00000000000E+00  0.00000000000E+00  0.14989061977E+04  0.14989061977E+04  0.25500000920E-02 0. -1.
       -2   -1    0    0    0  501  0.00000000000E+00  0.00000000000E+00 -0.34135333889E+03  0.34135333890E+03  0.25500000920E-02 0.  1.
    10030    2    1    2    0    0  0.00000000000E+00  0.00000000000E+00  0.11575528589E+04  0.18402595366E+04  0.14306035584E+04 0.  0.
        3    1    3    3  502    0  0.68016878148E+03  0.21775917702E+03  0.63035889210E+03  0.95257596733E+03  0.10100000352E+00 0.  1.
       -3    1    3    3    0  502 -0.68016878148E+03 -0.21775917702E+03  0.52719396675E+03  0.88768356932E+03  0.10100000352E+00 0. -1.
</event>
<event>
 5   0  0.7296966E-04  0.1402069E+04  0.7818609E-02  0.8952322E-01
       -2   -1    0    0    0  501  0.00000000000E+00  0.00000000000E+00  0.59742373160E+03  0.59742373161E+03  0.25500000920E-02 0. -1.
        2   -1    0    0  501    0  0.00000000000E+00  0.00000000000E+00 -0.82261425691E+03  0.82261425691E+03  0.25500000920E-02 0.  1.
    10030    2    1    2    0    0  0.00000000000E+00  0.00000000000E+00 -0.22519052531E+03  0.14200379885E+04  0.14020688700E+04 0.  0.
        3    1    3    3  502    0  0.46472657413E+03 -0.27873042889E+03 -0.56302846596E+03  0.78144897746E+03  0.10100000352E+00 0.  1.
       -3    1    3    3    0  502 -0.46472657413E+03  0.27873042889E+03  0.33783794066E+03  0.63858901105E+03  0.10100000352E+00 0. -1.
</event>
<event>
 5   0  0.6895048E-04  0.1386881E+04  0.7818609E-02  0.8963370E-01
       -2   -1    0    0    0  501  0.00000000000E+00  0.00000000000E+00  0.33670291109E+03  0.33670291110E+03  0.25500000920E-02 0.  1.
        2   -1    0    0  501    0  0.00000000000E+00  0.00000000000E+00 -0.14281422397E+04  0.14281422397E+04  0.25500000920E-02 0. -1.
    10030    2    1    2    0    0  0.00000000000E+00  0.00000000000E+00 -0.10914393286E+04  0.17648451508E+04  0.13868808883E+04 0.  0.
        4    1    3    3  502    0 -0.42663278387E+03  0.39681226096E+03 -0.67237974611E+02  0.58651347883E+03  0.12699999809E+01 0.  1.
       -4    1    3    3    0  502  0.42663278387E+03 -0.39681226096E+03 -0.10242013540E+04  0.11783316720E+04  0.12699999809E+01 0. -1.
</event>
<event>
 5   0  0.3907270E-04  0.1527561E+04  0.7818609E-02  0.8866329E-01
       -1   -1    0    0    0  501  0.00000000000E+00  0.00000000000E+00  0.11150587410E+04  0.11150587410E+04  0.50400001928E-02 0.  1.
        1   -1    0    0  501    0  0.00000000000E+00  0.00000000000E+00 -0.52316586297E+03  0.52316586299E+03  0.50400001928E-02 0. -1.
    10030    2    1    2    0    0  0.00000000000E+00  0.00000000000E+00  0.59189287800E+03  0.16382246040E+04  0.15275610214E+04 0.  0.
        3    1    3    3  502    0  0.32792302985E+03  0.68920541581E+03  0.26517943237E+03  0.80799613876E+03  0.10100000352E+00 0.  1.
       -3    1    3    3    0  502 -0.32792302985E+03 -0.68920541581E+03  0.32671344563E+03  0.83022846522E+03  0.10100000352E+00 0. -1.
</event>
<event>
 5   0  0.3756664E-04  0.1322385E+04  0.7818609E-02  0.9012000E-01
       -1   -1    0    0    0  501  0.00000000000E+00  0.00000000000E+00  0.73956760116E+03  0.73956760118E+03  0.50400001928E-02 0. -1.
        1   -1    0    0  501    0  0.00000000000E+00  0.00000000000E+00 -0.59112291038E+03  0.59112291040E+03  0.50400001928E-02 0.  1.
    10030    2    1    2    0    0  0.00000000000E+00  0.00000000000E+00  0.14844469078E+03  0.13306905116E+04  0.13223847441E+04 0.  0.
        2    1    3    3  502    0 -0.24207066703E+03  0.58809192319E+03 -0.10781449505E+03  0.64503820298E+03  0.25500000920E-02 0.  1.
       -2    1    3    3    0  502  0.24207066703E+03 -0.58809192319E+03  0.25625918583E+03  0.68565230860E+03  0.25500000920E-02 0. -1.
</event>
<event>
 5   0  0.3756664E-04  0.1403740E+04  0.7818609E-02  0.8951116E-01
       -1   -1    0    0    0  501  0.00000000000E+00  0.00000000000E+00  0.56194122018E+03  0.56194122020E+03  0.50400001928E-02 0. -1.
        1   -1    0    0  501    0  0.00000000000E+00  0.00000000000E+00 -0.87664285134E+03  0.87664285136E+03  0.50400001928E-02 0.  1.
    10030    2    1    2    0    0  0.00000000000E+00  0.00000000000E+00 -0.31470163117E+03  0.14385840716E+04  0.14037403657E+04 0.  0.
        2    1    3    3  502    0  0.63817883102E+03  0.24102901398E+03  0.11836557669E+02  0.68228096122E+03  0.25500000920E-02 0. -1.
       -2    1    3    3    0  502 -0.63817883102E+03 -0.24102901398E+03 -0.32653818883E+03  0.75630311034E+03  0.25500000920E-02 0.  1.
</event>
<event>
 5   0  0.3907270E-04  0.1408501E+04  0.7818609E-02  0.8947688E-01
       -1   -1    0    0    0  501  0.00000000000E+00  0.00000000000E+00  0.57498564143E+03  0.57498564145E+03  0.50400001928E-02 0. -1.
        1   -1    0    0  501    0  0.00000000000E+00  0.00000000000E+00 -0.86257645109E+03  0.86257645111E+03  0.50400001928E-02 0.  1.
    10030    2    1    2    0    0  0.00000000000E+00  0.00000000000E+00 -0.28759080967E+03  0.14375620926E+04  0.14085014363E+04 0.  0.
        3    1    3    3  502    0 -0.44624713801E+03  0.41745445074E+03 -0.50111051211E+03  0.79026355235E+03  0.10100000352E+00 0. -1.
       -3    1    3    3    0  502  0.44624713801E+03 -0.41745445074E+03  0.21351970244E+03  0.64729854021E+03  0.10100000352E+00 0.  1.
</event>
<event>
 5   0  0.7065539E-04  0.1441593E+04  0.7818609E-02  0.8924249E-01
        2   -1    0    0  501    0  0.00000000000E+00  0.00000000000E+00  0.20057893719E+04  0.20057893719E+04  0.25500000920E-02 0.  1.
       -2   -1    0    0    0  501  0.00000000000E+00  0.00000000000E+00 -0.25902417994E+03  0.25902417996E+03  0.25500000920E-02 0. -1.
    10030    2    1    2    0    0  0.00000000000E+00  0.00000000000E+00  0.17467651919E+04  0.22648135519E+04  0.14415934895E+04 0.  0.
        1    1    3    3  502    0  0.56330785014E+03  0.34897113444E+03  0.42777114844E+03  0.78872348904E+03  0.50400001928E-02 0. -1.
       -1    1    3    3    0  502 -0.56330785014E+03 -0.34897113444E+03  0.13189940435E+04  0.14760900628E+04  0.50400001928E-02 0.  1.
</event>
<event>
 5   0  0.3907270E-04  0.1400903E+04  0.7818609E-02  0.8953165E-01
       -1   -1    0    0    0  501  0.00000000000E+00  0.00000000000E+00  0.33001250570E+03  0.33001250574E+03  0.50400001928E-02 0.  1.
        1   -1    0    0  501    0  0.00000000000E+00  0.00000000000E+00 -0.14867088420E+04  0.14867088420E+04  0.50400001928E-02 0. -1.
    10030    2    1    2    0    0  0.00000000000E+00  0.00000000000E+00 -0.11566963363E+04  0.18167213478E+04  0.14009032947E+04 0.  0.
        3    1    3    3  502    0  0.43626327706E+03  0.28472847372E+03  0.28858653263E+02  0.52175548174E+03  0.10100000352E+00 0.  1.
       -3    1    3    3    0  502 -0.43626327706E+03 -0.28472847372E+03 -0.11855549896E+04  0.12949658660E+04  0.10100000352E+00 0. -1.
</event>
<event>
 5   0  0.7296966E-04  0.1393531E+04  0.7818609E-02  0.8958514E-01
        2   -1    0    0  501    0  0.00000000000E+00  0.00000000000E+00  0.15484098675E+04  0.15484098675E+04  0.25500000920E-02 0.  1.
       -2   -1    0    0    0  501  0.00000000000E+00  0.00000000000E+00 -0.31353595937E+03  0.31353595938E+03  0.25500000920E-02 0. -1.
    10030    2    1    2    0    0  0.00000000000E+00  0.00000000000E+00  0.12348739082E+04  0.18619458269E+04  0.13935310163E+04 0.  0.
        3    1    3    3  502    0 -0.11849595367E+03 -0.63994423259E+03  0.94989641765E+03  0.11514656427E+04  0.10100000352E+00 0.  1.
       -3    1    3    3    0  502  0.11849595367E+03  0.63994423259E+03  0.28497749052E+03  0.71048018422E+03  0.10100000352E+00 0. -1.
</event>
<event>
 5   0  0.3784219E-04  0.1401345E+04  0.7818609E-02  0.8952845E-01
       -1   -1    0    0    0  501  0.00000000000E+00  0.00000000000E+00  0.30740736936E+03  0.30740736941E+03  0.50400001928E-02 0.  1.
        1   -1    0    0  501    0  0.00000000000E+00  0.00000000000E+00 -0.15970410416E+04  0.15970410416E+04  0.50400001928E-02 0. -1.
    10030    2    1    2    0    0  0.00000000000E+00  0.00000000000E+00 -0.12896336723E+04  0.19044484111E+04  0.14013453328E+04 0.  0.
        1    1    3    3  502    0  0.13579834721E+03  0.45674281135E+03  0.53307918851E+02  0.47947567306E+03  0.50400001928E-02 0.  1.
       -1    1    3    3    0  502 -0.13579834721E+03 -0.45674281135E+03 -0.13429415911E+04  0.14249727380E+04  0.50400001928E-02 0. -1.
</event>
<event>
 5   0  0.6895048E-04  0.1397519E+04  0.7818609E-02  0.8955616E-01
        2   -1    0    0  501    0  0.00000000000E+00  0.00000000000E+00  0.16561903425E+04  0.16561903425E+04  0.25500000920E-02 0. -1.
       -2   -1    0    0    0  501  0.00000000000E+00  0.00000000000E+00 -0.29481196495E+03  0.29481196496E+03  0.25500000920E-02 0.  1.
    10030    2    1    2    0    0  0.00000000000E+00  0.00000000000E+00  0.13613783775E+04  0.19510023074E+04  0.13975188431E+04 0.  0.
        4    1    3    3  502    0 -0.35196699920E+03  0.48703571512E+03  0.11785489911E+04  0.13228998048E+04  0.12699999809E+01 0. -1.
       -4    1    3    3    0  502  0.35196699920E+03 -0.48703571512E+03  0.18282938641E+03  0.62810250259E+03  0.12699999809E+01 0.  1.
</event>
<event>
 5   0  0.6895048E-04  0.1377581E+04  0.7818609E-02  0.8970208E-01
       -2   -1    0    0    0  501  0.00000000000E+00  0.00000000000E+00  0.34270608109E+03  0.34270608110E+03  0.25500000920E-02 0. -1.
        2   -1    0    0  501    0  0.00000000000E+00  0.00000000000E+00 -0.13843713743E+04  0.13843713743E+04  0.25500000920E-02 0.  1.
    10030    2    1    2    0    0  0.00000000000E+00  0.00000000000E+00 -0.10416652932E+04  0.17270774554E+04  0.13775811968E+04 0.  0.
        4    1    3    3  502    0 -0.61599888315E+03  0.25231946786E+03 -0.74267477969E+03  0.99734005194E+03  0.12699999809E+01 0. -1.
       -4    1    3    3    0  502  0.61599888315E+03 -0.25231946786E+03 -0.29899051349E+03  0.72973740343E+03  0.12699999809E+01 0.  1.
</event>
<event>
 5   0  0.3977658E-04  0.1393402E+04  0.7818609E-02  0.8958609E-01
        1   -1    0    0  501    0  0.00000000000E+00  0.00000000000E+00  0.77855304562E+03  0.77855304563E+03  0.50400001928E-02 0. -1.
       -1   -1    0    0    0  501  0.00000000000E+00  0.00000000000E+00 -0.62345405661E+03  0.62345405663E+03  0.50400001928E-02 0.  1.
    10030    2    1    2    0    0  0.00000000000E+00  0.00000000000E+00  0.15509898900E+03  0.14020071023E+04  0.13934016716E+04 0.  0.
        5    1    3    3  502    0  0.29075759341E+03  0.34419807949E+03  0.61220455294E+03  0.76015051187E+03  0.46999998093E+01 0. -1.
       -5    1    3    3    0  502 -0.29075759341E+03 -0.34419807949E+03 -0.45710556394E+03  0.64185659040E+03  0.46999998093E+01 0.  1.
</event>
<event>
 5   0  0.3907270E-04  0.1367603E+04  0.7818609E-02  0.8977609E-01
        1   -1    0    0  501    0  0.00000000000E+00  0.00000000000E+00  0.62647992169E+03  0.62647992171E+03  0.50400001928E-02 0. -1.
       -1   -1    0    0    0  501  0.00000000000E+00  0.00000000000E+00 -0.74636813457E+03  0.74636813459E+03  0.50400001928E-02 0.  1.
    10030    2    1    2    0    0  0.00000000000E+00  0.00000000000E+00 -0.11988821289E+03  0.13728480563E+04  0.13676032327E+04 0.  0.
        3    1    3    3  502    0 -0.15558966536E+03 -0.51322857796E+03  0.36591500120E+03  0.64923456124E+03  0.10100000352E+00 0. -1.
       -3    1    3    3    0  502  0.15558966536E+03  0.51322857796E+03 -0.48580321409E+03  0.72361349506E+03  0.10100000352E+00 0.  1.
</event>
<event>
 5   0  0.3756664E-04  0.1395875E+04  0.7818609E-02  0.8956810E-01
        1   -1    0    0  501    0  0.00000000000E+00  0.00000000000E+00  0.15582218726E+04  0.15582218726E+04  0.50400001928E-02 0.  1.
       -1   -1    0    0    0  501  0.00000000000E+00  0.00000000000E+00 -0.31261071249E+03  0.31261071253E+03  0.50400001928E-02 0. -1.
    10030    2    1    2    0    0  0.00000000000E+00  0.00000000000E+00  0.12456111601E+04  0.18708325852E+04  0.13958751375E+04 0.  0.
        2    1    3    3  502    0  0.74480346306E+02  0.68268314896E+03  0.78973761722E+03  0.10465606088E+04  0.25500000920E-02 0.  1.
       -2    1    3    3    0  502 -0.74480346306E+02 -0.68268314896E+03  0.45587354292E+03  0.82427197635E+03  0.25500000920E-02 0. -1.
</event>
<event>
 5   0  0.6895048E-04  0.1292064E+04  0.7818609E-02  0.9035882E-01
        2   -1    0    0  501    0  0.00000000000E+00  0.00000000000E+00  0.59209692241E+03  0.59209692242E+03  0.25500000920E-02 0.  1.
       -2   -1    0    0    0  501  0.00000000000E+00  0.00000000000E+00 -0.70488055844E+03  0.70488055844E+03  0.25500000920E-02 0. -1.
    10030    2    1    2    0    0  0.00000000000E+00  0.00000000000E+00 -0.11278363603E+03  0.12969774809E+04  0.12920644091E+04 0.  0.
        4    1    3    3  502    0 -0.62813148771E+03  0.97694027650E+02 -0.17199355727E+03  0.65854133169E+03  0.12699999809E+01 0. -1.
       -4    1    3    3    0  502  0.62813148771E+03 -0.97694027650E+02  0.59209921243E+02  0.63843614917E+03  0.12699999809E+01 0.  1.
</event>
<event>
 5   0  0.3907270E-04  0.1453092E+04  0.7818609E-02  0.8916260E-01
        1   -1    0    0  501    0  0.00000000000E+00  0.00000000000E+00  0.15181613097E+04  0.15181613097E+04  0.50400001928E-02 0.  1.
       -1   -1    0    0    0  501  0.00000000000E+00  0.00000000000E+00 -0.34770291106E+03  0.34770291110E+03  0.50400001928E-02 0. -1.
    10030    2    1    2    0    0  0.00000000000E+00  0.00000000000E+00  0.11704583987E+04  0.18658642208E+04  0.14530920231E+04 0.  0.
        3    1    3    3  502    0 -0.68862865309E+03 -0.22021665407E+03  0.67750602657E+03  0.99081745182E+03  0.10100000352E+00 0.  1.
       -3    1    3    3    0  502  0.68862865309E+03  0.22021665407E+03  0.49295237209E+03  0.87504676900E+03  0.10100000352E+00 0. -1.
</event>
<event>
 5   0  0.6870835E-04  0.1388628E+04  0.7818609E-02  0.8962092E-01
        2   -1    0    0  501    0  0.00000000000E+00  0.00000000000E+00  0.11579224958E+04  0.11579224958E+04  0.25500000920E-02 0.  1.
       -2   -1    0    0    0  501  0.00000000000E+00  0.00000000000E+00 -0.41632470944E+03  0.41632470945E+03  0.25500000920E-02 0. -1.
    10030    2    1    2    0    0  0.00000000000E+00  0.00000000000E+00  0.74159778632E+03  0.15742472052E+04  0.13886277350E+04 0.  0.
        2    1    3    3  502    0  0.68568189497E+03  0.51641831383E+02  0.47980363985E+03  0.83847365651E+03  0.25500000920E-02 0. -1.
       -2    1    3    3    0  502 -0.68568189497E+03 -0.51641831383E+02  0.26179414647E+03  0.73577354870E+03  0.25500000920E-02 0.  1.
</event>
<event>
 5   0  0.6895048E-04  0.1406905E+04  0.7818609E-02  0.8948836E-01
        2   -1    0    0  501    0  0.00000000000E+00  0.00000000000E+00  0.20435743798E+04  0.20435743798E+04  0.25500000920E-02 0. -1.
       -2   -1    0    0    0  501  0.00000000000E+00  0.00000000000E+00 -0.24214693041E+03  0.24214693042E+03  0.25500000920E-02 0.  1.
    10030    2    1    2    0    0  0.00000000000E+00  0.00000000000E+00  0.18014274494E+04  0.22857213102E+04  0.14069047774E+04 0.  0.
        4    1    3    3  502    0 -0.32166556284E+03  0.51057251337E+03  0.14880418382E+04  0.16057469137E+04  0.12699999809E+01 0. -1.
       -4    1    3    3    0  502  0.32166556284E+03 -0.51057251337E+03  0.31338561118E+03  0.67997439652E+03  0.12699999809E+01 0.  1.
</event>
<event>
 5   0  0.3977658E-04  0.1400554E+04  0.7818609E-02  0.8953418E-01
        1   -1    0    0  501    0  0.00000000000E+00  0.00000000000E+00  0.17180509484E+04  0.17180509484E+04  0.50400001928E-02 0.  1.
       -1   -1    0    0    0  501  0.00000000000E+00  0.00000000000E+00 -0.28543267310E+03  0.28543267314E+03  0.50400001928E-02 0. -1.
    10030    2    1    2    0    0  0.00000000000E+00  0.00000000000E+00  0.14326182753E+04  0.20034836215E+04  0.14005539972E+04 0.  0.
        5    1    3    3  502    0 -0.53155389909E+03  0.58817100288E+02  0.69642477562E+02  0.53933400004E+03  0.46999998093E+01 0. -1.
       -5    1    3    3    0  502  0.53155389909E+03 -0.58817100288E+02  0.13629757977E+04  0.14641496215E+04  0.46999998093E+01 0.  1.
</event>
<event>
 5   0  0.2660250E-04  0.1394017E+04  0.7818609E-02  0.8958161E-01
        4   -1    0    0  501    0  0.00000000000E+00  0.00000000000E+00  0.92935795386E+03  0.92935882161E+03  0.12699999809E+01 0. -1.
       -4   -1    0    0    0  501  0.00000000000E+00  0.00000000000E+00 -0.52274716061E+03  0.52274870332E+03  0.12699999809E+01 0.  1.
    10030    2    1    2    0    0  0.00000000000E+00  0.00000000000E+00  0.40661079325E+03  0.14521075249E+04  0.13940171903E+04 0.  0.
        3    1    3    3  502    0  0.90250136785E+02 -0.43148541480E+03 -0.35909693331E+03  0.56857309828E+03  0.10100000352E+00 0.  1.
       -3    1    3    3    0  502 -0.90250136785E+02  0.43148541480E+03  0.76570772655E+03  0.88353442665E+03  0.10100000352E+00 0. -1.
</event>
<event>
 5   0  0.6870835E-04  0.1405206E+04  0.7818609E-02  0.8950059E-01
        2   -1    0    0  501    0  0.00000000000E+00  0.00000000000E+00  0.82894108473E+03  0.82894108474E+03  0.25500000920E-02 0.  1.
       -2   -1    0    0    0  501  0.00000000000E+00  0.00000000000E+00 -0.59552011368E+03  0.59552011369E+03  0.25500000920E-02 0. -1.
    10030    2    1    2    0    0  0.00000000000E+00  0.00000000000E+00  0.23342097105E+03  0.14244611984E+04  0.14052061614E+04 0.  0.
        2    1    3    3  502    0 -0.46679729767E+03 -0.16325428241E+03 -0.38922708257E+03  0.62932455827E+03  0.25500000920E-02 0. -1.
       -2    1    3    3    0  502  0.46679729767E+03  0.16325428241E+03  0.62264805362E+03  0.79513664015E+03  0.25500000920E-02 0.  1.
</event>
<event>
 5   0  0.7296966E-04  0.1406534E+04  0.7818609E-02  0.8949102E-01
       -2   -1    0    0    0  501  0.00000000000E+00  0.00000000000E+00  0.40845821723E+03  0.40845821724E+03  0.25500000920E-02 0. -1.
        2   -1    0    0  501    0  0.00000000000E+00  0.00000000000E+00 -0.12108576446E+04  0.12108576446E+04  0.25500000920E-02 0.  1.
    10030    2    1    2    0    0  0.00000000000E+00  0.00000000000E+00 -0.80239942742E+03  0.16193158619E+04  0.14065344004E+04 0.  0.
        3    1    3    3  502    0 -0.28326763435E+03  0.37070012788E+03  0.20464701870E+03  0.50945024285E+03  0.10100000352E+00 0. -1.
       -3    1    3    3    0  502  0.28326763435E+03 -0.37070012788E+03 -0.10070464461E+04  0.11098656190E+04  0.10100000352E+00 0.  1.
</event>
<event>
 5   0  0.6959748E-04  0.1405894E+04  0.7818609E-02  0.8949563E-01
       -2   -1    0    0    0  501  0.00000000000E+00  0.00000000000E+00  0.38410560727E+03  0.38410560728E+03  0.25500000920E-02 0. -1.
        2   -1    0    0  501    0  0.00000000000E+00  0.00000000000E+00 -0.12864540599E+04  0.12864540599E+04  0.25500000920E-02 0.  1.
    10030    2    1    2    0    0  0.00000000000E+00  0.00000000000E+00 -0.90234845264E+03  0.16705596672E+04  0.14058936203E+04 0.  0.
        5    1    3    3  502    0 -0.67171454411E+03 -0.40232137034E+02 -0.69263586323E+03  0.96570470780E+03  0.46999998093E+01 0.  1.
       -5    1    3    3    0  502  0.67171454411E+03  0.40232137034E+02 -0.20971258940E+03  0.70485495939E+03  0.46999998093E+01 0. -1.
</event>
<event>
 5   0  0.3756664E-04  0.1397169E+04  0.7818609E-02  0.8955870E-01
       -1   -1    0    0    0  501  0.00000000000E+00  0.00000000000E+00  0.80144791223E+03  0.80144791224E+03  0.50400001928E-02 0.  1.
        1   -1    0    0  501    0  0.00000000000E+00  0.00000000000E+00 -0.60892321379E+03  0.60892321381E+03  0.50400001928E-02 0. -1.
    10030    2    1    2    0    0  0.00000000000E+00  0.00000000000E+00  0.19252469844E+03  0.14103711261E+04  0.13971689066E+04 0.  0.
        2    1    3    3  502    0  0.38736646050E+03 -0.52568074881E+03 -0.15433170577E+03  0.67097786835E+03  0.25500000920E-02 0. -1.
       -2    1    3    3    0  502 -0.38736646050E+03  0.52568074881E+03  0.34685640421E+03  0.73939325771E+03  0.25500000920E-02 0.  1.
</event>
<event>
 5   0  0.6870835E-04  0.1416846E+04  0.7818609E-02  0.8941714E-01
        2   -1    0    0  501    0  0.00000000000E+00  0.00000000000E+00  0.58537029063E+03  0.58537029064E+03  0.25500000920E-02 0.  1.
       -2   -1    0    0    0  501  0.00000000000E+00  0.00000000000E+00 -0.85734364726E+03  0.85734364727E+03  0.25500000920E-02 0. -1.
    10030    2    1    2    0    0  0.00000000000E+00  0.00000000000E+00 -0.27197335663E+03  0.14427139379E+04  0.14168464984E+04 0.  0.
        2    1    3    3  502    0 -0.11679118074E+03  0.69278792508E+03 -0.22857648982E+03  0.73881154616E+03  0.25500000920E-02 0.  1.
       -2    1    3    3    0  502  0.11679118074E+03 -0.69278792508E+03 -0.43396866807E+02  0.70390239174E+03  0.25500000920E-02 0. -1.
</event>
<event>
 5   0  0.3756664E-04  0.1397468E+04  0.7818609E-02  0.8955653E-01
       -1   -1    0    0    0  501  0.00000000000E+00  0.00000000000E+00  0.31897891302E+03  0.31897891306E+03  0.50400001928E-02 0.  1.
        1   -1    0    0  501    0  0.00000000000E+00  0.00000000000E+00 -0.15306011388E+04  0.15306011388E+04  0.50400001928E-02 0. -1.
    10030    2    1    2    0    0  0.00000000000E+00  0.00000000000E+00 -0.12116222258E+04  0.18495800519E+04  0.13974684076E+04 0.  0.
        2    1    3    3  502    0  0.26137730450E+02 -0.87533746265E+02  0.31104109908E+03  0.32417881333E+03  0.25500000920E-02 0.  1.
       -2    1    3    3    0  502 -0.26137730450E+02  0.87533746265E+02 -0.15226633249E+04  0.15254012386E+04  0.25500000920E-02 0. -1.
</event>
<event>
 5   0  0.6959748E-04  0.1414682E+04  0.7818609E-02  0.8943259E-01
        2   -1    0    0  501    0  0.00000000000E+00  0.00000000000E+00  0.87258751824E+03  0.87258751825E+03  0.25500000920E-02 0. -1.
       -2   -1    0    0    0  501  0.00000000000E+00  0.00000000000E+00 -0.57338806086E+03  0.57338806087E+03  0.25500000920E-02 0.  1.
    10030    2    1    2    0    0  0.00000000000E+00  0.00000000000E+00  0.29919945738E+03  0.14459755791E+04  0.14146819643E+04 0.  0.
        5    1    3    3  502    0 -0.17432140597E+01  0.85723329450E+02 -0.56804078024E+03  0.57449451348E+03  0.46999998093E+01 0.  1.
       -5    1    3    3    0  502  0.17432140597E+01 -0.85723329450E+02  0.86724023762E+03  0.87148106563E+03  0.46999998093E+01 0. -1.
</event>
<event>
 5   0  0.3907093E-04  0.1398529E+04  0.7818609E-02  0.8954884E-01
       -1   -1    0    0    0  501  0.00000000000E+00  0.00000000000E+00  0.83531718385E+03  0.83531718387E+03  0.50400001928E-02 0.  1.
        1   -1    0    0  501    0  0.00000000000E+00  0.00000000000E+00 -0.58537120388E+03  0.58537120390E+03  0.50400001928E-02 0. -1.
    10030    2    1    2    0    0  0.00000000000E+00  0.00000000000E+00  0.24994597998E+03  0.14206883878E+04  0.13985286920E+04 0.  0.
        4    1    3    3  502    0  0.38293218099E+03  0.35839199381E+02 -0.46827310889E+03  0.60597262386E+03  0.12699999809E+01 0. -1.
       -4    1    3    3    0  502 -0.38293218099E+03 -0.35839199381E+02  0.71821908887E+03  0.81471576391E+03  0.12699999809E+01 0.  1.
</event>
<event>
 5   0  0.3756664E-04  0.1391827E+04  0.7818609E-02  0.8959756E-01
        1   -1    0    0  501    0  0.00000000000E+00  0.00000000000E+00  0.20126138037E+04  0.20126138037E+04  0.50400001928E-02 0.  1.
       -1   -1    0    0    0  501  0.00000000000E+00  0.00000000000E+00 -0.24063003179E+03  0.24063003184E+03  0.50400001928E-02 0. -1.
    10030    2    1    2    0    0  0.00000000000E+00  0.00000000000E+00  0.17719837719E+04  0.22532438355E+04  0.13918266036E+04 0.  0.
        2    1    3    3  502    0 -0.59199532518E+02  0.58412256011E+03  0.28113495726E+03  0.65095361900E+03  0.25500000920E-02 0. -1.
       -2    1    3    3    0  502  0.59199532518E+02 -0.58412256011E+03  0.14908488146E+04  0.16022902165E+04  0.25500000920E-02 0.  1.
</event>
<event>
 5   0  0.3784219E-04  0.1359110E+04  0.7818609E-02  0.8983960E-01
       -1   -1    0    0    0  501  0.00000000000E+00  0.00000000000E+00  0.83398980103E+03  0.83398980104E+03  0.50400001928E-02 0. -1.
        1   -1    0    0  501    0  0.00000000000E+00  0.00000000000E+00 -0.55371795083E+03  0.55371795086E+03  0.50400001928E-02 0.  1.
    10030    2    1    2    0    0  0.00000000000E+00  0.00000000000E+00  0.28027185019E+03  0.13877077519E+04  0.13591101849E+04 0.  0.
        1    1    3    3  502    0  0.14926512395E+03 -0.47005661133E+03 -0.33720701645E+03  0.59744612063E+03  0.50400001928E-02 0.  1.
       -1    1    3    3    0  502 -0.14926512395E+03  0.47005661133E+03  0.61747886665E+03  0.79026163127E+03  0.50400001928E-02 0. -1.
</event>
<event>
 5   0  0.6959748E-04  0.1362378E+04  0.7818609E-02  0.8981511E-01
       -2   -1    0    0    0  501  0.00000000000E+00  0.00000000000E+00  0.55299118644E+03  0.55299118645E+03  0.25500000920E-02 0. -1.
        2   -1    0    0  501    0  0.00000000000E+00  0.00000000000E+00 -0.83910632835E+03  0.83910632836E+03  0.25500000920E-02 0.  1.
    10030    2    1    2    0    0  0.00000000000E+00  0.00000000000E+00 -0.28611514191E+03  0.13920975148E+04  0.13623779271E+04 0.  0.
        5    1    3    3  502    0 -0.42076757846E+03 -0.44737799275E+03  0.15799452484E+03  0.63417409547E+03  0.46999998093E+01 0.  1.
       -5    1    3    3    0  502  0.42076757846E+03  0.44737799275E+03 -0.44410966675E+03  0.75792341934E+03  0.46999998093E+01 0. -1.
</event>
<event>
 5   0  0.3977658E-04  0.1397812E+04  0.7818609E-02  0.8955404E-01
        1   -1    0    0  501    0  0.00000000000E+00  0.00000000000E+00  0.80357288925E+03  0.80357288927E+03  0.50400001928E-02 0. -1.
       -1   -1    0    0    0  501  0.00000000000E+00  0.00000000000E+00 -0.60787192376E+03  0.60787192378E+03  0.50400001928E-02 0.  1.
    10030    2    1    2    0    0  0.00000000000E+00  0.00000000000E+00  0.19570096550E+03  0.14114448130E+04  0.13978117156E+04 0.  0.
        5    1    3    3  502    0 -0.25319457192E+03 -0.22634043315E+03 -0.51893418408E+03  0.62020340239E+03  0.46999998093E+01 0.  1.
       -5    1    3    3    0  502  0.25319457192E+03  0.22634043315E+03  0.71463514957E+03  0.79124141066E+03  0.46999998093E+01 0. -1.
</event>
<event>
 5   0  0.3907270E-04  0.1395199E+04  0.7818609E-02  0.8957301E-01
        1   -1    0    0  501    0  0.00000000000E+00  0.00000000000E+00  0.19077756962E+04  0.19077756962E+04  0.50400001928E-02 0. -1.
       -1   -1    0    0    0  501  0.00000000000E+00  0.00000000000E+00 -0.25508502635E+03  0.25508502640E+03  0.50400001928E-02 0.  1.
    10030    2    1    2    0    0  0.00000000000E+00  0.00000000000E+00  0.16526906698E+04  0.21628607226E+04  0.13951989303E+04 0.  0.
        3    1    3    3  502    0  0.37418990975E+03  0.34290997314E+03  0.15682494322E+04  0.16483360186E+04  0.10100000352E+00 0. -1.
       -3    1    3    3    0  502 -0.37418990975E+03 -0.34290997314E+03  0.84441237605E+02  0.51452470402E+03  0.10100000352E+00 0.  1.
</event>
<event>
 5   0  0.7065539E-04  0.1408209E+04  0.7818609E-02  0.8947898E-01
       -2   -1    0    0    0  501  0.00000000000E+00  0.00000000000E+00  0.75865267485E+03  0.75865267485E+03  0.25500000920E-02 0. -1.
        2   -1    0    0  501    0  0.00000000000E+00  0.00000000000E+00 -0.65347813645E+03  0.65347813646E+03  0.25500000920E-02 0.  1.
    10030    2    1    2    0    0  0.00000000000E+00  0.00000000000E+00  0.10517453839E+03  0.14121308113E+04  0.14082087007E+04 0.  0.
        1    1    3    3  502    0 -0.45028349309E+03 -0.35327857012E+03 -0.35867932705E+03  0.67543455045E+03  0.50400001928E-02 0.  1.
       -1    1    3    3    0  502  0.45028349309E+03  0.35327857012E+03  0.46385386544E+03  0.73669626086E+03  0.50400001928E-02 0. -1.
</event>
<event>
 5   0  0.3784219E-04  0.1406059E+04  0.7818609E-02  0.8949445E-01
       -1   -1    0    0    0  501  0.00000000000E+00  0.00000000000E+00  0.78627345142E+03  0.78627345144E+03  0.50400001928E-02 0. -1.
        1   -1    0    0  501    0  0.00000000000E+00  0.00000000000E+00 -0.62859827541E+03  0.62859827543E+03  0.50400001928E-02 0.  1.
    10030    2    1    2    0    0  0.00000000000E+00  0.00000000000E+00  0.15767517602E+03  0.14148717269E+04  0.14060585131E+04 0.  0.
        1    1    3    3  502    0  0.21232731613E+03  0.39921546532E+03 -0.46286207141E+03  0.64706813714E+03  0.50400001928E-02 0.  1.
       -1    1    3    3    0  502 -0.21232731613E+03 -0.39921546532E+03  0.62053724743E+03  0.76780358973E+03  0.50400001928E-02 0. -1.
</event>
<event>
 5   0  0.7296966E-04  0.1392883E+04  0.7818609E-02  0.8958987E-01
       -2   -1    0    0    0  501  0.00000000000E+00  0.00000000000E+00  0.41598642275E+03  0.41598642275E+03  0.25500000920E-02 0. -1.
        2   -1    0    0  501    0  0.00000000000E+00  0.00000000000E+00 -0.11659767160E+04  0.11659767160E+04  0.25500000920E-02 0.  1.
    10030    2    1    2    0    0  0.00000000000E+00  0.00000000000E+00 -0.74999029324E+03  0.15819631387E+04  0.13928825982E+04 0.  0.
        3    1    3    3  502    0 -0.35751670955E+03  0.37385587237E+03 -0.90460447174E+03  0.10420631801E+04  0.10100000352E+00 0.  1.
       -3    1    3    3    0  502  0.35751670955E+03 -0.37385587237E+03  0.15461417850E+03  0.53989995860E+03  0.10100000352E+00 0. -1.
</event>
<event>
 5   0  0.3784219E-04  0.1396806E+04  0.7818609E-02  0.8956133E-01
       -1   -1    0    0    0  501  0.00000000000E+00  0.00000000000E+00  0.35356881177E+03  0.35356881181E+03  0.50400001928E-02 0.  1.
        1   -1    0    0  501    0  0.00000000000E+00  0.00000000000E+00 -0.13795534125E+04  0.13795534125E+04  0.50400001928E-02 0. -1.
    10030    2    1    2    0    0  0.00000000000E+00  0.00000000000E+00 -0.10259846007E+04  0.17331222243E+04  0.13968064445E+04 0.  0.
        1    1    3    3  502    0 -0.27358464155E+03  0.59648279250E+03 -0.21643211438E+03  0.69100154703E+03  0.50400001928E-02 0.  1.
       -1    1    3    3    0  502  0.27358464155E+03 -0.59648279250E+03 -0.80955248632E+03  0.10421206773E+04  0.50400001928E-02 0. -1.
</event>
<event>
 5   0  0.3907093E-04  0.1423213E+04  0.7818609E-02  0.8937185E-01
        1   -1    0    0  501    0  0.00000000000E+00  0.00000000000E+00  0.92514062536E+03  0.92514062538E+03  0.50400001928E-02 0. -1.
       -1   -1    0    0    0  501  0.00000000000E+00  0.00000000000E+00 -0.54735869104E+03  0.54735869107E+03  0.50400001928E-02 0.  1.
    10030    2    1    2    0    0  0.00000000000E+00  0.00000000000E+00  0.37778193432E+03  0.14724993164E+04  0.14232129310E+04 0.  0.
        4    1    3    3  502    0 -0.17946733762E+03  0.12409294633E+03 -0.51189417673E+03  0.55645740688E+03  0.12699999809E+01 0.  1.
       -4    1    3    3    0  502  0.17946733762E+03 -0.12409294633E+03  0.88967611105E+03  0.91604190956E+03  0.12699999809E+01 0. -1.
</event>
<event>
 5   0  0.7065539E-04  0.1391298E+04  0.7818609E-02  0.8960141E-01
        2   -1    0    0  501    0  0.00000000000E+00  0.00000000000E+00  0.14526325406E+04  0.14526325406E+04  0.25500000920E-02 0. -1.
       -2   -1    0    0    0  501  0.00000000000E+00  0.00000000000E+00 -0.33313845489E+03  0.33313845490E+03  0.25500000920E-02 0.  1.
    10030    2    1    2    0    0  0.00000000000E+00  0.00000000000E+00  0.11194940857E+04  0.17857709955E+04  0.13912983291E+04 0.  0.
        1    1    3    3  502    0  0.57908598795E+03  0.14282979779E+03  0.10192911496E+04  0.11809722182E+04  0.50400001928E-02 0. -1.
       -1    1    3    3    0  502 -0.57908598795E+03 -0.14282979779E+03  0.10020293614E+03  0.60479877729E+03  0.50400001928E-02 0.  1.
</event>
<event>
 5   0  0.3784219E-04  0.1404170E+04  0.7818609E-02  0.8950805E-01
        1   -1    0    0  501    0  0.00000000000E+00  0.00000000000E+00  0.23593202007E+04  0.23593202007E+04  0.50400001928E-02 0. -1.
       -1   -1    0    0    0  501  0.00000000000E+00  0.00000000000E+00 -0.20892611655E+03  0.20892611661E+03  0.50400001928E-02 0.  1.
    10030    2    1    2    0    0  0.00000000000E+00  0.00000000000E+00  0.21503940841E+04  0.25682463173E+04  0.14041703705E+04 0.  0.
        1    1    3    3  502    0 -0.47075460400E+03  0.45862239864E+03  0.62354107697E+03  0.90595136537E+03  0.50400001928E-02 0.  1.
       -1    1    3    3    0  502  0.47075460400E+03 -0.45862239864E+03  0.15268530071E+04  0.16622949519E+04  0.50400001928E-02 0. -1.
</event>
<event>
 5   0  0.3784219E-04  0.1321223E+04  0.7818609E-02  0.9012903E-01
       -1   -1    0    0    0  501  0.00000000000E+00  0.00000000000E+00  0.14010482602E+04  0.14010482602E+04  0.50400001928E-02 0. -1.
        1   -1    0    0  501    0  0.00000000000E+00  0.00000000000E+00 -0.31148633654E+03  0.31148633658E+03  0.50400001928E-02 0.  1.
    10030    2    1    2    0    0  0.00000000000E+00  0.00000000000E+00  0.10895619237E+04  0.17125345968E+04  0.13212227517E+04 0.  0.
        1    1    3    3  502    0 -0.53273229010E+02 -0.49790100846E+03  0.11032859933E+04  0.12116036622E+04  0.50400001928E-02 0. -1.
       -1    1    3    3    0  502  0.53273229010E+02  0.49790100846E+03 -0.13724069638E+02  0.50093093462E+03  0.50400001928E-02 0.  1.
</event>
<event>
 5   0  0.7296966E-04  0.1401255E+04  0.7818609E-02  0.8952910E-01
        2   -1    0    0  501    0  0.00000000000E+00  0.00000000000E+00  0.54429297108E+03  0.54429297109E+03  0.25500000920E-02 0. -1.
       -2   -1    0    0    0  501  0.00000000000E+00  0.00000000000E+00 -0.90186548919E+03  0.90186548919E+03  0.25500000920E-02 0.  1.
    10030    2    1    2    0    0  0.00000000000E+00  0.00000000000E+00 -0.35757251811E+03  0.14461584603E+04  0.14012552182E+04 0.  0.
        3    1    3    3  502    0  0.33537424126E+02 -0.54285255804E+03 -0.63460138867E+03  0.83578262203E+03  0.10100000352E+00 0.  1.
       -3    1    3    3    0  502 -0.33537424126E+02  0.54285255804E+03  0.27702887056E+03  0.61037583825E+03  0.10100000352E+00 0. -1.
</event>
<event>
 5   0  0.6959748E-04  0.1408787E+04  0.7818609E-02  0.8947482E-01
        2   -1    0    0  501    0  0.00000000000E+00  0.00000000000E+00  0.13064289487E+04  0.13064289487E+04  0.25500000920E-02 0. -1.
       -2   -1    0    0    0  501  0.00000000000E+00  0.00000000000E+00 -0.37979121914E+03  0.37979121915E+03  0.25500000920E-02 0.  1.
    10030    2    1    2    0    0  0.00000000000E+00  0.00000000000E+00  0.92663772958E+03  0.16862201679E+04  0.14087870572E+04 0.  0.
        5    1    3    3  502    0  0.97582895493E+02  0.65174400396E+03  0.76100460703E+03  0.10066989471E+04  0.46999998093E+01 0. -1.
       -5    1    3    3    0  502 -0.97582895493E+02 -0.65174400396E+03  0.16563312255E+03  0.67952122077E+03  0.46999998093E+01 0.  1.
</event>
<event>
 5   0  0.6870835E-04  0.1404874E+04  0.7818609E-02  0.8950298E-01
        2   -1    0    0  501    0  0.00000000000E+00  0.00000000000E+00  0.11842214586E+04  0.11842214586E+04  0.25500000920E-02 0. -1.
       -2   -1    0    0    0  501  0.00000000000E+00  0.00000000000E+00 -0.41666000054E+03  0.41666000054E+03  0.25500000920E-02 0.  1.
    10030    2    1    2    0    0  0.00000000000E+00  0.00000000000E+00  0.76756145808E+03  0.16008814592E+04  0.14048739639E+04 0.  0.
        2    1    3    3  502    0  0.57721052202E+03 -0.36892423157E+03  0.56083083237E+03  0.88532948552E+03  0.25500000920E-02 0.  1.
       -2    1    3    3    0  502 -0.57721052202E+03  0.36892423157E+03  0.20673062570E+03  0.71555197364E+03  0.25500000920E-02 0. -1.
</event>
<event>
 5   0  0.6870835E-04  0.1395993E+04  0.7818609E-02  0.8956724E-01
        2   -1    0    0  501    0  0.00000000000E+00  0.00000000000E+00  0.17960708946E+04  0.17960708946E+04  0.25500000920E-02 0.  1.
       -2   -1    0    0    0  501  0.00000000000E+00  0.00000000000E+00 -0.27125838726E+03  0.27125838727E+03  0.25500000920E-02 0. -1.
    10030    2    1    2    0    0  0.00000000000E+00  0.00000000000E+00  0.15248125074E+04  0.20673292819E+04  0.13959932583E+04 0.  0.
        2    1    3    3  502    0  0.41252170862E+03 -0.24670483397E+03  0.15119268447E+04  0.15864930567E+04  0.25500000920E-02 0.  1.
       -2    1    3    3    0  502 -0.41252170862E+03  0.24670483397E+03  0.12885662697E+02  0.48083622523E+03  0.25500000920E-02 0. -1.
</event>
<event>
 5   0  0.7296966E-04  0.1417774E+04  0.7818609E-02  0.8941052E-01
        2   -1    0    0  501    0  0.00000000000E+00  0.00000000000E+00  0.79867944848E+03  0.79867944849E+03  0.25500000920E-02 0. -1.
       -2   -1    0    0    0  501  0.00000000000E+00  0.00000000000E+00 -0.62918999932E+03  0.62918999933E+03  0.25500000920E-02 0.  1.
    10030    2    1    2    0    0  0.00000000000E+00  0.00000000000E+00  0.16948944916E+03  0.14278694478E+04  0.14177744837E+04 0.  0.
        3    1    3    3  502    0 -0.90063494314E+02  0.41624712011E+02 -0.62216265687E+03  0.63002415150E+03  0.10100000352E+00 0.  1.
       -3    1    3    3    0  502  0.90063494314E+02 -0.41624712011E+02  0.79165210604E+03  0.79784529632E+03  0.10100000352E+00 0. -1.
</event>
<event>
 5   0  0.3756664E-04  0.1414003E+04  0.7818609E-02  0.8943744E-01
       -1   -1    0    0    0  501  0.00000000000E+00  0.00000000000E+00  0.10552628318E+04  0.10552628318E+04  0.50400001928E-02 0. -1.
        1   -1    0    0  501    0  0.00000000000E+00  0.00000000000E+00 -0.47367451563E+03  0.47367451566E+03  0.50400001928E-02 0.  1.
    10030    2    1    2    0    0  0.00000000000E+00  0.00000000000E+00  0.58158831612E+03  0.15289373474E+04  0.14140029855E+04 0.  0.
        2    1    3    3  502    0  0.15848433013E+03 -0.15928360611E+03 -0.43403858855E+03  0.48875151808E+03  0.25500000920E-02 0.  1.
       -2    1    3    3    0  502 -0.15848433013E+03  0.15928360611E+03  0.10156269047E+04  0.10401858293E+04  0.25500000920E-02 0. -1.
</event>
<event>
 5   0  0.7065539E-04  0.1409154E+04  0.7818609E-02  0.8947219E-01
        2   -1    0    0  501    0  0.00000000000E+00  0.00000000000E+00  0.12774613275E+04  0.12774613275E+04  0.25500000920E-02 0.  1.
       -2   -1    0    0    0  501  0.00000000000E+00  0.00000000000E+00 -0.38860542984E+03  0.38860542985E+03  0.25500000920E-02 0. -1.
    10030    2    1    2    0    0  0.00000000000E+00  0.00000000000E+00  0.88885589765E+03  0.16660667573E+04  0.14091535165E+04 0.  0.
        1    1    3    3  502    0 -0.32628794699E+03  0.32019252601E+03 -0.18945445665E+03  0.49485358363E+03  0.50400001928E-02 0. -1.
       -1    1    3    3    0  502  0.32628794699E+03 -0.32019252601E+03  0.10783103543E+04  0.11712131737E+04  0.50400001928E-02 0.  1.
</event>
<event>
 5   0  0.3784219E-04  0.1401988E+04  0.7818609E-02  0.8952381E-01
       -1   -1    0    0    0  501  0.00000000000E+00  0.00000000000E+00  0.68952197810E+03  0.68952197812E+03  0.50400001928E-02 0. -1.
        1   -1    0    0  501    0  0.00000000000E+00  0.00000000000E+00 -0.71265640232E+03  0.71265640233E+03  0.50400001928E-02 0.  1.
    10030    2    1    2    0    0  0.00000000000E+00  0.00000000000E+00 -0.23134424212E+02  0.14021783805E+04  0.14019875210E+04 0.  0.
        1    1    3    3  502    0  0.30033915044E+03  0.36822196973E+03  0.50386808750E+03  0.69258506619E+03  0.50400001928E-02 0. -1.
       -1    1    3    3    0  502 -0.30033915044E+03 -0.36822196973E+03 -0.52700251171E+03  0.70959331427E+03  0.50400001928E-02 0.  1.
</event>
<event>
 5   0  0.3907270E-04  0.1393915E+04  0.7818609E-02  0.8958235E-01
       -1   -1    0    0    0  501  0.00000000000E+00  0.00000000000E+00  0.39266493341E+03  0.39266493345E+03  0.50400001928E-02 0.  1.
        1   -1    0    0  501    0  0.00000000000E+00  0.00000000000E+00 -0.12370598911E+04  0.12370598911E+04  0.50400001928E-02 0. -1.
    10030    2    1    2    0    0  0.00000000000E+00  0.00000000000E+00 -0.84439495769E+03  0.16297248246E+04  0.13939154060E+04 0.  0.
        3    1    3    3  502    0 -0.76664496602E+02  0.67455083088E+03 -0.23787685874E+03  0.71936199413E+03  0.10100000352E+00 0.  1.
       -3    1    3    3    0  502  0.76664496602E+02 -0.67455083088E+03 -0.60651809895E+03  0.91036283043E+03  0.10100000352E+00 0. -1.
</event>
<event>
 5   0  0.3907093E-04  0.1385503E+04  0.7818609E-02  0.8964380E-01
        1   -1    0    0  501    0  0.00000000000E+00  0.00000000000E+00  0.60983025888E+03  0.60983025890E+03  0.50400001928E-02 0.  1.
       -1   -1    0    0    0  501  0.00000000000E+00  0.00000000000E+00 -0.78694742222E+03  0.78694742224E+03  0.50400001928E-02 0. -1.
    10030    2    1    2    0    0  0.00000000000E+00  0.00000000000E+00 -0.17711716334E+03  0.13967776811E+04  0.13855025806E+04 0.  0.
        4    1    3    3  502    0  0.28445404104E+01 -0.18973593375E+03 -0.76023489937E+03  0.78356016431E+03  0.12699999809E+01 0. -1.
       -4    1    3    3    0  502 -0.28445404104E+01  0.18973593375E+03  0.58311773604E+03  0.61321751683E+03  0.12699999809E+01 0.  1.
</event>
<event>
 5   0  0.6895048E-04  0.1390071E+04  0.7818609E-02  0.8961037E-01
        2   -1    0    0  501    0  0.00000000000E+00  0.00000000000E+00  0.12140589838E+04  0.12140589838E+04  0.25500000920E-02 0.  1.
       -2   -1    0    0    0  501  0.00000000000E+00  0.00000000000E+00 -0.39790030218E+03  0.39790030219E+03  0.25500000920E-02 0. -1.
    10030    2    1    2    0    0  0.00000000000E+00  0.00000000000E+00  0.81615868162E+03  0.16119592860E+04  0.13900711299E+04 0.  0.
        4    1    3    3  502    0  0.96866971038E+02  0.65425142281E+03  0.16033019123E+03  0.68054060676E+03  0.12699999809E+01 0. -1.
       -4    1    3    3    0  502 -0.96866971038E+02 -0.65425142281E+03  0.65582849039E+03  0.93141867924E+03  0.12699999809E+01 0.  1.
</event>
<event>
 5   0  0.3907270E-04  0.1408634E+04  0.7818609E-02  0.8947592E-01
       -1   -1    0    0    0  501  0.00000000000E+00  0.00000000000E+00  0.37339275951E+03  0.37339275954E+03  0.50400001928E-02 0. -1.
        1   -1    0    0  501    0  0.00000000000E+00  0.00000000000E+00 -0.13285275002E+04  0.13285275002E+04  0.50400001928E-02 0.  1.
    10030    2    1    2    0    0  0.00000000000E+00  0.00000000000E+00 -0.95513474069E+03  0.17019202598E+04  0.14086341603E+04 0.  0.
        3    1    3    3  502    0 -0.70796295523E+01  0.48738280438E+03 -0.10918191400E+04  0.11956843914E+04  0.10100000352E+00 0.  1.
       -3    1    3    3    0  502  0.70796295523E+01 -0.48738280438E+03  0.13668439934E+03  0.50623586833E+03  0.10100000352E+00 0. -1.
</event>
<event>
 5   0  0.6959748E-04  0.1385440E+04  0.7818609E-02  0.8964426E-01
        2   -1    0    0  501    0  0.00000000000E+00  0.00000000000E+00  0.95618966470E+03  0.95618966471E+03  0.25500000920E-02 0. -1.
       -2   -1    0    0    0  501  0.00000000000E+00  0.00000000000E+00 -0.50184689614E+03  0.50184689615E+03  0.25500000920E-02 0.  1.
    10030    2    1    2    0    0  0.00000000000E+00  0.00000000000E+00  0.45434276856E+03  0.14580365609E+04  0.13854397358E+04 0.  0.
        5    1    3    3  502    0 -0.61617873876E+03  0.59434127877E+02  0.55431385224E+03  0.83096004142E+03  0.46999998093E+01 0.  1.
       -5    1    3    3    0  502  0.61617873876E+03 -0.59434127877E+02 -0.99971083679E+02  0.62707651944E+03  0.46999998093E+01 0. -1.
</event>
<event>
 5   0  0.3907270E-04  0.1399184E+04  0.7818609E-02  0.8954410E-01
        1   -1    0    0  501    0  0.00000000000E+00  0.00000000000E+00  0.72790509576E+03  0.72790509577E+03  0.50400001928E-02 0.  1.
       -1   -1    0    0    0  501  0.00000000000E+00  0.00000000000E+00 -0.67237987962E+03  0.67237987964E+03  0.50400001928E-02 0. -1.
    10030    2    1    2    0    0  0.00000000000E+00  0.00000000000E+00  0.55525216138E+02  0.14002849754E+04  0.13991836773E+04 0.  0.
        3    1    3    3  502    0 -0.69824740566E+03 -0.43181943373E+02  0.23937199779E+02  0.69999079957E+03  0.10100000352E+00 0. -1.
       -3    1    3    3    0  502  0.69824740566E+03  0.43181943373E+02  0.31588016359E+02  0.70029417584E+03  0.10100000352E+00 0.  1.
</event>
<event>
 5   0  0.7065539E-04  0.1397871E+04  0.7818609E-02  0.8955361E-01
       -2   -1    0    0    0  501  0.00000000000E+00  0.00000000000E+00  0.33643520332E+03  0.33643520333E+03  0.25500000920E-02 0. -1.
        2   -1    0    0  501    0  0.00000000000E+00  0.00000000000E+00 -0.14520203987E+04  0.14520203987E+04  0.25500000920E-02 0.  1.
    10030    2    1    2    0    0  0.00000000000E+00  0.00000000000E+00 -0.11155851954E+04  0.17884556021E+04  0.13978709212E+04 0.  0.
        1    1    3    3  502    0  0.22562829183E+03  0.46982239230E+02  0.28642222175E+03  0.36763180768E+03  0.50400001928E-02 0. -1.
       -1    1    3    3    0  502 -0.22562829183E+03 -0.46982239230E+02 -0.14020074172E+04  0.14208237944E+04  0.50400001928E-02 0.  1.
</event>
<event>
 5   0  0.3907270E-04  0.1432940E+04  0.7818609E-02  0.8930314E-01
       -1   -1    0    0    0  501  0.00000000000E+00  0.00000000000E+00  0.68878134934E+03  0.68878134936E+03  0.50400001928E-02 0. -1.
        1   -1    0    0  501    0  0.00000000000E+00  0.00000000000E+00 -0.74527188208E+03  0.74527188210E+03  0.50400001928E-02 0.  1.
    10030    2    1    2    0    0  0.00000000000E+00  0.00000000000E+00 -0.56490532741E+02  0.14340532315E+04  0.14329401559E+04 0.  0.
        3    1    3    3  502    0  0.29658444516E+03  0.54907494712E+03 -0.38048987833E+03  0.73090231110E+03  0.10100000352E+00 0.  1.
       -3    1    3    3    0  502 -0.29658444516E+03 -0.54907494712E+03  0.32399934559E+03  0.70315092036E+03  0.10100000352E+00 0. -1.
</event>
<event>
 5   0  0.6959748E-04  0.1400904E+04  0.7818609E-02  0.8953165E-01
        2   -1    0    0  501    0  0.00000000000E+00  0.00000000000E+00  0.73364229765E+03  0.73364229766E+03  0.25500000920E-02 0. -1.
       -2   -1    0    0    0  501  0.00000000000E+00  0.00000000000E+00 -0.66876293105E+03  0.66876293106E+03  0.25500000920E-02 0.  1.
    10030    2    1    2    0    0  0.00000000000E+00  0.00000000000E+00  0.64879366600E+02  0.14024052287E+04  0.14009036702E+04 0.  0.
        5    1    3    3  502    0  0.10206948756E+03 -0.62640320413E+03 -0.26420803932E+03  0.68747882329E+03  0.46999998093E+01 0.  1.
       -5    1    3    3    0  502 -0.10206948756E+03  0.62640320413E+03  0.32908740592E+03  0.71492640542E+03  0.46999998093E+01 0. -1.
</event>
<event>
 5   0  0.7296966E-04  0.1404829E+04  0.7818609E-02  0.8950330E-01
       -2   -1    0    0    0  501  0.00000000000E+00  0.00000000000E+00  0.73786620728E+03  0.73786620729E+03  0.25500000920E-02 0.  1.
        2   -1    0    0  501    0  0.00000000000E+00  0.00000000000E+00 -0.66866621143E+03  0.66866621143E+03  0.25500000920E-02 0. -1.
    10030    2    1    2    0    0  0.00000000000E+00  0.00000000000E+00  0.69199995857E+02  0.14065324187E+04  0.14048291019E+04 0.  0.
        3    1    3    3  502    0  0.44594151612E+03 -0.28274939791E+03 -0.42918419946E+03  0.68044848820E+03  0.10100000352E+00 0. -1.
       -3    1    3    3    0  502 -0.44594151612E+03  0.28274939791E+03  0.49838419532E+03  0.72608393052E+03  0.10100000352E+00 0.  1.
</event>
<event>
 5   0  0.7296966E-04  0.1399020E+04  0.7818609E-02  0.8954528E-01
       -2   -1    0    0    0  501  0.00000000000E+00  0.00000000000E+00  0.46466915417E+03  0.46466915418E+03  0.25500000920E-02 0.  1.
        2   -1    0    0  501    0  0.00000000000E+00  0.00000000000E+00 -0.10530378438E+04  0.10530378438E+04  0.25500000920E-02 0. -1.
    10030    2    1    2    0    0  0.00000000000E+00  0.00000000000E+00 -0.58836868963E+03  0.15177069980E+04  0.13990199487E+04 0.  0.
        3    1    3    3  502    0 -0.28962734289E+03  0.17520569746E+03  0.36990282852E+03  0.50140716680E+03  0.10100000352E+00 0.  1.
       -3    1    3    3    0  502  0.28962734289E+03 -0.17520569746E+03 -0.95827151815E+03  0.10162998312E+04  0.10100000352E+00 0. -1.
</event>
<event>
 5   0  0.3784219E-04  0.1236260E+04  0.7818609E-02  0.9081697E-01
       -1   -1    0    0    0  501  0.00000000000E+00  0.00000000000E+00  0.40082451559E+03  0.40082451562E+03  0.50400001928E-02 0. -1.
        1   -1    0    0  501    0  0.00000000000E+00  0.00000000000E+00 -0.95324689072E+03  0.95324689074E+03  0.50400001928E-02 0.  1.
    10030    2    1    2    0    0  0.00000000000E+00  0.00000000000E+00 -0.55242237513E+03  0.13540714064E+04  0.12362600426E+04 0.  0.
        1    1    3    3  502    0  0.14185809049E+03  0.29311771447E+02 -0.93439405997E+03  0.94555547543E+03  0.50400001928E-02 0.  1.
       -1    1    3    3    0  502 -0.14185809049E+03 -0.29311771447E+02  0.38197168484E+03  0.40851593093E+03  0.50400001928E-02 0. -1.
</event>
<event>
 5   0  0.3907093E-04  0.1419193E+04  0.7818609E-02  0.8940042E-01
        1   -1    0    0  501    0  0.00000000000E+00  0.00000000000E+00  0.73044216345E+03  0.73044216346E+03  0.50400001928E-02 0.  1.
       -1   -1    0    0    0  501  0.00000000000E+00  0.00000000000E+00 -0.68934548689E+03  0.68934548691E+03  0.50400001928E-02 0. -1.
    10030    2    1    2    0    0  0.00000000000E+00  0.00000000000E+00  0.41096676553E+02  0.14197876504E+04  0.14191927407E+04 0.  0.
        4    1    3    3  502    0  0.12715599645E+03 -0.68230633665E+02  0.71560668108E+03  0.73001274078E+03  0.12699999809E+01 0.  1.
       -4    1    3    3    0  502 -0.12715599645E+03  0.68230633665E+02 -0.67451000452E+03  0.68977490959E+03  0.12699999809E+01 0. -1.
</event>
<event>
 5   0  0.3784219E-04  0.1409466E+04  0.7818609E-02  0.8946995E-01
       -1   -1    0    0    0  501  0.00000000000E+00  0.00000000000E+00  0.40917309994E+03  0.40917309997E+03  0.50400001928E-02 0. -1.
        1   -1    0    0  501    0  0.00000000000E+00  0.00000000000E+00 -0.12137851960E+04  0.12137851960E+04  0.50400001928E-02 0.  1.
    10030    2    1    2    0    0  0.00000000000E+00  0.00000000000E+00 -0.80461209603E+03  0.16229582960E+04  0.14094655034E+04 0.  0.
        1    1    3    3  502    0 -0.45957876324E+03 -0.12136509649E+02 -0.10173340685E+04  0.11163908551E+04  0.50400001928E-02 0.  1.
       -1    1    3    3    0  502  0.45957876324E+03  0.12136509649E+02  0.21272197247E+03  0.50656744081E+03  0.50400001928E-02 0. -1.
</event>
<event>
 5   0  0.3977658E-04  0.1550456E+04  0.7818609E-02  0.8851576E-01
        1   -1    0    0  501    0  0.00000000000E+00  0.00000000000E+00  0.10827759658E+04  0.10827759658E+04  0.50400001928E-02 0. -1.
       -1   -1    0    0    0  501  0.00000000000E+00  0.00000000000E+00 -0.55503493754E+03  0.55503493757E+03  0.50400001928E-02 0.  1.
    10030    2    1    2    0    0  0.00000000000E+00  0.00000000000E+00  0.52774102823E+03  0.16378109034E+04  0.15504560498E+04 0.  0.
        5    1    3    3  502    0 -0.63132950237E+03  0.44657679370E+03  0.20650984064E+03  0.80042249938E+03  0.46999998093E+01 0.  1.
       -5    1    3    3    0  502  0.63132950237E+03 -0.44657679370E+03  0.32123118760E+03  0.83738840398E+03  0.46999998093E+01 0. -1.
</event>
<event>
 5   0  0.3907270E-04  0.1401618E+04  0.7818609E-02  0.8952648E-01
       -1   -1    0    0    0  501  0.00000000000E+00  0.00000000000E+00  0.39508103646E+03  0.39508103649E+03  0.50400001928E-02 0. -1.
        1   -1    0    0  501    0  0.00000000000E+00  0.00000000000E+00 -0.12431201624E+04  0.12431201624E+04  0.50400001928E-02 0.  1.
    10030    2    1    2    0    0  0.00000000000E+00  0.00000000000E+00 -0.84803912592E+03  0.16382011989E+04  0.14016179254E+04 0.  0.
        3    1    3    3  502    0 -0.74184785031E+02 -0.48149266446E+03  0.16479535604E+03  0.51429183139E+03  0.10100000352E+00 0. -1.
       -3    1    3    3    0  502  0.74184785031E+02  0.48149266446E+03 -0.10128344820E+04  0.11239093675E+04  0.10100000352E+00 0.  1.
</event>
<event>
 5   0  0.3907093E-04  0.1398186E+04  0.7818609E-02  0.8955133E-01
       -1   -1    0    0    0  501  0.00000000000E+00  0.00000000000E+00  0.83898252495E+03  0.83898252497E+03  0.50400001928E-02 0.  1.
        1   -1    0    0  501    0  0.00000000000E+00  0.00000000000E+00 -0.58252799883E+03  0.58252799886E+03  0.50400001928E-02 0. -1.
    10030    2    1    2    0    0  0.00000000000E+00  0.00000000000E+00  0.25645452612E+03  0.14215105238E+04  0.13981856977E+04 0.  0.
        4    1    3    3  502    0 -0.15565727074E+03  0.58108934848E+03 -0.23385319948E+03  0.64543237342E+03  0.12699999809E+01 0. -1.
       -4    1    3    3    0  502  0.15565727074E+03 -0.58108934848E+03  0.49030772560E+03  0.77607815041E+03  0.12699999809E+01 0.  1.
</event>
<event>
 5   0  0.3756664E-04  0.1402064E+04  0.7818609E-02  0.8952326E-01
        1   -1    0    0  501    0  0.00000000000E+00  0.00000000000E+00  0.13741476983E+04  0.13741476983E+04  0.50400001928E-02 0.  1.
       -1   -1    0    0    0  501  0.00000000000E+00  0.00000000000E+00 -0.35763689295E+03  0.35763689298E+03  0.50400001928E-02 0. -1.
    10030    2    1    2    0    0  0.00000000000E+00  0.00000000000E+00  0.10165108054E+04  0.17317845913E+04  0.14020640689E+04 0.  0.
        2    1    3    3  502    0 -0.67520863489E+02 -0.40936597426E+03 -0.18970339536E+03  0.45620932268E+03  0.25500000920E-02 0. -1.
       -2    1    3    3    0  502  0.67520863489E+02  0.40936597426E+03  0.12062142007E+04  0.12755752686E+04  0.25500000920E-02 0.  1.
</event>
<event>
 5   0  0.6870835E-04  0.1401265E+04  0.7818609E-02  0.8952903E-01
       -2   -1    0    0    0  501  0.00000000000E+00  0.00000000000E+00  0.54477146498E+03  0.54477146499E+03  0.25500000920E-02 0. -1.
        2   -1    0    0  501    0  0.00000000000E+00  0.00000000000E+00 -0.90108656545E+03  0.90108656546E+03  0.25500000920E-02 0.  1.
    10030    2    1    2    0    0  0.00000000000E+00  0.00000000000E+00 -0.35631510047E+03  0.14458580304E+04  0.14012654971E+04 0.  0.
        2    1    3    3  502    0 -0.66020448945E+03  0.23168871423E+03 -0.14043428964E+03  0.71363255104E+03  0.25500000920E-02 0. -1.
       -2    1    3    3    0  502  0.66020448945E+03 -0.23168871423E+03 -0.21588081083E+03  0.73222547940E+03  0.25500000920E-02 0.  1.
</event>
<event>
 5   0  0.3977658E-04  0.1442300E+04  0.7818609E-02  0.8923756E-01
        1   -1    0    0  501    0  0.00000000000E+00  0.00000000000E+00  0.91140709284E+03  0.91140709285E+03  0.50400001928E-02 0.  1.
       -1   -1    0    0    0  501  0.00000000000E+00  0.00000000000E+00 -0.57060922966E+03  0.57060922968E+03  0.50400001928E-02 0. -1.
    10030    2    1    2    0    0  0.00000000000E+00  0.00000000000E+00  0.34079786318E+03  0.14820163225E+04  0.14422999677E+04 0.  0.
        5    1    3    3  502    0  0.61799972669E+03 -0.52022263682E+02 -0.20770841386E+03  0.65406028261E+03  0.46999998093E+01 0. -1.
       -5    1    3    3    0  502 -0.61799972669E+03  0.52022263682E+02  0.54850627704E+03  0.82795603993E+03  0.46999998093E+01 0.  1.
</event>
<event>
 5   0  0.3907270E-04  0.1403643E+04  0.7818609E-02  0.8951186E-01
       -1   -1    0    0    0  501  0.00000000000E+00  0.00000000000E+00  0.64914265908E+03  0.64914265910E+03  0.50400001928E-02 0. -1.
        1   -1    0    0  501    0  0.00000000000E+00  0.00000000000E+00 -0.75877526832E+03  0.75877526833E+03  0.50400001928E-02 0.  1.
    10030    2    1    2    0    0  0.00000000000E+00  0.00000000000E+00 -0.10963260924E+03  0.14079179274E+04  0.14036429679E+04 0.  0.
        3    1    3    3  502    0  0.11197660984E+03  0.29223428159E+03 -0.68491240368E+03  0.75302366988E+03  0.10100000352E+00 0.  1.
       -3    1    3    3    0  502 -0.11197660984E+03 -0.29223428159E+03  0.57527979444E+03  0.65489425756E+03  0.10100000352E+00 0. -1.
</event>
<event>
 5   0  0.6870835E-04  0.1403887E+04  0.7818609E-02  0.8951010E-01
        2   -1    0    0  501    0  0.00000000000E+00  0.00000000000E+00  0.59861499236E+03  0.59861499237E+03  0.25500000920E-02 0.  1.
       -2   -1    0    0    0  501  0.00000000000E+00  0.00000000000E+00 -0.82310749917E+03  0.82310749917E+03  0.25500000920E-02 0. -1.
    10030    2    1    2    0    0  0.00000000000E+00  0.00000000000E+00 -0.22449250681E+03  0.14217224915E+04  0.14038867324E+04 0.  0.
        2    1    3    3  502    0  0.33182962523E+03 -0.26896038411E+03 -0.67634532796E+03  0.79993349165E+03  0.25500000920E-02 0. -1.
       -2    1    3    3    0  502 -0.33182962523E+03  0.26896038411E+03  0.45185282115E+03  0.62178899989E+03  0.25500000920E-02 0.  1.
</event>
<event>
 5   0  0.3756664E-04  0.1406026E+04  0.7818609E-02  0.8949468E-01
        1   -1    0    0  501    0  0.00000000000E+00  0.00000000000E+00  0.63644202129E+03  0.63644202131E+03  0.50400001928E-02 0.  1.
       -1   -1    0    0    0  501  0.00000000000E+00  0.00000000000E+00 -0.77654669745E+03  0.77654669747E+03  0.50400001928E-02 0. -1.
    10030    2    1    2    0    0  0.00000000000E+00  0.00000000000E+00 -0.14010467616E+03  0.14129887188E+04  0.14060255329E+04 0.  0.
        2    1    3    3  502    0 -0.47567757328E+03  0.36449284340E+03 -0.43943593231E+03  0.74312053210E+03  0.25500000920E-02 0.  1.
       -2    1    3    3    0  502  0.47567757328E+03 -0.36449284340E+03  0.29933125614E+03  0.66986818668E+03  0.25500000920E-02 0. -1.
</event>
<event>
 5   0  0.3977658E-04  0.1397674E+04  0.7818609E-02  0.8955504E-01
       -1   -1    0    0    0  501  0.00000000000E+00  0.00000000000E+00  0.15893250314E+04  0.15893250314E+04  0.50400001928E-02 0.  1.
        1   -1    0    0  501    0  0.00000000000E+00  0.00000000000E+00 -0.30728346749E+03  0.30728346753E+03  0.50400001928E-02 0. -1.
    10030    2    1    2    0    0  0.00000000000E+00  0.00000000000E+00  0.12820415639E+04  0.18966084989E+04  0.13976742205E+04 0.  0.
        5    1    3    3  502    0  0.66054946669E+03  0.59426174884E+02  0.93984542281E+03  0.11502993423E+04  0.46999998093E+01 0.  1.
       -5    1    3    3    0  502 -0.66054946669E+03 -0.59426174884E+02  0.34219614107E+03  0.74630915656E+03  0.46999998093E+01 0. -1.
</event>
<event>
 5   0  0.7065539E-04  0.1364113E+04  0.7818609E-02  0.8980213E-01
       -2   -1    0    0    0  501  0.00000000000E+00  0.00000000000E+00  0.79186489529E+03  0.79186489529E+03  0.25500000920E-02 0. -1.
        2   -1    0    0  501    0  0.00000000000E+00  0.00000000000E+00 -0.58747520423E+03  0.58747520423E+03  0.25500000920E-02 0.  1.
    10030    2    1    2    0    0  0.00000000000E+00  0.00000000000E+00  0.20438969106E+03  0.13793400995E+04  0.13641128855E+04 0.  0.
        1    1    3    3  502    0  0.11656026723E+03  0.53986194983E+03  0.50686687974E+03  0.74963408045E+03  0.50400001928E-02 0. -1.
       -1    1    3    3    0  502 -0.11656026723E+03 -0.53986194983E+03 -0.30247718868E+03  0.62970601908E+03  0.50400001928E-02 0.  1.
</event>
<event>
 5   0  0.6870835E-04  0.1399446E+04  0.7818609E-02  0.8954220E-01
       -2   -1    0    0    0  501  0.00000000000E+00  0.00000000000E+00  0.76492750942E+03  0.76492750942E+03  0.25500000920E-02 0.  1.
        2   -1    0    0  501    0  0.00000000000E+00  0.00000000000E+00 -0.64007649208E+03  0.64007649208E+03  0.25500000920E-02 0. -1.
    10030    2    1    2    0    0  0.00000000000E+00  0.00000000000E+00  0.12485101734E+03  0.14050040015E+04  0.13994457716E+04 0.  0.
        2    1    3    3  502    0  0.21212109435E+03 -0.65347851769E+03 -0.70700481746E+02  0.69067220147E+03  0.25500000920E-02 0. -1.
       -2    1    3    3    0  502 -0.21212109435E+03  0.65347851769E+03  0.19555149909E+03  0.71433180004E+03  0.25500000920E-02 0.  1.
</event>
<event>
 5   0  0.6895048E-04  0.1404025E+04  0.7818609E-02  0.8950910E-01
       -2   -1    0    0    0  501  0.00000000000E+00  0.00000000000E+00  0.52083232943E+03  0.52083232944E+03  0.25500000920E-02 0. -1.
        2   -1    0    0  501    0  0.00000000000E+00  0.00000000000E+00 -0.94621915844E+03  0.94621915844E+03  0.25500000920E-02 0.  1.
    10030    2    1    2    0    0  0.00000000000E+00  0.00000000000E+00 -0.42538682901E+03  0.14670514879E+04  0.14040249691E+04 0.  0.
        4    1    3    3  502    0 -0.63672949692E+03 -0.27304856004E+03 -0.94293294340E+02  0.69919439832E+03  0.12699999809E+01 0.  1.
       -4    1    3    3    0  502  0.63672949692E+03  0.27304856004E+03 -0.33109353467E+03  0.76785708956E+03  0.12699999809E+01 0. -1.
</event>
<event>
 5   0  0.6959748E-04  0.1404512E+04  0.7818609E-02  0.8950559E-01
       -2   -1    0    0    0  501  0.00000000000E+00  0.00000000000E+00  0.17420119416E+04  0.17420119416E+04  0.25500000920E-02 0. -1.
        2   -1    0    0  501    0  0.00000000000E+00  0.00000000000E+00 -0.28309995576E+03  0.28309995577E+03  0.25500000920E-02 0.  1.
    10030    2    1    2    0    0  0.00000000000E+00  0.00000000000E+00  0.14589119859E+04  0.20251118974E+04  0.14045120201E+04 0.  0.
        5    1    3    3  502    0 -0.54593614083E+03 -0.13614252317E+03  0.12359894539E+03  0.57609013685E+03  0.46999998093E+01 0.  1.
       -5    1    3    3    0  502  0.54593614083E+03  0.13614252317E+03  0.13353130405E+04  0.14490217606E+04  0.46999998093E+01 0. -1.
</event>
<event>
 5   0  0.6895048E-04  0.1426614E+04  0.7818609E-02  0.8934776E-01
       -2   -1    0    0    0  501  0.00000000000E+00  0.00000000000E+00  0.71601541774E+03  0.71601541774E+03  0.25500000920E-02 0.  1.
        2   -1    0    0  501    0  0.00000000000E+00  0.00000000000E+00 -0.71060897669E+03  0.71060897670E+03  0.25500000920E-02 0. -1.
    10030    2    1    2    0    0  0.00000000000E+00  0.00000000000E+00  0.54064410488E+01  0.14266243944E+04  0.14266141501E+04 0.  0.
        4    1    3    3  502    0 -0.55609587829E+03  0.84311371898E+02 -0.43599610831E+03  0.71164966988E+03  0.12699999809E+01 0. -1.
       -4    1    3    3    0  502  0.55609587829E+03 -0.84311371898E+02  0.44140254936E+03  0.71497472456E+03  0.12699999809E+01 0.  1.
</event>
<event>
 5   0  0.7065539E-04  0.1406532E+04  0.7818609E-02  0.8949104E-01
       -2   -1    0    0    0  501  0.00000000000E+00  0.00000000000E+00  0.83054924954E+03  0.83054924955E+03  0.25500000920E-02 0.  1.
        2   -1    0    0  501    0  0.00000000000E+00  0.00000000000E+00 -0.59548902653E+03  0.59548902653E+03  0.25500000920E-02 0. -1.
    10030    2    1    2    0    0  0.00000000000E+00  0.00000000000E+00  0.23506022301E+03  0.14260382761E+04  0.14065318540E+04 0.  0.
        1    1    3    3  502    0 -0.77887898115E+02  0.62470865072E+03  0.43533468018E+03  0.76540427667E+03  0.50400001928E-02 0.  1.
       -1    1    3    3    0  502  0.77887898115E+02 -0.62470865072E+03 -0.20027445716E+03  0.66063399941E+03  0.50400001928E-02 0. -1.
</event>
<event>
 5   0  0.3756664E-04  0.1393616E+04  0.7818609E-02  0.8958452E-01
        1   -1    0    0  501    0  0.00000000000E+00  0.00000000000E+00  0.67804221569E+03  0.67804221571E+03  0.50400001928E-02 0.  1.
       -1   -1    0    0    0  501  0.00000000000E+00  0.00000000000E+00 -0.71609338986E+03  0.71609338988E+03  0.50400001928E-02 0. -1.
    10030    2    1    2    0    0  0.00000000000E+00  0.00000000000E+00 -0.38051174170E+02  0.13941356056E+04  0.13936162294E+04 0.  0.
        2    1    3    3  502    0  0.30802618821E+03  0.60563794796E+03 -0.17356322927E+03  0.70128571296E+03  0.25500000920E-02 0. -1.
       -2    1    3    3    0  502 -0.30802618821E+03 -0.60563794796E+03  0.13551205510E+03  0.69284989263E+03  0.25500000920E-02 0.  1.
</event>
<event>
 5   0  0.6870835E-04  0.1398729E+04  0.7818609E-02  0.8954739E-01
       -2   -1    0    0    0  501  0.00000000000E+00  0.00000000000E+00  0.22926931803E+03  0.22926931804E+03  0.25500000920E-02 0.  1.
        2   -1    0    0  501    0  0.00000000000E+00  0.00000000000E+00 -0.21333465885E+04  0.21333465885E+04  0.25500000920E-02 0. -1.
    10030    2    1    2    0    0  0.00000000000E+00  0.00000000000E+00 -0.19040772705E+04  0.23626159066E+04  0.13987293055E+04 0.  0.
        2    1    3    3  502    0  0.22499440203E+02  0.76369679286E+02  0.22158987342E+03  0.23545832908E+03  0.25500000920E-02 0.  1.
       -2    1    3    3    0  502 -0.22499440203E+02 -0.76369679286E+02 -0.21256671439E+04  0.21271575775E+04  0.25500000920E-02 0. -1.
</event>
<event>
 5   0  0.7296966E-04  0.1383120E+04  0.7818609E-02  0.8966128E-01
       -2   -1    0    0    0  501  0.00000000000E+00  0.00000000000E+00  0.35026232293E+03  0.35026232293E+03  0.25500000920E-02 0. -1.
        2   -1    0    0  501    0  0.00000000000E+00  0.00000000000E+00 -0.13654204456E+04  0.13654204456E+04  0.25500000920E-02 0.  1.
    10030    2    1    2    0    0  0.00000000000E+00  0.00000000000E+00 -0.10151581227E+04  0.17156827686E+04  0.13831201496E+04 0.  0.
        3    1    3    3  502    0 -0.23811732403E+03 -0.15027808095E+03  0.27593766328E+03  0.39423973143E+03  0.10100000352E+00 0. -1.
       -3    1    3    3    0  502  0.23811732403E+03  0.15027808095E+03 -0.12910957860E+04  0.13214430371E+04  0.10100000352E+00 0.  1.
</event>
<event>
 5   0  0.6959748E-04  0.1398800E+04  0.7818609E-02  0.8954688E-01
       -2   -1    0    0    0  501  0.00000000000E+00  0.00000000000E+00  0.44348190979E+03  0.44348190980E+03  0.25500000920E-02 0. -1.
        2   -1    0    0  501    0  0.00000000000E+00  0.00000000000E+00 -0.11029993836E+04  0.11029993836E+04  0.25500000920E-02 0.  1.
    10030    2    1    2    0    0  0.00000000000E+00  0.00000000000E+00 -0.65951747380E+03  0.15464812934E+04  0.13987998758E+04 0.  0.
        5    1    3    3  502    0 -0.33598803382E+03 -0.21298065179E+03  0.30620237040E+03  0.50202659147E+03  0.46999998093E+01 0. -1.
       -5    1    3    3    0  502  0.33598803382E+03  0.21298065179E+03 -0.96571984419E+03  0.10444547019E+04  0.46999998093E+01 0.  1.
</event>
<event>
 5   0  0.7065539E-04  0.1388111E+04  0.7818609E-02  0.8962469E-01
        2   -1    0    0  501    0  0.00000000000E+00  0.00000000000E+00  0.17637523407E+04  0.17637523407E+04  0.25500000920E-02 0. -1.
       -2   -1    0    0    0  501  0.00000000000E+00  0.00000000000E+00 -0.27311846674E+03  0.27311846676E+03  0.25500000920E-02 0.  1.
    10030    2    1    2    0    0  0.00000000000E+00  0.00000000000E+00  0.14906338740E+04  0.20368708075E+04  0.13881114293E+04 0.  0.
        1    1    3    3  502    0  0.58885678348E+03  0.26699663290E+03  0.37504601128E+03  0.74746172078E+03  0.50400001928E-02 0.  1.
       -1    1    3    3    0  502 -0.58885678348E+03 -0.26699663290E+03  0.11155878627E+04  0.12894090867E+04  0.50400001928E-02 0. -1.
</event>
<event>
 5   0  0.3784219E-04  0.1410756E+04  0.7818609E-02  0.8946069E-01
       -1   -1    0    0    0  501  0.00000000000E+00  0.00000000000E+00  0.10400548498E+04  0.10400548498E+04  0.50400001928E-02 0. -1.
        1   -1    0    0  501    0  0.00000000000E+00  0.00000000000E+00 -0.47839632295E+03  0.47839632297E+03  0.50400001928E-02 0.  1.
    10030    2    1    2    0    0  0.00000000000E+00  0.00000000000E+00  0.56165852689E+03  0.15184511728E+04  0.14107564153E+04 0.  0.
        1    1    3    3  502    0 -0.65525730435E+03 -0.25705379894E+03  0.33038322198E+03  0.77755505518E+03  0.50400001928E-02 0.  1.
       -1    1    3    3    0  502  0.65525730435E+03  0.25705379894E+03  0.23127530491E+03  0.74089611764E+03  0.50400001928E-02 0. -1.
</event>
<event>
 5   0  0.6870835E-04  0.1398739E+04  0.7818609E-02  0.8954732E-01
        2   -1    0    0  501    0  0.00000000000E+00  0.00000000000E+00  0.62827045445E+03  0.62827045446E+03  0.25500000920E-02 0. -1.
       -2   -1    0    0    0  501  0.00000000000E+00  0.00000000000E+00 -0.77851425642E+03  0.77851425643E+03  0.25500000920E-02 0.  1.
    10030    2    1    2    0    0  0.00000000000E+00  0.00000000000E+00 -0.15024380197E+03  0.14067847109E+04  0.13987387257E+04 0.  0.
        2    1    3    3  502    0 -0.55400138478E+03  0.23791611617E+03  0.28131179979E+03  0.66532544020E+03  0.25500000920E-02 0. -1.
       -2    1    3    3    0  502  0.55400138478E+03 -0.23791611617E+03 -0.43155560176E+03  0.74145927069E+03  0.25500000920E-02 0.  1.
</event>
<event>
 5   0  0.3907270E-04  0.1409829E+04  0.7818609E-02  0.8946734E-01
       -1   -1    0    0    0  501  0.00000000000E+00  0.00000000000E+00  0.51573707870E+03  0.51573707873E+03  0.50400001928E-02 0. -1.
        1   -1    0    0  501    0  0.00000000000E+00  0.00000000000E+00 -0.96348467472E+03  0.96348467474E+03  0.50400001928E-02 0.  1.
    10030    2    1    2    0    0  0.00000000000E+00  0.00000000000E+00 -0.44774759602E+03  0.14792217535E+04  0.14098294529E+04 0.  0.
        3    1    3    3  502    0 -0.21904848252E+02  0.21002700040E+03  0.48177162328E+03  0.52601812751E+03  0.10100000352E+00 0. -1.
       -3    1    3    3    0  502  0.21904848252E+02 -0.21002700040E+03 -0.92951921930E+03  0.95320362595E+03  0.10100000352E+00 0.  1.
</event>
<event>
 5   0  0.6959748E-04  0.1401754E+04  0.7818609E-02  0.8952550E-01
        2   -1    0    0  501    0  0.00000000000E+00  0.00000000000E+00  0.26881929857E+04  0.26881929857E+04  0.25500000920E-02 0.  1.
       -2   -1    0    0    0  501  0.00000000000E+00  0.00000000000E+00 -0.18273563731E+03  0.18273563732E+03  0.25500000920E-02 0. -1.
    10030    2    1    2    0    0  0.00000000000E+00  0.00000000000E+00  0.25054573483E+04  0.28709286230E+04  0.14017541275E+04 0.  0.
        5    1    3    3  502    0  0.36708581205E+03  0.58588739231E+03  0.14879527745E+04  0.16407442150E+04  0.46999998093E+01 0.  1.
       -5    1    3    3    0  502 -0.36708581205E+03 -0.58588739231E+03  0.10175045739E+04  0.12301844080E+04  0.46999998093E+01 0. -1.
</event>
<event>
 5   0  0.3756664E-04  0.1400485E+04  0.7818609E-02  0.8953468E-01
        1   -1    0    0  501    0  0.00000000000E+00  0.00000000000E+00  0.11142468851E+04  0.11142468851E+04  0.50400001928E-02 0. -1.
       -1   -1    0    0    0  501  0.00000000000E+00  0.00000000000E+00 -0.44006336160E+03  0.44006336163E+03  0.50400001928E-02 0.  1.
    10030    2    1    2    0    0  0.00000000000E+00  0.00000000000E+00  0.67418352348E+03  0.15543102467E+04  0.14004845303E+04 0.  0.
        2    1    3    3  502    0  0.64957099625E+03 -0.25332746893E+03  0.40920510673E+03  0.80843435421E+03  0.25500000920E-02 0. -1.
       -2    1    3    3    0  502 -0.64957099625E+03  0.25332746893E+03  0.26497841674E+03  0.74587589251E+03  0.25500000920E-02 0.  1.
</event>
<event>
 5   0  0.6895048E-04  0.1391801E+04  0.7818609E-02  0.8959775E-01
        2   -1    0    0  501    0  0.00000000000E+00  0.00000000000E+00  0.19088438608E+04  0.19088438608E+04  0.25500000920E-02 0. -1.
       -2   -1    0    0    0  501  0.00000000000E+00  0.00000000000E+00 -0.25370198433E+03  0.25370198434E+03  0.25500000920E-02 0.  1.
    10030    2    1    2    0    0  0.00000000000E+00  0.00000000000E+00  0.16551418765E+04  0.21625458451E+04  0.13918009560E+04 0.  0.
        4    1    3    3  502    0 -0.17753556236E+03  0.66907840395E+03  0.93843555895E+03  0.11661250781E+04  0.12699999809E+01 0. -1.
       -4    1    3    3    0  502  0.17753556236E+03 -0.66907840395E+03  0.71670631752E+03  0.99642076705E+03  0.12699999809E+01 0.  1.
</event>
<event>
 5   0  0.3784219E-04  0.1407029E+04  0.7818609E-02  0.8948746E-01
       -1   -1    0    0    0  501  0.00000000000E+00  0.00000000000E+00  0.51677797459E+03  0.51677797461E+03  0.50400001928E-02 0. -1.
        1   -1    0    0  501    0  0.00000000000E+00  0.00000000000E+00 -0.95772815575E+03  0.95772815576E+03  0.50400001928E-02 0.  1.
    10030    2    1    2    0    0  0.00000000000E+00  0.00000000000E+00 -0.44095018116E+03  0.14745061304E+04  0.14070292343E+04 0.  0.
        1    1    3    3  502    0  0.55537857448E+02 -0.69415702930E+03 -0.11570883430E+03  0.70592277857E+03  0.50400001928E-02 0. -1.
       -1    1    3    3    0  502 -0.55537857448E+02  0.69415702930E+03 -0.32524134686E+03  0.76858335181E+03  0.50400001928E-02 0.  1.
</event>
<event>
 5   0  0.7065539E-04  0.1398931E+04  0.7818609E-02  0.8954592E-01
        2   -1    0    0  501    0  0.00000000000E+00  0.00000000000E+00  0.14478455777E+04  0.14478455777E+04  0.25500000920E-02 0.  1.
       -2   -1    0    0    0  501  0.00000000000E+00  0.00000000000E+00 -0.33791740027E+03  0.33791740028E+03  0.25500000920E-02 0. -1.
    10030    2    1    2    0    0  0.00000000000E+00  0.00000000000E+00  0.11099281775E+04  0.17857629780E+04  0.13989313259E+04 0.  0.
        1    1    3    3  502    0 -0.64405730128E+03  0.61880114553E+02  0.21575260726E+03  0.68204702439E+03  0.50400001928E-02 0. -1.
       -1    1    3    3    0  502  0.64405730128E+03 -0.61880114553E+02  0.89417557020E+03  0.11037159536E+04  0.50400001928E-02 0.  1.
</event>
<event>
 5   0  0.3907093E-04  0.1399938E+04  0.7818609E-02  0.8953863E-01
        1   -1    0    0  501    0  0.00000000000E+00  0.00000000000E+00  0.71009132319E+03  0.71009132321E+03  0.50400001928E-02 0. -1.
       -1   -1    0    0    0  501  0.00000000000E+00  0.00000000000E+00 -0.68999118131E+03  0.68999118133E+03  0.50400001928E-02 0.  1.
    10030    2    1    2    0    0  0.00000000000E+00  0.00000000000E+00  0.20100141881E+02  0.14000825045E+04  0.13999382143E+04 0.  0.
        4    1    3    3  502    0  0.49858754964E+03 -0.26894493652E+03  0.42123015399E+03  0.70594431726E+03  0.12699999809E+01 0. -1.
       -4    1    3    3    0  502 -0.49858754964E+03  0.26894493652E+03 -0.40113001211E+03  0.69413818729E+03  0.12699999809E+01 0.  1.
</event>
<event>
 5   0  0.2660250E-04  0.1402556E+04  0.7818609E-02  0.8951970E-01
        3   -1    0    0  501    0  0.00000000000E+00  0.00000000000E+00  0.70250272295E+03  0.70250273021E+03  0.10100000352E+00 0. -1.
       -3   -1    0    0    0  501  0.00000000000E+00  0.00000000000E+00 -0.70005536863E+03  0.70005537592E+03  0.10100000352E+00 0.  1.
    10030    2    1    2    0    0  0.00000000000E+00  0.00000000000E+00  0.24473543152E+01  0.14025581061E+04  0.14025559709E+04 0.  0.
        1    1    3    3  502    0  0.18199649711E+03  0.11734578743E+03 -0.66578412540E+03  0.70011517656E+03  0.50400001928E-02 0.  1.
       -1    1    3    3    0  502 -0.18199649711E+03 -0.11734578743E+03  0.66823147972E+03  0.70244292957E+03  0.50400001928E-02 0. -1.
</event>
<event>
 5   0  0.7296966E-04  0.1396313E+04  0.7818609E-02  0.8956492E-01
       -2   -1    0    0    0  501  0.00000000000E+00  0.00000000000E+00  0.51771723601E+03  0.51771723601E+03  0.25500000920E-02 0. -1.
        2   -1    0    0  501    0  0.00000000000E+00  0.00000000000E+00 -0.94148364772E+03  0.94148364772E+03  0.25500000920E-02 0.  1.
    10030    2    1    2    0    0  0.00000000000E+00  0.00000000000E+00 -0.42376641171E+03  0.14592008837E+04  0.13963127327E+04 0.  0.
        3    1    3    3  502    0 -0.80732256979E+01 -0.44819717180E+03 -0.77122442676E+03  0.89203868101E+03  0.10100000352E+00 0.  1.
       -3    1    3    3    0  502  0.80732256979E+01  0.44819717180E+03  0.34745801505E+03  0.56716220273E+03  0.10100000352E+00 0. -1.
</event>
<event>
 5   0  0.3907270E-04  0.1399861E+04  0.7818609E-02  0.8953919E-01
       -1   -1    0    0    0  501  0.00000000000E+00  0.00000000000E+00  0.10181986363E+04  0.10181986363E+04  0.50400001928E-02 0. -1.
        1   -1    0    0  501    0  0.00000000000E+00  0.00000000000E+00 -0.48114643097E+03  0.48114643099E+03  0.50400001928E-02 0.  1.
    10030    2    1    2    0    0  0.00000000000E+00  0.00000000000E+00  0.53705220533E+03  0.14993450673E+04  0.13998609072E+04 0.  0.
        3    1    3    3  502    0  0.37233317390E+03 -0.62386865908E+02  0.89980051697E+03  0.97578947215E+03  0.10100000352E+00 0. -1.
       -3    1    3    3    0  502 -0.37233317390E+03  0.62386865908E+02 -0.36274831164E+03  0.52355559516E+03  0.10100000352E+00 0.  1.
</event>
<event>
 5   0  0.7065539E-04  0.1409581E+04  0.7818609E-02  0.8946912E-01
        2   -1    0    0  501    0  0.00000000000E+00  0.00000000000E+00  0.93360987575E+03  0.93360987576E+03  0.25500000920E-02 0.  1.
       -2   -1    0    0    0  501  0.00000000000E+00  0.00000000000E+00 -0.53205291584E+03  0.53205291584E+03  0.25500000920E-02 0. -1.
    10030    2    1    2    0    0  0.00000000000E+00  0.00000000000E+00  0.40155695992E+03  0.14656627916E+04  0.14095812948E+04 0.  0.
        1    1    3    3  502    0  0.23850657950E+03  0.64687306318E+03  0.35288501084E+03  0.77450498980E+03  0.50400001928E-02 0.  1.
       -1    1    3    3    0  502 -0.23850657950E+03 -0.64687306318E+03  0.48671949080E+02  0.69115780180E+03  0.50400001928E-02 0. -1.
</event>
<event>
 5   0  0.3907093E-04  0.1399588E+04  0.7818609E-02  0.8954117E-01
       -1   -1    0    0    0  501  0.00000000000E+00  0.00000000000E+00  0.72504411054E+03  0.72504411056E+03  0.50400001928E-02 0. -1.
        1   -1    0    0  501    0  0.00000000000E+00  0.00000000000E+00 -0.67542277566E+03  0.67542277568E+03  0.50400001928E-02 0.  1.
    10030    2    1    2    0    0  0.00000000000E+00  0.00000000000E+00  0.49621334875E+02  0.14004668862E+04  0.13995875187E+04 0.  0.
        4    1    3    3  502    0  0.37811573541E+03  0.43238240935E+03  0.42479127219E+03  0.71440555367E+03  0.12699999809E+01 0. -1.
       -4    1    3    3    0  502 -0.37811573541E+03 -0.43238240935E+03 -0.37516993732E+03  0.68606133257E+03  0.12699999809E+01 0.  1.
</event>
<event>
 5   0  0.7296966E-04  0.1401345E+04  0.7818609E-02  0.8952846E-01
       -2   -1    0    0    0  501  0.00000000000E+00  0.00000000000E+00  0.43273412967E+03  0.43273412968E+03  0.25500000920E-02 0. -1.
        2   -1    0    0  501    0  0.00000000000E+00  0.00000000000E+00 -0.11345110274E+04  0.11345110274E+04  0.25500000920E-02 0.  1.
    10030    2    1    2    0    0  0.00000000000E+00  0.00000000000E+00 -0.70177689773E+03  0.15672451571E+04  0.14013445573E+04 0.  0.
        3    1    3    3  502    0  0.85148730227E+02  0.56782756703E+03  0.98228675723E+02  0.58251809850E+03  0.10100000352E+00 0. -1.
       -3    1    3    3    0  502 -0.85148730227E+02 -0.56782756703E+03 -0.80000557345E+03  0.98472705858E+03  0.10100000352E+00 0.  1.
</event>
<event>
 5   0  0.3907093E-04  0.1402957E+04  0.7818609E-02  0.8951681E-01
        1   -1    0    0  501    0  0.00000000000E+00  0.00000000000E+00  0.80941722001E+03  0.80941722003E+03  0.50400001928E-02 0.  1.
       -1   -1    0    0    0  501  0.00000000000E+00  0.00000000000E+00 -0.60793399171E+03  0.60793399173E+03  0.50400001928E-02 0. -1.
    10030    2    1    2    0    0  0.00000000000E+00  0.00000000000E+00  0.20148322830E+03  0.14173512118E+04  0.14029572218E+04 0.  0.
        4    1    3    3  502    0 -0.95458871408E+02 -0.67991100390E+03  0.24601984410E+03  0.72932759851E+03  0.12699999809E+01 0.  1.
       -4    1    3    3    0  502  0.95458871408E+02  0.67991100390E+03 -0.44536615800E+02  0.68802361325E+03  0.12699999809E+01 0. -1.
</event>
<event>
 5   0  0.3977658E-04  0.1398234E+04  0.7818609E-02  0.8955098E-01
        1   -1    0    0  501    0  0.00000000000E+00  0.00000000000E+00  0.14516228995E+04  0.14516228995E+04  0.50400001928E-02 0.  1.
       -1   -1    0    0    0  501  0.00000000000E+00  0.00000000000E+00 -0.33670212354E+03  0.33670212358E+03  0.50400001928E-02 0. -1.
    10030    2    1    2    0    0  0.00000000000E+00  0.00000000000E+00  0.11149207759E+04  0.17883250231E+04  0.13982339044E+04 0.  0.
        5    1    3    3  502    0 -0.99528460732E+02  0.66987270336E+03  0.77938264900E+03  0.10325186472E+04  0.46999998093E+01 0.  1.
       -5    1    3    3    0  502  0.99528460732E+02 -0.66987270336E+03  0.33553812693E+03  0.75580637588E+03  0.46999998093E+01 0. -1.
</event>
<event>
 5   0  0.3907093E-04  0.1430974E+04  0.7818609E-02  0.8931698E-01
        1   -1    0    0  501    0  0.00000000000E+00  0.00000000000E+00  0.75817215662E+03  0.75817215663E+03  0.50400001928E-02 0.  1.
       -1   -1    0    0    0  501  0.00000000000E+00  0.00000000000E+00 -0.67520506414E+03  0.67520506416E+03  0.50400001928E-02 0. -1.
    10030    2    1    2    0    0  0.00000000000E+00  0.00000000000E+00  0.82967092479E+02  0.14333772208E+04  0.14309740454E+04 0.  0.
        4    1    3    3  502    0 -0.49454461152E+03  0.19271468722E+03  0.52208796799E+03  0.74450707362E+03  0.12699999809E+01 0.  1.
       -4    1    3    3    0  502  0.49454461152E+03 -0.19271468722E+03 -0.43912087551E+03  0.68887014717E+03  0.12699999809E+01 0. -1.
</event>
<event>
 5   0  0.3907270E-04  0.1413846E+04  0.7818609E-02  0.8943857E-01
        1   -1    0    0  501    0  0.00000000000E+00  0.00000000000E+00  0.13096305645E+04  0.13096305645E+04  0.50400001928E-02 0. -1.
       -1   -1    0    0    0  501  0.00000000000E+00  0.00000000000E+00 -0.38158871630E+03  0.38158871634E+03  0.50400001928E-02 0.  1.
    10030    2    1    2    0    0  0.00000000000E+00  0.00000000000E+00  0.92804184815E+03  0.16912192808E+04  0.14138461670E+04 0.  0.
        3    1    3    3  502    0 -0.55349780089E+02  0.54350921739E+03  0.10006719926E+04  0.11400922395E+04  0.10100000352E+00 0. -1.
       -3    1    3    3    0  502  0.55349780089E+02 -0.54350921739E+03 -0.72630144489E+02  0.55112704129E+03  0.10100000352E+00 0.  1.
</event>
<event>
 5   0  0.6870835E-04  0.1397425E+04  0.7818609E-02  0.8955685E-01
       -2   -1    0    0    0  501  0.00000000000E+00  0.00000000000E+00  0.74730365046E+03  0.74730365046E+03  0.25500000920E-02 0. -1.
        2   -1    0    0  501    0  0.00000000000E+00  0.00000000000E+00 -0.65328091313E+03  0.65328091313E+03  0.25500000920E-02 0.  1.
    10030    2    1    2    0    0  0.00000000000E+00  0.00000000000E+00  0.94022737334E+02  0.14005845636E+04  0.13974250766E+04 0.  0.
        2    1    3    3  502    0  0.59289326318E+02  0.33302190283E+03 -0.56574673705E+03  0.65915717584E+03  0.25500000920E-02 0.  1.
       -2    1    3    3    0  502 -0.59289326318E+02 -0.33302190283E+03  0.65976947438E+03  0.74142738775E+03  0.25500000920E-02 0. -1.
</event>
<event>
 5   0  0.6895048E-04  0.1409123E+04  0.7818609E-02  0.8947241E-01
        2   -1    0    0  501    0  0.00000000000E+00  0.00000000000E+00  0.12683006378E+04  0.12683006378E+04  0.25500000920E-02 0.  1.
       -2   -1    0    0    0  501  0.00000000000E+00  0.00000000000E+00 -0.39139547880E+03  0.39139547881E+03  0.25500000920E-02 0. -1.
    10030    2    1    2    0    0  0.00000000000E+00  0.00000000000E+00  0.87690515902E+03  0.16596961166E+04  0.14091233238E+04 0.  0.
        4    1    3    3  502    0  0.47224294071E+03  0.43310798635E+03  0.78347515462E+03  0.10121417162E+04  0.12699999809E+01 0.  1.
       -4    1    3    3    0  502 -0.47224294071E+03 -0.43310798635E+03  0.93430004401E+02  0.64755440043E+03  0.12699999809E+01 0. -1.
</event>
<event>
 5   0  0.6959748E-04  0.1400883E+04  0.7818609E-02  0.8953180E-01
        2   -1    0    0  501    0  0.00000000000E+00  0.00000000000E+00  0.18721626962E+04  0.18721626962E+04  0.25500000920E-02 0.  1.
       -2   -1    0    0    0  501  0.00000000000E+00  0.00000000000E+00 -0.26205958401E+03  0.26205958403E+03  0.25500000920E-02 0. -1.
    10030    2    1    2    0    0  0.00000000000E+00  0.00000000000E+00  0.16101031122E+04  0.21342222803E+04  0.14008828322E+04 0.  0.
        5    1    3    3  502    0  0.13987186634E+03 -0.66811043191E+03  0.10442938113E+04  0.12476006342E+04  0.46999998093E+01 0.  1.
       -5    1    3    3    0  502 -0.13987186634E+03  0.66811043191E+03  0.56580930096E+03  0.88662164606E+03  0.46999998093E+01 0. -1.
</event>
<event>
 5   0  0.6959748E-04  0.1400053E+04  0.7818609E-02  0.8953780E-01
       -2   -1    0    0    0  501  0.00000000000E+00  0.00000000000E+00  0.22432994524E+03  0.22432994525E+03  0.25500000920E-02 0.  1.
        2   -1    0    0  501    0  0.00000000000E+00  0.00000000000E+00 -0.21844467425E+04  0.21844467425E+04  0.25500000920E-02 0. -1.
    10030    2    1    2    0    0  0.00000000000E+00  0.00000000000E+00 -0.19601167972E+04  0.24087766877E+04  0.14000525963E+04 0.  0.
        5    1    3    3  502    0 -0.19146852326E+03  0.63166413200E+03 -0.13811760435E+04  0.15307936256E+04  0.46999998093E+01 0.  1.
       -5    1    3    3    0  502  0.19146852326E+03 -0.63166413200E+03 -0.57894075376E+03  0.87798306215E+03  0.46999998093E+01 0. -1.
</event>
<event>
 5   0  0.3756664E-04  0.1407139E+04  0.7818609E-02  0.8948667E-01
       -1   -1    0    0    0  501  0.00000000000E+00  0.00000000000E+00  0.10883812638E+04  0.10883812638E+04  0.50400001928E-02 0. -1.
        1   -1    0    0  501    0  0.00000000000E+00  0.00000000000E+00 -0.45481300104E+03  0.45481300107E+03  0.50400001928E-02 0.  1.
    10030    2    1    2    0    0  0.00000000000E+00  0.00000000000E+00  0.63356826271E+03  0.15431942648E+04  0.14071388686E+04 0.  0.
        2    1    3    3  502    0  0.66477549257E+03  0.14702144316E+03  0.51132888044E+03  0.85146872182E+03  0.25500000920E-02 0. -1.
       -2    1    3    3    0  502 -0.66477549257E+03 -0.14702144316E+03  0.12223938228E+03  0.69172554301E+03  0.25500000920E-02 0.  1.
</event>
<event>
 5   0  0.3784219E-04  0.1400858E+04  0.7818609E-02  0.8953198E-01
        1   -1    0    0  501    0  0.00000000000E+00  0.00000000000E+00  0.78957030633E+03  0.78957030634E+03  0.50400001928E-02 0. -1.
       -1   -1    0    0    0  501  0.00000000000E+00  0.00000000000E+00 -0.62135126011E+03  0.62135126013E+03  0.50400001928E-02 0.  1.
    10030    2    1    2    0    0  0.00000000000E+00  0.00000000000E+00  0.16821904622E+03  0.14109215665E+04  0.14008576013E+04 0.  0.
        1    1    3    3  502    0  0.64571229323E+03  0.27024000567E+03  0.10931889138E+03  0.70846640452E+03  0.50400001928E-02 0. -1.
       -1    1    3    3    0  502 -0.64571229323E+03 -0.27024000567E+03  0.58900154840E+02  0.70245516196E+03  0.50400001928E-02 0.  1.
</event>
<event>
 5   0  0.7296966E-04  0.1480644E+04  0.7818609E-02  0.8897428E-01
       -2   -1    0    0    0  501  0.00000000000E+00  0.00000000000E+00  0.70287400545E+03  0.70287400546E+03  0.25500000920E-02 0.  1.
        2   -1    0    0  501    0  0.00000000000E+00  0.00000000000E+00 -0.77976471457E+03  0.77976471458E+03  0.25500000920E-02 0. -1.
    10030    2    1    2    0    0  0.00000000000E+00  0.00000000000E+00 -0.76890709120E+02  0.14826387200E+04  0.14806435739E+04 0.  0.
        3    1    3    3  502    0  0.59183654093E+03 -0.40228825958E+03 -0.22835850976E+03  0.75116839268E+03  0.10100000352E+00 0. -1.
       -3    1    3    3    0  502 -0.59183654093E+03  0.40228825958E+03  0.15146780064E+03  0.73147032736E+03  0.10100000352E+00 0.  1.
</event>
<event>
 5   0  0.7065539E-04  0.1397403E+04  0.7818609E-02  0.8955701E-01
       -2   -1    0    0    0  501  0.00000000000E+00  0.00000000000E+00  0.58135509872E+03  0.58135509872E+03  0.25500000920E-02 0. -1.
        2   -1    0    0  501    0  0.00000000000E+00  0.00000000000E+00 -0.83973397032E+03  0.83973397032E+03  0.25500000920E-02 0.  1.
    10030    2    1    2    0    0  0.00000000000E+00  0.00000000000E+00 -0.25837887160E+03  0.14210890690E+04  0.13974027697E+04 0.  0.
        1    1    3    3  502    0 -0.66440845962E+03 -0.21019571480E+00 -0.34906004888E+03  0.75052086123E+03  0.50400001928E-02 0.  1.
       -1    1    3    3    0  502  0.66440845962E+03  0.21019571480E+00  0.90681177283E+02  0.67056820782E+03  0.50400001928E-02 0. -1.
</event>
<event>
 5   0  0.2660250E-04  0.1400642E+04  0.7818609E-02  0.8953354E-01
       -3   -1    0    0    0  501  0.00000000000E+00  0.00000000000E+00  0.77356913513E+03  0.77356914173E+03  0.10100000352E+00 0. -1.
        3   -1    0    0  501    0  0.00000000000E+00  0.00000000000E+00 -0.63400872080E+03  0.63400872884E+03  0.10100000352E+00 0.  1.
    10030    2    1    2    0    0  0.00000000000E+00  0.00000000000E+00  0.13956041433E+03  0.14075778706E+04  0.14006421215E+04 0.  0.
        1    1    3    3  502    0  0.37676116715E+03  0.52414536235E+03  0.34273565253E+03  0.73085228705E+03  0.50400001928E-02 0. -1.
       -1    1    3    3    0  502 -0.37676116715E+03 -0.52414536235E+03 -0.20317523820E+03  0.67672558352E+03  0.50400001928E-02 0.  1.
</event>
<event>
 5   0  0.6959748E-04  0.1400456E+04  0.7818609E-02  0.8953489E-01
       -2   -1    0    0    0  501  0.00000000000E+00  0.00000000000E+00  0.62731739659E+03  0.62731739659E+03  0.25500000920E-02 0.  1.
        2   -1    0    0  501    0  0.00000000000E+00  0.00000000000E+00 -0.78161267601E+03  0.78161267602E+03  0.25500000920E-02 0. -1.
    10030    2    1    2    0    0  0.00000000000E+00  0.00000000000E+00 -0.15429527943E+03  0.14089300726E+04  0.14004559673E+04 0.  0.
        5    1    3    3  502    0  0.57358088946E+03 -0.21780408215E+03  0.26233081362E+03  0.66728794439E+03  0.46999998093E+01 0.  1.
       -5    1    3    3    0  502 -0.57358088946E+03  0.21780408215E+03 -0.41662609305E+03  0.74164212822E+03  0.46999998093E+01 0. -1.
</event>
<event>
 5   0  0.3907270E-04  0.1315347E+04  0.7818609E-02  0.9017483E-01
       -1   -1    0    0    0  501  0.00000000000E+00  0.00000000000E+00  0.22160388257E+03  0.22160388262E+03  0.50400001928E-02 0. -1.
        1   -1    0    0  501    0  0.00000000000E+00  0.00000000000E+00 -0.19518351006E+04  0.19518351007E+04  0.50400001928E-02 0.  1.
    10030    2    1    2    0    0  0.00000000000E+00  0.00000000000E+00 -0.17302312181E+04  0.21734389833E+04  0.13153467018E+04 0.  0.
        3    1    3    3  502    0  0.12222499106E+03  0.30332275063E+03 -0.18079667533E+04  0.18373043925E+04  0.10100000352E+00 0.  1.
       -3    1    3    3    0  502 -0.12222499106E+03 -0.30332275063E+03  0.77735535202E+02  0.33613459079E+03  0.10100000352E+00 0. -1.
</event>
<event>
 5   0  0.2660250E-04  0.1399597E+04  0.7818609E-02  0.8954110E-01
        3   -1    0    0  501    0  0.00000000000E+00  0.00000000000E+00  0.19401190758E+04  0.19401190784E+04  0.10100000352E+00 0.  1.
       -3   -1    0    0    0  501  0.00000000000E+00  0.00000000000E+00 -0.25241657941E+03  0.25241659962E+03  0.10100000352E+00 0. -1.
    10030    2    1    2    0    0  0.00000000000E+00  0.00000000000E+00  0.16877024964E+04  0.21925356780E+04  0.13995974361E+04 0.  0.
        3    1    3    3  502    0  0.47802773500E+03 -0.47055937340E+03  0.53139829510E+03  0.85575744084E+03  0.10100000352E+00 0. -1.
       -3    1    3    3    0  502 -0.47802773500E+03  0.47055937340E+03  0.11563042013E+04  0.13367782372E+04  0.10100000352E+00 0.  1.
</event>
<event>
 5   0  0.6870835E-04  0.1416560E+04  0.7818609E-02  0.8941918E-01
       -2   -1    0    0    0  501  0.00000000000E+00  0.00000000000E+00  0.62259385403E+03  0.62259385404E+03  0.25500000920E-02 0. -1.
        2   -1    0    0  501    0  0.00000000000E+00  0.00000000000E+00 -0.80575878684E+03  0.80575878684E+03  0.25500000920E-02 0.  1.
    10030    2    1    2    0    0  0.00000000000E+00  0.00000000000E+00 -0.18316493280E+03  0.14283526409E+04  0.14165598731E+04 0.  0.
        2    1    3    3  502    0  0.51422483585E+03  0.12255451838E+03 -0.56690225943E+03  0.77512899799E+03  0.25500000920E-02 0.  1.
       -2    1    3    3    0  502 -0.51422483585E+03 -0.12255451838E+03  0.38373732662E+03  0.65322364289E+03  0.25500000920E-02 0. -1.
</event>
<event>
 5   0  0.3784219E-04  0.1401273E+04  0.7818609E-02  0.8952898E-01
        1   -1    0    0  501    0  0.00000000000E+00  0.00000000000E+00  0.82250317518E+03  0.82250317519E+03  0.50400001928E-02 0. -1.
       -1   -1    0    0    0  501  0.00000000000E+00  0.00000000000E+00 -0.59682631893E+03  0.59682631895E+03  0.50400001928E-02 0.  1.
    10030    2    1    2    0    0  0.00000000000E+00  0.00000000000E+00  0.22567685624E+03  0.14193294941E+04  0.14012730532E+04 0.  0.
        1    1    3    3  502    0  0.15202279878E+03  0.61332984791E+03  0.41940517483E+03  0.75840960858E+03  0.50400001928E-02 0. -1.
       -1    1    3    3    0  502 -0.15202279878E+03 -0.61332984791E+03 -0.19372831859E+03  0.66091988556E+03  0.50400001928E-02 0.  1.
</event>
<event>
 5   0  0.7296966E-04  0.1401197E+04  0.7818609E-02  0.8952952E-01
        2   -1    0    0  501    0  0.00000000000E+00  0.00000000000E+00  0.19489347799E+04  0.19489347799E+04  0.25500000920E-02 0.  1.
       -2   -1    0    0    0  501  0.00000000000E+00  0.00000000000E+00 -0.25184962460E+03  0.25184962461E+03  0.25500000920E-02 0. -1.
    10030    2    1    2    0    0  0.00000000000E+00  0.00000000000E+00  0.16970851553E+04  0.22007844045E+04  0.14011973347E+04 0.  0.
        3    1    3    3  502    0 -0.17858950114E+03 -0.66790186196E+03  0.67048805817E+03  0.96308948363E+03  0.10100000352E+00 0. -1.
       -3    1    3    3    0  502  0.17858950114E+03  0.66790186196E+03  0.10265970971E+04  0.12376949209E+04  0.10100000352E+00 0.  1.
</event>
<event>
 5   0  0.6870835E-04  0.1384101E+04  0.7818609E-02  0.8965408E-01
        2   -1    0    0  501    0  0.00000000000E+00  0.00000000000E+00  0.12165404908E+04  0.12165404908E+04  0.25500000920E-02 0.  1.
       -2   -1    0    0    0  501  0.00000000000E+00  0.00000000000E+00 -0.39368531923E+03  0.39368531923E+03  0.25500000920E-02 0. -1.
    10030    2    1    2    0    0  0.00000000000E+00  0.00000000000E+00  0.82285517158E+03  0.16102258100E+04  0.13841013424E+04 0.  0.
        2    1    3    3  502    0  0.15929775364E+03 -0.30010601172E+03 -0.28997596230E+03  0.44668271883E+03  0.25500000920E-02 0.  1.
       -2    1    3    3    0  502 -0.15929775364E+03  0.30010601172E+03  0.11128311339E+04  0.11635430912E+04  0.25500000920E-02 0. -1.
</event>
<event>
 5   0  0.3784219E-04  0.1394746E+04  0.7818609E-02  0.8957631E-01
        1   -1    0    0  501    0  0.00000000000E+00  0.00000000000E+00  0.71033917172E+03  0.71033917173E+03  0.50400001928E-02 0. -1.
       -1   -1    0    0    0  501  0.00000000000E+00  0.00000000000E+00 -0.68464306201E+03  0.68464306203E+03  0.50400001928E-02 0.  1.
    10030    2    1    2    0    0  0.00000000000E+00  0.00000000000E+00  0.25696109710E+02  0.13949822338E+04  0.13947455476E+04 0.  0.
        1    1    3    3  502    0 -0.53571300073E+03  0.10024227076E+03  0.44799872316E+03  0.70550675969E+03  0.50400001928E-02 0. -1.
       -1    1    3    3    0  502  0.53571300073E+03 -0.10024227076E+03 -0.42230261345E+03  0.68947547407E+03  0.50400001928E-02 0.  1.
</event>
<event>
 5   0  0.6959748E-04  0.1398183E+04  0.7818609E-02  0.8955135E-01
       -2   -1    0    0    0  501  0.00000000000E+00  0.00000000000E+00  0.32883803427E+03  0.32883803428E+03  0.25500000920E-02 0.  1.
        2   -1    0    0  501    0  0.00000000000E+00  0.00000000000E+00 -0.14862291457E+04  0.14862291457E+04  0.25500000920E-02 0. -1.
    10030    2    1    2    0    0  0.00000000000E+00  0.00000000000E+00 -0.11573911114E+04  0.18150671800E+04  0.13981826358E+04 0.  0.
        5    1    3    3  502    0 -0.25459710680E+03  0.39465473854E+03 -0.12509058724E+04  0.13361735071E+04  0.46999998093E+01 0. -1.
       -5    1    3    3    0  502  0.25459710680E+03 -0.39465473854E+03  0.93514760945E+02  0.47889367292E+03  0.46999998093E+01 0.  1.
</event>
<event>
 5   0  0.6870835E-04  0.1404934E+04  0.7818609E-02  0.8950255E-01
       -2   -1    0    0    0  501  0.00000000000E+00  0.00000000000E+00  0.67821579757E+03  0.67821579758E+03  0.25500000920E-02 0.  1.
        2   -1    0    0  501    0  0.00000000000E+00  0.00000000000E+00 -0.72758554854E+03  0.72758554854E+03  0.25500000920E-02 0. -1.
    10030    2    1    2    0    0  0.00000000000E+00  0.00000000000E+00 -0.49369750969E+02  0.14058013461E+04  0.14049341808E+04 0.  0.
        2    1    3    3  502    0  0.55608934342E+03 -0.13889635619E+03 -0.43105431615E+03  0.71717179191E+03  0.25500000920E-02 0. -1.
       -2    1    3    3    0  502 -0.55608934342E+03  0.13889635619E+03  0.38168456518E+03  0.68862955421E+03  0.25500000920E-02 0.  1.
</event>
<event>
 5   0  0.6959748E-04  0.1397281E+04  0.7818609E-02  0.8955789E-01
        2   -1    0    0  501    0  0.00000000000E+00  0.00000000000E+00  0.12982516628E+04  0.12982516628E+04  0.25500000920E-02 0. -1.
       -2   -1    0    0    0  501  0.00000000000E+00  0.00000000000E+00 -0.37596595925E+03  0.37596595926E+03  0.25500000920E-02 0.  1.
    10030    2    1    2    0    0  0.00000000000E+00  0.00000000000E+00  0.92228570353E+03  0.16742176221E+04  0.13972808333E+04 0.  0.
        5    1    3    3  502    0 -0.14570832221E+02 -0.22885812439E+03 -0.32956545076E+03  0.40152686906E+03  0.46999998093E+01 0.  1.
       -5    1    3    3    0  502  0.14570832221E+02  0.22885812439E+03  0.12518511543E+04  0.12726907530E+04  0.46999998093E+01 0. -1.
</event>
<event>
 5   0  0.3784219E-04  0.1406959E+04  0.7818609E-02  0.8948796E-01
        1   -1    0    0  501    0  0.00000000000E+00  0.00000000000E+00  0.79350609902E+03  0.79350609903E+03  0.50400001928E-02 0.  1.
       -1   -1    0    0    0  501  0.00000000000E+00  0.00000000000E+00 -0.62366720042E+03  0.62366720044E+03  0.50400001928E-02 0. -1.
    10030    2    1    2    0    0  0.00000000000E+00  0.00000000000E+00  0.16983889859E+03  0.14171732995E+04  0.14069594554E+04 0.  0.
        1    1    3    3  502    0 -0.50348119638E+02 -0.12605087693E+03 -0.61035230865E+03  0.62526290264E+03  0.50400001928E-02 0. -1.
       -1    1    3    3    0  502  0.50348119638E+02  0.12605087693E+03  0.78019120724E+03  0.79191039683E+03  0.50400001928E-02 0.  1.
</event>
<event>
 5   0  0.6895048E-04  0.1409663E+04  0.7818609E-02  0.8946854E-01
       -2   -1    0    0    0  501  0.00000000000E+00  0.00000000000E+00  0.22243388668E+03  0.22243388670E+03  0.25500000920E-02 0.  1.
        2   -1    0    0  501    0  0.00000000000E+00  0.00000000000E+00 -0.22334151478E+04  0.22334151478E+04  0.25500000920E-02 0. -1.
    10030    2    1    2    0    0  0.00000000000E+00  0.00000000000E+00 -0.20109812611E+04  0.24558490345E+04  0.14096626716E+04 0.  0.
        4    1    3    3  502    0  0.41304353136E+03  0.57084658055E+03 -0.10364020392E+04  0.12532364410E+04  0.12699999809E+01 0. -1.
       -4    1    3    3    0  502 -0.41304353136E+03 -0.57084658055E+03 -0.97457922194E+03  0.12026125935E+04  0.12699999809E+01 0.  1.
</event>
<event>
 5   0  0.7296966E-04  0.1393221E+04  0.7818609E-02  0.8958740E-01
       -2   -1    0    0    0  501  0.00000000000E+00  0.00000000000E+00  0.63315344329E+03  0.63315344330E+03  0.25500000920E-02 0.  1.
        2   -1    0    0  501    0  0.00000000000E+00  0.00000000000E+00 -0.76642753234E+03  0.76642753235E+03  0.25500000920E-02 0. -1.
    10030    2    1    2    0    0  0.00000000000E+00  0.00000000000E+00 -0.13327408905E+03  0.13995809756E+04  0.13932210609E+04 0.  0.
        3    1    3    3  502    0  0.45144685491E+03  0.52960239919E+03 -0.35136975760E+02  0.69679091649E+03  0.10100000352E+00 0.  1.
       -3    1    3    3    0  502 -0.45144685491E+03 -0.52960239919E+03 -0.98137113293E+02  0.70279005915E+03  0.10100000352E+00 0. -1.
</event>
<event>
 5   0  0.6959748E-04  0.1389369E+04  0.7818609E-02  0.8961550E-01
       -2   -1    0    0    0  501  0.00000000000E+00  0.00000000000E+00  0.51784192119E+03  0.51784192119E+03  0.25500000920E-02 0. -1.
        2   -1    0    0  501    0  0.00000000000E+00  0.00000000000E+00 -0.93191868926E+03  0.93191868926E+03  0.25500000920E-02 0.  1.
    10030    2    1    2    0    0  0.00000000000E+00  0.00000000000E+00 -0.41407676807E+03  0.14497606105E+04  0.13893690143E+04 0.  0.
        5    1    3    3  502    0 -0.26979182437E+03 -0.30368352399E+02  0.46017252108E+03  0.53431330180E+03  0.46999998093E+01 0. -1.
       -5    1    3    3    0  502  0.26979182437E+03  0.30368352399E+02 -0.87424928916E+03  0.91544730865E+03  0.46999998093E+01 0.  1.
</event>
<event>
 5   0  0.7296966E-04  0.1382821E+04  0.7818609E-02  0.8966349E-01
       -2   -1    0    0    0  501  0.00000000000E+00  0.00000000000E+00  0.23131392919E+03  0.23131392920E+03  0.25500000920E-02 0.  1.
        2   -1    0    0  501    0  0.00000000000E+00  0.00000000000E+00 -0.20666642138E+04  0.20666642138E+04  0.25500000920E-02 0. -1.
    10030    2    1    2    0    0  0.00000000000E+00  0.00000000000E+00 -0.18353502846E+04  0.22979781430E+04  0.13828206241E+04 0.  0.
        3    1    3    3  502    0  0.12036523526E+03  0.22309427522E+03 -0.19866554554E+04  0.20027627803E+04  0.10100000352E+00 0. -1.
       -3    1    3    3    0  502 -0.12036523526E+03 -0.22309427522E+03  0.15130517075E+03  0.29521536273E+03  0.10100000352E+00 0.  1.
</event>
<event>
 5   0  0.3907270E-04  0.1410590E+04  0.7818609E-02  0.8946188E-01
        1   -1    0    0  501    0  0.00000000000E+00  0.00000000000E+00  0.62295046806E+03  0.62295046808E+03  0.50400001928E-02 0. -1.
       -1   -1    0    0    0  501  0.00000000000E+00  0.00000000000E+00 -0.79852469800E+03  0.79852469802E+03  0.50400001928E-02 0.  1.
    10030    2    1    2    0    0  0.00000000000E+00  0.00000000000E+00 -0.17557422994E+03  0.14214751661E+04  0.14105904216E+04 0.  0.
        3    1    3    3  502    0  0.15848388069E+03  0.63768289490E+03  0.17048081840E+03  0.67883748757E+03  0.10100000352E+00 0.  1.
       -3    1    3    3    0  502 -0.15848388069E+03 -0.63768289490E+03 -0.34605504834E+03  0.74263767853E+03  0.10100000352E+00 0. -1.
</event>
<event>
 5   0  0.3907270E-04  0.1407449E+04  0.7818609E-02  0.8948444E-01
        1   -1    0    0  501    0  0.00000000000E+00  0.00000000000E+00  0.13519563685E+04  0.13519563686E+04  0.50400001928E-02 0.  1.
       -1   -1    0    0    0  501  0.00000000000E+00  0.00000000000E+00 -0.36630466827E+03  0.36630466830E+03  0.50400001928E-02 0. -1.
    10030    2    1    2    0    0  0.00000000000E+00  0.00000000000E+00  0.98565170028E+03  0.17182610369E+04  0.14074486550E+04 0.  0.
        3    1    3    3  502    0  0.35301813942E+03 -0.96122854166E+02  0.12267151099E+04  0.12801138156E+04  0.10100000352E+00 0.  1.
       -3    1    3    3    0  502 -0.35301813942E+03  0.96122854166E+02 -0.24106340960E+03  0.43814722126E+03  0.10100000352E+00 0. -1.
</event>
<event>
 5   0  0.6895048E-04  0.1390836E+04  0.7818609E-02  0.8960479E-01
       -2   -1    0    0    0  501  0.00000000000E+00  0.00000000000E+00  0.62576876641E+03  0.62576876642E+03  0.25500000920E-02 0.  1.
        2   -1    0    0  501    0  0.00000000000E+00  0.00000000000E+00 -0.77281961284E+03  0.77281961285E+03  0.25500000920E-02 0. -1.
    10030    2    1    2    0    0  0.00000000000E+00  0.00000000000E+00 -0.14705084643E+03  0.13985883793E+04  0.13908362604E+04 0.  0.
        4    1    3    3  502    0  0.18504014722E+03  0.56937137460E+03  0.28225608342E+03  0.66188649165E+03  0.12699999809E+01 0.  1.
       -4    1    3    3    0  502 -0.18504014722E+03 -0.56937137460E+03 -0.42930692984E+03  0.73670188761E+03  0.12699999809E+01 0. -1.
</event>
<event>
 5   0  0.3977658E-04  0.1410947E+04  0.7818609E-02  0.8945932E-01
        1   -1    0    0  501    0  0.00000000000E+00  0.00000000000E+00  0.64311841260E+03  0.64311841262E+03  0.50400001928E-02 0. -1.
       -1   -1    0    0    0  501  0.00000000000E+00  0.00000000000E+00 -0.77387491181E+03  0.77387491182E+03  0.50400001928E-02 0.  1.
    10030    2    1    2    0    0  0.00000000000E+00  0.00000000000E+00 -0.13075649921E+03  0.14169933244E+04  0.14109474900E+04 0.  0.
        5    1    3    3  502    0 -0.14854492125E+02 -0.14584574445E+03 -0.75839269961E+03  0.77244625311E+03  0.46999998093E+01 0.  1.
       -5    1    3    3    0  502  0.14854492125E+02  0.14584574445E+03  0.62763620041E+03  0.64454707134E+03  0.46999998093E+01 0. -1.
</event>
<event>
 5   0  0.2660250E-04  0.1401856E+04  0.7818609E-02  0.8952476E-01
       -3   -1    0    0    0  501  0.00000000000E+00  0.00000000000E+00  0.78386471042E+03  0.78386471693E+03  0.10100000352E+00 0. -1.
        3   -1    0    0  501    0  0.00000000000E+00  0.00000000000E+00 -0.62676661505E+03  0.62676662319E+03  0.10100000352E+00 0.  1.
    10030    2    1    2    0    0  0.00000000000E+00  0.00000000000E+00  0.15709809537E+03  0.14106313401E+04  0.14018562573E+04 0.  0.
        4    1    3    3  502    0  0.62495300703E+03  0.31448479271E+03  0.35482984148E+02  0.70051952215E+03  0.12699999809E+01 0. -1.
       -4    1    3    3    0  502 -0.62495300703E+03 -0.31448479271E+03  0.12161511122E+03  0.71011181797E+03  0.12699999809E+01 0.  1.
</event>
<event>
 5   0  0.3907270E-04  0.1402635E+04  0.7818609E-02  0.8951913E-01
       -1   -1    0    0    0  501  0.00000000000E+00  0.00000000000E+00  0.53575433386E+03  0.53575433389E+03  0.50400001928E-02 0.  1.
        1   -1    0    0  501    0  0.00000000000E+00  0.00000000000E+00 -0.91804429091E+03  0.91804429093E+03  0.50400001928E-02 0. -1.
    10030    2    1    2    0    0  0.00000000000E+00  0.00000000000E+00 -0.38228995705E+03  0.14537986248E+04  0.14026349597E+04 0.  0.
        3    1    3    3  502    0 -0.84638787747E+02 -0.41523814286E+03  0.38804041879E+03  0.57459709057E+03  0.10100000352E+00 0.  1.
       -3    1    3    3    0  502  0.84638787747E+02  0.41523814286E+03 -0.77033037584E+03  0.87920153424E+03  0.10100000352E+00 0. -1.
</event>
<event>
 5   0  0.3977658E-04  0.1401604E+04  0.7818609E-02  0.8952658E-01
        1   -1    0    0  501    0  0.00000000000E+00  0.00000000000E+00  0.15806975425E+04  0.15806975425E+04  0.50400001928E-02 0. -1.
       -1   -1    0    0    0  501  0.00000000000E+00  0.00000000000E+00 -0.31070065921E+03  0.31070065925E+03  0.50400001928E-02 0.  1.
    10030    2    1    2    0    0  0.00000000000E+00  0.00000000000E+00  0.12699968833E+04  0.18913982018E+04  0.14016044642E+04 0.  0.
        5    1    3    3  502    0  0.19280546154E+02  0.68032707177E+03  0.40965603053E+03  0.79439084674E+03  0.46999998093E+01 0.  1.
       -5    1    3    3    0  502 -0.19280546154E+02 -0.68032707177E+03  0.86034085279E+03  0.10970073550E+04  0.46999998093E+01 0. -1.
</event>
<event>
 5   0  0.3907270E-04  0.1456775E+04  0.7818609E-02  0.8913717E-01
       -1   -1    0    0    0  501  0.00000000000E+00  0.00000000000E+00  0.55378231759E+03  0.55378231761E+03  0.50400001928E-02 0. -1.
        1   -1    0    0  501    0  0.00000000000E+00  0.00000000000E+00 -0.95804510597E+03  0.95804510598E+03  0.50400001928E-02 0.  1.
    10030    2    1    2    0    0  0.00000000000E+00  0.00000000000E+00 -0.40426278838E+03  0.15118274236E+04  0.14567751222E+04 0.  0.
        3    1    3    3  502    0 -0.66496366051E+03 -0.28626342003E+03 -0.11894606767E+03  0.73366994804E+03  0.10100000352E+00 0.  1.
       -3    1    3    3    0  502  0.66496366051E+03  0.28626342003E+03 -0.28531672071E+03  0.77815747556E+03  0.10100000352E+00 0. -1.
</event>
<event>
 5   0  0.7065539E-04  0.1331967E+04  0.7818609E-02  0.9004592E-01
        2   -1    0    0  501    0  0.00000000000E+00  0.00000000000E+00  0.12002832305E+04  0.12002832305E+04  0.25500000920E-02 0.  1.
       -2   -1    0    0    0  501  0.00000000000E+00  0.00000000000E+00 -0.36952443166E+03  0.36952443167E+03  0.25500000920E-02 0. -1.
    10030    2    1    2    0    0  0.00000000000E+00  0.00000000000E+00  0.83075879881E+03  0.15698076621E+04  0.13319669344E+04 0.  0.
        1    1    3    3  502    0  0.53906511502E+03  0.41390987453E+02  0.87370208533E+03  0.10274530383E+04  0.50400001928E-02 0.  1.
       -1    1    3    3    0  502 -0.53906511502E+03 -0.41390987453E+02 -0.42943286520E+02  0.54235462380E+03  0.50400001928E-02 0. -1.
</event>
<event>
 5   0  0.3756664E-04  0.1549862E+04  0.7818609E-02  0.8851956E-01
        1   -1    0    0  501    0  0.00000000000E+00  0.00000000000E+00  0.15433626265E+04  0.15433626265E+04  0.50400001928E-02 0. -1.
       -1   -1    0    0    0  501  0.00000000000E+00  0.00000000000E+00 -0.38909715136E+03  0.38909715139E+03  0.50400001928E-02 0.  1.
    10030    2    1    2    0    0  0.00000000000E+00  0.00000000000E+00  0.11542654752E+04  0.19324597779E+04  0.15498619313E+04 0.  0.
        2    1    3    3  502    0  0.52176511699E+03 -0.52526907318E+03  0.29179104816E+03  0.79579422738E+03  0.25500000920E-02 0.  1.
       -2    1    3    3    0  502 -0.52176511699E+03  0.52526907318E+03  0.86247442701E+03  0.11366655505E+04  0.25500000920E-02 0. -1.
</event>
<event>
 5   0  0.3907270E-04  0.1401327E+04  0.7818609E-02  0.8952858E-01
       -1   -1    0    0    0  501  0.00000000000E+00  0.00000000000E+00  0.29588417664E+03  0.29588417668E+03  0.50400001928E-02 0. -1.
        1   -1    0    0  501    0  0.00000000000E+00  0.00000000000E+00 -0.16591952088E+04  0.16591952088E+04  0.50400001928E-02 0.  1.
    10030    2    1    2    0    0  0.00000000000E+00  0.00000000000E+00 -0.13633110322E+04  0.19550793855E+04  0.14013273826E+04 0.  0.
        3    1    3    3  502    0  0.54122642724E+03  0.12136893241E+03 -0.84380715106E+02  0.56104953309E+03  0.10100000352E+00 0. -1.
       -3    1    3    3    0  502 -0.54122642724E+03 -0.12136893241E+03 -0.12789303170E+04  0.13940298524E+04  0.10100000352E+00 0.  1.
</event>
<event>
 5   0  0.3756664E-04  0.1404308E+04  0.7818609E-02  0.8950706E-01
        1   -1    0    0  501    0  0.00000000000E+00  0.00000000000E+00  0.94568222505E+03  0.94568222506E+03  0.50400001928E-02 0. -1.
       -1   -1    0    0    0  501  0.00000000000E+00  0.00000000000E+00 -0.52133790809E+03  0.52133790811E+03  0.50400001928E-02 0.  1.
    10030    2    1    2    0    0  0.00000000000E+00  0.00000000000E+00  0.42434431696E+03  0.14670201332E+04  0.14043076486E+04 0.  0.
        2    1    3    3  502    0 -0.53615043360E+03  0.39310965321E+03  0.44815258635E+03  0.80176881179E+03  0.25500000920E-02 0. -1.
       -2    1    3    3    0  502  0.53615043360E+03 -0.39310965321E+03 -0.23808269393E+02  0.66525132138E+03  0.25500000920E-02 0.  1.
</event>
<event>
 5   0  0.3907270E-04  0.1398929E+04  0.7818609E-02  0.8954594E-01
       -1   -1    0    0    0  501  0.00000000000E+00  0.00000000000E+00  0.57022052565E+03  0.57022052567E+03  0.50400001928E-02 0. -1.
        1   -1    0    0  501    0  0.00000000000E+00  0.00000000000E+00 -0.85800250001E+03  0.85800250002E+03  0.50400001928E-02 0.  1.
    10030    2    1    2    0    0  0.00000000000E+00  0.00000000000E+00 -0.28778197436E+03  0.14282230257E+04  0.13989290712E+04 0.  0.
        3    1    3    3  502    0 -0.69333705783E+03  0.90258862300E+02 -0.12378887273E+03  0.71006100667E+03  0.10100000352E+00 0.  1.
       -3    1    3    3    0  502  0.69333705783E+03 -0.90258862300E+02 -0.16399310163E+03  0.71816201902E+03  0.10100000352E+00 0. -1.
</event>
<event>
 5   0  0.6959748E-04  0.1405027E+04  0.7818609E-02  0.8950188E-01
        2   -1    0    0  501    0  0.00000000000E+00  0.00000000000E+00  0.67827763426E+03  0.67827763427E+03  0.25500000920E-02 0.  1.
       -2   -1    0    0    0  501  0.00000000000E+00  0.00000000000E+00 -0.72761553491E+03  0.72761553491E+03  0.25500000920E-02 0. -1.
    10030    2    1    2    0    0  0.00000000000E+00  0.00000000000E+00 -0.49337900643E+02  0.14058931692E+04  0.14050271793E+04 0.  0.
        5    1    3    3  502    0  0.14219103836E+03 -0.61990950231E+03  0.27383885866E+03  0.69247086073E+03  0.46999998093E+01 0. -1.
       -5    1    3    3    0  502 -0.14219103836E+03  0.61990950231E+03 -0.32317675930E+03  0.71342230845E+03  0.46999998093E+01 0.  1.
</event>
<event>
 5   0  0.7065539E-04  0.1414345E+04  0.7818609E-02  0.8943500E-01
       -2   -1    0    0    0  501  0.00000000000E+00  0.00000000000E+00  0.79275367679E+03  0.79275367680E+03  0.25500000920E-02 0.  1.
        2   -1    0    0  501    0  0.00000000000E+00  0.00000000000E+00 -0.63082993229E+03  0.63082993230E+03  0.25500000920E-02 0. -1.
    10030    2    1    2    0    0  0.00000000000E+00  0.00000000000E+00  0.16192374450E+03  0.14235836091E+04  0.14143447221E+04 0.  0.
        1    1    3    3  502    0  0.64998199145E+03 -0.23364526512E+03 -0.71772722918E+02  0.69441919826E+03  0.50400001928E-02 0.  1.
       -1    1    3    3    0  502 -0.64998199145E+03  0.23364526512E+03  0.23369646742E+03  0.72916441084E+03  0.50400001928E-02 0. -1.
</event>
<event>
 5   0  0.3784219E-04  0.1421877E+04  0.7818609E-02  0.8938133E-01
       -1   -1    0    0    0  501  0.00000000000E+00  0.00000000000E+00  0.34877025528E+03  0.34877025531E+03  0.50400001928E-02 0. -1.
        1   -1    0    0  501    0  0.00000000000E+00  0.00000000000E+00 -0.14491875933E+04  0.14491875933E+04  0.50400001928E-02 0.  1.
    10030    2    1    2    0    0  0.00000000000E+00  0.00000000000E+00 -0.11004173380E+04  0.17979578486E+04  0.14218769664E+04 0.  0.
        1    1    3    3  502    0  0.48304798977E+03  0.36555385731E+02  0.10776912900E+03  0.49627194343E+03  0.50400001928E-02 0. -1.
       -1    1    3    3    0  502 -0.48304798977E+03 -0.36555385731E+02 -0.12081864670E+04  0.13016859052E+04  0.50400001928E-02 0.  1.
</event>
<event>
 5   0  0.6870835E-04  0.1397948E+04  0.7818609E-02  0.8955305E-01
        2   -1    0    0  501    0  0.00000000000E+00  0.00000000000E+00  0.67895134446E+03  0.67895134447E+03  0.25500000920E-02 0. -1.
       -2   -1    0    0    0  501  0.00000000000E+00  0.00000000000E+00 -0.71958696805E+03  0.71958696806E+03  0.25500000920E-02 0.  1.
    10030    2    1    2    0    0  0.00000000000E+00  0.00000000000E+00 -0.40635623592E+02  0.13985383125E+04  0.13979478380E+04 0.  0.
        2    1    3    3  502    0  0.23939973137E+03 -0.15372568886E+03  0.61840367718E+03  0.68071060426E+03  0.25500000920E-02 0. -1.
       -2    1    3    3    0  502 -0.23939973137E+03  0.15372568886E+03 -0.65903930077E+03  0.71782770827E+03  0.25500000920E-02 0.  1.
</event>
<event>
 5   0  0.6959748E-04  0.1398765E+04  0.7818609E-02  0.8954713E-01
       -2   -1    0    0    0  501  0.00000000000E+00  0.00000000000E+00  0.47136273362E+03  0.47136273362E+03  0.25500000920E-02 0.  1.
        2   -1    0    0  501    0  0.00000000000E+00  0.00000000000E+00 -0.10377056865E+04  0.10377056865E+04  0.25500000920E-02 0. -1.
    10030    2    1    2    0    0  0.00000000000E+00  0.00000000000E+00 -0.56634295287E+03  0.15090684201E+04  0.13987648681E+04 0.  0.
        5    1    3    3  502    0 -0.53811418281E+03  0.35388417388E+03 -0.57727218898E+03  0.86490817572E+03  0.46999998093E+01 0.  1.
       -5    1    3    3    0  502  0.53811418281E+03 -0.35388417388E+03  0.10929236113E+02  0.64416024439E+03  0.46999998093E+01 0. -1.
</event>
<event>
 5   0  0.3756664E-04  0.1390582E+04  0.7818609E-02  0.8960664E-01
       -1   -1    0    0    0  501  0.00000000000E+00  0.00000000000E+00  0.38630185905E+03  0.38630185909E+03  0.50400001928E-02 0. -1.
        1   -1    0    0  501    0  0.00000000000E+00  0.00000000000E+00 -0.12514298029E+04  0.12514298029E+04  0.50400001928E-02 0.  1.
    10030    2    1    2    0    0  0.00000000000E+00  0.00000000000E+00 -0.86512794383E+03  0.16377316620E+04  0.13905821218E+04 0.  0.
        2    1    3    3  502    0  0.23717552859E+03  0.13698388124E+03 -0.11852187095E+04  0.12164539467E+04  0.25500000920E-02 0.  1.
       -2    1    3    3    0  502 -0.23717552859E+03 -0.13698388124E+03  0.32009076570E+03  0.42127771526E+03  0.25500000920E-02 0. -1.
</event>
<event>
 5   0  0.6870835E-04  0.1399283E+04  0.7818609E-02  0.8954338E-01
       -2   -1    0    0    0  501  0.00000000000E+00  0.00000000000E+00  0.53458314132E+03  0.53458314132E+03  0.25500000920E-02 0.  1.
        2   -1    0    0  501    0  0.00000000000E+00  0.00000000000E+00 -0.91566277416E+03  0.91566277416E+03  0.25500000920E-02 0. -1.
    10030    2    1    2    0    0  0.00000000000E+00  0.00000000000E+00 -0.38107963284E+03  0.14502459155E+04  0.13992825050E+04 0.  0.
        2    1    3    3  502    0  0.67414903943E+02 -0.20834053007E+03 -0.87923156782E+03  0.90608978341E+03  0.25500000920E-02 0. -1.
       -2    1    3    3    0  502 -0.67414903943E+02  0.20834053007E+03  0.49815193498E+03  0.54415613207E+03  0.25500000920E-02 0.  1.
</event>
<event>
 5   0  0.7296966E-04  0.1396115E+04  0.7818609E-02  0.8956636E-01
       -2   -1    0    0    0  501  0.00000000000E+00  0.00000000000E+00  0.28670231971E+03  0.28670231972E+03  0.25500000920E-02 0. -1.
        2   -1    0    0  501    0  0.00000000000E+00  0.00000000000E+00 -0.16996164180E+04  0.16996164180E+04  0.25500000920E-02 0.  1.
    10030    2    1    2    0    0  0.00000000000E+00  0.00000000000E+00 -0.14129140982E+04  0.19863187377E+04  0.13961145650E+04 0.  0.
        3    1    3    3  502    0 -0.13737251912E+03  0.22398117053E+03  0.21366059096E+03  0.33865857747E+03  0.10100000352E+00 0. -1.
       -3    1    3    3    0  502  0.13737251912E+03 -0.22398117053E+03 -0.16265746892E+04  0.16476601602E+04  0.10100000352E+00 0.  1.
</event>
<event>
 5   0  0.3977658E-04  0.1418782E+04  0.7818609E-02  0.8940335E-01
        1   -1    0    0  501    0  0.00000000000E+00  0.00000000000E+00  0.20462543254E+04  0.20462543255E+04  0.50400001928E-02 0.  1.
       -1   -1    0    0    0  501  0.00000000000E+00  0.00000000000E+00 -0.24592995883E+03  0.24592995888E+03  0.50400001928E-02 0. -1.
    10030    2    1    2    0    0  0.00000000000E+00  0.00000000000E+00  0.18003243666E+04  0.22921842843E+04  0.14187815083E+04 0.  0.
        5    1    3    3  502    0  0.66713240693E+03  0.19032468784E+03  0.66094406203E+03  0.95820575990E+03  0.46999998093E+01 0. -1.
       -5    1    3    3    0  502 -0.66713240693E+03 -0.19032468784E+03  0.11393803046E+04  0.13339785244E+04  0.46999998093E+01 0.  1.
</event>
<event>
 5   0  0.3977658E-04  0.1380942E+04  0.7818609E-02  0.8967731E-01
        1   -1    0    0  501    0  0.00000000000E+00  0.00000000000E+00  0.12922168427E+04  0.12922168427E+04  0.50400001928E-02 0.  1.
       -1   -1    0    0    0  501  0.00000000000E+00  0.00000000000E+00 -0.36893967013E+03  0.36893967017E+03  0.50400001928E-02 0. -1.
    10030    2    1    2    0    0  0.00000000000E+00  0.00000000000E+00  0.92327717255E+03  0.16611565129E+04  0.13809417884E+04 0.  0.
        5    1    3    3  502    0 -0.27692941697E+03  0.48358909843E+03 -0.28731645517E+02  0.55802859744E+03  0.46999998093E+01 0. -1.
       -5    1    3    3    0  502  0.27692941697E+03 -0.48358909843E+03  0.95200881806E+03  0.11031279154E+04  0.46999998093E+01 0.  1.
</event>
<event>
 5   0  0.7065539E-04  0.1429895E+04  0.7818609E-02  0.8932459E-01
       -2   -1    0    0    0  501  0.00000000000E+00  0.00000000000E+00  0.74492712329E+03  0.74492712329E+03  0.25500000920E-02 0.  1.
        2   -1    0    0  501    0  0.00000000000E+00  0.00000000000E+00 -0.68617455695E+03  0.68617455696E+03  0.25500000920E-02 0. -1.
    10030    2    1    2    0    0  0.00000000000E+00  0.00000000000E+00  0.58752566333E+02  0.14311016802E+04  0.14298951553E+04 0.  0.
        1    1    3    3  502    0 -0.44051649775E+03 -0.15502070692E+03  0.57118677508E+03  0.73779437272E+03  0.50400001928E-02 0.  1.
       -1    1    3    3    0  502  0.44051649775E+03  0.15502070692E+03 -0.51243420875E+03  0.69330730753E+03  0.50400001928E-02 0. -1.
</event>
<event>
 5   0  0.3907093E-04  0.1417566E+04  0.7818609E-02  0.8941200E-01
        1   -1    0    0  501    0  0.00000000000E+00  0.00000000000E+00  0.78662499560E+03  0.78662499562E+03  0.50400001928E-02 0. -1.
       -1   -1    0    0    0  501  0.00000000000E+00  0.00000000000E+00 -0.63864434484E+03  0.63864434486E+03  0.50400001928E-02 0.  1.
    10030    2    1    2    0    0  0.00000000000E+00  0.00000000000E+00  0.14798065076E+03  0.14252693405E+04  0.14175663723E+04 0.  0.
        4    1    3    3  502    0 -0.19383730227E+03 -0.63262111068E+03  0.32951621815E+03  0.73916501565E+03  0.12699999809E+01 0. -1.
       -4    1    3    3    0  502  0.19383730227E+03  0.63262111068E+03 -0.18153556739E+03  0.68610432484E+03  0.12699999809E+01 0.  1.
</event>
<event>
 5   0  0.3756664E-04  0.1396150E+04  0.7818609E-02  0.8956610E-01
        1   -1    0    0  501    0  0.00000000000E+00  0.00000000000E+00  0.83779624103E+03  0.83779624104E+03  0.50400001928E-02 0. -1.
       -1   -1    0    0    0  501  0.00000000000E+00  0.00000000000E+00 -0.58165502539E+03  0.58165502541E+03  0.50400001928E-02 0.  1.
    10030    2    1    2    0    0  0.00000000000E+00  0.00000000000E+00  0.25614121564E+03  0.14194512664E+04  0.13961495534E+04 0.  0.
        2    1    3    3  502    0 -0.16770377501E+03 -0.49526344525E+03  0.59828061064E+03  0.79457543721E+03  0.25500000920E-02 0. -1.
       -2    1    3    3    0  502  0.16770377501E+03  0.49526344525E+03 -0.34213939500E+03  0.62487582924E+03  0.25500000920E-02 0.  1.
</event>
<event>
 5   0  0.6895048E-04  0.1410265E+04  0.7818609E-02  0.8946422E-01
        2   -1    0    0  501    0  0.00000000000E+00  0.00000000000E+00  0.80648519936E+03  0.80648519936E+03  0.25500000920E-02 0.  1.
       -2   -1    0    0    0  501  0.00000000000E+00  0.00000000000E+00 -0.61651685883E+03  0.61651685884E+03  0.25500000920E-02 0. -1.
    10030    2    1    2    0    0  0.00000000000E+00  0.00000000000E+00  0.18996834053E+03  0.14230020582E+04  0.14102648288E+04 0.  0.
        4    1    3    3  502    0  0.68341583087E+03  0.46205149419E+02  0.26388173258E+03  0.73404856475E+03  0.12699999809E+01 0.  1.
       -4    1    3    3    0  502 -0.68341583087E+03 -0.46205149419E+02 -0.73913392053E+02  0.68895349345E+03  0.12699999809E+01 0. -1.
</event>
<event>
 5   0  0.6870835E-04  0.1410423E+04  0.7818609E-02  0.8946308E-01
        2   -1    0    0  501    0  0.00000000000E+00  0.00000000000E+00  0.95236901444E+03  0.95236901444E+03  0.25500000920E-02 0. -1.
       -2   -1    0    0    0  501  0.00000000000E+00  0.00000000000E+00 -0.52219595091E+03  0.52219595091E+03  0.25500000920E-02 0.  1.
    10030    2    1    2    0    0  0.00000000000E+00  0.00000000000E+00  0.43017306353E+03  0.14745649654E+04  0.14104229764E+04 0.  0.
        2    1    3    3  502    0  0.50100222031E+03  0.37284767164E+03  0.55755750813E+03  0.83719112864E+03  0.25500000920E-02 0. -1.
       -2    1    3    3    0  502 -0.50100222031E+03 -0.37284767164E+03 -0.12738444460E+03  0.63737383672E+03  0.25500000920E-02 0.  1.
</event>
<event>
 5   0  0.7296966E-04  0.1402822E+04  0.7818609E-02  0.8951778E-01
        2   -1    0    0  501    0  0.00000000000E+00  0.00000000000E+00  0.21208530291E+04  0.21208530291E+04  0.25500000920E-02 0.  1.
       -2   -1    0    0    0  501  0.00000000000E+00  0.00000000000E+00 -0.23197149257E+03  0.23197149259E+03  0.25500000920E-02 0. -1.
    10030    2    1    2    0    0  0.00000000000E+00  0.00000000000E+00  0.18888815366E+04  0.23528245217E+04  0.14028220738E+04 0.  0.
        3    1    3    3  502    0 -0.44744852902E+03 -0.53507971797E+03  0.82054353520E+03  0.10769457712E+04  0.10100000352E+00 0. -1.
       -3    1    3    3    0  502  0.44744852902E+03  0.53507971797E+03  0.10683380013E+04  0.12758787505E+04  0.10100000352E+00 0.  1.
</event>
<event>
 5   0  0.2660250E-04  0.1406710E+04  0.7818609E-02  0.8948975E-01
        4   -1    0    0  501    0  0.00000000000E+00  0.00000000000E+00  0.36781252935E+03  0.36781472190E+03  0.12699999809E+01 0. -1.
       -4   -1    0    0    0  501  0.00000000000E+00  0.00000000000E+00 -0.13449954739E+04  0.13449960735E+04  0.12699999809E+01 0.  1.
    10030    2    1    2    0    0  0.00000000000E+00  0.00000000000E+00 -0.97718294459E+03  0.17128107954E+04  0.14067104584E+04 0.  0.
        1    1    3    3  502    0  0.85389626211E+02 -0.26456779811E+03 -0.12752601508E+04  0.13052110788E+04  0.50400001928E-02 0.  1.
       -1    1    3    3    0  502 -0.85389626211E+02  0.26456779811E+03  0.29807720622E+03  0.40759971658E+03  0.50400001928E-02 0. -1.
</event>
<event>
 5   0  0.6895048E-04  0.1386465E+04  0.7818609E-02  0.8963674E-01
        2   -1    0    0  501    0  0.00000000000E+00  0.00000000000E+00  0.12221117225E+04  0.12221117225E+04  0.25500000920E-02 0.  1.
       -2   -1    0    0    0  501  0.00000000000E+00  0.00000000000E+00 -0.39323034790E+03  0.39323034791E+03  0.25500000920E-02 0. -1.
    10030    2    1    2    0    0  0.00000000000E+00  0.00000000000E+00  0.82888137464E+03  0.16153420704E+04  0.13864651713E+04 0.  0.
        4    1    3    3  502    0 -0.18194646389E+03  0.22483831842E+03  0.11484527757E+04  0.11843150662E+04  0.12699999809E+01 0.  1.
       -4    1    3    3    0  502  0.18194646389E+03 -0.22483831842E+03 -0.31957140103E+03  0.43102700426E+03  0.12699999809E+01 0. -1.
</event>
<event>
 5   0  0.7296966E-04  0.1400917E+04  0.7818609E-02  0.8953155E-01
       -2   -1    0    0    0  501  0.00000000000E+00  0.00000000000E+00  0.67814913758E+03  0.67814913758E+03  0.25500000920E-02 0. -1.
        2   -1    0    0  501    0  0.00000000000E+00  0.00000000000E+00 -0.72350142976E+03  0.72350142977E+03  0.25500000920E-02 0.  1.
    10030    2    1    2    0    0  0.00000000000E+00  0.00000000000E+00 -0.45352292187E+02  0.14016505673E+04  0.14009166580E+04 0.  0.
        3    1    3    3  502    0 -0.30079013315E+02  0.64004078532E+03 -0.30581716739E+03  0.70998669282E+03  0.10100000352E+00 0.  1.
       -3    1    3    3    0  502  0.30079013315E+02 -0.64004078532E+03  0.26046487521E+03  0.69166387453E+03  0.10100000352E+00 0. -1.
</event>
<event>
 5   0  0.3907270E-04  0.1417084E+04  0.7818609E-02  0.8941545E-01
       -1   -1    0    0    0  501  0.00000000000E+00  0.00000000000E+00  0.37657932857E+03  0.37657932860E+03  0.50400001928E-02 0. -1.
        1   -1    0    0  501    0  0.00000000000E+00  0.00000000000E+00 -0.13331362264E+04  0.13331362264E+04  0.50400001928E-02 0.  1.
    10030    2    1    2    0    0  0.00000000000E+00  0.00000000000E+00 -0.95655689779E+03  0.17097155550E+04  0.14170836885E+04 0.  0.
        3    1    3    3  502    0 -0.15765286731E+03 -0.15972535321E+03 -0.12891210241E+04  0.13085104661E+04  0.10100000352E+00 0.  1.
       -3    1    3    3    0  502  0.15765286731E+03  0.15972535321E+03  0.33256412628E+03  0.40120508885E+03  0.10100000352E+00 0. -1.
</event>
<event>
 5   0  0.7296966E-04  0.1400821E+04  0.7818609E-02  0.8953224E-01
        2   -1    0    0  501    0  0.00000000000E+00  0.00000000000E+00  0.10028049883E+04  0.10028049883E+04  0.25500000920E-02 0. -1.
       -2   -1    0    0    0  501  0.00000000000E+00  0.00000000000E+00 -0.48920288980E+03  0.48920288981E+03  0.25500000920E-02 0.  1.
    10030    2    1    2    0    0  0.00000000000E+00  0.00000000000E+00  0.51360209852E+03  0.14920078781E+04  0.14008213279E+04 0.  0.
        3    1    3    3  502    0 -0.43682493438E+02  0.21044444429E+03 -0.45321089431E+03  0.50159261287E+03  0.10100000352E+00 0.  1.
       -3    1    3    3    0  502  0.43682493438E+02 -0.21044444429E+03  0.96681299283E+03  0.99041526526E+03  0.10100000352E+00 0. -1.
</event>
<event>
 5   0  0.3756664E-04  0.1401176E+04  0.7818609E-02  0.8952968E-01
        1   -1    0    0  501    0  0.00000000000E+00  0.00000000000E+00  0.12873518127E+04  0.12873518127E+04  0.50400001928E-02 0. -1.
       -1   -1    0    0    0  501  0.00000000000E+00  0.00000000000E+00 -0.38126603176E+03  0.38126603179E+03  0.50400001928E-02 0.  1.
    10030    2    1    2    0    0  0.00000000000E+00  0.00000000000E+00  0.90608578096E+03  0.16686178445E+04  0.14011759592E+04 0.  0.
        2    1    3    3  502    0 -0.62162517117E+02  0.10037796078E+03 -0.36933306075E+03  0.38774582307E+03  0.25500000920E-02 0.  1.
       -2    1    3    3    0  502  0.62162517117E+02 -0.10037796078E+03  0.12754188417E+04  0.12808720215E+04  0.25500000920E-02 0. -1.
</event>
<event>
 5   0  0.3784219E-04  0.1395747E+04  0.7818609E-02  0.8956903E-01
       -1   -1    0    0    0  501  0.00000000000E+00  0.00000000000E+00  0.59158480836E+03  0.59158480839E+03  0.50400001928E-02 0. -1.
        1   -1    0    0  501    0  0.00000000000E+00  0.00000000000E+00 -0.82325865690E+03  0.82325865692E+03  0.50400001928E-02 0.  1.
    10030    2    1    2    0    0  0.00000000000E+00  0.00000000000E+00 -0.23167384854E+03  0.14148434653E+04  0.13957468464E+04 0.  0.
        1    1    3    3  502    0 -0.33116530369E+03 -0.22459677710E+03  0.46374913286E+03  0.61251728866E+03  0.50400001928E-02 0. -1.
       -1    1    3    3    0  502  0.33116530369E+03  0.22459677710E+03 -0.69542298140E+03  0.80232617665E+03  0.50400001928E-02 0.  1.
</event>
<event>
 5   0  0.6895048E-04  0.1390625E+04  0.7818609E-02  0.8960633E-01
        2   -1    0    0  501    0  0.00000000000E+00  0.00000000000E+00  0.10548987143E+04  0.10548987143E+04  0.25500000920E-02 0. -1.
       -2   -1    0    0    0  501  0.00000000000E+00  0.00000000000E+00 -0.45829945067E+03  0.45829945068E+03  0.25500000920E-02 0.  1.
    10030    2    1    2    0    0  0.00000000000E+00  0.00000000000E+00  0.59659926358E+03  0.15131981649E+04  0.13906250412E+04 0.  0.
        4    1    3    3  502    0 -0.22761804097E+03  0.22694704014E+03 -0.37260259696E+03  0.49208661815E+03  0.12699999809E+01 0.  1.
       -4    1    3    3    0  502  0.22761804097E+03 -0.22694704014E+03  0.96920186055E+03  0.10211115468E+04  0.12699999809E+01 0. -1.
</event>
<event>
 5   0  0.6895048E-04  0.1404958E+04  0.7818609E-02  0.8950237E-01
        2   -1    0    0  501    0  0.00000000000E+00  0.00000000000E+00  0.24714303401E+04  0.24714303401E+04  0.25500000920E-02 0. -1.
       -2   -1    0    0    0  501  0.00000000000E+00  0.00000000000E+00 -0.19967258728E+03  0.19967258729E+03  0.25500000920E-02 0.  1.
    10030    2    1    2    0    0  0.00000000000E+00  0.00000000000E+00  0.22717577528E+04  0.26711029274E+04  0.14049582062E+04 0.  0.
        4    1    3    3  502    0 -0.65742916966E+03 -0.14782712949E+02  0.66614983263E+03  0.93604960026E+03  0.12699999809E+01 0.  1.
       -4    1    3    3    0  502  0.65742916966E+03  0.14782712949E+02  0.16056079202E+04  0.17350533271E+04  0.12699999809E+01 0. -1.
</event>
<event>
 5   0  0.6895048E-04  0.1391072E+04  0.7818609E-02  0.8960306E-01
        2   -1    0    0  501    0  0.00000000000E+00  0.00000000000E+00  0.81387055302E+03  0.81387055303E+03  0.25500000920E-02 0.  1.
       -2   -1    0    0    0  501  0.00000000000E+00  0.00000000000E+00 -0.59440716514E+03  0.59440716514E+03  0.25500000920E-02 0. -1.
    10030    2    1    2    0    0  0.00000000000E+00  0.00000000000E+00  0.21946338788E+03  0.14082777182E+04  0.13910722314E+04 0.  0.
        4    1    3    3  502    0 -0.31295917279E+03  0.50228655260E+03 -0.26021060203E+03  0.64648773776E+03  0.12699999809E+01 0. -1.
       -4    1    3    3    0  502  0.31295917279E+03 -0.50228655260E+03  0.47967398991E+03  0.76178998041E+03  0.12699999809E+01 0.  1.
</event>
<event>
 5   0  0.2660250E-04  0.1389326E+04  0.7818609E-02  0.8961581E-01
       -3   -1    0    0    0  501  0.00000000000E+00  0.00000000000E+00  0.84100988653E+03  0.84100989259E+03  0.10100000352E+00 0. -1.
        3   -1    0    0  501    0  0.00000000000E+00  0.00000000000E+00 -0.57378259780E+03  0.57378260669E+03  0.10100000352E+00 0.  1.
    10030    2    1    2    0    0  0.00000000000E+00  0.00000000000E+00  0.26722728873E+03  0.14147924993E+04  0.13893262368E+04 0.  0.
        1    1    3    3  502    0 -0.13226446313E+03 -0.34876670925E+03 -0.46315267194E+03  0.59467848729E+03  0.50400001928E-02 0.  1.
       -1    1    3    3    0  502  0.13226446313E+03  0.34876670925E+03  0.73037996067E+03  0.82011401199E+03  0.50400001928E-02 0. -1.
</event>
<event>
 5   0  0.3784219E-04  0.1425230E+04  0.7818609E-02  0.8935756E-01
       -1   -1    0    0    0  501  0.00000000000E+00  0.00000000000E+00  0.50658003093E+03  0.50658003096E+03  0.50400001928E-02 0. -1.
        1   -1    0    0  501    0  0.00000000000E+00  0.00000000000E+00 -0.10024481434E+04  0.10024481434E+04  0.50400001928E-02 0.  1.
    10030    2    1    2    0    0  0.00000000000E+00  0.00000000000E+00 -0.49586811243E+03  0.15090281743E+04  0.14252301028E+04 0.  0.
        1    1    3    3  502    0 -0.25160477374E+03  0.44229828648E+03  0.28028477829E+03  0.58094086907E+03  0.50400001928E-02 0. -1.
       -1    1    3    3    0  502  0.25160477374E+03 -0.44229828648E+03 -0.77615289072E+03  0.92808730527E+03  0.50400001928E-02 0.  1.
</event>
<event>
 5   0  0.2660250E-04  0.1413998E+04  0.7818609E-02  0.8943748E-01
        3   -1    0    0  501    0  0.00000000000E+00  0.00000000000E+00  0.77962576155E+03  0.77962576809E+03  0.10100000352E+00 0.  1.
       -3   -1    0    0    0  501  0.00000000000E+00  0.00000000000E+00 -0.64113742216E+03  0.64113743012E+03  0.10100000352E+00 0. -1.
    10030    2    1    2    0    0  0.00000000000E+00  0.00000000000E+00  0.13848833939E+03  0.14207631982E+04  0.14139975407E+04 0.  0.
        1    1    3    3  502    0 -0.59601700543E+03 -0.62141218604E+02  0.44620516273E+03  0.74712572508E+03  0.50400001928E-02 0.  1.
       -1    1    3    3    0  502  0.59601700543E+03  0.62141218604E+02 -0.30771682334E+03  0.67363747313E+03  0.50400001928E-02 0. -1.
</event>
<event>
 5   0  0.7296966E-04  0.1413920E+04  0.7818609E-02  0.8943804E-01
        2   -1    0    0  501    0  0.00000000000E+00  0.00000000000E+00  0.68856640718E+03  0.68856640719E+03  0.25500000920E-02 0. -1.
       -2   -1    0    0    0  501  0.00000000000E+00  0.00000000000E+00 -0.72584456189E+03  0.72584456189E+03  0.25500000920E-02 0.  1.
    10030    2    1    2    0    0  0.00000000000E+00  0.00000000000E+00 -0.37278154701E+02  0.14144109691E+04  0.14139196330E+04 0.  0.
        3    1    3    3  502    0 -0.51658648272E+03  0.31964504318E+03  0.34309081684E+03  0.69767174700E+03  0.10100000352E+00 0. -1.
       -3    1    3    3    0  502  0.51658648272E+03 -0.31964504318E+03 -0.38036897154E+03  0.71673922208E+03  0.10100000352E+00 0.  1.
</event>
<event>
 5   0  0.7065539E-04  0.1448700E+04  0.7818609E-02  0.8919302E-01
       -2   -1    0    0    0  501  0.00000000000E+00  0.00000000000E+00  0.55229563324E+03  0.55229563325E+03  0.25500000920E-02 0.  1.
        2   -1    0    0  501    0  0.00000000000E+00  0.00000000000E+00 -0.95000414781E+03  0.95000414782E+03  0.25500000920E-02 0. -1.
    10030    2    1    2    0    0  0.00000000000E+00  0.00000000000E+00 -0.39770851457E+03  0.15022997811E+04  0.14487003036E+04 0.  0.
        1    1    3    3  502    0  0.11060163028E+03 -0.64408742442E+03  0.12511738086E+03  0.66538386661E+03  0.50400001928E-02 0.  1.
       -1    1    3    3    0  502 -0.11060163028E+03  0.64408742442E+03 -0.52282589543E+03  0.83691591446E+03  0.50400001928E-02 0. -1.
</event>
<event>
 5   0  0.2660250E-04  0.1404799E+04  0.7818609E-02  0.8950352E-01
        4   -1    0    0  501    0  0.00000000000E+00  0.00000000000E+00  0.99156027293E+03  0.99156108624E+03  0.12699999809E+01 0. -1.
       -4   -1    0    0    0  501  0.00000000000E+00  0.00000000000E+00 -0.49756287171E+03  0.49756449251E+03  0.12699999809E+01 0.  1.
    10030    2    1    2    0    0  0.00000000000E+00  0.00000000000E+00  0.49399740121E+03  0.14891255787E+04  0.14047994721E+04 0.  0.
        3    1    3    3  502    0  0.89733346093E+02  0.17897433023E+03  0.96067452087E+03  0.98131515301E+03  0.10100000352E+00 0. -1.
       -3    1    3    3    0  502 -0.89733346093E+02 -0.17897433023E+03 -0.46667711965E+03  0.50781042574E+03  0.10100000352E+00 0.  1.
</event>
<event>
 5   0  0.3784219E-04  0.1407977E+04  0.7818609E-02  0.8948065E-01
        1   -1    0    0  501    0  0.00000000000E+00  0.00000000000E+00  0.81854410210E+03  0.81854410212E+03  0.50400001928E-02 0.  1.
       -1   -1    0    0    0  501  0.00000000000E+00  0.00000000000E+00 -0.60546480712E+03  0.60546480714E+03  0.50400001928E-02 0. -1.
    10030    2    1    2    0    0  0.00000000000E+00  0.00000000000E+00  0.21307929498E+03  0.14240089093E+04  0.14079767710E+04 0.  0.
        1    1    3    3  502    0 -0.14182143713E+03  0.25419572686E+03  0.75483048977E+03  0.80901041767E+03  0.50400001928E-02 0.  1.
       -1    1    3    3    0  502  0.14182143713E+03 -0.25419572686E+03 -0.54175119479E+03  0.61499849159E+03  0.50400001928E-02 0. -1.
</event>
<event>
 5   0  0.3756664E-04  0.1413518E+04  0.7818609E-02  0.8944091E-01
        1   -1    0    0  501    0  0.00000000000E+00  0.00000000000E+00  0.75838371317E+03  0.75838371319E+03  0.50400001928E-02 0. -1.
       -1   -1    0    0    0  501  0.00000000000E+00  0.00000000000E+00 -0.65864823393E+03  0.65864823395E+03  0.50400001928E-02 0.  1.
    10030    2    1    2    0    0  0.00000000000E+00  0.00000000000E+00  0.99735479241E+02  0.14170319471E+04  0.14135177301E+04 0.  0.
        2    1    3    3  502    0 -0.41872973642E+03 -0.56625794592E+03 -0.96552911863E+01  0.70432654226E+03  0.25500000920E-02 0.  1.
       -2    1    3    3    0  502  0.41872973642E+03  0.56625794592E+03  0.10939077043E+03  0.71270540488E+03  0.25500000920E-02 0. -1.
</event>
<event>
 5   0  0.7296966E-04  0.1323590E+04  0.7818609E-02  0.9011064E-01
       -2   -1    0    0    0  501  0.00000000000E+00  0.00000000000E+00  0.63257642548E+03  0.63257642549E+03  0.25500000920E-02 0.  1.
        2   -1    0    0  501    0  0.00000000000E+00  0.00000000000E+00 -0.69236338158E+03  0.69236338158E+03  0.25500000920E-02 0. -1.
    10030    2    1    2    0    0  0.00000000000E+00  0.00000000000E+00 -0.59786956094E+02  0.13249398071E+04  0.13235901980E+04 0.  0.
        3    1    3    3  502    0  0.24003302464E+03  0.21876877644E+03  0.54732010863E+03  0.63642355548E+03  0.10100000352E+00 0.  1.
       -3    1    3    3    0  502 -0.24003302464E+03 -0.21876877644E+03 -0.60710706472E+03  0.68851625159E+03  0.10100000352E+00 0. -1.
</event>
<event>
 5   0  0.3756664E-04  0.1413889E+04  0.7818609E-02  0.8943826E-01
        1   -1    0    0  501    0  0.00000000000E+00  0.00000000000E+00  0.11783296713E+04  0.11783296713E+04  0.50400001928E-02 0.  1.
       -1   -1    0    0    0  501  0.00000000000E+00  0.00000000000E+00 -0.42413486247E+03  0.42413486250E+03  0.50400001928E-02 0. -1.
    10030    2    1    2    0    0  0.00000000000E+00  0.00000000000E+00  0.75419480884E+03  0.16024645338E+04  0.14138892363E+04 0.  0.
        2    1    3    3  502    0  0.18531014525E+03  0.25968069761E+03  0.10921085580E+04  0.11377499800E+04  0.25500000920E-02 0.  1.
       -2    1    3    3    0  502 -0.18531014525E+03 -0.25968069761E+03 -0.33791374913E+03  0.46471455379E+03  0.25500000920E-02 0. -1.
</event>
<event>
 5   0  0.6870835E-04  0.1422670E+04  0.7818609E-02  0.8937571E-01
        2   -1    0    0  501    0  0.00000000000E+00  0.00000000000E+00  0.54707280142E+03  0.54707280143E+03  0.25500000920E-02 0. -1.
       -2   -1    0    0    0  501  0.00000000000E+00  0.00000000000E+00 -0.92491739325E+03  0.92491739325E+03  0.25500000920E-02 0.  1.
    10030    2    1    2    0    0  0.00000000000E+00  0.00000000000E+00 -0.37784459183E+03  0.14719901947E+04  0.14226695321E+04 0.  0.
        2    1    3    3  502    0  0.34804404692E+03 -0.14361725831E+03  0.43552050407E+03  0.57570711734E+03  0.25500000920E-02 0. -1.
       -2    1    3    3    0  502 -0.34804404692E+03  0.14361725831E+03 -0.81336509590E+03  0.89628307734E+03  0.25500000920E-02 0.  1.
</event>
<event>
 5   0  0.3907270E-04  0.1393791E+04  0.7818609E-02  0.8958326E-01
       -1   -1    0    0    0  501  0.00000000000E+00  0.00000000000E+00  0.47211682480E+03  0.47211682483E+03  0.50400001928E-02 0.  1.
        1   -1    0    0  501    0  0.00000000000E+00  0.00000000000E+00 -0.10286924997E+04  0.10286924997E+04  0.50400001928E-02 0. -1.
    10030    2    1    2    0    0  0.00000000000E+00  0.00000000000E+00 -0.55657567489E+03  0.15008093245E+04  0.13937905678E+04 0.  0.
        3    1    3    3  502    0 -0.30744208341E+03 -0.22238544614E+03 -0.90771037983E+03  0.98382623728E+03  0.10100000352E+00 0. -1.
       -3    1    3    3    0  502  0.30744208341E+03  0.22238544614E+03  0.35113470494E+03  0.51698308726E+03  0.10100000352E+00 0.  1.
</event>
<event>
 5   0  0.3784219E-04  0.1395894E+04  0.7818609E-02  0.8956796E-01
        1   -1    0    0  501    0  0.00000000000E+00  0.00000000000E+00  0.57515541619E+03  0.57515541621E+03  0.50400001928E-02 0.  1.
       -1   -1    0    0    0  501  0.00000000000E+00  0.00000000000E+00 -0.84695424408E+03  0.84695424409E+03  0.50400001928E-02 0. -1.
    10030    2    1    2    0    0  0.00000000000E+00  0.00000000000E+00 -0.27179882789E+03  0.14221096603E+04  0.13958944384E+04 0.  0.
        1    1    3    3  502    0  0.23294081094E+03  0.15471975093E+03  0.51558700477E+03  0.58654035005E+03  0.50400001928E-02 0.  1.
       -1    1    3    3    0  502 -0.23294081094E+03 -0.15471975093E+03 -0.78738583266E+03  0.83556931024E+03  0.50400001928E-02 0. -1.
</event>
<event>
 5   0  0.6895048E-04  0.1371211E+04  0.7818609E-02  0.8974925E-01
       -2   -1    0    0    0  501  0.00000000000E+00  0.00000000000E+00  0.60644270115E+03  0.60644270115E+03  0.25500000920E-02 0. -1.
        2   -1    0    0  501    0  0.00000000000E+00  0.00000000000E+00 -0.77510217103E+03  0.77510217104E+03  0.25500000920E-02 0.  1.
    10030    2    1    2    0    0  0.00000000000E+00  0.00000000000E+00 -0.16865946988E+03  0.13815448722E+04  0.13712112226E+04 0.  0.
        4    1    3    3  502    0  0.24230479004E+03  0.35148530450E+02  0.56089189118E+03  0.61200355959E+03  0.12699999809E+01 0. -1.
       -4    1    3    3    0  502 -0.24230479004E+03 -0.35148530450E+02 -0.72955136106E+03  0.76954131260E+03  0.12699999809E+01 0.  1.
</event>
<event>
 5   0  0.6959748E-04  0.1395431E+04  0.7818609E-02  0.8957133E-01
       -2   -1    0    0    0  501  0.00000000000E+00  0.00000000000E+00  0.43998428878E+03  0.43998428878E+03  0.25500000920E-02 0.  1.
        2   -1    0    0  501    0  0.00000000000E+00  0.00000000000E+00 -0.11064181090E+04  0.11064181090E+04  0.25500000920E-02 0. -1.
    10030    2    1    2    0    0  0.00000000000E+00  0.00000000000E+00 -0.66643382019E+03  0.15464023978E+04  0.13954305211E+04 0.  0.
        5    1    3    3  502    0  0.12531277094E+03  0.54854217943E+03 -0.79038086174E+03  0.97021946475E+03  0.46999998093E+01 0. -1.
       -5    1    3    3    0  502 -0.12531277094E+03 -0.54854217943E+03  0.12394704155E+03  0.57618293300E+03  0.46999998093E+01 0.  1.
</event>
<event>
 5   0  0.3756664E-04  0.1392336E+04  0.7818609E-02  0.8959385E-01
        1   -1    0    0  501    0  0.00000000000E+00  0.00000000000E+00  0.62600246125E+03  0.62600246127E+03  0.50400001928E-02 0. -1.
       -1   -1    0    0    0  501  0.00000000000E+00  0.00000000000E+00 -0.77419775915E+03  0.77419775916E+03  0.50400001928E-02 0.  1.
    10030    2    1    2    0    0  0.00000000000E+00  0.00000000000E+00 -0.14819529789E+03  0.14002002204E+04  0.13923357393E+04 0.  0.
        2    1    3    3  502    0  0.61211912087E+03  0.31317324262E+03 -0.18371980535E+03  0.71170237101E+03  0.25500000920E-02 0.  1.
       -2    1    3    3    0  502 -0.61211912087E+03 -0.31317324262E+03  0.35524507455E+02  0.68849784942E+03  0.25500000920E-02 0. -1.
</event>
<event>
 5   0  0.3756664E-04  0.1397467E+04  0.7818609E-02  0.8955654E-01
       -1   -1    0    0    0  501  0.00000000000E+00  0.00000000000E+00  0.30244480838E+03  0.30244480842E+03  0.50400001928E-02 0. -1.
        1   -1    0    0  501    0  0.00000000000E+00  0.00000000000E+00 -0.16142729488E+04  0.16142729488E+04  0.50400001928E-02 0.  1.
    10030    2    1    2    0    0  0.00000000000E+00  0.00000000000E+00 -0.13118281404E+04  0.19167177572E+04  0.13974669552E+04 0.  0.
        2    1    3    3  502    0  0.37095750483E+02  0.29356841021E+03 -0.15240945441E+04  0.15525536015E+04  0.25500000920E-02 0.  1.
       -2    1    3    3    0  502 -0.37095750483E+02 -0.29356841021E+03  0.21226640368E+03  0.36416415572E+03  0.25500000920E-02 0. -1.
</event>
<event>
 5   0  0.3784219E-04  0.1403980E+04  0.7818609E-02  0.8950943E-01
       -1   -1    0    0    0  501  0.00000000000E+00  0.00000000000E+00  0.47593888967E+03  0.47593888970E+03  0.50400001928E-02 0. -1.
        1   -1    0    0  501    0  0.00000000000E+00  0.00000000000E+00 -0.10354055031E+04  0.10354055031E+04  0.50400001928E-02 0.  1.
    10030    2    1    2    0    0  0.00000000000E+00  0.00000000000E+00 -0.55946661338E+03  0.15113443928E+04  0.14039796943E+04 0.  0.
        1    1    3    3  502    0  0.45972345717E+03  0.39351410529E+03 -0.66273754262E+03  0.89745198120E+03  0.50400001928E-02 0. -1.
       -1    1    3    3    0  502 -0.45972345717E+03 -0.39351410529E+03  0.10327092924E+03  0.61389241157E+03  0.50400001928E-02 0.  1.
</event>
<event>
 5   0  0.3977658E-04  0.1393834E+04  0.7818609E-02  0.8958294E-01
        1   -1    0    0  501    0  0.00000000000E+00  0.00000000000E+00  0.14281041076E+04  0.14281041076E+04  0.50400001928E-02 0.  1.
       -1   -1    0    0    0  501  0.00000000000E+00  0.00000000000E+00 -0.34009663556E+03  0.34009663560E+03  0.50400001928E-02 0. -1.
    10030    2    1    2    0    0  0.00000000000E+00  0.00000000000E+00  0.10880074720E+04  0.17682007432E+04  0.13938341397E+04 0.  0.
        5    1    3    3  502    0  0.55391071135E+03  0.63749374533E+02  0.10743738905E+04  0.12104471924E+04  0.46999998093E+01 0. -1.
       -5    1    3    3    0  502 -0.55391071135E+03 -0.63749374533E+02  0.13633581502E+02  0.55775355082E+03  0.46999998093E+01 0.  1.
</event>
<event>
 5   0  0.3907270E-04  0.1413487E+04  0.7818609E-02  0.8944113E-01
       -1   -1    0    0    0  501  0.00000000000E+00  0.00000000000E+00  0.53592436313E+03  0.53592436315E+03  0.50400001928E-02 0. -1.
        1   -1    0    0  501    0  0.00000000000E+00  0.00000000000E+00 -0.93200965794E+03  0.93200965795E+03  0.50400001928E-02 0.  1.
    10030    2    1    2    0    0  0.00000000000E+00  0.00000000000E+00 -0.39608529481E+03  0.14679340211E+04  0.14134874352E+04 0.  0.
        3    1    3    3  502    0  0.18597331245E+03  0.42788201257E+03 -0.74935614614E+03  0.88272517443E+03  0.10100000352E+00 0.  1.
       -3    1    3    3    0  502 -0.18597331245E+03 -0.42788201257E+03  0.35327085133E+03  0.58520884667E+03  0.10100000352E+00 0. -1.
</event>
<event>
 5   0  0.7065539E-04  0.1399415E+04  0.7818609E-02  0.8954242E-01
        2   -1    0    0  501    0  0.00000000000E+00  0.00000000000E+00  0.29891808164E+03  0.29891808165E+03  0.25500000920E-02 0. -1.
       -2   -1    0    0    0  501  0.00000000000E+00  0.00000000000E+00 -0.16378755467E+04  0.16378755467E+04  0.25500000920E-02 0.  1.
    10030    2    1    2    0    0  0.00000000000E+00  0.00000000000E+00 -0.13389574651E+04  0.19367936284E+04  0.13994150441E+04 0.  0.
        1    1    3    3  502    0  0.22307311631E+03  0.26073091719E+03  0.17447718378E+03  0.38494741730E+03  0.50400001928E-02 0. -1.
       -1    1    3    3    0  502 -0.22307311631E+03 -0.26073091719E+03 -0.15134346489E+04  0.15518462111E+04  0.50400001928E-02 0.  1.
</event>
<event>
 5   0  0.3907270E-04  0.1377577E+04  0.7818609E-02  0.8970211E-01
       -1   -1    0    0    0  501  0.00000000000E+00  0.00000000000E+00  0.11104749703E+04  0.11104749703E+04  0.50400001928E-02 0.  1.
        1   -1    0    0  501    0  0.00000000000E+00  0.00000000000E+00 -0.42723136071E+03  0.42723136074E+03  0.50400001928E-02 0. -1.
    10030    2    1    2    0    0  0.00000000000E+00  0.00000000000E+00  0.68324360963E+03  0.15377063311E+04  0.13775771959E+04 0.  0.
        3    1    3    3  502    0 -0.40822885259E+03  0.88986701986E+02 -0.26962547324E+03  0.49725982669E+03  0.10100000352E+00 0. -1.
       -3    1    3    3    0  502  0.40822885259E+03 -0.88986701986E+02  0.95286908287E+03  0.10404465044E+04  0.10100000352E+00 0.  1.
</event>
<event>
 5   0  0.3784219E-04  0.1403805E+04  0.7818609E-02  0.8951069E-01
        1   -1    0    0  501    0  0.00000000000E+00  0.00000000000E+00  0.42562561126E+03  0.42562561129E+03  0.50400001928E-02 0. -1.
       -1   -1    0    0    0  501  0.00000000000E+00  0.00000000000E+00 -0.11575125657E+04  0.11575125657E+04  0.50400001928E-02 0.  1.
    10030    2    1    2    0    0  0.00000000000E+00  0.00000000000E+00 -0.73188695444E+03  0.15831381770E+04  0.14038048203E+04 0.  0.
        1    1    3    3  502    0 -0.84823756514E+01 -0.31877418081E+03  0.33921752876E+03  0.46557218655E+03  0.50400001928E-02 0. -1.
       -1    1    3    3    0  502  0.84823756514E+01  0.31877418081E+03 -0.10711044832E+04  0.11175659904E+04  0.50400001928E-02 0.  1.
</event>
<event>
 5   0  0.3784219E-04  0.1453768E+04  0.7818609E-02  0.8915793E-01
       -1   -1    0    0    0  501  0.00000000000E+00  0.00000000000E+00  0.32184254842E+03  0.32184254846E+03  0.50400001928E-02 0.  1.
        1   -1    0    0  501    0  0.00000000000E+00  0.00000000000E+00 -0.16416729182E+04  0.16416729182E+04  0.50400001928E-02 0. -1.
    10030    2    1    2    0    0  0.00000000000E+00  0.00000000000E+00 -0.13198303698E+04  0.19635154666E+04  0.14537677885E+04 0.  0.
        1    1    3    3  502    0  0.96425153703E+02 -0.42644288634E+03 -0.14442270170E+04  0.15089542810E+04  0.50400001928E-02 0. -1.
       -1    1    3    3    0  502 -0.96425153703E+02  0.42644288634E+03  0.12439664726E+03  0.45456118560E+03  0.50400001928E-02 0.  1.
</event>
<event>
 5   0  0.3756664E-04  0.1401969E+04  0.7818609E-02  0.8952395E-01
       -1   -1    0    0    0  501  0.00000000000E+00  0.00000000000E+00  0.24470092044E+03  0.24470092049E+03  0.50400001928E-02 0. -1.
        1   -1    0    0  501    0  0.00000000000E+00  0.00000000000E+00 -0.20080803220E+04  0.20080803220E+04  0.50400001928E-02 0.  1.
    10030    2    1    2    0    0  0.00000000000E+00  0.00000000000E+00 -0.17633794015E+04  0.22527812425E+04  0.14019687631E+04 0.  0.
        2    1    3    3  502    0 -0.59184295589E+03 -0.14847016787E+03 -0.32724364683E+03  0.69239430932E+03  0.25500000920E-02 0. -1.
       -2    1    3    3    0  502  0.59184295589E+03  0.14847016787E+03 -0.14361357547E+04  0.15603869331E+04  0.25500000920E-02 0.  1.
</event>
<event>
 5   0  0.3907270E-04  0.1385899E+04  0.7818609E-02  0.8964089E-01
       -1   -1    0    0    0  501  0.00000000000E+00  0.00000000000E+00  0.53788562256E+03  0.53788562258E+03  0.50400001928E-02 0. -1.
        1   -1    0    0  501    0  0.00000000000E+00  0.00000000000E+00 -0.89271572648E+03  0.89271572650E+03  0.50400001928E-02 0.  1.
    10030    2    1    2    0    0  0.00000000000E+00  0.00000000000E+00 -0.35483010393E+03  0.14306013491E+04  0.13858989203E+04 0.  0.
        3    1    3    3  502    0 -0.63042447163E+03  0.23580972312E+03 -0.34746387324E+03  0.75747765205E+03  0.10100000352E+00 0.  1.
       -3    1    3    3    0  502  0.63042447163E+03 -0.23580972312E+03 -0.73662306826E+01  0.67312369703E+03  0.10100000352E+00 0. -1.
</event>
<event>
 5   0  0.7065539E-04  0.1401465E+04  0.7818609E-02  0.8952759E-01
       -2   -1    0    0    0  501  0.00000000000E+00  0.00000000000E+00  0.76972579675E+03  0.76972579676E+03  0.25500000920E-02 0.  1.
        2   -1    0    0  501    0  0.00000000000E+00  0.00000000000E+00 -0.63792305982E+03  0.63792305982E+03  0.25500000920E-02 0. -1.
    10030    2    1    2    0    0  0.00000000000E+00  0.00000000000E+00  0.13180273694E+03  0.14076488566E+04  0.14014647131E+04 0.  0.
        1    1    3    3  502    0  0.46148048552E+03  0.49957839145E+02  0.59316137656E+03  0.75319349631E+03  0.50400001928E-02 0.  1.
       -1    1    3    3    0  502 -0.46148048552E+03 -0.49957839145E+02 -0.46135863962E+03  0.65445536027E+03  0.50400001928E-02 0. -1.
</event>
<event>
 5   0  0.7296966E-04  0.1413038E+04  0.7818609E-02  0.8944435E-01
        2   -1    0    0  501    0  0.00000000000E+00  0.00000000000E+00  0.12397498000E+04  0.12397498000E+04  0.25500000920E-02 0.  1.
       -2   -1    0    0    0  501  0.00000000000E+00  0.00000000000E+00 -0.40263671183E+03  0.40263671184E+03  0.25500000920E-02 0. -1.
    10030    2    1    2    0    0  0.00000000000E+00  0.00000000000E+00  0.83711308814E+03  0.16423865118E+04  0.14130375550E+04 0.  0.
        3    1    3    3  502    0 -0.51856489052E+03 -0.27184679247E+03  0.87815914775E+03  0.10554495361E+04  0.10100000352E+00 0.  1.
       -3    1    3    3    0  502  0.51856489052E+03  0.27184679247E+03 -0.41046059610E+02  0.58693697572E+03  0.10100000352E+00 0. -1.
</event>
<event>
 5   0  0.3907270E-04  0.1394314E+04  0.7818609E-02  0.8957945E-01
       -1   -1    0    0    0  501  0.00000000000E+00  0.00000000000E+00  0.82466643460E+03  0.82466643461E+03  0.50400001928E-02 0.  1.
        1   -1    0    0  501    0  0.00000000000E+00  0.00000000000E+00 -0.58936313135E+03  0.58936313137E+03  0.50400001928E-02 0. -1.
    10030    2    1    2    0    0  0.00000000000E+00  0.00000000000E+00  0.23530330325E+03  0.14140295660E+04  0.13943141572E+04 0.  0.
        3    1    3    3  502    0 -0.35114529893E+03 -0.42103229496E+03 -0.31908455371E+03  0.63433916557E+03  0.10100000352E+00 0. -1.
       -3    1    3    3    0  502  0.35114529893E+03  0.42103229496E+03  0.55438785696E+03  0.77969040042E+03  0.10100000352E+00 0.  1.
</event>
<event>
 5   0  0.6959748E-04  0.1410186E+04  0.7818609E-02  0.8946478E-01
        2   -1    0    0  501    0  0.00000000000E+00  0.00000000000E+00  0.17098828196E+04  0.17098828196E+04  0.25500000920E-02 0.  1.
       -2   -1    0    0    0  501  0.00000000000E+00  0.00000000000E+00 -0.29075443342E+03  0.29075443343E+03  0.25500000920E-02 0. -1.
    10030    2    1    2    0    0  0.00000000000E+00  0.00000000000E+00  0.14191283862E+04  0.20006372531E+04  0.14101858182E+04 0.  0.
        5    1    3    3  502    0 -0.45702016427E+03  0.41293133829E+03  0.22273096661E+03  0.65498923211E+03  0.46999998093E+01 0. -1.
       -5    1    3    3    0  502  0.45702016427E+03 -0.41293133829E+03  0.11963974196E+04  0.13456480209E+04  0.46999998093E+01 0.  1.
</event>
<event>
 5   0  0.3907093E-04  0.1372341E+04  0.7818609E-02  0.8974086E-01
       -1   -1    0    0    0  501  0.00000000000E+00  0.00000000000E+00  0.15835700565E+04  0.15835700565E+04  0.50400001928E-02 0.  1.
        1   -1    0    0  501    0  0.00000000000E+00  0.00000000000E+00 -0.29732187364E+03  0.29732187369E+03  0.50400001928E-02 0. -1.
    10030    2    1    2    0    0  0.00000000000E+00  0.00000000000E+00  0.12862481829E+04  0.18808919302E+04  0.13723410892E+04 0.  0.
        4    1    3    3  502    0  0.11625422668E+03 -0.17862771663E+03  0.15370537062E+04  0.15517598445E+04  0.12699999809E+01 0.  1.
       -4    1    3    3    0  502 -0.11625422668E+03  0.17862771663E+03 -0.25080552336E+03  0.32913208567E+03  0.12699999809E+01 0. -1.
</event>
<event>
 5   0  0.3756664E-04  0.1397555E+04  0.7818609E-02  0.8955590E-01
       -1   -1    0    0    0  501  0.00000000000E+00  0.00000000000E+00  0.58519900643E+03  0.58519900646E+03  0.50400001928E-02 0. -1.
        1   -1    0    0  501    0  0.00000000000E+00  0.00000000000E+00 -0.83439979896E+03  0.83439979898E+03  0.50400001928E-02 0.  1.
    10030    2    1    2    0    0  0.00000000000E+00  0.00000000000E+00 -0.24920079253E+03  0.14195988054E+04  0.13975549125E+04 0.  0.
        2    1    3    3  502    0  0.58027944095E+02  0.33546588073E+02  0.58192613032E+03  0.58577353732E+03  0.25500000920E-02 0. -1.
       -2    1    3    3    0  502 -0.58027944095E+02 -0.33546588073E+02 -0.83112692284E+03  0.83382526812E+03  0.25500000920E-02 0.  1.
</event>
<event>
 5   0  0.3784219E-04  0.1402792E+04  0.7818609E-02  0.8951800E-01
        1   -1    0    0  501    0  0.00000000000E+00  0.00000000000E+00  0.63246225082E+03  0.63246225084E+03  0.50400001928E-02 0. -1.
       -1   -1    0    0    0  501  0.00000000000E+00  0.00000000000E+00 -0.77784326380E+03  0.77784326382E+03  0.50400001928E-02 0.  1.
    10030    2    1    2    0    0  0.00000000000E+00  0.00000000000E+00 -0.14538101298E+03  0.14103055147E+04  0.14027922176E+04 0.  0.
        1    1    3    3  502    0 -0.34178706905E+03  0.35140095224E+03  0.43164906488E+03  0.65316303098E+03  0.50400001928E-02 0. -1.
       -1    1    3    3    0  502  0.34178706905E+03 -0.35140095224E+03 -0.57703007786E+03  0.75714248367E+03  0.50400001928E-02 0.  1.
</event>
<event>
 5   0  0.3977658E-04  0.1400049E+04  0.7818609E-02  0.8953783E-01
        1   -1    0    0  501    0  0.00000000000E+00  0.00000000000E+00  0.52788173088E+03  0.52788173091E+03  0.50400001928E-02 0.  1.
       -1   -1    0    0    0  501  0.00000000000E+00  0.00000000000E+00 -0.92830367372E+03  0.92830367373E+03  0.50400001928E-02 0. -1.
    10030    2    1    2    0    0  0.00000000000E+00  0.00000000000E+00 -0.40042194284E+03  0.14561854046E+04  0.14000493564E+04 0.  0.
        5    1    3    3  502    0 -0.65635848989E+03 -0.24284345261E+03 -0.21608906037E+03  0.73245886010E+03  0.46999998093E+01 0. -1.
       -5    1    3    3    0  502  0.65635848989E+03  0.24284345261E+03 -0.18433288246E+03  0.72372654455E+03  0.46999998093E+01 0.  1.
</event>
<event>
 5   0  0.6959748E-04  0.1407102E+04  0.7818609E-02  0.8948694E-01
       -2   -1    0    0    0  501  0.00000000000E+00  0.00000000000E+00  0.24507442870E+03  0.24507442871E+03  0.25500000920E-02 0.  1.
        2   -1    0    0  501    0  0.00000000000E+00  0.00000000000E+00 -0.20197294067E+04  0.20197294067E+04  0.25500000920E-02 0. -1.
    10030    2    1    2    0    0  0.00000000000E+00  0.00000000000E+00 -0.17746549780E+04  0.22648038354E+04  0.14071020297E+04 0.  0.
        5    1    3    3  502    0  0.25764320426E+03  0.65271716902E+03 -0.96848174796E+03  0.11959927715E+04  0.46999998093E+01 0.  1.
       -5    1    3    3    0  502 -0.25764320426E+03 -0.65271716902E+03 -0.80617323003E+03  0.10688110639E+04  0.46999998093E+01 0. -1.
</event>
<event>
 5   0  0.6895048E-04  0.1403753E+04  0.7818609E-02  0.8951106E-01
       -2   -1    0    0    0  501  0.00000000000E+00  0.00000000000E+00  0.62209471230E+03  0.62209471231E+03  0.25500000920E-02 0.  1.
        2   -1    0    0  501    0  0.00000000000E+00  0.00000000000E+00 -0.79189047265E+03  0.79189047265E+03  0.25500000920E-02 0. -1.
    10030    2    1    2    0    0  0.00000000000E+00  0.00000000000E+00 -0.16979576034E+03  0.14139851850E+04  0.14037533626E+04 0.  0.
        4    1    3    3  502    0 -0.85006412138E+02 -0.37986126120E+03  0.50340419572E+03  0.63634744050E+03  0.12699999809E+01 0.  1.
       -4    1    3    3    0  502  0.85006412138E+02  0.37986126120E+03 -0.67319995606E+03  0.77763774446E+03  0.12699999809E+01 0. -1.
</event>
<event>
 5   0  0.3977658E-04  0.1361349E+04  0.7818609E-02  0.8982281E-01
       -1   -1    0    0    0  501  0.00000000000E+00  0.00000000000E+00  0.30526032480E+03  0.30526032484E+03  0.50400001928E-02 0.  1.
        1   -1    0    0  501    0  0.00000000000E+00  0.00000000000E+00 -0.15177802019E+04  0.15177802019E+04  0.50400001928E-02 0. -1.
    10030    2    1    2    0    0  0.00000000000E+00  0.00000000000E+00 -0.12125198771E+04  0.18230405268E+04  0.13613494444E+04 0.  0.
        5    1    3    3  502    0 -0.54580908489E+03 -0.25735304926E+03 -0.10279469556E+04  0.11919879121E+04  0.46999998093E+01 0. -1.
       -5    1    3    3    0  502  0.54580908489E+03  0.25735304926E+03 -0.18457292153E+03  0.63105261466E+03  0.46999998093E+01 0.  1.
</event>
<event>
 5   0  0.3977658E-04  0.1384262E+04  0.7818609E-02  0.8965290E-01
        1   -1    0    0  501    0  0.00000000000E+00  0.00000000000E+00  0.96185890589E+03  0.96185890591E+03  0.50400001928E-02 0. -1.
       -1   -1    0    0    0  501  0.00000000000E+00  0.00000000000E+00 -0.49804087482E+03  0.49804087485E+03  0.50400001928E-02 0.  1.
    10030    2    1    2    0    0  0.00000000000E+00  0.00000000000E+00  0.46381803107E+03  0.14598997808E+04  0.13842616096E+04 0.  0.
        5    1    3    3  502    0 -0.20678595739E+03  0.65551164096E+03  0.31737414425E+03  0.75710262254E+03  0.46999998093E+01 0. -1.
       -5    1    3    3    0  502  0.20678595739E+03 -0.65551164096E+03  0.14644388682E+03  0.70279715822E+03  0.46999998093E+01 0.  1.
</event>
<event>
 5   0  0.7065539E-04  0.1404453E+04  0.7818609E-02  0.8950602E-01
        2   -1    0    0  501    0  0.00000000000E+00  0.00000000000E+00  0.11336035735E+04  0.11336035735E+04  0.25500000920E-02 0.  1.
       -2   -1    0    0    0  501  0.00000000000E+00  0.00000000000E+00 -0.43500370530E+03  0.43500370530E+03  0.25500000920E-02 0. -1.
    10030    2    1    2    0    0  0.00000000000E+00  0.00000000000E+00  0.69859986816E+03  0.15686072788E+04  0.14044525692E+04 0.  0.
        1    1    3    3  502    0 -0.46570519283E+03 -0.40954456082E+03  0.71721654550E+03  0.94816013789E+03  0.50400001928E-02 0.  1.
       -1    1    3    3    0  502  0.46570519283E+03  0.40954456082E+03 -0.18616677337E+02  0.62044714088E+03  0.50400001928E-02 0. -1.
</event>
<event>
 5   0  0.6895048E-04  0.1403244E+04  0.7818609E-02  0.8951474E-01
        2   -1    0    0  501    0  0.00000000000E+00  0.00000000000E+00  0.64892216114E+03  0.64892216115E+03  0.25500000920E-02 0. -1.
       -2   -1    0    0    0  501  0.00000000000E+00  0.00000000000E+00 -0.75860186065E+03  0.75860186066E+03  0.25500000920E-02 0.  1.
    10030    2    1    2    0    0  0.00000000000E+00  0.00000000000E+00 -0.10967969951E+03  0.14075240218E+04  0.14032441824E+04 0.  0.
        4    1    3    3  502    0  0.30975117053E+03  0.48706602377E+03  0.34524111774E+03  0.67258615911E+03  0.12699999809E+01 0. -1.
       -4    1    3    3    0  502 -0.30975117053E+03 -0.48706602377E+03 -0.45492081725E+03  0.73493786269E+03  0.12699999809E+01 0.  1.
</event>
<event>
 5   0  0.6895048E-04  0.1403056E+04  0.7818609E-02  0.8951609E-01
       -2   -1    0    0    0  501  0.00000000000E+00  0.00000000000E+00  0.38617557585E+03  0.38617557586E+03  0.25500000920E-02 0. -1.
        2   -1    0    0  501    0  0.00000000000E+00  0.00000000000E+00 -0.12743991839E+04  0.12743991839E+04  0.25500000920E-02 0.  1.
    10030    2    1    2    0    0  0.00000000000E+00  0.00000000000E+00 -0.88822360810E+03  0.16605747598E+04  0.14030564333E+04 0.  0.
        4    1    3    3  502    0 -0.55327744725E+03  0.21866437252E+03 -0.41111558730E+01  0.59493575783E+03  0.12699999809E+01 0. -1.
       -4    1    3    3    0  502  0.55327744725E+03 -0.21866437252E+03 -0.88411245222E+03  0.10656390020E+04  0.12699999809E+01 0.  1.
</event>
<event>
 5   0  0.3907093E-04  0.1400497E+04  0.7818609E-02  0.8953459E-01
        1   -1    0    0  501    0  0.00000000000E+00  0.00000000000E+00  0.13771615440E+04  0.13771615440E+04  0.50400001928E-02 0. -1.
       -1   -1    0    0    0  501  0.00000000000E+00  0.00000000000E+00 -0.35605686579E+03  0.35605686583E+03  0.50400001928E-02 0.  1.
    10030    2    1    2    0    0  0.00000000000E+00  0.00000000000E+00  0.10211046782E+04  0.17332184098E+04  0.14004968020E+04 0.  0.
        4    1    3    3  502    0  0.52071467180E+00  0.66932515241E+03  0.25587122087E+03  0.71656690222E+03  0.12699999809E+01 0.  1.
       -4    1    3    3    0  502 -0.52071467180E+00 -0.66932515241E+03  0.76523345732E+03  0.10166515076E+04  0.12699999809E+01 0. -1.
</event>
<event>
 5   0  0.3907270E-04  0.1395305E+04  0.7818609E-02  0.8957224E-01
        1   -1    0    0  501    0  0.00000000000E+00  0.00000000000E+00  0.93060875716E+03  0.93060875718E+03  0.50400001928E-02 0.  1.
       -1   -1    0    0    0  501  0.00000000000E+00  0.00000000000E+00 -0.52301164587E+03  0.52301164589E+03  0.50400001928E-02 0. -1.
    10030    2    1    2    0    0  0.00000000000E+00  0.00000000000E+00  0.40759711129E+03  0.14536204031E+04  0.13953052967E+04 0.  0.
        3    1    3    3  502    0 -0.58426354831E+03  0.16743288929E+03  0.56063618635E+03  0.82686795194E+03  0.10100000352E+00 0.  1.
       -3    1    3    3    0  502  0.58426354831E+03 -0.16743288929E+03 -0.15303907505E+03  0.62675245113E+03  0.10100000352E+00 0. -1.
</event>
<event>
 5   0  0.3907270E-04  0.1380383E+04  0.7818609E-02  0.8968142E-01
        1   -1    0    0  501    0  0.00000000000E+00  0.00000000000E+00  0.47340385318E+03  0.47340385321E+03  0.50400001928E-02 0. -1.
       -1   -1    0    0    0  501  0.00000000000E+00  0.00000000000E+00 -0.10062532361E+04  0.10062532361E+04  0.50400001928E-02 0.  1.
    10030    2    1    2    0    0  0.00000000000E+00  0.00000000000E+00 -0.53284938294E+03  0.14796570893E+04  0.13803827864E+04 0.  0.
        3    1    3    3  502    0 -0.24814592323E+02  0.48975357858E+03  0.25418966660E+03  0.55234656560E+03  0.10100000352E+00 0. -1.
       -3    1    3    3    0  502  0.24814592323E+02 -0.48975357858E+03 -0.78703904954E+03  0.92731052373E+03  0.10100000352E+00 0.  1.
</event>
<event>
 5   0  0.6895048E-04  0.1366454E+04  0.7818609E-02  0.8978465E-01
       -2   -1    0    0    0  501  0.00000000000E+00  0.00000000000E+00  0.20501597214E+03  0.20501597215E+03  0.25500000920E-02 0. -1.
        2   -1    0    0  501    0  0.00000000000E+00  0.00000000000E+00 -0.22768908759E+04  0.22768908759E+04  0.25500000920E-02 0.  1.
    10030    2    1    2    0    0  0.00000000000E+00  0.00000000000E+00 -0.20718749038E+04  0.24819068481E+04  0.13664537993E+04 0.  0.
        4    1    3    3  502    0 -0.40095101667E+03  0.46474380539E+03 -0.15809790346E+04  0.16959495403E+04  0.12699999809E+01 0. -1.
       -4    1    3    3    0  502  0.40095101667E+03 -0.46474380539E+03 -0.49089586919E+03  0.78595730781E+03  0.12699999809E+01 0.  1.
</event>
<event>
 5   0  0.3907093E-04  0.1395595E+04  0.7818609E-02  0.8957014E-01
       -1   -1    0    0    0  501  0.00000000000E+00  0.00000000000E+00  0.50569082197E+03  0.50569082200E+03  0.50400001928E-02 0. -1.
        1   -1    0    0  501    0  0.00000000000E+00  0.00000000000E+00 -0.96288299725E+03  0.96288299726E+03  0.50400001928E-02 0.  1.
    10030    2    1    2    0    0  0.00000000000E+00  0.00000000000E+00 -0.45719217528E+03  0.14685738193E+04  0.13955946322E+04 0.  0.
        4    1    3    3  502    0 -0.37014158954E+03  0.47569864884E+03  0.14139433969E+03  0.61910255452E+03  0.12699999809E+01 0. -1.
       -4    1    3    3    0  502  0.37014158954E+03 -0.47569864884E+03 -0.59858651497E+03  0.84947126474E+03  0.12699999809E+01 0.  1.
</event>
<event>
 5   0  0.7065539E-04  0.1411061E+04  0.7818609E-02  0.8945850E-01
       -2   -1    0    0    0  501  0.00000000000E+00  0.00000000000E+00  0.64268161147E+03  0.64268161148E+03  0.25500000920E-02 0.  1.
        2   -1    0    0  501    0  0.00000000000E+00  0.00000000000E+00 -0.77452598881E+03  0.77452598882E+03  0.25500000920E-02 0. -1.
    10030    2    1    2    0    0  0.00000000000E+00  0.00000000000E+00 -0.13184437734E+03  0.14172076003E+04  0.14110614595E+04 0.  0.
        1    1    3    3  502    0 -0.69029997918E+03  0.36346178400E+02 -0.20774099794E+03  0.72179735951E+03  0.50400001928E-02 0. -1.
       -1    1    3    3    0  502  0.69029997918E+03 -0.36346178400E+02  0.75896620602E+02  0.69541024079E+03  0.50400001928E-02 0.  1.
</event>
<event>
 5   0  0.3977658E-04  0.1398467E+04  0.7818609E-02  0.8954929E-01
        1   -1    0    0  501    0  0.00000000000E+00  0.00000000000E+00  0.61091943509E+03  0.61091943511E+03  0.50400001928E-02 0.  1.
       -1   -1    0    0    0  501  0.00000000000E+00  0.00000000000E+00 -0.80031463743E+03  0.80031463745E+03  0.50400001928E-02 0. -1.
    10030    2    1    2    0    0  0.00000000000E+00  0.00000000000E+00 -0.18939520234E+03  0.14112340726E+04  0.13984673986E+04 0.  0.
        5    1    3    3  502    0  0.23268469961E+03 -0.65697595960E+03 -0.15129971411E+03  0.71321334425E+03  0.46999998093E+01 0. -1.
       -5    1    3    3    0  502 -0.23268469961E+03  0.65697595960E+03 -0.38095488239E+02  0.69802072831E+03  0.46999998093E+01 0.  1.
</event>
<event>
 5   0  0.7296966E-04  0.1388599E+04  0.7818609E-02  0.8962113E-01
       -2   -1    0    0    0  501  0.00000000000E+00  0.00000000000E+00  0.33473217485E+03  0.33473217486E+03  0.25500000920E-02 0.  1.
        2   -1    0    0  501    0  0.00000000000E+00  0.00000000000E+00 -0.14401109741E+04  0.14401109741E+04  0.25500000920E-02 0. -1.
    10030    2    1    2    0    0  0.00000000000E+00  0.00000000000E+00 -0.11053787993E+04  0.17748431490E+04  0.13885985430E+04 0.  0.
        3    1    3    3  502    0 -0.49456805459E+03 -0.98818781327E+01  0.70017409693E+02  0.49959749799E+03  0.10100000352E+00 0.  1.
       -3    1    3    3    0  502  0.49456805459E+03  0.98818781327E+01 -0.11753962090E+04  0.12752456510E+04  0.10100000352E+00 0. -1.
</event>
<event>
 5   0  0.7065539E-04  0.1408470E+04  0.7818609E-02  0.8947711E-01
        2   -1    0    0  501    0  0.00000000000E+00  0.00000000000E+00  0.39443770407E+03  0.39443770408E+03  0.25500000920E-02 0. -1.
       -2   -1    0    0    0  501  0.00000000000E+00  0.00000000000E+00 -0.12573511329E+04  0.12573511329E+04  0.25500000920E-02 0.  1.
    10030    2    1    2    0    0  0.00000000000E+00  0.00000000000E+00 -0.86291342881E+03  0.16517888370E+04  0.14084696576E+04 0.  0.
        1    1    3    3  502    0  0.21579146158E+03 -0.93539701925E+01 -0.12175461769E+04  0.12365565674E+04  0.50400001928E-02 0.  1.
       -1    1    3    3    0  502 -0.21579146158E+03  0.93539701925E+01  0.35463274805E+03  0.41523226954E+03  0.50400001928E-02 0. -1.
</event>
<event>
 5   0  0.3977658E-04  0.1389375E+04  0.7818609E-02  0.8961545E-01
       -1   -1    0    0    0  501  0.00000000000E+00  0.00000000000E+00  0.39578894379E+03  0.39578894382E+03  0.50400001928E-02 0. -1.
        1   -1    0    0  501    0  0.00000000000E+00  0.00000000000E+00 -0.12193138012E+04  0.12193138012E+04  0.50400001928E-02 0.  1.
    10030    2    1    2    0    0  0.00000000000E+00  0.00000000000E+00 -0.82352485738E+03  0.16151027450E+04  0.13893752863E+04 0.  0.
        5    1    3    3  502    0  0.46319022192E+02  0.47636501782E+03  0.17352521151E+03  0.50911901462E+03  0.46999998093E+01 0. -1.
       -5    1    3    3    0  502 -0.46319022192E+02 -0.47636501782E+03 -0.99705006889E+03  0.11059837304E+04  0.46999998093E+01 0.  1.
</event>
<event>
 5   0  0.3756664E-04  0.1385257E+04  0.7818609E-02  0.8964560E-01
       -1   -1    0    0    0  501  0.00000000000E+00  0.00000000000E+00  0.12510815302E+04  0.12510815302E+04  0.50400001928E-02 0.  1.
        1   -1    0    0  501    0  0.00000000000E+00  0.00000000000E+00 -0.38345585124E+03  0.38345585128E+03  0.50400001928E-02 0. -1.
    10030    2    1    2    0    0  0.00000000000E+00  0.00000000000E+00  0.86762567891E+03  0.16345373814E+04  0.13852574247E+04 0.  0.
        2    1    3    3  502    0 -0.37796959692E+03 -0.52310140890E+02 -0.24825372910E+03  0.45522223261E+03  0.25500000920E-02 0. -1.
       -2    1    3    3    0  502  0.37796959692E+03  0.52310140890E+02  0.11158794080E+04  0.11793151488E+04  0.25500000920E-02 0.  1.
</event>
<event>
 5   0  0.6870835E-04  0.1401456E+04  0.7818609E-02  0.8952765E-01
        2   -1    0    0  501    0  0.00000000000E+00  0.00000000000E+00  0.96099856275E+03  0.96099856276E+03  0.25500000920E-02 0.  1.
       -2   -1    0    0    0  501  0.00000000000E+00  0.00000000000E+00 -0.51094774061E+03  0.51094774062E+03  0.25500000920E-02 0. -1.
    10030    2    1    2    0    0  0.00000000000E+00  0.00000000000E+00  0.45005082215E+03  0.14719463034E+04  0.14014564487E+04 0.  0.
        2    1    3    3  502    0  0.21176713210E+03 -0.35830615216E+02  0.92557538121E+03  0.95016784703E+03  0.25500000920E-02 0.  1.
       -2    1    3    3    0  502 -0.21176713210E+03  0.35830615216E+02 -0.47552455906E+03  0.52177845634E+03  0.25500000920E-02 0. -1.
</event>
<event>
 5   0  0.6870835E-04  0.1398959E+04  0.7818609E-02  0.8954572E-01
        2   -1    0    0  501    0  0.00000000000E+00  0.00000000000E+00  0.12900184377E+04  0.12900184377E+04  0.25500000920E-02 0.  1.
       -2   -1    0    0    0  501  0.00000000000E+00  0.00000000000E+00 -0.37927481787E+03  0.37927481788E+03  0.25500000920E-02 0. -1.
    10030    2    1    2    0    0  0.00000000000E+00  0.00000000000E+00  0.91074361988E+03  0.16692932556E+04  0.13989589101E+04 0.  0.
        2    1    3    3  502    0 -0.57060747873E+03 -0.48987406321E+02 -0.23827722220E+02  0.57320190257E+03  0.25500000920E-02 0. -1.
       -2    1    3    3    0  502  0.57060747873E+03  0.48987406321E+02  0.93457134210E+03  0.10960913531E+04  0.25500000920E-02 0.  1.
</event>
<event>
 5   0  0.3784219E-04  0.1405904E+04  0.7818609E-02  0.8949556E-01
       -1   -1    0    0    0  501  0.00000000000E+00  0.00000000000E+00  0.76244268991E+03  0.76244268992E+03  0.50400001928E-02 0.  1.
        1   -1    0    0  501    0  0.00000000000E+00  0.00000000000E+00 -0.64810290977E+03  0.64810290978E+03  0.50400001928E-02 0. -1.
    10030    2    1    2    0    0  0.00000000000E+00  0.00000000000E+00  0.11433978014E+03  0.14105455997E+04  0.14059037320E+04 0.  0.
        1    1    3    3  502    0  0.12979268962E+03  0.64047035015E+02  0.74733146527E+03  0.76121776384E+03  0.50400001928E-02 0.  1.
       -1    1    3    3    0  502 -0.12979268962E+03 -0.64047035015E+02 -0.63299168513E+03  0.64932783587E+03  0.50400001928E-02 0. -1.
</event>
<event>
 5   0  0.3756664E-04  0.1398082E+04  0.7818609E-02  0.8955208E-01
       -1   -1    0    0    0  501  0.00000000000E+00  0.00000000000E+00  0.36879116591E+03  0.36879116595E+03  0.50400001928E-02 0.  1.
        1   -1    0    0  501    0  0.00000000000E+00  0.00000000000E+00 -0.13250276981E+04  0.13250276981E+04  0.50400001928E-02 0. -1.
    10030    2    1    2    0    0  0.00000000000E+00  0.00000000000E+00 -0.95623653214E+03  0.16938188640E+04  0.13980822718E+04 0.  0.
        2    1    3    3  502    0 -0.21606692232E+03  0.29996715876E+03 -0.11969072856E+04  0.12526979930E+04  0.25500000920E-02 0. -1.
       -2    1    3    3    0  502  0.21606692232E+03 -0.29996715876E+03  0.24067075348E+03  0.44112087102E+03  0.25500000920E-02 0.  1.
</event>
<event>
 5   0  0.7065539E-04  0.1413742E+04  0.7818609E-02  0.8943931E-01
        2   -1    0    0  501    0  0.00000000000E+00  0.00000000000E+00  0.14485501711E+04  0.14485501711E+04  0.25500000920E-02 0.  1.
       -2   -1    0    0    0  501  0.00000000000E+00  0.00000000000E+00 -0.34494233743E+03  0.34494233744E+03  0.25500000920E-02 0. -1.
    10030    2    1    2    0    0  0.00000000000E+00  0.00000000000E+00  0.11036078337E+04  0.17934925085E+04  0.14137415349E+04 0.  0.
        1    1    3    3  502    0  0.17187063443E+03 -0.19277322706E+03  0.13865532290E+04  0.14104009675E+04  0.50400001928E-02 0.  1.
       -1    1    3    3    0  502 -0.17187063443E+03  0.19277322706E+03 -0.28294539537E+03  0.38309154107E+03  0.50400001928E-02 0. -1.
</event>
<event>
 5   0  0.3907093E-04  0.1396394E+04  0.7818609E-02  0.8956433E-01
        1   -1    0    0  501    0  0.00000000000E+00  0.00000000000E+00  0.86018165630E+03  0.86018165632E+03  0.50400001928E-02 0.  1.
       -1   -1    0    0    0  501  0.00000000000E+00  0.00000000000E+00 -0.56671615946E+03  0.56671615948E+03  0.50400001928E-02 0. -1.
    10030    2    1    2    0    0  0.00000000000E+00  0.00000000000E+00  0.29346549684E+03  0.14268978158E+04  0.13963937048E+04 0.  0.
        4    1    3    3  502    0 -0.41831636112E+03  0.13589456160E+03  0.70081521030E+03  0.82740527055E+03  0.12699999809E+01 0.  1.
       -4    1    3    3    0  502  0.41831636112E+03 -0.13589456160E+03 -0.40734971345E+03  0.59949254525E+03  0.12699999809E+01 0. -1.
</event>
<event>
 5   0  0.7065539E-04  0.1384943E+04  0.7818609E-02  0.8964790E-01
        2   -1    0    0  501    0  0.00000000000E+00  0.00000000000E+00  0.91640708484E+03  0.91640708484E+03  0.25500000920E-02 0. -1.
       -2   -1    0    0    0  501  0.00000000000E+00  0.00000000000E+00 -0.52325767430E+03  0.52325767430E+03  0.25500000920E-02 0.  1.
    10030    2    1    2    0    0  0.00000000000E+00  0.00000000000E+00  0.39314941054E+03  0.14396647591E+04  0.13849433778E+04 0.  0.
        1    1    3    3  502    0  0.13751700098E+03  0.58239503734E+02  0.89946775070E+03  0.91178122372E+03  0.50400001928E-02 0. -1.
       -1    1    3    3    0  502 -0.13751700098E+03 -0.58239503734E+02 -0.50631834016E+03  0.52788353542E+03  0.50400001928E-02 0.  1.
</event>
<event>
 5   0  0.3784219E-04  0.1396769E+04  0.7818609E-02  0.8956161E-01
       -1   -1    0    0    0  501  0.00000000000E+00  0.00000000000E+00  0.59501045840E+03  0.59501045842E+03  0.50400001928E-02 0.  1.
        1   -1    0    0  501    0  0.00000000000E+00  0.00000000000E+00 -0.81971826614E+03  0.81971826615E+03  0.50400001928E-02 0. -1.
    10030    2    1    2    0    0  0.00000000000E+00  0.00000000000E+00 -0.22470780774E+03  0.14147287246E+04  0.13967690451E+04 0.  0.
        1    1    3    3  502    0 -0.25232007186E+03  0.20462245833E+03 -0.73853052630E+03  0.80682284761E+03  0.50400001928E-02 0. -1.
       -1    1    3    3    0  502  0.25232007186E+03 -0.20462245833E+03  0.51382271856E+03  0.60790587697E+03  0.50400001928E-02 0.  1.
</event>
<event>
 5   0  0.6895048E-04  0.1340154E+04  0.7818609E-02  0.8998315E-01
       -2   -1    0    0    0  501  0.00000000000E+00  0.00000000000E+00  0.27751580544E+03  0.27751580546E+03  0.25500000920E-02 0.  1.
        2   -1    0    0  501    0  0.00000000000E+00  0.00000000000E+00 -0.16179382618E+04  0.16179382618E+04  0.25500000920E-02 0. -1.
    10030    2    1    2    0    0  0.00000000000E+00  0.00000000000E+00 -0.13404224564E+04  0.18954540673E+04  0.13401543790E+04 0.  0.
        4    1    3    3  502    0 -0.10137520525E+03 -0.28667127241E+02  0.26572754667E+03  0.28585219675E+03  0.12699999809E+01 0.  1.
       -4    1    3    3    0  502  0.10137520525E+03  0.28667127241E+02 -0.16061500031E+04  0.16096018705E+04  0.12699999809E+01 0. -1.
</event>
<event>
 5   0  0.3977658E-04  0.1397729E+04  0.7818609E-02  0.8955464E-01
        1   -1    0    0  501    0  0.00000000000E+00  0.00000000000E+00  0.18074968002E+04  0.18074968002E+04  0.50400001928E-02 0. -1.
       -1   -1    0    0    0  501  0.00000000000E+00  0.00000000000E+00 -0.27021442447E+03  0.27021442451E+03  0.50400001928E-02 0.  1.
    10030    2    1    2    0    0  0.00000000000E+00  0.00000000000E+00  0.15372823757E+04  0.20777112247E+04  0.13977291692E+04 0.  0.
        5    1    3    3  502    0 -0.38037297628E+03  0.45977065291E+03  0.13093580585E+04  0.14389278195E+04  0.46999998093E+01 0. -1.
       -5    1    3    3    0  502  0.38037297628E+03 -0.45977065291E+03  0.22792431718E+03  0.63878340517E+03  0.46999998093E+01 0.  1.
</event>
<event>
 5   0  0.7296966E-04  0.1423914E+04  0.7818609E-02  0.8936688E-01
        2   -1    0    0  501    0  0.00000000000E+00  0.00000000000E+00  0.13906210275E+04  0.13906210275E+04  0.25500000920E-02 0.  1.
       -2   -1    0    0    0  501  0.00000000000E+00  0.00000000000E+00 -0.36450102448E+03  0.36450102449E+03  0.25500000920E-02 0. -1.
    10030    2    1    2    0    0  0.00000000000E+00  0.00000000000E+00  0.10261200030E+04  0.17551220520E+04  0.14239140272E+04 0.  0.
        3    1    3    3  502    0  0.35487666589E+03 -0.46044635919E+03  0.64395636847E+01  0.58136888106E+03  0.10100000352E+00 0. -1.
       -3    1    3    3    0  502 -0.35487666589E+03  0.46044635919E+03  0.10196804393E+04  0.11737531709E+04  0.10100000352E+00 0.  1.
</event>
<event>
 5   0  0.6870835E-04  0.1402902E+04  0.7818609E-02  0.8951721E-01
        2   -1    0    0  501    0  0.00000000000E+00  0.00000000000E+00  0.18428081576E+04  0.18428081576E+04  0.25500000920E-02 0.  1.
       -2   -1    0    0    0  501  0.00000000000E+00  0.00000000000E+00 -0.26700193964E+03  0.26700193965E+03  0.25500000920E-02 0. -1.
    10030    2    1    2    0    0  0.00000000000E+00  0.00000000000E+00  0.15758062180E+04  0.21098100973E+04  0.14029017820E+04 0.  0.
        2    1    3    3  502    0  0.62589709361E+03 -0.13552567262E+03  0.35746734533E+03  0.73341480945E+03  0.25500000920E-02 0. -1.
       -2    1    3    3    0  502 -0.62589709361E+03  0.13552567262E+03  0.12183388726E+04  0.13763952878E+04  0.25500000920E-02 0.  1.
</event>
<event>
 5   0  0.7065539E-04  0.1343987E+04  0.7818609E-02  0.8995392E-01
        2   -1    0    0  501    0  0.00000000000E+00  0.00000000000E+00  0.67396105241E+03  0.67396105242E+03  0.25500000920E-02 0. -1.
       -2   -1    0    0    0  501  0.00000000000E+00  0.00000000000E+00 -0.67003169538E+03  0.67003169539E+03  0.25500000920E-02 0.  1.
    10030    2    1    2    0    0  0.00000000000E+00  0.00000000000E+00  0.39293570321E+01  0.13439927478E+04  0.13439870038E+04 0.  0.
        1    1    3    3  502    0  0.16989572527E+03  0.57331439175E+03 -0.30466558902E+03  0.67109989600E+03  0.50400001928E-02 0.  1.
       -1    1    3    3    0  502 -0.16989572527E+03 -0.57331439175E+03  0.30859494605E+03  0.67289285180E+03  0.50400001928E-02 0. -1.
</event>
<event>
 5   0  0.3756664E-04  0.1403874E+04  0.7818609E-02  0.8951019E-01
        1   -1    0    0  501    0  0.00000000000E+00  0.00000000000E+00  0.14205120863E+04  0.14205120863E+04  0.50400001928E-02 0.  1.
       -1   -1    0    0    0  501  0.00000000000E+00  0.00000000000E+00 -0.34685764541E+03  0.34685764545E+03  0.50400001928E-02 0. -1.
    10030    2    1    2    0    0  0.00000000000E+00  0.00000000000E+00  0.10736544409E+04  0.17673697317E+04  0.14038738940E+04 0.  0.
        2    1    3    3  502    0  0.39910717493E+03  0.16552451891E+03  0.12332640396E+04  0.13067612999E+04  0.25500000920E-02 0.  1.
       -2    1    3    3    0  502 -0.39910717493E+03 -0.16552451891E+03 -0.15960959878E+03  0.46060843182E+03  0.25500000920E-02 0. -1.
</event>
<event>
 5   0  0.6870835E-04  0.1404294E+04  0.7818609E-02  0.8950716E-01
        2   -1    0    0  501    0  0.00000000000E+00  0.00000000000E+00  0.15899160276E+04  0.15899160276E+04  0.25500000920E-02 0.  1.
       -2   -1    0    0    0  501  0.00000000000E+00  0.00000000000E+00 -0.31008583348E+03  0.31008583349E+03  0.25500000920E-02 0. -1.
    10030    2    1    2    0    0  0.00000000000E+00  0.00000000000E+00  0.12798301941E+04  0.19000018611E+04  0.14042940384E+04 0.  0.
        2    1    3    3  502    0 -0.54189107824E+03  0.18691776602E+03  0.91282581450E+02  0.58044526151E+03  0.25500000920E-02 0. -1.
       -2    1    3    3    0  502  0.54189107824E+03 -0.18691776602E+03  0.11885476127E+04  0.13195565996E+04  0.25500000920E-02 0.  1.
</event>
<event>
 5   0  0.3907270E-04  0.1392701E+04  0.7818609E-02  0.8959119E-01
        1   -1    0    0  501    0  0.00000000000E+00  0.00000000000E+00  0.11290437414E+04  0.11290437414E+04  0.50400001928E-02 0. -1.
       -1   -1    0    0    0  501  0.00000000000E+00  0.00000000000E+00 -0.42948196969E+03  0.42948196972E+03  0.50400001928E-02 0.  1.
    10030    2    1    2    0    0  0.00000000000E+00  0.00000000000E+00  0.69956177173E+03  0.15585257112E+04  0.13927008724E+04 0.  0.
        3    1    3    3  502    0  0.16852131717E+03  0.51091894399E+03 -0.14497627635E+03  0.55718554591E+03  0.10100000352E+00 0.  1.
       -3    1    3    3    0  502 -0.16852131717E+03 -0.51091894399E+03  0.84453804808E+03  0.10013401652E+04  0.10100000352E+00 0. -1.
</event>
<event>
 5   0  0.3907093E-04  0.1375072E+04  0.7818609E-02  0.8972063E-01
       -1   -1    0    0    0  501  0.00000000000E+00  0.00000000000E+00  0.29949871929E+03  0.29949871934E+03  0.50400001928E-02 0.  1.
        1   -1    0    0  501    0  0.00000000000E+00  0.00000000000E+00 -0.15783240495E+04  0.15783240495E+04  0.50400001928E-02 0. -1.
    10030    2    1    2    0    0  0.00000000000E+00  0.00000000000E+00 -0.12788253302E+04  0.18778227689E+04  0.13750724076E+04 0.  0.
        4    1    3    3  502    0  0.39583488650E+02 -0.21601538437E+03  0.25031081224E+03  0.33299641812E+03  0.12699999809E+01 0.  1.
       -4    1    3    3    0  502 -0.39583488650E+02  0.21601538437E+03 -0.15291361425E+04  0.15448263508E+04  0.12699999809E+01 0. -1.
</event>
<event>
 5   0  0.3756664E-04  0.1408977E+04  0.7818609E-02  0.8947346E-01
        1   -1    0    0  501    0  0.00000000000E+00  0.00000000000E+00  0.15003854809E+04  0.15003854809E+04  0.50400001928E-02 0. -1.
       -1   -1    0    0    0  501  0.00000000000E+00  0.00000000000E+00 -0.33078431185E+03  0.33078431189E+03  0.50400001928E-02 0.  1.
    10030    2    1    2    0    0  0.00000000000E+00  0.00000000000E+00  0.11696011690E+04  0.18311697928E+04  0.14089769038E+04 0.  0.
        2    1    3    3  502    0 -0.34334063335E+03 -0.22841358674E+03 -0.15753272967E+03  0.44144322176E+03  0.25500000920E-02 0.  1.
       -2    1    3    3    0  502  0.34334063335E+03  0.22841358674E+03  0.13271338987E+04  0.13897265710E+04  0.25500000920E-02 0. -1.
</event>
<event>
 5   0  0.3977658E-04  0.1398934E+04  0.7818609E-02  0.8954591E-01
        1   -1    0    0  501    0  0.00000000000E+00  0.00000000000E+00  0.13866608275E+04  0.13866608275E+04  0.50400001928E-02 0.  1.
       -1   -1    0    0    0  501  0.00000000000E+00  0.00000000000E+00 -0.35282894665E+03  0.35282894669E+03  0.50400001928E-02 0. -1.
    10030    2    1    2    0    0  0.00000000000E+00  0.00000000000E+00  0.10338318809E+04  0.17394897742E+04  0.13989339930E+04 0.  0.
        5    1    3    3  502    0  0.36699066508E+03  0.26151047743E+03  0.11820829822E+04  0.12650739681E+04  0.46999998093E+01 0.  1.
       -5    1    3    3    0  502 -0.36699066508E+03 -0.26151047743E+03 -0.14825110129E+03  0.47441580611E+03  0.46999998093E+01 0. -1.
</event>
<event>
 5   0  0.7065539E-04  0.1422701E+04  0.7818609E-02  0.8937548E-01
       -2   -1    0    0    0  501  0.00000000000E+00  0.00000000000E+00  0.21155180726E+03  0.21155180728E+03  0.25500000920E-02 0. -1.
        2   -1    0    0  501    0  0.00000000000E+00  0.00000000000E+00 -0.23919426123E+04  0.23919426123E+04  0.25500000920E-02 0.  1.
    10030    2    1    2    0    0  0.00000000000E+00  0.00000000000E+00 -0.21803908051E+04  0.26034944196E+04  0.14227013496E+04 0.  0.
        1    1    3    3  502    0 -0.22589764897E+03  0.67449522669E+03 -0.10777538094E+04  0.12913275465E+04  0.50400001928E-02 0. -1.
       -1    1    3    3    0  502  0.22589764897E+03 -0.67449522669E+03 -0.11026369957E+04  0.13121668731E+04  0.50400001928E-02 0.  1.
</event>
<event>
 5   0  0.6895048E-04  0.1389299E+04  0.7818609E-02  0.8961601E-01
       -2   -1    0    0    0  501  0.00000000000E+00  0.00000000000E+00  0.32098297586E+03  0.32098297587E+03  0.25500000920E-02 0.  1.
        2   -1    0    0  501    0  0.00000000000E+00  0.00000000000E+00 -0.15033140961E+04  0.15033140961E+04  0.25500000920E-02 0. -1.
    10030    2    1    2    0    0  0.00000000000E+00  0.00000000000E+00 -0.11823311202E+04  0.18242970720E+04  0.13892994382E+04 0.  0.
        4    1    3    3  502    0 -0.15945783334E+03  0.28366904545E+03 -0.13970335339E+04  0.14344334198E+04  0.12699999809E+01 0. -1.
       -4    1    3    3    0  502  0.15945783334E+03 -0.28366904545E+03  0.21470241369E+03  0.38986365219E+03  0.12699999809E+01 0.  1.
</event>
<event>
 5   0  0.7296966E-04  0.1380603E+04  0.7818609E-02  0.8967980E-01
        2   -1    0    0  501    0  0.00000000000E+00  0.00000000000E+00  0.12723341575E+04  0.12723341575E+04  0.25500000920E-02 0. -1.
       -2   -1    0    0    0  501  0.00000000000E+00  0.00000000000E+00 -0.37452104976E+03  0.37452104976E+03  0.25500000920E-02 0.  1.
    10030    2    1    2    0    0  0.00000000000E+00  0.00000000000E+00  0.89781310776E+03  0.16468552073E+04  0.13806026573E+04 0.  0.
        3    1    3    3  502    0  0.17271701113E+03  0.29287706717E+03 -0.26770668885E+03  0.43275284385E+03  0.10100000352E+00 0.  1.
       -3    1    3    3    0  502 -0.17271701113E+03 -0.29287706717E+03  0.11655197966E+04  0.12141023634E+04  0.10100000352E+00 0. -1.
</event>
<event>
 5   0  0.3756664E-04  0.1393972E+04  0.7818609E-02  0.8958193E-01
        1   -1    0    0  501    0  0.00000000000E+00  0.00000000000E+00  0.16588469876E+04  0.16588469876E+04  0.50400001928E-02 0. -1.
       -1   -1    0    0    0  501  0.00000000000E+00  0.00000000000E+00 -0.29284783116E+03  0.29284783120E+03  0.50400001928E-02 0.  1.
    10030    2    1    2    0    0  0.00000000000E+00  0.00000000000E+00  0.13659991564E+04  0.19516948188E+04  0.13939723707E+04 0.  0.
        2    1    3    3  502    0  0.12989353852E+03 -0.37920364584E+03  0.14813267780E+04  0.15345998695E+04  0.25500000920E-02 0. -1.
       -2    1    3    3    0  502 -0.12989353852E+03  0.37920364584E+03 -0.11532762159E+03  0.41709494924E+03  0.25500000920E-02 0.  1.
</event>
<event>
 5   0  0.2660250E-04  0.1408210E+04  0.7818609E-02  0.8947897E-01
       -4   -1    0    0    0  501  0.00000000000E+00  0.00000000000E+00  0.86890542588E+03  0.86890635400E+03  0.12699999809E+01 0. -1.
        4   -1    0    0  501    0  0.00000000000E+00  0.00000000000E+00 -0.57055975148E+03  0.57056116491E+03  0.12699999809E+01 0.  1.
    10030    2    1    2    0    0  0.00000000000E+00  0.00000000000E+00  0.29834567440E+03  0.14394675189E+04  0.14082104234E+04 0.  0.
        1    1    3    3  502    0  0.60868103069E+03 -0.15585332479E+03  0.47400182512E+03  0.78705818477E+03  0.50400001928E-02 0. -1.
       -1    1    3    3    0  502 -0.60868103069E+03  0.15585332479E+03 -0.17565615072E+03  0.65240933414E+03  0.50400001928E-02 0.  1.
</event>
<event>
 5   0  0.2660250E-04  0.1399503E+04  0.7818609E-02  0.8954178E-01
       -3   -1    0    0    0  501  0.00000000000E+00  0.00000000000E+00  0.12360145968E+04  0.12360146009E+04  0.10100000352E+00 0.  1.
        3   -1    0    0  501    0  0.00000000000E+00  0.00000000000E+00 -0.39615429662E+03  0.39615430949E+03  0.10100000352E+00 0. -1.
    10030    2    1    2    0    0  0.00000000000E+00  0.00000000000E+00  0.83986030020E+03  0.16321689104E+04  0.13995034935E+04 0.  0.
        2    1    3    3  502    0  0.54859846298E+03 -0.25081426101E+03  0.83355304939E+03  0.10289211599E+04  0.25500000920E-02 0.  1.
       -2    1    3    3    0  502 -0.54859846298E+03  0.25081426101E+03  0.63072508049E+01  0.60324775054E+03  0.25500000920E-02 0. -1.
</event>
<event>
 5   0  0.3977658E-04  0.1402367E+04  0.7818609E-02  0.8952107E-01
        1   -1    0    0  501    0  0.00000000000E+00  0.00000000000E+00  0.78470518811E+03  0.78470518812E+03  0.50400001928E-02 0.  1.
       -1   -1    0    0    0  501  0.00000000000E+00  0.00000000000E+00 -0.62655200460E+03  0.62655200462E+03  0.50400001928E-02 0. -1.
    10030    2    1    2    0    0  0.00000000000E+00  0.00000000000E+00  0.15815318350E+03  0.14112571927E+04  0.14023674392E+04 0.  0.
        5    1    3    3  502    0  0.23931093135E+03  0.18378602159E+03 -0.55785696024E+03  0.63425034622E+03  0.46999998093E+01 0. -1.
       -5    1    3    3    0  502 -0.23931093135E+03 -0.18378602159E+03  0.71601014374E+03  0.77700684652E+03  0.46999998093E+01 0.  1.
</event>
<event>
 5   0  0.3907093E-04  0.1389731E+04  0.7818609E-02  0.8961285E-01
        1   -1    0    0  501    0  0.00000000000E+00  0.00000000000E+00  0.83973954254E+03  0.83973954256E+03  0.50400001928E-02 0.  1.
       -1   -1    0    0    0  501  0.00000000000E+00  0.00000000000E+00 -0.57498565508E+03  0.57498565510E+03  0.50400001928E-02 0. -1.
    10030    2    1    2    0    0  0.00000000000E+00  0.00000000000E+00  0.26475388746E+03  0.14147251977E+04  0.13897311841E+04 0.  0.
        4    1    3    3  502    0  0.16295156053E+03  0.18223239637E+03 -0.52976305600E+03  0.58344868306E+03  0.12699999809E+01 0. -1.
       -4    1    3    3    0  502 -0.16295156053E+03 -0.18223239637E+03  0.79451694346E+03  0.83127651459E+03  0.12699999809E+01 0.  1.
</event>
<event>
 5   0  0.3784219E-04  0.1391543E+04  0.7818609E-02  0.8959963E-01
       -1   -1    0    0    0  501  0.00000000000E+00  0.00000000000E+00  0.39508230230E+03  0.39508230233E+03  0.50400001928E-02 0.  1.
        1   -1    0    0  501    0  0.00000000000E+00  0.00000000000E+00 -0.12253095598E+04  0.12253095598E+04  0.50400001928E-02 0. -1.
    10030    2    1    2    0    0  0.00000000000E+00  0.00000000000E+00 -0.83022725746E+03  0.16203918621E+04  0.13915432037E+04 0.  0.
        1    1    3    3  502    0  0.48365680331E+03 -0.13188183414E+03  0.14670676151E+03  0.52234049763E+03  0.50400001928E-02 0.  1.
       -1    1    3    3    0  502 -0.48365680331E+03  0.13188183414E+03 -0.97693401897E+03  0.10980513645E+04  0.50400001928E-02 0. -1.
</event>
<event>
 5   0  0.6895048E-04  0.1390107E+04  0.7818609E-02  0.8961011E-01
        2   -1    0    0  501    0  0.00000000000E+00  0.00000000000E+00  0.12498902191E+04  0.12498902191E+04  0.25500000920E-02 0. -1.
       -2   -1    0    0    0  501  0.00000000000E+00  0.00000000000E+00 -0.38651359615E+03  0.38651359616E+03  0.25500000920E-02 0.  1.
    10030    2    1    2    0    0  0.00000000000E+00  0.00000000000E+00  0.86337662298E+03  0.16364038153E+04  0.13901072813E+04 0.  0.
        4    1    3    3  502    0 -0.93880178083E+02 -0.67716436688E+03  0.28403393630E+03  0.74029855969E+03  0.12699999809E+01 0.  1.
       -4    1    3    3    0  502  0.93880178083E+02  0.67716436688E+03  0.57934268668E+03  0.89610525560E+03  0.12699999809E+01 0. -1.
</event>
<event>
 5   0  0.6959748E-04  0.1395966E+04  0.7818609E-02  0.8956744E-01
       -2   -1    0    0    0  501  0.00000000000E+00  0.00000000000E+00  0.63006015764E+03  0.63006015765E+03  0.25500000920E-02 0. -1.
        2   -1    0    0  501    0  0.00000000000E+00  0.00000000000E+00 -0.77322799692E+03  0.77322799693E+03  0.25500000920E-02 0.  1.
    10030    2    1    2    0    0  0.00000000000E+00  0.00000000000E+00 -0.14316783928E+03  0.14032881546E+04  0.13959658357E+04 0.  0.
        5    1    3    3  502    0 -0.12784266404E+03  0.55911345301E+03 -0.47142202505E+03  0.74243680929E+03  0.46999998093E+01 0.  1.
       -5    1    3    3    0  502  0.12784266404E+03 -0.55911345301E+03  0.32825418576E+03  0.66085134528E+03  0.46999998093E+01 0. -1.
</event>
<event>
 5   0  0.3977658E-04  0.1434904E+04  0.7818609E-02  0.8928934E-01
        1   -1    0    0  501    0  0.00000000000E+00  0.00000000000E+00  0.89677103474E+03  0.89677103475E+03  0.50400001928E-02 0.  1.
       -1   -1    0    0    0  501  0.00000000000E+00  0.00000000000E+00 -0.57398950779E+03  0.57398950781E+03  0.50400001928E-02 0. -1.
    10030    2    1    2    0    0  0.00000000000E+00  0.00000000000E+00  0.32278152694E+03  0.14707605426E+04  0.14349037109E+04 0.  0.
        5    1    3    3  502    0  0.54176365651E+03  0.44397285930E+03  0.32049638356E+03  0.77029850135E+03  0.46999998093E+01 0.  1.
       -5    1    3    3    0  502 -0.54176365651E+03 -0.44397285930E+03  0.22851433809E+01  0.70046204121E+03  0.46999998093E+01 0. -1.
</event>
<event>
 5   0  0.7065539E-04  0.1410783E+04  0.7818609E-02  0.8946050E-01
       -2   -1    0    0    0  501  0.00000000000E+00  0.00000000000E+00  0.58196317195E+03  0.58196317196E+03  0.25500000920E-02 0. -1.
        2   -1    0    0  501    0  0.00000000000E+00  0.00000000000E+00 -0.85499759849E+03  0.85499759849E+03  0.25500000920E-02 0.  1.
    10030    2    1    2    0    0  0.00000000000E+00  0.00000000000E+00 -0.27303442653E+03  0.14369607704E+04  0.14107829237E+04 0.  0.
        1    1    3    3  502    0  0.54461616509E+02 -0.49561619105E+03 -0.64475054536E+03  0.81504892017E+03  0.50400001928E-02 0.  1.
       -1    1    3    3    0  502 -0.54461616509E+02  0.49561619105E+03  0.37171611883E+03  0.62191185028E+03  0.50400001928E-02 0. -1.
</event>
<event>
 5   0  0.6870835E-04  0.1403941E+04  0.7818609E-02  0.8950971E-01
       -2   -1    0    0    0  501  0.00000000000E+00  0.00000000000E+00  0.46913708453E+03  0.46913708454E+03  0.25500000920E-02 0. -1.
        2   -1    0    0  501    0  0.00000000000E+00  0.00000000000E+00 -0.10503593515E+04  0.10503593515E+04  0.25500000920E-02 0.  1.
    10030    2    1    2    0    0  0.00000000000E+00  0.00000000000E+00 -0.58122226697E+03  0.15194964360E+04  0.14039409160E+04 0.  0.
        2    1    3    3  502    0 -0.49596125563E+03 -0.33926073187E+03 -0.68336682959E+03  0.90998111797E+03  0.25500000920E-02 0.  1.
       -2    1    3    3    0  502  0.49596125563E+03  0.33926073187E+03  0.10214456262E+03  0.60951531806E+03  0.25500000920E-02 0. -1.
</event>
<event>
 5   0  0.6870835E-04  0.1418405E+04  0.7818609E-02  0.8940602E-01
        2   -1    0    0  501    0  0.00000000000E+00  0.00000000000E+00  0.88424847272E+03  0.88424847272E+03  0.25500000920E-02 0.  1.
       -2   -1    0    0    0  501  0.00000000000E+00  0.00000000000E+00 -0.56880898307E+03  0.56880898308E+03  0.25500000920E-02 0. -1.
    10030    2    1    2    0    0  0.00000000000E+00  0.00000000000E+00  0.31543948965E+03  0.14530574558E+04  0.14184054069E+04 0.  0.
        2    1    3    3  502    0 -0.10950258946E+03  0.32815341675E+03  0.79195130434E+03  0.86421198237E+03  0.25500000920E-02 0.  1.
       -2    1    3    3    0  502  0.10950258946E+03 -0.32815341675E+03 -0.47651181469E+03  0.58884547342E+03  0.25500000920E-02 0. -1.
</event>
<event>
 5   0  0.3907093E-04  0.1395953E+04  0.7818609E-02  0.8956753E-01
        1   -1    0    0  501    0  0.00000000000E+00  0.00000000000E+00  0.88093410331E+03  0.88093410332E+03  0.50400001928E-02 0.  1.
       -1   -1    0    0    0  501  0.00000000000E+00  0.00000000000E+00 -0.55301639196E+03  0.55301639198E+03  0.50400001928E-02 0. -1.
    10030    2    1    2    0    0  0.00000000000E+00  0.00000000000E+00  0.32791771135E+03  0.14339504953E+04  0.13959527204E+04 0.  0.
        4    1    3    3  502    0  0.29070429080E+03  0.44550183177E+02 -0.48626057257E+03  0.56828220177E+03  0.12699999809E+01 0. -1.
       -4    1    3    3    0  502 -0.29070429080E+03 -0.44550183177E+02  0.81417828392E+03  0.86566829353E+03  0.12699999809E+01 0.  1.
</event>
<event>
 5   0  0.3784219E-04  0.1450372E+04  0.7818609E-02  0.8918143E-01
        1   -1    0    0  501    0  0.00000000000E+00  0.00000000000E+00  0.51361798406E+03  0.51361798408E+03  0.50400001928E-02 0.  1.
       -1   -1    0    0    0  501  0.00000000000E+00  0.00000000000E+00 -0.10239018598E+04  0.10239018598E+04  0.50400001928E-02 0. -1.
    10030    2    1    2    0    0  0.00000000000E+00  0.00000000000E+00 -0.51028387576E+03  0.15375198439E+04  0.14503715512E+04 0.  0.
        1    1    3    3  502    0  0.52853450879E+03  0.43262914385E+02 -0.77950895939E+03  0.94279086999E+03  0.50400001928E-02 0. -1.
       -1    1    3    3    0  502 -0.52853450879E+03 -0.43262914385E+02  0.26922508363E+03  0.59472897392E+03  0.50400001928E-02 0.  1.
</event>
<event>
 5   0  0.6959748E-04  0.1391638E+04  0.7818609E-02  0.8959894E-01
        2   -1    0    0  501    0  0.00000000000E+00  0.00000000000E+00  0.50161414324E+03  0.50161414325E+03  0.25500000920E-02 0.  1.
       -2   -1    0    0    0  501  0.00000000000E+00  0.00000000000E+00 -0.96521212028E+03  0.96521212028E+03  0.25500000920E-02 0. -1.
    10030    2    1    2    0    0  0.00000000000E+00  0.00000000000E+00 -0.46359797703E+03  0.14668262635E+04  0.13916379569E+04 0.  0.
        5    1    3    3  502    0 -0.14365129763E+02  0.49631485064E+03  0.28198691580E+03  0.57102845691E+03  0.46999998093E+01 0.  1.
       -5    1    3    3    0  502  0.14365129763E+02 -0.49631485064E+03 -0.74558489283E+03  0.89579780662E+03  0.46999998093E+01 0. -1.
</event>
<event>
 5   0  0.3977658E-04  0.1315146E+04  0.7818609E-02  0.9017640E-01
       -1   -1    0    0    0  501  0.00000000000E+00  0.00000000000E+00  0.65040618871E+03  0.65040618873E+03  0.50400001928E-02 0. -1.
        1   -1    0    0  501    0  0.00000000000E+00  0.00000000000E+00 -0.66481855022E+03  0.66481855024E+03  0.50400001928E-02 0.  1.
    10030    2    1    2    0    0  0.00000000000E+00  0.00000000000E+00 -0.14412361514E+02  0.13152247390E+04  0.13151457706E+04 0.  0.
        5    1    3    3  502    0 -0.24314717386E+03 -0.40330581667E+03 -0.46614971963E+03  0.66264151774E+03  0.46999998093E+01 0.  1.
       -5    1    3    3    0  502  0.24314717386E+03  0.40330581667E+03  0.45173735812E+03  0.65258322123E+03  0.46999998093E+01 0. -1.
</event>
<event>
 5   0  0.6870835E-04  0.1397225E+04  0.7818609E-02  0.8955829E-01
       -2   -1    0    0    0  501  0.00000000000E+00  0.00000000000E+00  0.32474767365E+03  0.32474767366E+03  0.25500000920E-02 0. -1.
        2   -1    0    0  501    0  0.00000000000E+00  0.00000000000E+00 -0.15028888284E+04  0.15028888284E+04  0.25500000920E-02 0.  1.
    10030    2    1    2    0    0  0.00000000000E+00  0.00000000000E+00 -0.11781411548E+04  0.18276365021E+04  0.13972253230E+04 0.  0.
        2    1    3    3  502    0 -0.38438439732E+03  0.31867963457E+03 -0.12282113144E+04  0.13258246895E+04  0.25500000920E-02 0.  1.
       -2    1    3    3    0  502  0.38438439732E+03 -0.31867963457E+03  0.50070159619E+02  0.50181181262E+03  0.25500000920E-02 0. -1.
</event>
<event>
 5   0  0.6895048E-04  0.1385570E+04  0.7818609E-02  0.8964330E-01
        2   -1    0    0  501    0  0.00000000000E+00  0.00000000000E+00  0.73067230551E+03  0.73067230551E+03  0.25500000920E-02 0. -1.
       -2   -1    0    0    0  501  0.00000000000E+00  0.00000000000E+00 -0.65686220133E+03  0.65686220134E+03  0.25500000920E-02 0.  1.
    10030    2    1    2    0    0  0.00000000000E+00  0.00000000000E+00  0.73810104172E+02  0.13875345068E+04  0.13855699463E+04 0.  0.
        4    1    3    3  502    0  0.37443494268E+03 -0.14139435057E+03  0.60317610463E+03  0.72389012617E+03  0.12699999809E+01 0. -1.
       -4    1    3    3    0  502 -0.37443494268E+03  0.14139435057E+03 -0.52936600045E+03  0.66364438068E+03  0.12699999809E+01 0.  1.
</event>
<event>
 5   0  0.3907093E-04  0.1408446E+04  0.7818609E-02  0.8947728E-01
       -1   -1    0    0    0  501  0.00000000000E+00  0.00000000000E+00  0.12961259064E+04  0.12961259064E+04  0.50400001928E-02 0. -1.
        1   -1    0    0  501    0  0.00000000000E+00  0.00000000000E+00 -0.38262480593E+03  0.38262480596E+03  0.50400001928E-02 0.  1.
    10030    2    1    2    0    0  0.00000000000E+00  0.00000000000E+00  0.91350110043E+03  0.16787507123E+04  0.14084458434E+04 0.  0.
        4    1    3    3  502    0  0.59603601134E+03  0.35743871360E+03  0.32133832756E+03  0.76569007729E+03  0.12699999809E+01 0.  1.
       -4    1    3    3    0  502 -0.59603601134E+03 -0.35743871360E+03  0.59216277287E+03  0.91306063504E+03  0.12699999809E+01 0. -1.
</event>
<event>
 5   0  0.6959748E-04  0.1400883E+04  0.7818609E-02  0.8953180E-01
        2   -1    0    0  501    0  0.00000000000E+00  0.00000000000E+00  0.58368333702E+03  0.58368333703E+03  0.25500000920E-02 0. -1.
       -2   -1    0    0    0  501  0.00000000000E+00  0.00000000000E+00 -0.84055558633E+03  0.84055558633E+03  0.25500000920E-02 0.  1.
    10030    2    1    2    0    0  0.00000000000E+00  0.00000000000E+00 -0.25687224930E+03  0.14242389234E+04  0.14008829924E+04 0.  0.
        5    1    3    3  502    0 -0.18545471088E+03  0.61853914421E+03 -0.40427503169E+03  0.76186909240E+03  0.46999998093E+01 0.  1.
       -5    1    3    3    0  502  0.18545471088E+03 -0.61853914421E+03  0.14740278238E+03  0.66236983096E+03  0.46999998093E+01 0. -1.
</event>
<event>
 5   0  0.7296966E-04  0.1429632E+04  0.7818609E-02  0.8932644E-01
        2   -1    0    0  501    0  0.00000000000E+00  0.00000000000E+00  0.11855735619E+04  0.11855735619E+04  0.25500000920E-02 0. -1.
       -2   -1    0    0    0  501  0.00000000000E+00  0.00000000000E+00 -0.43098304214E+03  0.43098304215E+03  0.25500000920E-02 0.  1.
    10030    2    1    2    0    0  0.00000000000E+00  0.00000000000E+00  0.75459051980E+03  0.16165566041E+04  0.14296322610E+04 0.  0.
        3    1    3    3  502    0  0.34635787711E+03 -0.10817217157E+02  0.10842457871E+04  0.11382748914E+04  0.10100000352E+00 0. -1.
       -3    1    3    3    0  502 -0.34635787711E+03  0.10817217157E+02 -0.32965526734E+03  0.47828171271E+03  0.10100000352E+00 0.  1.
</event>
<event>
 5   0  0.6895048E-04  0.1343964E+04  0.7818609E-02  0.8995410E-01
        2   -1    0    0  501    0  0.00000000000E+00  0.00000000000E+00  0.13251502950E+04  0.13251502950E+04  0.25500000920E-02 0.  1.
       -2   -1    0    0    0  501  0.00000000000E+00  0.00000000000E+00 -0.34076098883E+03  0.34076098884E+03  0.25500000920E-02 0. -1.
    10030    2    1    2    0    0  0.00000000000E+00  0.00000000000E+00  0.98438930613E+03  0.16659112838E+04  0.13439635782E+04 0.  0.
        4    1    3    3  502    0  0.30897698431E+03 -0.52230231964E+03  0.84993218702E+03  0.10443432507E+04  0.12699999809E+01 0.  1.
       -4    1    3    3    0  502 -0.30897698431E+03  0.52230231964E+03  0.13445711911E+03  0.62156803306E+03  0.12699999809E+01 0. -1.
</event>
<event>
 5   0  0.3756664E-04  0.1351507E+04  0.7818609E-02  0.8989688E-01
        1   -1    0    0  501    0  0.00000000000E+00  0.00000000000E+00  0.11406533372E+04  0.11406533372E+04  0.50400001928E-02 0.  1.
       -1   -1    0    0    0  501  0.00000000000E+00  0.00000000000E+00 -0.40033464829E+03  0.40033464832E+03  0.50400001928E-02 0. -1.
    10030    2    1    2    0    0  0.00000000000E+00  0.00000000000E+00  0.74031868886E+03  0.15409879855E+04  0.13515073845E+04 0.  0.
        2    1    3    3  502    0 -0.13181214115E+03  0.61872106415E+03  0.99250120679E+02  0.64034426853E+03  0.25500000920E-02 0. -1.
       -2    1    3    3    0  502  0.13181214115E+03 -0.61872106415E+03  0.64106856818E+03  0.90064371696E+03  0.25500000920E-02 0.  1.
</event>
<event>
 5   0  0.7296966E-04  0.1402887E+04  0.7818609E-02  0.8951731E-01
       -2   -1    0    0    0  501  0.00000000000E+00  0.00000000000E+00  0.35209795131E+03  0.35209795132E+03  0.25500000920E-02 0. -1.
        2   -1    0    0  501    0  0.00000000000E+00  0.00000000000E+00 -0.13974046642E+04  0.13974046642E+04  0.25500000920E-02 0.  1.
    10030    2    1    2    0    0  0.00000000000E+00  0.00000000000E+00 -0.10453067129E+04  0.17495026155E+04  0.14028874786E+04 0.  0.
        3    1    3    3  502    0  0.50515212151E+03 -0.47195828279E+03 -0.67073514885E+03  0.96322839278E+03  0.10100000352E+00 0.  1.
       -3    1    3    3    0  502 -0.50515212151E+03  0.47195828279E+03 -0.37457156401E+03  0.78627422272E+03  0.10100000352E+00 0. -1.
</event>
<event>
 5   0  0.3907270E-04  0.1403283E+04  0.7818609E-02  0.8951446E-01
        1   -1    0    0  501    0  0.00000000000E+00  0.00000000000E+00  0.18739293610E+04  0.18739293610E+04  0.50400001928E-02 0.  1.
       -1   -1    0    0    0  501  0.00000000000E+00  0.00000000000E+00 -0.26271041073E+03  0.26271041078E+03  0.50400001928E-02 0. -1.
    10030    2    1    2    0    0  0.00000000000E+00  0.00000000000E+00  0.16112189502E+04  0.21366397718E+04  0.14032829396E+04 0.  0.
        3    1    3    3  502    0  0.28311824366E+02 -0.35918277140E+03 -0.11110108117E+03  0.37703750889E+03  0.10100000352E+00 0. -1.
       -3    1    3    3    0  502 -0.28311824366E+02  0.35918277140E+03  0.17223200314E+04  0.17596022629E+04  0.10100000352E+00 0.  1.
</event>
<event>
 5   0  0.6895048E-04  0.1403634E+04  0.7818609E-02  0.8951192E-01
       -2   -1    0    0    0  501  0.00000000000E+00  0.00000000000E+00  0.32319031172E+03  0.32319031173E+03  0.25500000920E-02 0. -1.
        2   -1    0    0  501    0  0.00000000000E+00  0.00000000000E+00 -0.15240158778E+04  0.15240158778E+04  0.25500000920E-02 0.  1.
    10030    2    1    2    0    0  0.00000000000E+00  0.00000000000E+00 -0.12008255661E+04  0.18472061896E+04  0.14036340928E+04 0.  0.
        4    1    3    3  502    0  0.29285616820E+03 -0.45370512041E+03 -0.10501719150E+02  0.54011570107E+03  0.12699999809E+01 0. -1.
       -4    1    3    3    0  502 -0.29285616820E+03  0.45370512041E+03 -0.11903238470E+04  0.13070904885E+04  0.12699999809E+01 0.  1.
</event>
<event>
 5   0  0.3784219E-04  0.1400895E+04  0.7818609E-02  0.8953171E-01
        1   -1    0    0  501    0  0.00000000000E+00  0.00000000000E+00  0.81663443191E+03  0.81663443192E+03  0.50400001928E-02 0.  1.
       -1   -1    0    0    0  501  0.00000000000E+00  0.00000000000E+00 -0.60079142317E+03  0.60079142319E+03  0.50400001928E-02 0. -1.
    10030    2    1    2    0    0  0.00000000000E+00  0.00000000000E+00  0.21584300874E+03  0.14174258551E+04  0.14008953745E+04 0.  0.
        1    1    3    3  502    0 -0.29271530179E+03 -0.56920078536E+03  0.39580513563E+03  0.75255131876E+03  0.50400001928E-02 0.  1.
       -1    1    3    3    0  502  0.29271530179E+03  0.56920078536E+03 -0.17996212689E+03  0.66487453636E+03  0.50400001928E-02 0. -1.
</event>
<event>
 5   0  0.6959748E-04  0.1377623E+04  0.7818609E-02  0.8970177E-01
       -2   -1    0    0    0  501  0.00000000000E+00  0.00000000000E+00  0.58159770678E+03  0.58159770679E+03  0.25500000920E-02 0.  1.
        2   -1    0    0  501    0  0.00000000000E+00  0.00000000000E+00 -0.81578932578E+03  0.81578932578E+03  0.25500000920E-02 0. -1.
    10030    2    1    2    0    0  0.00000000000E+00  0.00000000000E+00 -0.23419161899E+03  0.13973870326E+04  0.13776228818E+04 0.  0.
        5    1    3    3  502    0  0.13377677076E+03 -0.31982361558E+03  0.48663704463E+03  0.59751240379E+03  0.46999998093E+01 0.  1.
       -5    1    3    3    0  502 -0.13377677076E+03  0.31982361558E+03 -0.72082866362E+03  0.79987462878E+03  0.46999998093E+01 0. -1.
</event>
<event>
 5   0  0.3977658E-04  0.1400864E+04  0.7818609E-02  0.8953193E-01
        1   -1    0    0  501    0  0.00000000000E+00  0.00000000000E+00  0.14294613888E+04  0.14294613888E+04  0.50400001928E-02 0.  1.
       -1   -1    0    0    0  501  0.00000000000E+00  0.00000000000E+00 -0.34320983990E+03  0.34320983994E+03  0.50400001928E-02 0. -1.
    10030    2    1    2    0    0  0.00000000000E+00  0.00000000000E+00  0.10862515489E+04  0.17726712288E+04  0.14008643253E+04 0.  0.
        5    1    3    3  502    0  0.59334916111E+03  0.20245569919E+03  0.93831470074E+03  0.11284981634E+04  0.46999998093E+01 0. -1.
       -5    1    3    3    0  502 -0.59334916111E+03 -0.20245569919E+03  0.14793684818E+03  0.64417306539E+03  0.46999998093E+01 0.  1.
</event>
<event>
 5   0  0.3977658E-04  0.1411189E+04  0.7818609E-02  0.8945759E-01
       -1   -1    0    0    0  501  0.00000000000E+00  0.00000000000E+00  0.26342659759E+03  0.26342659764E+03  0.50400001928E-02 0. -1.
        1   -1    0    0  501    0  0.00000000000E+00  0.00000000000E+00 -0.18899531186E+04  0.18899531186E+04  0.50400001928E-02 0.  1.
    10030    2    1    2    0    0  0.00000000000E+00  0.00000000000E+00 -0.16265265210E+04  0.21533797162E+04  0.14111894553E+04 0.  0.
        5    1    3    3  502    0  0.51383179740E+03  0.98595827617E+02 -0.90902951447E+02  0.53106467574E+03  0.46999998093E+01 0.  1.
       -5    1    3    3    0  502 -0.51383179740E+03 -0.98595827617E+02 -0.15356235695E+04  0.16223150405E+04  0.46999998093E+01 0. -1.
</event>
<event>
 5   0  0.6959748E-04  0.1388542E+04  0.7818609E-02  0.8962155E-01
        2   -1    0    0  501    0  0.00000000000E+00  0.00000000000E+00  0.28401714316E+04  0.28401714317E+04  0.25500000920E-02 0. -1.
       -2   -1    0    0    0  501  0.00000000000E+00  0.00000000000E+00 -0.16971230914E+03  0.16971230916E+03  0.25500000920E-02 0.  1.
    10030    2    1    2    0    0  0.00000000000E+00  0.00000000000E+00  0.26704591225E+04  0.30098837408E+04  0.13885417560E+04 0.  0.
        5    1    3    3  502    0  0.23510204912E+03  0.62023413348E+02  0.27448242608E+04  0.27555765622E+04  0.46999998093E+01 0. -1.
       -5    1    3    3    0  502 -0.23510204912E+03 -0.62023413348E+02 -0.74365138307E+02  0.25430717862E+03  0.46999998093E+01 0.  1.
</event>
<event>
 5   0  0.3907093E-04  0.1394785E+04  0.7818609E-02  0.8957602E-01
       -1   -1    0    0    0  501  0.00000000000E+00  0.00000000000E+00  0.35045224941E+03  0.35045224944E+03  0.50400001928E-02 0.  1.
        1   -1    0    0  501    0  0.00000000000E+00  0.00000000000E+00 -0.13877953406E+04  0.13877953406E+04  0.50400001928E-02 0. -1.
    10030    2    1    2    0    0  0.00000000000E+00  0.00000000000E+00 -0.10373430912E+04  0.17382475901E+04  0.13947845696E+04 0.  0.
        4    1    3    3  502    0  0.59691927721E+03 -0.18665430327E+03 -0.13414406165E+03  0.63964732049E+03  0.12699999809E+01 0. -1.
       -4    1    3    3    0  502 -0.59691927721E+03  0.18665430327E+03 -0.90319902955E+03  0.10986002696E+04  0.12699999809E+01 0.  1.
</event>
<event>
 5   0  0.3907093E-04  0.1395901E+04  0.7818609E-02  0.8956791E-01
        1   -1    0    0  501    0  0.00000000000E+00  0.00000000000E+00  0.15794793147E+04  0.15794793147E+04  0.50400001928E-02 0.  1.
       -1   -1    0    0    0  501  0.00000000000E+00  0.00000000000E+00 -0.30841473532E+03  0.30841473536E+03  0.50400001928E-02 0. -1.
    10030    2    1    2    0    0  0.00000000000E+00  0.00000000000E+00  0.12710645794E+04  0.18878940501E+04  0.13959007054E+04 0.  0.
        4    1    3    3  502    0 -0.59794150310E+03  0.22658841199E+03  0.25719082057E+03  0.68922063279E+03  0.12699999809E+01 0. -1.
       -4    1    3    3    0  502  0.59794150310E+03 -0.22658841199E+03  0.10138737588E+04  0.11986734173E+04  0.12699999809E+01 0.  1.
</event>
<event>
 5   0  0.3977658E-04  0.1400279E+04  0.7818609E-02  0.8953617E-01
        1   -1    0    0  501    0  0.00000000000E+00  0.00000000000E+00  0.41650967982E+03  0.41650967986E+03  0.50400001928E-02 0.  1.
       -1   -1    0    0    0  501  0.00000000000E+00  0.00000000000E+00 -0.11769115613E+04  0.11769115614E+04  0.50400001928E-02 0. -1.
    10030    2    1    2    0    0  0.00000000000E+00  0.00000000000E+00 -0.76040188152E+03  0.15934212412E+04  0.14002786260E+04 0.  0.
        5    1    3    3  502    0  0.28714740391E+03 -0.43681329169E+03  0.14977898224E+03  0.54379712843E+03  0.46999998093E+01 0.  1.
       -5    1    3    3    0  502 -0.28714740391E+03  0.43681329169E+03 -0.91018086376E+03  0.10496241128E+04  0.46999998093E+01 0. -1.
</event>
<event>
 5   0  0.3756664E-04  0.1400647E+04  0.7818609E-02  0.8953350E-01
        1   -1    0    0  501    0  0.00000000000E+00  0.00000000000E+00  0.10032416012E+04  0.10032416012E+04  0.50400001928E-02 0. -1.
       -1   -1    0    0    0  501  0.00000000000E+00  0.00000000000E+00 -0.48886846163E+03  0.48886846166E+03  0.50400001928E-02 0.  1.
    10030    2    1    2    0    0  0.00000000000E+00  0.00000000000E+00  0.51437313954E+03  0.14921100628E+04  0.14006472479E+04 0.  0.
        2    1    3    3  502    0 -0.28153496730E+03 -0.48099551152E+03 -0.19457435456E+03  0.59032008213E+03  0.25500000920E-02 0.  1.
       -2    1    3    3    0  502  0.28153496730E+03  0.48099551152E+03  0.70894749410E+03  0.90178998071E+03  0.25500000920E-02 0. -1.
</event>
<event>
 5   0  0.3907093E-04  0.1398230E+04  0.7818609E-02  0.8955101E-01
        1   -1    0    0  501    0  0.00000000000E+00  0.00000000000E+00  0.10925859454E+04  0.10925859454E+04  0.50400001928E-02 0. -1.
       -1   -1    0    0    0  501  0.00000000000E+00  0.00000000000E+00 -0.44734416711E+03  0.44734416713E+03  0.50400001928E-02 0.  1.
    10030    2    1    2    0    0  0.00000000000E+00  0.00000000000E+00  0.64524177833E+03  0.15399301126E+04  0.13982302382E+04 0.  0.
        4    1    3    3  502    0  0.71184778019E+02 -0.66981430281E+03  0.52878635586E+03  0.85634986770E+03  0.12699999809E+01 0. -1.
       -4    1    3    3    0  502 -0.71184778019E+02  0.66981430281E+03  0.11645542247E+03  0.68358024488E+03  0.12699999809E+01 0.  1.
</event>
<event>
 5   0  0.3907093E-04  0.1381772E+04  0.7818609E-02  0.8967120E-01
       -1   -1    0    0    0  501  0.00000000000E+00  0.00000000000E+00  0.10709435255E+04  0.10709435255E+04  0.50400001928E-02 0. -1.
        1   -1    0    0  501    0  0.00000000000E+00  0.00000000000E+00 -0.44570349080E+03  0.44570349083E+03  0.50400001928E-02 0.  1.
    10030    2    1    2    0    0  0.00000000000E+00  0.00000000000E+00  0.62524003469E+03  0.15166470163E+04  0.13817717146E+04 0.  0.
        4    1    3    3  502    0 -0.42880580400E+03 -0.44840244581E+03  0.64623307022E+03  0.89585599562E+03  0.12699999809E+01 0. -1.
       -4    1    3    3    0  502  0.42880580400E+03  0.44840244581E+03 -0.20993035522E+02  0.62079102071E+03  0.12699999809E+01 0.  1.
</event>
<event>
 5   0  0.3784219E-04  0.1396362E+04  0.7818609E-02  0.8956456E-01
       -1   -1    0    0    0  501  0.00000000000E+00  0.00000000000E+00  0.41413170434E+03  0.41413170437E+03  0.50400001928E-02 0.  1.
        1   -1    0    0  501    0  0.00000000000E+00  0.00000000000E+00 -0.11770576164E+04  0.11770576164E+04  0.50400001928E-02 0. -1.
    10030    2    1    2    0    0  0.00000000000E+00  0.00000000000E+00 -0.76292591204E+03  0.15911893208E+04  0.13963622407E+04 0.  0.
        1    1    3    3  502    0 -0.17354134729E+03 -0.57422669694E+02 -0.11493055687E+04  0.11637513705E+04  0.50400001928E-02 0. -1.
       -1    1    3    3    0  502  0.17354134729E+03  0.57422669694E+02  0.38637965662E+03  0.42743795023E+03  0.50400001928E-02 0.  1.
</event>
<event>
 5   0  0.6870835E-04  0.1356981E+04  0.7818609E-02  0.8985560E-01
        2   -1    0    0  501    0  0.00000000000E+00  0.00000000000E+00  0.71212717806E+03  0.71212717806E+03  0.25500000920E-02 0. -1.
       -2   -1    0    0    0  501  0.00000000000E+00  0.00000000000E+00 -0.64644302918E+03  0.64644302919E+03  0.25500000920E-02 0.  1.
    10030    2    1    2    0    0  0.00000000000E+00  0.00000000000E+00  0.65684148874E+02  0.13585702073E+04  0.13569814297E+04 0.  0.
        2    1    3    3  502    0 -0.59986904797E+03  0.30908665440E+03  0.10343857175E+03  0.68269830290E+03  0.25500000920E-02 0.  1.
       -2    1    3    3    0  502  0.59986904797E+03 -0.30908665440E+03 -0.37754422875E+02  0.67587190436E+03  0.25500000920E-02 0. -1.
</event>
<event>
 5   0  0.3784219E-04  0.1398220E+04  0.7818609E-02  0.8955108E-01
       -1   -1    0    0    0  501  0.00000000000E+00  0.00000000000E+00  0.46797531329E+03  0.46797531331E+03  0.50400001928E-02 0. -1.
        1   -1    0    0  501    0  0.00000000000E+00  0.00000000000E+00 -0.10444034105E+04  0.10444034105E+04  0.50400001928E-02 0.  1.
    10030    2    1    2    0    0  0.00000000000E+00  0.00000000000E+00 -0.57642809720E+03  0.15123787238E+04  0.13982203163E+04 0.  0.
        1    1    3    3  502    0  0.61835253340E+03  0.75684324302E+02 -0.63139928921E+03  0.88699100049E+03  0.50400001928E-02 0.  1.
       -1    1    3    3    0  502 -0.61835253340E+03 -0.75684324302E+02  0.54971192006E+02  0.62538772333E+03  0.50400001928E-02 0. -1.
</event>
<event>
 5   0  0.3907093E-04  0.1406673E+04  0.7818609E-02  0.8949002E-01
       -1   -1    0    0    0  501  0.00000000000E+00  0.00000000000E+00  0.89484893290E+03  0.89484893291E+03  0.50400001928E-02 0.  1.
        1   -1    0    0  501    0  0.00000000000E+00  0.00000000000E+00 -0.55281118196E+03  0.55281118198E+03  0.50400001928E-02 0. -1.
    10030    2    1    2    0    0  0.00000000000E+00  0.00000000000E+00  0.34203775094E+03  0.14476601149E+04  0.14066733754E+04 0.  0.
        4    1    3    3  502    0 -0.23342518125E+03  0.10207762246E+03  0.84569178645E+03  0.88323460463E+03  0.12699999809E+01 0.  1.
       -4    1    3    3    0  502  0.23342518125E+03 -0.10207762246E+03 -0.50365403551E+03  0.56442551026E+03  0.12699999809E+01 0. -1.
</event>
<event>
 5   0  0.6959748E-04  0.1388991E+04  0.7818609E-02  0.8961826E-01
        2   -1    0    0  501    0  0.00000000000E+00  0.00000000000E+00  0.12217285317E+04  0.12217285317E+04  0.25500000920E-02 0. -1.
       -2   -1    0    0    0  501  0.00000000000E+00  0.00000000000E+00 -0.39478840756E+03  0.39478840757E+03  0.25500000920E-02 0.  1.
    10030    2    1    2    0    0  0.00000000000E+00  0.00000000000E+00  0.82694012414E+03  0.16165169393E+04  0.13889913772E+04 0.  0.
        5    1    3    3  502    0  0.11755780221E+03  0.65781896220E+02  0.12063588246E+04  0.12138660545E+04  0.46999998093E+01 0. -1.
       -5    1    3    3    0  502 -0.11755780221E+03 -0.65781896220E+02 -0.37941870044E+03  0.40265088473E+03  0.46999998093E+01 0.  1.
</event>
<event>
 5   0  0.2660250E-04  0.1400267E+04  0.7818609E-02  0.8953625E-01
        4   -1    0    0  501    0  0.00000000000E+00  0.00000000000E+00  0.53921911053E+03  0.53922060611E+03  0.12699999809E+01 0.  1.
       -4   -1    0    0    0  501  0.00000000000E+00  0.00000000000E+00 -0.90906540903E+03  0.90906629615E+03  0.12699999809E+01 0. -1.
    10030    2    1    2    0    0  0.00000000000E+00  0.00000000000E+00 -0.36984629851E+03  0.14482869023E+04  0.14002673555E+04 0.  0.
        2    1    3    3  502    0 -0.15649569306E+03  0.64019211950E+03 -0.42935424342E+03  0.78656335929E+03  0.25500000920E-02 0. -1.
       -2    1    3    3    0  502  0.15649569306E+03 -0.64019211950E+03  0.59507944914E+02  0.66172354298E+03  0.25500000920E-02 0.  1.
</event>
<event>
 5   0  0.3907270E-04  0.1429748E+04  0.7818609E-02  0.8932563E-01
        1   -1    0    0  501    0  0.00000000000E+00  0.00000000000E+00  0.16063806724E+04  0.16063806725E+04  0.50400001928E-02 0.  1.
       -1   -1    0    0    0  501  0.00000000000E+00  0.00000000000E+00 -0.31813425225E+03  0.31813425228E+03  0.50400001928E-02 0. -1.
    10030    2    1    2    0    0  0.00000000000E+00  0.00000000000E+00  0.12882464202E+04  0.19245149247E+04  0.14297478296E+04 0.  0.
        3    1    3    3  502    0  0.12109341175E+03  0.21028354214E+03 -0.26100235222E+03  0.35637763753E+03  0.10100000352E+00 0. -1.
       -3    1    3    3    0  502 -0.12109341175E+03 -0.21028354214E+03  0.15492487724E+04  0.15681372872E+04  0.10100000352E+00 0.  1.
</event>
<event>
 5   0  0.3907093E-04  0.1398598E+04  0.7818609E-02  0.8954834E-01
       -1   -1    0    0    0  501  0.00000000000E+00  0.00000000000E+00  0.54264476405E+03  0.54264476407E+03  0.50400001928E-02 0. -1.
        1   -1    0    0  501    0  0.00000000000E+00  0.00000000000E+00 -0.90117766541E+03  0.90117766543E+03  0.50400001928E-02 0.  1.
    10030    2    1    2    0    0  0.00000000000E+00  0.00000000000E+00 -0.35853290136E+03  0.14438224295E+04  0.13985983578E+04 0.  0.
        4    1    3    3  502    0  0.39411667178E+03  0.19036388731E+03  0.38375994478E+03  0.58209936325E+03  0.12699999809E+01 0. -1.
       -4    1    3    3    0  502 -0.39411667178E+03 -0.19036388731E+03 -0.74229284615E+03  0.86172306625E+03  0.12699999809E+01 0.  1.
</event>
<event>
 5   0  0.3907093E-04  0.1403816E+04  0.7818609E-02  0.8951061E-01
       -1   -1    0    0    0  501  0.00000000000E+00  0.00000000000E+00  0.56535284681E+03  0.56535284683E+03  0.50400001928E-02 0. -1.
        1   -1    0    0  501    0  0.00000000000E+00  0.00000000000E+00 -0.87144677407E+03  0.87144677408E+03  0.50400001928E-02 0.  1.
    10030    2    1    2    0    0  0.00000000000E+00  0.00000000000E+00 -0.30609392726E+03  0.14367996209E+04  0.14038161056E+04 0.  0.
        4    1    3    3  502    0  0.35583949967E+03 -0.30478589397E+02  0.46540410796E+03  0.58664579649E+03  0.12699999809E+01 0. -1.
       -4    1    3    3    0  502 -0.35583949967E+03  0.30478589397E+02 -0.77149803522E+03  0.85015382442E+03  0.12699999809E+01 0.  1.
</event>
<event>
 5   0  0.6895048E-04  0.1311745E+04  0.7818609E-02  0.9020303E-01
       -2   -1    0    0    0  501  0.00000000000E+00  0.00000000000E+00  0.15332824490E+04  0.15332824490E+04  0.25500000920E-02 0. -1.
        2   -1    0    0  501    0  0.00000000000E+00  0.00000000000E+00 -0.28055406483E+03  0.28055406484E+03  0.25500000920E-02 0.  1.
    10030    2    1    2    0    0  0.00000000000E+00  0.00000000000E+00  0.12527283841E+04  0.18138365138E+04  0.13117448283E+04 0.  0.
        4    1    3    3  502    0  0.25911857386E+03  0.49055412825E+02 -0.20400755732E+03  0.33342100293E+03  0.12699999809E+01 0.  1.
       -4    1    3    3    0  502 -0.25911857386E+03 -0.49055412825E+02  0.14567359415E+04  0.14804155109E+04  0.12699999809E+01 0. -1.
</event>
<event>
 5   0  0.2660250E-04  0.1398269E+04  0.7818609E-02  0.8955073E-01
       -3   -1    0    0    0  501  0.00000000000E+00  0.00000000000E+00  0.21851353797E+04  0.21851353820E+04  0.10100000352E+00 0.  1.
        3   -1    0    0  501    0  0.00000000000E+00  0.00000000000E+00 -0.22368817336E+03  0.22368819617E+03  0.10100000352E+00 0. -1.
    10030    2    1    2    0    0  0.00000000000E+00  0.00000000000E+00  0.19614472063E+04  0.24088235782E+04  0.13982688896E+04 0.  0.
        2    1    3    3  502    0 -0.64910935798E+02  0.48928173083E+03  0.18337370380E+04  0.18990001491E+04  0.25500000920E-02 0.  1.
       -2    1    3    3    0  502  0.64910935798E+02 -0.48928173083E+03  0.12771016827E+03  0.50982342904E+03  0.25500000920E-02 0. -1.
</event>
<event>
 5   0  0.3907270E-04  0.1426159E+04  0.7818609E-02  0.8935098E-01
       -1   -1    0    0    0  501  0.00000000000E+00  0.00000000000E+00  0.76152786307E+03  0.76152786308E+03  0.50400001928E-02 0.  1.
        1   -1    0    0  501    0  0.00000000000E+00  0.00000000000E+00 -0.66771366673E+03  0.66771366675E+03  0.50400001928E-02 0. -1.
    10030    2    1    2    0    0  0.00000000000E+00  0.00000000000E+00  0.93814196338E+02  0.14292415298E+04  0.14261592643E+04 0.  0.
        3    1    3    3  502    0 -0.42275922689E+03 -0.28388515708E+03 -0.45333742552E+03  0.68178514058E+03  0.10100000352E+00 0. -1.
       -3    1    3    3    0  502  0.42275922689E+03  0.28388515708E+03  0.54715162186E+03  0.74745638925E+03  0.10100000352E+00 0.  1.
</event>
<event>
 5   0  0.6870835E-04  0.1387620E+04  0.7818609E-02  0.8962829E-01
       -2   -1    0    0    0  501  0.00000000000E+00  0.00000000000E+00  0.29790562668E+03  0.29790562669E+03  0.25500000920E-02 0.  1.
        2   -1    0    0  501    0  0.00000000000E+00  0.00000000000E+00 -0.16158549905E+04  0.16158549905E+04  0.25500000920E-02 0. -1.
    10030    2    1    2    0    0  0.00000000000E+00  0.00000000000E+00 -0.13179493638E+04  0.19137606172E+04  0.13876199675E+04 0.  0.
        2    1    3    3  502    0 -0.37935596519E+03 -0.58041639430E+03 -0.62581281130E+03  0.93404272594E+03  0.25500000920E-02 0.  1.
       -2    1    3    3    0  502  0.37935596519E+03  0.58041639430E+03 -0.69213655252E+03  0.97971789125E+03  0.25500000920E-02 0. -1.
</event>
<event>
 5   0  0.6959748E-04  0.1404700E+04  0.7818609E-02  0.8950424E-01
       -2   -1    0    0    0  501  0.00000000000E+00  0.00000000000E+00  0.32869384462E+03  0.32869384463E+03  0.25500000920E-02 0. -1.
        2   -1    0    0  501    0  0.00000000000E+00  0.00000000000E+00 -0.15007744340E+04  0.15007744340E+04  0.25500000920E-02 0.  1.
    10030    2    1    2    0    0  0.00000000000E+00  0.00000000000E+00 -0.11720805894E+04  0.18294682786E+04  0.14046997097E+04 0.  0.
        5    1    3    3  502    0  0.61628436798E+03  0.19148886137E+03 -0.94696671257E+03  0.11459679101E+04  0.46999998093E+01 0.  1.
       -5    1    3    3    0  502 -0.61628436798E+03 -0.19148886137E+03 -0.22511387680E+03  0.68350036853E+03  0.46999998093E+01 0. -1.
</event>
<event>
 5   0  0.7296966E-04  0.1396770E+04  0.7818609E-02  0.8956160E-01
       -2   -1    0    0    0  501  0.00000000000E+00  0.00000000000E+00  0.53670141897E+03  0.53670141897E+03  0.25500000920E-02 0. -1.
        2   -1    0    0  501    0  0.00000000000E+00  0.00000000000E+00 -0.90877601066E+03  0.90877601067E+03  0.25500000920E-02 0.  1.
    10030    2    1    2    0    0  0.00000000000E+00  0.00000000000E+00 -0.37207459169E+03  0.14454774296E+04  0.13967696653E+04 0.  0.
        3    1    3    3  502    0  0.67260914038E+03  0.16045996853E+03 -0.28738557076E+03  0.74882637087E+03  0.10100000352E+00 0.  1.
       -3    1    3    3    0  502 -0.67260914038E+03 -0.16045996853E+03 -0.84689020936E+02  0.69665105877E+03  0.10100000352E+00 0. -1.
</event>
<event>
 5   0  0.3756664E-04  0.1412904E+04  0.7818609E-02  0.8944531E-01
       -1   -1    0    0    0  501  0.00000000000E+00  0.00000000000E+00  0.22097636739E+03  0.22097636745E+03  0.50400001928E-02 0. -1.
        1   -1    0    0  501    0  0.00000000000E+00  0.00000000000E+00 -0.22584969886E+04  0.22584969886E+04  0.50400001928E-02 0.  1.
    10030    2    1    2    0    0  0.00000000000E+00  0.00000000000E+00 -0.20375206212E+04  0.24794733560E+04  0.14129040454E+04 0.  0.
        2    1    3    3  502    0 -0.31162136294E+03 -0.43481190063E+03 -0.20903090865E+03  0.57433716887E+03  0.25500000920E-02 0. -1.
       -2    1    3    3    0  502  0.31162136294E+03  0.43481190063E+03 -0.18284897126E+04  0.19051361872E+04  0.25500000920E-02 0.  1.
</event>
<event>
 5   0  0.7296966E-04  0.1386309E+04  0.7818609E-02  0.8963789E-01
       -2   -1    0    0    0  501  0.00000000000E+00  0.00000000000E+00  0.49789614763E+03  0.49789614764E+03  0.25500000920E-02 0.  1.
        2   -1    0    0  501    0  0.00000000000E+00  0.00000000000E+00 -0.96498665525E+03  0.96498665525E+03  0.25500000920E-02 0. -1.
    10030    2    1    2    0    0  0.00000000000E+00  0.00000000000E+00 -0.46709050762E+03  0.14628828029E+04  0.13863089673E+04 0.  0.
        3    1    3    3  502    0  0.29420294030E+03  0.52072532819E+03  0.13616829445E+03  0.61339388008E+03  0.10100000352E+00 0.  1.
       -3    1    3    3    0  502 -0.29420294030E+03 -0.52072532819E+03 -0.60325880207E+03  0.84948892281E+03  0.10100000352E+00 0. -1.
</event>
<event>
 5   0  0.3977658E-04  0.1385694E+04  0.7818609E-02  0.8964239E-01
        1   -1    0    0  501    0  0.00000000000E+00  0.00000000000E+00  0.15018817827E+04  0.15018817827E+04  0.50400001928E-02 0.  1.
       -1   -1    0    0    0  501  0.00000000000E+00  0.00000000000E+00 -0.31962379346E+03  0.31962379350E+03  0.50400001928E-02 0. -1.
    10030    2    1    2    0    0  0.00000000000E+00  0.00000000000E+00  0.11822579893E+04  0.18215055762E+04  0.13856942704E+04 0.  0.
        5    1    3    3  502    0  0.24053120756E+03  0.57820623601E+03  0.20154357459E+03  0.65789027628E+03  0.46999998093E+01 0. -1.
       -5    1    3    3    0  502 -0.24053120756E+03 -0.57820623601E+03  0.98071441466E+03  0.11636152999E+04  0.46999998093E+01 0.  1.
</event>
<event>
 5   0  0.3907270E-04  0.1393767E+04  0.7818609E-02  0.8958343E-01
       -1   -1    0    0    0  501  0.00000000000E+00  0.00000000000E+00  0.35340171976E+03  0.35340171979E+03  0.50400001928E-02 0. -1.
        1   -1    0    0  501    0  0.00000000000E+00  0.00000000000E+00 -0.13742055546E+04  0.13742055546E+04  0.50400001928E-02 0.  1.
    10030    2    1    2    0    0  0.00000000000E+00  0.00000000000E+00 -0.10208038349E+04  0.17276072744E+04  0.13937669911E+04 0.  0.
        3    1    3    3  502    0 -0.41697786350E+03 -0.55079505076E+03 -0.62401202470E+03  0.93093326493E+03  0.10100000352E+00 0.  1.
       -3    1    3    3    0  502  0.41697786350E+03  0.55079505076E+03 -0.39679181017E+03  0.79667400950E+03  0.10100000352E+00 0. -1.
</event>
<event>
 5   0  0.3907093E-04  0.1414846E+04  0.7818609E-02  0.8943142E-01
        1   -1    0    0  501    0  0.00000000000E+00  0.00000000000E+00  0.77298766742E+03  0.77298766744E+03  0.50400001928E-02 0. -1.
       -1   -1    0    0    0  501  0.00000000000E+00  0.00000000000E+00 -0.64741908139E+03  0.64741908141E+03  0.50400001928E-02 0.  1.
    10030    2    1    2    0    0  0.00000000000E+00  0.00000000000E+00  0.12556858603E+03  0.14204067488E+04  0.14148455260E+04 0.  0.
        4    1    3    3  502    0 -0.12325438799E+03  0.58423077023E+03 -0.31808549225E+03  0.67653324406E+03  0.12699999809E+01 0.  1.
       -4    1    3    3    0  502  0.12325438799E+03 -0.58423077023E+03  0.44365407828E+03  0.74387350478E+03  0.12699999809E+01 0. -1.
</event>
<event>
 5   0  0.6895048E-04  0.1399581E+04  0.7818609E-02  0.8954122E-01
       -2   -1    0    0    0  501  0.00000000000E+00  0.00000000000E+00  0.54537728663E+03  0.54537728664E+03  0.25500000920E-02 0.  1.
        2   -1    0    0  501    0  0.00000000000E+00  0.00000000000E+00 -0.89792329248E+03  0.89792329248E+03  0.25500000920E-02 0. -1.
    10030    2    1    2    0    0  0.00000000000E+00  0.00000000000E+00 -0.35254600584E+03  0.14433005791E+04  0.13995813215E+04 0.  0.
        4    1    3    3  502    0 -0.41617954881E+02 -0.48723362327E+03  0.33994005864E+03  0.59555815349E+03  0.12699999809E+01 0.  1.
       -4    1    3    3    0  502  0.41617954881E+02  0.48723362327E+03 -0.69248606448E+03  0.84774242563E+03  0.12699999809E+01 0. -1.
</event>
<event>
 5   0  0.3907093E-04  0.1453821E+04  0.7818609E-02  0.8915756E-01
        1   -1    0    0  501    0  0.00000000000E+00  0.00000000000E+00  0.16407016910E+04  0.16407016910E+04  0.50400001928E-02 0. -1.
       -1   -1    0    0    0  501  0.00000000000E+00  0.00000000000E+00 -0.32205677399E+03  0.32205677403E+03  0.50400001928E-02 0.  1.
    10030    2    1    2    0    0  0.00000000000E+00  0.00000000000E+00  0.13186449170E+04  0.19627584650E+04  0.14538213009E+04 0.  0.
        4    1    3    3  502    0  0.61684691135E+03  0.32862413776E+03  0.38963449082E+03  0.80019409226E+03  0.12699999809E+01 0.  1.
       -4    1    3    3    0  502 -0.61684691135E+03 -0.32862413776E+03  0.92901042615E+03  0.11625643727E+04  0.12699999809E+01 0. -1.
</event>
<event>
 5   0  0.6959748E-04  0.1395472E+04  0.7818609E-02  0.8957103E-01
        2   -1    0    0  501    0  0.00000000000E+00  0.00000000000E+00  0.15821015775E+04  0.15821015775E+04  0.25500000920E-02 0.  1.
       -2   -1    0    0    0  501  0.00000000000E+00  0.00000000000E+00 -0.30771438103E+03  0.30771438104E+03  0.25500000920E-02 0. -1.
    10030    2    1    2    0    0  0.00000000000E+00  0.00000000000E+00  0.12743871965E+04  0.18898159585E+04  0.13954718308E+04 0.  0.
        5    1    3    3  502    0  0.10244816388E+03 -0.51870062601E+03  0.20649865660E+02  0.52914503934E+03  0.46999998093E+01 0. -1.
       -5    1    3    3    0  502 -0.10244816388E+03  0.51870062601E+03  0.12537373308E+04  0.13606709192E+04  0.46999998093E+01 0.  1.
</event>
<event>
 5   0  0.3907270E-04  0.1394767E+04  0.7818609E-02  0.8957615E-01
        1   -1    0    0  501    0  0.00000000000E+00  0.00000000000E+00  0.72219729094E+03  0.72219729095E+03  0.50400001928E-02 0.  1.
       -1   -1    0    0    0  501  0.00000000000E+00  0.00000000000E+00 -0.67342262797E+03  0.67342262799E+03  0.50400001928E-02 0. -1.
    10030    2    1    2    0    0  0.00000000000E+00  0.00000000000E+00  0.48774662968E+02  0.13956199189E+04  0.13947673607E+04 0.  0.
        3    1    3    3  502    0 -0.98460392961E+02  0.65039930900E+03 -0.20733634196E+03  0.68971159120E+03  0.10100000352E+00 0. -1.
       -3    1    3    3    0  502  0.98460392961E+02 -0.65039930900E+03  0.25611100492E+03  0.70590832775E+03  0.10100000352E+00 0.  1.
</event>
<event>
 5   0  0.6870835E-04  0.1409369E+04  0.7818609E-02  0.8947064E-01
       -2   -1    0    0    0  501  0.00000000000E+00  0.00000000000E+00  0.55624147038E+03  0.55624147039E+03  0.25500000920E-02 0.  1.
        2   -1    0    0  501    0  0.00000000000E+00  0.00000000000E+00 -0.89274267676E+03  0.89274267676E+03  0.25500000920E-02 0. -1.
    10030    2    1    2    0    0  0.00000000000E+00  0.00000000000E+00 -0.33650120638E+03  0.14489841472E+04  0.14093693614E+04 0.  0.
        2    1    3    3  502    0 -0.59374907808E+02  0.48255405301E+03  0.35618202579E+03  0.60270177472E+03  0.25500000920E-02 0.  1.
       -2    1    3    3    0  502  0.59374907808E+02 -0.48255405301E+03 -0.69268323216E+03  0.84628237243E+03  0.25500000920E-02 0. -1.
</event>
<event>
 5   0  0.6895048E-04  0.1424967E+04  0.7818609E-02  0.8935942E-01
       -2   -1    0    0    0  501  0.00000000000E+00  0.00000000000E+00  0.66027008234E+03  0.66027008235E+03  0.25500000920E-02 0. -1.
        2   -1    0    0  501    0  0.00000000000E+00  0.00000000000E+00 -0.76882636638E+03  0.76882636638E+03  0.25500000920E-02 0.  1.
    10030    2    1    2    0    0  0.00000000000E+00  0.00000000000E+00 -0.10855628403E+03  0.14290964487E+04  0.14249674358E+04 0.  0.
        4    1    3    3  502    0 -0.47856459279E+03  0.13507513244E+02 -0.58346694519E+03  0.75474619006E+03  0.12699999809E+01 0.  1.
       -4    1    3    3    0  502  0.47856459279E+03 -0.13507513244E+02  0.47491066115E+03  0.67435025867E+03  0.12699999809E+01 0. -1.
</event>
<event>
 5   0  0.6870835E-04  0.1405455E+04  0.7818609E-02  0.8949879E-01
        2   -1    0    0  501    0  0.00000000000E+00  0.00000000000E+00  0.86882126049E+03  0.86882126049E+03  0.25500000920E-02 0.  1.
       -2   -1    0    0    0  501  0.00000000000E+00  0.00000000000E+00 -0.56838642536E+03  0.56838642536E+03  0.25500000920E-02 0. -1.
    10030    2    1    2    0    0  0.00000000000E+00  0.00000000000E+00  0.30043483513E+03  0.14372076859E+04  0.14054553860E+04 0.  0.
        2    1    3    3  502    0 -0.20057191440E+03 -0.42163704846E+03  0.68726752311E+03  0.83086914842E+03  0.25500000920E-02 0.  1.
       -2    1    3    3    0  502  0.20057191440E+03  0.42163704846E+03 -0.38683268798E+03  0.60633853743E+03  0.25500000920E-02 0. -1.
</event>
<event>
 5   0  0.3907093E-04  0.1398113E+04  0.7818609E-02  0.8955186E-01
        1   -1    0    0  501    0  0.00000000000E+00  0.00000000000E+00  0.16627229845E+04  0.16627229845E+04  0.50400001928E-02 0. -1.
       -1   -1    0    0    0  501  0.00000000000E+00  0.00000000000E+00 -0.29390326856E+03  0.29390326860E+03  0.50400001928E-02 0.  1.
    10030    2    1    2    0    0  0.00000000000E+00  0.00000000000E+00  0.13688197159E+04  0.19566262531E+04  0.13981126133E+04 0.  0.
        4    1    3    3  502    0 -0.40151905588E+03 -0.43474788637E+03  0.16367124971E+03  0.61401398015E+03  0.12699999809E+01 0.  1.
       -4    1    3    3    0  502  0.40151905588E+03  0.43474788637E+03  0.12051484662E+04  0.13426122729E+04  0.12699999809E+01 0. -1.
</event>
<event>
 5   0  0.6959748E-04  0.1397621E+04  0.7818609E-02  0.8955542E-01
       -2   -1    0    0    0  501  0.00000000000E+00  0.00000000000E+00  0.49601758279E+03  0.49601758279E+03  0.25500000920E-02 0. -1.
        2   -1    0    0  501    0  0.00000000000E+00  0.00000000000E+00 -0.98451392907E+03  0.98451392907E+03  0.25500000920E-02 0.  1.
    10030    2    1    2    0    0  0.00000000000E+00  0.00000000000E+00 -0.48849634628E+03  0.14805315119E+04  0.13976211494E+04 0.  0.
        5    1    3    3  502    0  0.67729115913E+02  0.69442974702E+03 -0.28519647047E+03  0.75377650763E+03  0.46999998093E+01 0. -1.
       -5    1    3    3    0  502 -0.67729115913E+02 -0.69442974702E+03 -0.20329987581E+03  0.72675500424E+03  0.46999998093E+01 0.  1.
</event>
<event>
 5   0  0.3756664E-04  0.1401594E+04  0.7818609E-02  0.8952665E-01
        1   -1    0    0  501    0  0.00000000000E+00  0.00000000000E+00  0.82146919137E+03  0.82146919139E+03  0.50400001928E-02 0.  1.
       -1   -1    0    0    0  501  0.00000000000E+00  0.00000000000E+00 -0.59785166356E+03  0.59785166358E+03  0.50400001928E-02 0. -1.
    10030    2    1    2    0    0  0.00000000000E+00  0.00000000000E+00  0.22361752782E+03  0.14193208550E+04  0.14015944102E+04 0.  0.
        2    1    3    3  502    0 -0.38129947945E+03 -0.27136825989E+02 -0.48297913508E+03  0.61595011591E+03  0.25500000920E-02 0. -1.
       -2    1    3    3    0  502  0.38129947945E+03  0.27136825989E+02  0.70659666290E+03  0.80337073906E+03  0.25500000920E-02 0.  1.
</event>
<event>
 5   0  0.3784219E-04  0.1397284E+04  0.7818609E-02  0.8955787E-01
       -1   -1    0    0    0  501  0.00000000000E+00  0.00000000000E+00  0.46040581040E+03  0.46040581043E+03  0.50400001928E-02 0.  1.
        1   -1    0    0  501    0  0.00000000000E+00  0.00000000000E+00 -0.10601538476E+04  0.10601538476E+04  0.50400001928E-02 0. -1.
    10030    2    1    2    0    0  0.00000000000E+00  0.00000000000E+00 -0.59974803716E+03  0.15205596580E+04  0.13972844970E+04 0.  0.
        1    1    3    3  502    0  0.66633438950E+03 -0.16369030866E+03 -0.15671989327E+03  0.70381614130E+03  0.50400001928E-02 0. -1.
       -1    1    3    3    0  502 -0.66633438950E+03  0.16369030866E+03 -0.44302814389E+03  0.81674351671E+03  0.50400001928E-02 0.  1.
</event>
<event>
 5   0  0.3977658E-04  0.1413023E+04  0.7818609E-02  0.8944445E-01
       -1   -1    0    0    0  501  0.00000000000E+00  0.00000000000E+00  0.15244783585E+04  0.15244783585E+04  0.50400001928E-02 0.  1.
        1   -1    0    0  501    0  0.00000000000E+00  0.00000000000E+00 -0.32742919282E+03  0.32742919285E+03  0.50400001928E-02 0. -1.
    10030    2    1    2    0    0  0.00000000000E+00  0.00000000000E+00  0.11970491656E+04  0.18519075513E+04  0.14130233097E+04 0.  0.
        5    1    3    3  502    0  0.54439866839E+03 -0.26730532853E+03  0.12359803125E+03  0.61896737567E+03  0.46999998093E+01 0. -1.
       -5    1    3    3    0  502 -0.54439866839E+03  0.26730532853E+03  0.10734511344E+04  0.12329401756E+04  0.46999998093E+01 0.  1.
</event>
<event>
 5   0  0.3907093E-04  0.1405094E+04  0.7818609E-02  0.8950140E-01
       -1   -1    0    0    0  501  0.00000000000E+00  0.00000000000E+00  0.96199117111E+03  0.96199117112E+03  0.50400001928E-02 0.  1.
        1   -1    0    0  501    0  0.00000000000E+00  0.00000000000E+00 -0.51307334168E+03  0.51307334170E+03  0.50400001928E-02 0. -1.
    10030    2    1    2    0    0  0.00000000000E+00  0.00000000000E+00  0.44891782943E+03  0.14750645128E+04  0.14050936266E+04 0.  0.
        4    1    3    3  502    0 -0.78175752176E+01 -0.29654819583E+03  0.89301499135E+03  0.94099911509E+03  0.12699999809E+01 0.  1.
       -4    1    3    3    0  502  0.78175752176E+01  0.29654819583E+03 -0.44409716192E+03  0.53406539773E+03  0.12699999809E+01 0. -1.
</event>
<event>
 5   0  0.7065539E-04  0.1403544E+04  0.7818609E-02  0.8951257E-01
       -2   -1    0    0    0  501  0.00000000000E+00  0.00000000000E+00  0.53581035588E+03  0.53581035588E+03  0.25500000920E-02 0. -1.
        2   -1    0    0  501    0  0.00000000000E+00  0.00000000000E+00 -0.91913844136E+03  0.91913844136E+03  0.25500000920E-02 0.  1.
    10030    2    1    2    0    0  0.00000000000E+00  0.00000000000E+00 -0.38332808548E+03  0.14549487972E+04  0.14035439364E+04 0.  0.
        1    1    3    3  502    0  0.42578932103E+02 -0.77654058754E+02  0.52999436155E+03  0.53734266683E+03  0.50400001928E-02 0. -1.
       -1    1    3    3    0  502 -0.42578932103E+02  0.77654058754E+02 -0.91332244703E+03  0.91760613041E+03  0.50400001928E-02 0.  1.
</event>
<event>
 5   0  0.3784219E-04  0.1394806E+04  0.7818609E-02  0.8957587E-01
       -1   -1    0    0    0  501  0.00000000000E+00  0.00000000000E+00  0.11782093551E+04  0.11782093551E+04  0.50400001928E-02 0. -1.
        1   -1    0    0  501    0  0.00000000000E+00  0.00000000000E+00 -0.41280516546E+03  0.41280516549E+03  0.50400001928E-02 0.  1.
    10030    2    1    2    0    0  0.00000000000E+00  0.00000000000E+00  0.76540418965E+03  0.15910145206E+04  0.13948059475E+04 0.  0.
        1    1    3    3  502    0  0.20235776387E+03  0.47126190499E+03 -0.15635928955E+03  0.53617597405E+03  0.50400001928E-02 0.  1.
       -1    1    3    3    0  502 -0.20235776387E+03 -0.47126190499E+03  0.92176347920E+03  0.10548385466E+04  0.50400001928E-02 0. -1.
</event>
<event>
 5   0  0.7296966E-04  0.1239785E+04  0.7818609E-02  0.9078728E-01
       -2   -1    0    0    0  501  0.00000000000E+00  0.00000000000E+00  0.23030810693E+03  0.23030810694E+03  0.25500000920E-02 0. -1.
        2   -1    0    0  501    0  0.00000000000E+00  0.00000000000E+00 -0.16684899694E+04  0.16684899694E+04  0.25500000920E-02 0.  1.
    10030    2    1    2    0    0  0.00000000000E+00  0.00000000000E+00 -0.14381818625E+04  0.18987980764E+04  0.12397850883E+04 0.  0.
        3    1    3    3  502    0 -0.48733053024E+03 -0.28435153465E+03 -0.32586631765E+03  0.65156404761E+03  0.10100000352E+00 0. -1.
       -3    1    3    3    0  502  0.48733053024E+03  0.28435153465E+03 -0.11123155448E+04  0.12472340287E+04  0.10100000352E+00 0.  1.
</event>
<event>
 5   0  0.7065539E-04  0.1402013E+04  0.7818609E-02  0.8952363E-01
       -2   -1    0    0    0  501  0.00000000000E+00  0.00000000000E+00  0.72193508782E+03  0.72193508782E+03  0.25500000920E-02 0.  1.
        2   -1    0    0  501    0  0.00000000000E+00  0.00000000000E+00 -0.68068437985E+03  0.68068437985E+03  0.25500000920E-02 0. -1.
    10030    2    1    2    0    0  0.00000000000E+00  0.00000000000E+00  0.41250707970E+02  0.14026194677E+04  0.14020127497E+04 0.  0.
        1    1    3    3  502    0 -0.52752000673E+03 -0.43408127738E+03 -0.13662416824E+03  0.69668506245E+03  0.50400001928E-02 0. -1.
       -1    1    3    3    0  502  0.52752000673E+03  0.43408127738E+03  0.17787487621E+03  0.70593440523E+03  0.50400001928E-02 0.  1.
</event>
<event>
 5   0  0.7065539E-04  0.1366281E+04  0.7818609E-02  0.8978594E-01
       -2   -1    0    0    0  501  0.00000000000E+00  0.00000000000E+00  0.13691921402E+04  0.13691921403E+04  0.25500000920E-02 0.  1.
        2   -1    0    0  501    0  0.00000000000E+00  0.00000000000E+00 -0.34084422796E+03  0.34084422797E+03  0.25500000920E-02 0. -1.
    10030    2    1    2    0    0  0.00000000000E+00  0.00000000000E+00  0.10283479123E+04  0.17100363682E+04  0.13662814322E+04 0.  0.
        1    1    3    3  502    0 -0.52434980931E+03  0.22890926769E+03  0.98137265309E+03  0.11359729132E+04  0.50400001928E-02 0.  1.
       -1    1    3    3    0  502  0.52434980931E+03 -0.22890926769E+03  0.46975259201E+02  0.57406345499E+03  0.50400001928E-02 0. -1.
</event>
<event>
 5   0  0.6959748E-04  0.1499135E+04  0.7818609E-02  0.8885028E-01
        2   -1    0    0  501    0  0.00000000000E+00  0.00000000000E+00  0.52355353835E+03  0.52355353836E+03  0.25500000920E-02 0. -1.
       -2   -1    0    0    0  501  0.00000000000E+00  0.00000000000E+00 -0.10731504372E+04  0.10731504372E+04  0.25500000920E-02 0.  1.
    10030    2    1    2    0    0  0.00000000000E+00  0.00000000000E+00 -0.54959689883E+03  0.15967039755E+04  0.14991353622E+04 0.  0.
        5    1    3    3  502    0 -0.34398722102E+03  0.39070830660E+03  0.29960582912E+03  0.60063793745E+03  0.46999998093E+01 0. -1.
       -5    1    3    3    0  502  0.34398722102E+03 -0.39070830660E+03 -0.84920272795E+03  0.99606603808E+03  0.46999998093E+01 0.  1.
</event>
<event>
 5   0  0.3977658E-04  0.1394129E+04  0.7818609E-02  0.8958079E-01
        1   -1    0    0  501    0  0.00000000000E+00  0.00000000000E+00  0.58338244504E+03  0.58338244507E+03  0.50400001928E-02 0. -1.
       -1   -1    0    0    0  501  0.00000000000E+00  0.00000000000E+00 -0.83289994684E+03  0.83289994685E+03  0.50400001928E-02 0.  1.
    10030    2    1    2    0    0  0.00000000000E+00  0.00000000000E+00 -0.24951750179E+03  0.14162823919E+04  0.13941294165E+04 0.  0.
        5    1    3    3  502    0  0.60424789527E+02 -0.47561792687E+03  0.38925914625E+03  0.61758265883E+03  0.46999998093E+01 0. -1.
       -5    1    3    3    0  502 -0.60424789527E+02  0.47561792687E+03 -0.63877664804E+03  0.79869973309E+03  0.46999998093E+01 0.  1.
</event>
<event>
 5   0  0.7296966E-04  0.1394024E+04  0.7818609E-02  0.8958156E-01
       -2   -1    0    0    0  501  0.00000000000E+00  0.00000000000E+00  0.40001671233E+03  0.40001671234E+03  0.25500000920E-02 0. -1.
        2   -1    0    0  501    0  0.00000000000E+00  0.00000000000E+00 -0.12145134364E+04  0.12145134364E+04  0.25500000920E-02 0.  1.
    10030    2    1    2    0    0  0.00000000000E+00  0.00000000000E+00 -0.81449672405E+03  0.16145301487E+04  0.13940239193E+04 0.  0.
        3    1    3    3  502    0 -0.63913961150E+03 -0.22843608371E+03 -0.59089627076E+03  0.89991160695E+03  0.10100000352E+00 0.  1.
       -3    1    3    3    0  502  0.63913961150E+03  0.22843608371E+03 -0.22360045329E+03  0.71461854177E+03  0.10100000352E+00 0. -1.
</event>
<event>
 5   0  0.3756664E-04  0.1390991E+04  0.7818609E-02  0.8960366E-01
        1   -1    0    0  501    0  0.00000000000E+00  0.00000000000E+00  0.91423025859E+03  0.91423025860E+03  0.50400001928E-02 0.  1.
       -1   -1    0    0    0  501  0.00000000000E+00  0.00000000000E+00 -0.52909399366E+03  0.52909399369E+03  0.50400001928E-02 0. -1.
    10030    2    1    2    0    0  0.00000000000E+00  0.00000000000E+00  0.38513626492E+03  0.14433242523E+04  0.13909906379E+04 0.  0.
        2    1    3    3  502    0  0.92737309012E+02  0.36255249323E+01  0.90777618200E+03  0.91250805450E+03  0.25500000920E-02 0.  1.
       -2    1    3    3    0  502 -0.92737309012E+02 -0.36255249323E+01 -0.52263991707E+03  0.53081619779E+03  0.25500000920E-02 0. -1.
</event>
<event>
 5   0  0.3784219E-04  0.1402878E+04  0.7818609E-02  0.8951738E-01
       -1   -1    0    0    0  501  0.00000000000E+00  0.00000000000E+00  0.65530800797E+03  0.65530800799E+03  0.50400001928E-02 0. -1.
        1   -1    0    0  501    0  0.00000000000E+00  0.00000000000E+00 -0.75081765488E+03  0.75081765490E+03  0.50400001928E-02 0.  1.
    10030    2    1    2    0    0  0.00000000000E+00  0.00000000000E+00 -0.95509646911E+02  0.14061256629E+04  0.14028782154E+04 0.  0.
        1    1    3    3  502    0 -0.48641623018E+03  0.45283187227E+03  0.17717357958E+03  0.68778479981E+03  0.50400001928E-02 0. -1.
       -1    1    3    3    0  502  0.48641623018E+03 -0.45283187227E+03 -0.27268322649E+03  0.71834086308E+03  0.50400001928E-02 0.  1.
</event>
<event>
 5   0  0.3907270E-04  0.1402058E+04  0.7818609E-02  0.8952330E-01
        1   -1    0    0  501    0  0.00000000000E+00  0.00000000000E+00  0.16277795583E+04  0.16277795583E+04  0.50400001928E-02 0.  1.
       -1   -1    0    0    0  501  0.00000000000E+00  0.00000000000E+00 -0.30190916504E+03  0.30190916508E+03  0.50400001928E-02 0. -1.
    10030    2    1    2    0    0  0.00000000000E+00  0.00000000000E+00  0.13258703933E+04  0.19296887234E+04  0.14020578695E+04 0.  0.
        3    1    3    3  502    0 -0.41650109804E+03 -0.47002198732E+03  0.10916949345E+04  0.12594410163E+04  0.10100000352E+00 0.  1.
       -3    1    3    3    0  502  0.41650109804E+03  0.47002198732E+03  0.23417545877E+03  0.67024770714E+03  0.10100000352E+00 0. -1.
</event>
<event>
 5   0  0.3907270E-04  0.1383090E+04  0.7818609E-02  0.8966150E-01
        1   -1    0    0  501    0  0.00000000000E+00  0.00000000000E+00  0.66410257960E+03  0.66410257962E+03  0.50400001928E-02 0. -1.
       -1   -1    0    0    0  501  0.00000000000E+00  0.00000000000E+00 -0.72012164885E+03  0.72012164887E+03  0.50400001928E-02 0.  1.
    10030    2    1    2    0    0  0.00000000000E+00  0.00000000000E+00 -0.56019069256E+02  0.13842242285E+04  0.13830902279E+04 0.  0.
        3    1    3    3  502    0  0.96762409570E+02  0.67336718668E+03  0.96383572389E+02  0.68707796881E+03  0.10100000352E+00 0. -1.
       -3    1    3    3    0  502 -0.96762409570E+02 -0.67336718668E+03 -0.15240264164E+03  0.69714625968E+03  0.10100000352E+00 0.  1.
</event>
<event>
 5   0  0.6870835E-04  0.1396558E+04  0.7818609E-02  0.8956314E-01
        2   -1    0    0  501    0  0.00000000000E+00  0.00000000000E+00  0.12429929399E+04  0.12429929399E+04  0.25500000920E-02 0. -1.
       -2   -1    0    0    0  501  0.00000000000E+00  0.00000000000E+00 -0.39227363938E+03  0.39227363939E+03  0.25500000920E-02 0.  1.
    10030    2    1    2    0    0  0.00000000000E+00  0.00000000000E+00  0.85071930050E+03  0.16352665793E+04  0.13965577170E+04 0.  0.
        2    1    3    3  502    0 -0.57733874234E+03 -0.29964912136E+03  0.72270065023E+03  0.97231982865E+03  0.25500000920E-02 0.  1.
       -2    1    3    3    0  502  0.57733874234E+03  0.29964912136E+03  0.12801865027E+03  0.66294675062E+03  0.25500000920E-02 0. -1.
</event>
<event>
 5   0  0.3977658E-04  0.1407335E+04  0.7818609E-02  0.8948526E-01
        1   -1    0    0  501    0  0.00000000000E+00  0.00000000000E+00  0.11377702859E+04  0.11377702859E+04  0.50400001928E-02 0.  1.
       -1   -1    0    0    0  501  0.00000000000E+00  0.00000000000E+00 -0.43519127476E+03  0.43519127479E+03  0.50400001928E-02 0. -1.
    10030    2    1    2    0    0  0.00000000000E+00  0.00000000000E+00  0.70257901113E+03  0.15729615607E+04  0.14073346455E+04 0.  0.
        5    1    3    3  502    0  0.47555600730E+03 -0.24098278039E+03  0.86457429778E+03  0.10157445658E+04  0.46999998093E+01 0.  1.
       -5    1    3    3    0  502 -0.47555600730E+03  0.24098278039E+03 -0.16199528665E+03  0.55721699492E+03  0.46999998093E+01 0. -1.
</event>
<event>
 5   0  0.6959748E-04  0.1401994E+04  0.7818609E-02  0.8952376E-01
       -2   -1    0    0    0  501  0.00000000000E+00  0.00000000000E+00  0.28497031168E+03  0.28497031169E+03  0.25500000920E-02 0. -1.
        2   -1    0    0  501    0  0.00000000000E+00  0.00000000000E+00 -0.17243796327E+04  0.17243796327E+04  0.25500000920E-02 0.  1.
    10030    2    1    2    0    0  0.00000000000E+00  0.00000000000E+00 -0.14394093210E+04  0.20093499444E+04  0.14019942958E+04 0.  0.
        5    1    3    3  502    0  0.68366041588E+02  0.68388394392E+03 -0.52213104260E+03  0.86314198139E+03  0.46999998093E+01 0.  1.
       -5    1    3    3    0  502 -0.68366041588E+02 -0.68388394392E+03 -0.91727827840E+03  0.11462079630E+04  0.46999998093E+01 0. -1.
</event>
<event>
 5   0  0.3756664E-04  0.1395197E+04  0.7818609E-02  0.8957302E-01
       -1   -1    0    0    0  501  0.00000000000E+00  0.00000000000E+00  0.11144159301E+04  0.11144159301E+04  0.50400001928E-02 0. -1.
        1   -1    0    0  501    0  0.00000000000E+00  0.00000000000E+00 -0.43668060970E+03  0.43668060973E+03  0.50400001928E-02 0.  1.
    10030    2    1    2    0    0  0.00000000000E+00  0.00000000000E+00  0.67773532036E+03  0.15510965398E+04  0.13951972303E+04 0.  0.
        2    1    3    3  502    0 -0.48119057723E+02 -0.39833354468E+03  0.97329897856E+03  0.10527563622E+04  0.25500000920E-02 0. -1.
       -2    1    3    3    0  502  0.48119057723E+02  0.39833354468E+03 -0.29556365819E+03  0.49834017757E+03  0.25500000920E-02 0.  1.
</event>
<event>
 5   0  0.2660250E-04  0.1401662E+04  0.7818609E-02  0.8952616E-01
       -4   -1    0    0    0  501  0.00000000000E+00  0.00000000000E+00  0.90349802882E+03  0.90349892141E+03  0.12699999809E+01 0.  1.
        4   -1    0    0  501    0  0.00000000000E+00  0.00000000000E+00 -0.54362295200E+03  0.54362443547E+03  0.12699999809E+01 0. -1.
    10030    2    1    2    0    0  0.00000000000E+00  0.00000000000E+00  0.35987507682E+03  0.14471233569E+04  0.14016618491E+04 0.  0.
        4    1    3    3  502    0  0.66639836526E+03  0.91582055058E+02  0.38301055679E+03  0.77406249977E+03  0.12699999809E+01 0. -1.
       -4    1    3    3    0  502 -0.66639836526E+03 -0.91582055058E+02 -0.23135479969E+02  0.67306085711E+03  0.12699999809E+01 0.  1.
</event>
<event>
 5   0  0.3784219E-04  0.1432006E+04  0.7818609E-02  0.8930971E-01
        1   -1    0    0  501    0  0.00000000000E+00  0.00000000000E+00  0.11474166016E+04  0.11474166016E+04  0.50400001928E-02 0. -1.
       -1   -1    0    0    0  501  0.00000000000E+00  0.00000000000E+00 -0.44679548198E+03  0.44679548201E+03  0.50400001928E-02 0.  1.
    10030    2    1    2    0    0  0.00000000000E+00  0.00000000000E+00  0.70062111962E+03  0.15942120836E+04  0.14320063597E+04 0.  0.
        1    1    3    3  502    0 -0.40623328556E+03  0.18095309335E+03 -0.27440353974E+03  0.52255794601E+03  0.50400001928E-02 0.  1.
       -1    1    3    3    0  502  0.40623328556E+03 -0.18095309335E+03  0.97502465935E+03  0.10716541376E+04  0.50400001928E-02 0. -1.
</event>
<event>
 5   0  0.3756664E-04  0.1404077E+04  0.7818609E-02  0.8950872E-01
        1   -1    0    0  501    0  0.00000000000E+00  0.00000000000E+00  0.15552009293E+04  0.15552009293E+04  0.50400001928E-02 0.  1.
       -1   -1    0    0    0  501  0.00000000000E+00  0.00000000000E+00 -0.31690971753E+03  0.31690971757E+03  0.50400001928E-02 0. -1.
    10030    2    1    2    0    0  0.00000000000E+00  0.00000000000E+00  0.12382912118E+04  0.18721106469E+04  0.14040773301E+04 0.  0.
        2    1    3    3  502    0 -0.52144572117E+03  0.42230015437E+03  0.34389841995E+03  0.75399547993E+03  0.25500000920E-02 0. -1.
       -2    1    3    3    0  502  0.52144572117E+03 -0.42230015437E+03  0.89439279182E+03  0.11181151670E+04  0.25500000920E-02 0.  1.
</event>
<event>
 5   0  0.7065539E-04  0.1274671E+04  0.7818609E-02  0.9049896E-01
       -2   -1    0    0    0  501  0.00000000000E+00  0.00000000000E+00  0.65463727077E+03  0.65463727078E+03  0.25500000920E-02 0.  1.
        2   -1    0    0  501    0  0.00000000000E+00  0.00000000000E+00 -0.62049080793E+03  0.62049080793E+03  0.25500000920E-02 0. -1.
    10030    2    1    2    0    0  0.00000000000E+00  0.00000000000E+00  0.34146462845E+02  0.12751280787E+04  0.12746707952E+04 0.  0.
        1    1    3    3  502    0  0.89633914019E+02 -0.62514492068E+03 -0.68724655775E+02  0.63526647065E+03  0.50400001928E-02 0.  1.
       -1    1    3    3    0  502 -0.89633914019E+02  0.62514492068E+03  0.10287111862E+03  0.63986160806E+03  0.50400001928E-02 0. -1.
</event>
<event>
 5   0  0.7065539E-04  0.1479864E+04  0.7818609E-02  0.8897955E-01
       -2   -1    0    0    0  501  0.00000000000E+00  0.00000000000E+00  0.74190361351E+03  0.74190361352E+03  0.25500000920E-02 0. -1.
        2   -1    0    0  501    0  0.00000000000E+00  0.00000000000E+00 -0.73796570242E+03  0.73796570243E+03  0.25500000920E-02 0.  1.
    10030    2    1    2    0    0  0.00000000000E+00  0.00000000000E+00  0.39379110915E+01  0.14798693159E+04  0.14798640766E+04 0.  0.
        1    1    3    3  502    0  0.71309497120E+02  0.66012543471E+03  0.32854137094E+03  0.74080366250E+03  0.50400001928E-02 0. -1.
       -1    1    3    3    0  502 -0.71309497120E+02 -0.66012543471E+03 -0.32460345985E+03  0.73906565344E+03  0.50400001928E-02 0.  1.
</event>
<event>
 5   0  0.2660250E-04  0.1409959E+04  0.7818609E-02  0.8946641E-01
       -3   -1    0    0    0  501  0.00000000000E+00  0.00000000000E+00  0.84850894633E+03  0.84850895235E+03  0.10100000352E+00 0. -1.
        3   -1    0    0  501    0  0.00000000000E+00  0.00000000000E+00 -0.58572915442E+03  0.58572916313E+03  0.10100000352E+00 0.  1.
    10030    2    1    2    0    0  0.00000000000E+00  0.00000000000E+00  0.26277979191E+03  0.14342381155E+04  0.14099594862E+04 0.  0.
        2    1    3    3  502    0 -0.69621853814E+03 -0.10961878360E+03  0.11499063998E+03  0.71411440110E+03  0.25500000920E-02 0.  1.
       -2    1    3    3    0  502  0.69621853814E+03  0.10961878360E+03  0.14778915193E+03  0.72012371438E+03  0.25500000920E-02 0. -1.
</event>
<event>
 5   0  0.3907093E-04  0.1398217E+04  0.7818609E-02  0.8955110E-01
        1   -1    0    0  501    0  0.00000000000E+00  0.00000000000E+00  0.11114686614E+04  0.11114686614E+04  0.50400001928E-02 0. -1.
       -1   -1    0    0    0  501  0.00000000000E+00  0.00000000000E+00 -0.43973598105E+03  0.43973598107E+03  0.50400001928E-02 0.  1.
    10030    2    1    2    0    0  0.00000000000E+00  0.00000000000E+00  0.67173268034E+03  0.15512046425E+04  0.13982170965E+04 0.  0.
        4    1    3    3  502    0 -0.39559259613E+03  0.17220449851E+03  0.94614936128E+03  0.10398788959E+04  0.12699999809E+01 0. -1.
       -4    1    3    3    0  502  0.39559259613E+03 -0.17220449851E+03 -0.27441668094E+03  0.51132574656E+03  0.12699999809E+01 0.  1.
</event>
<event>
 5   0  0.6959748E-04  0.1395928E+04  0.7818609E-02  0.8956772E-01
       -2   -1    0    0    0  501  0.00000000000E+00  0.00000000000E+00  0.36714343413E+03  0.36714343414E+03  0.25500000920E-02 0.  1.
        2   -1    0    0  501    0  0.00000000000E+00  0.00000000000E+00 -0.13268751444E+04  0.13268751444E+04  0.25500000920E-02 0. -1.
    10030    2    1    2    0    0  0.00000000000E+00  0.00000000000E+00 -0.95973171023E+03  0.16940185785E+04  0.13959276445E+04 0.  0.
        5    1    3    3  502    0 -0.62101753266E+03  0.86873040119E+02 -0.85177619063E+03  0.10577119031E+04  0.46999998093E+01 0. -1.
       -5    1    3    3    0  502  0.62101753266E+03 -0.86873040119E+02 -0.10795551960E+03  0.63630667542E+03  0.46999998093E+01 0.  1.
</event>
<event>
 5   0  0.3977658E-04  0.1399318E+04  0.7818609E-02  0.8954312E-01
        1   -1    0    0  501    0  0.00000000000E+00  0.00000000000E+00  0.15883233415E+04  0.15883233415E+04  0.50400001928E-02 0.  1.
       -1   -1    0    0    0  501  0.00000000000E+00  0.00000000000E+00 -0.30820098060E+03  0.30820098064E+03  0.50400001928E-02 0. -1.
    10030    2    1    2    0    0  0.00000000000E+00  0.00000000000E+00  0.12801223609E+04  0.18965243222E+04  0.13993181360E+04 0.  0.
        5    1    3    3  502    0 -0.68086315354E+02 -0.92936030231E+02  0.15753577845E+04  0.15795718063E+04  0.46999998093E+01 0.  1.
       -5    1    3    3    0  502  0.68086315354E+02  0.92936030231E+02 -0.29523542352E+03  0.31695251593E+03  0.46999998093E+01 0. -1.
</event>
<event>
 5   0  0.3756664E-04  0.1393038E+04  0.7818609E-02  0.8958873E-01
       -1   -1    0    0    0  501  0.00000000000E+00  0.00000000000E+00  0.54336618652E+03  0.54336618654E+03  0.50400001928E-02 0. -1.
        1   -1    0    0  501    0  0.00000000000E+00  0.00000000000E+00 -0.89283986708E+03  0.89283986709E+03  0.50400001928E-02 0.  1.
    10030    2    1    2    0    0  0.00000000000E+00  0.00000000000E+00 -0.34947368056E+03  0.14362060536E+04  0.13930383968E+04 0.  0.
        2    1    3    3  502    0 -0.40753894973E+03 -0.12901160760E+03  0.39221946301E+03  0.58014489363E+03  0.25500000920E-02 0. -1.
       -2    1    3    3    0  502  0.40753894973E+03  0.12901160760E+03 -0.74169314356E+03  0.85606116000E+03  0.25500000920E-02 0.  1.
</event>
<event>
 5   0  0.6959748E-04  0.1401639E+04  0.7818609E-02  0.8952633E-01
       -2   -1    0    0    0  501  0.00000000000E+00  0.00000000000E+00  0.78460997741E+03  0.78460997741E+03  0.25500000920E-02 0. -1.
        2   -1    0    0  501    0  0.00000000000E+00  0.00000000000E+00 -0.62597687593E+03  0.62597687593E+03  0.25500000920E-02 0.  1.
    10030    2    1    2    0    0  0.00000000000E+00  0.00000000000E+00  0.15863310148E+03  0.14105868533E+04  0.14016386160E+04 0.  0.
        5    1    3    3  502    0 -0.61048866126E+02  0.60842009177E+03 -0.26524862306E+03  0.66654399267E+03  0.46999998093E+01 0.  1.
       -5    1    3    3    0  502  0.61048866126E+02 -0.60842009177E+03  0.42388172454E+03  0.74404286068E+03  0.46999998093E+01 0. -1.
</event>
<event>
 5   0  0.7065539E-04  0.1398965E+04  0.7818609E-02  0.8954568E-01
        2   -1    0    0  501    0  0.00000000000E+00  0.00000000000E+00  0.15070272781E+04  0.15070272781E+04  0.25500000920E-02 0.  1.
       -2   -1    0    0    0  501  0.00000000000E+00  0.00000000000E+00 -0.32466306773E+03  0.32466306774E+03  0.25500000920E-02 0. -1.
    10030    2    1    2    0    0  0.00000000000E+00  0.00000000000E+00  0.11823642103E+04  0.18316903458E+04  0.13989654739E+04 0.  0.
        1    1    3    3  502    0  0.67536179808E+03 -0.17102570455E+03  0.50928169590E+03  0.86297809690E+03  0.50400001928E-02 0.  1.
       -1    1    3    3    0  502 -0.67536179808E+03  0.17102570455E+03  0.67308251442E+03  0.96871224890E+03  0.50400001928E-02 0. -1.
</event>
<event>
 5   0  0.3756664E-04  0.1390885E+04  0.7818609E-02  0.8960443E-01
       -1   -1    0    0    0  501  0.00000000000E+00  0.00000000000E+00  0.39633508756E+03  0.39633508759E+03  0.50400001928E-02 0.  1.
        1   -1    0    0  501    0  0.00000000000E+00  0.00000000000E+00 -0.12202804469E+04  0.12202804469E+04  0.50400001928E-02 0. -1.
    10030    2    1    2    0    0  0.00000000000E+00  0.00000000000E+00 -0.82394535936E+03  0.16166155345E+04  0.13908845499E+04 0.  0.
        2    1    3    3  502    0  0.13374281691E+03 -0.38138200894E+03 -0.10697736766E+04  0.11435712032E+04  0.25500000920E-02 0. -1.
       -2    1    3    3    0  502 -0.13374281691E+03  0.38138200894E+03  0.24582831720E+03  0.47304433128E+03  0.25500000920E-02 0.  1.
</event>
<event>
 5   0  0.3977658E-04  0.1401303E+04  0.7818609E-02  0.8952876E-01
       -1   -1    0    0    0  501  0.00000000000E+00  0.00000000000E+00  0.69940390076E+03  0.69940390077E+03  0.50400001928E-02 0. -1.
        1   -1    0    0  501    0  0.00000000000E+00  0.00000000000E+00 -0.70190088559E+03  0.70190088561E+03  0.50400001928E-02 0.  1.
    10030    2    1    2    0    0  0.00000000000E+00  0.00000000000E+00 -0.24969848360E+01  0.14013047864E+04  0.14013025617E+04 0.  0.
        5    1    3    3  502    0  0.35250874158E+03  0.47838322144E+02  0.60235764261E+03  0.69957682749E+03  0.46999998093E+01 0. -1.
       -5    1    3    3    0  502 -0.35250874158E+03 -0.47838322144E+02 -0.60485462744E+03  0.70172795889E+03  0.46999998093E+01 0.  1.
</event>
<event>
 5   0  0.3907270E-04  0.1390556E+04  0.7818609E-02  0.8960683E-01
       -1   -1    0    0    0  501  0.00000000000E+00  0.00000000000E+00  0.34370430170E+03  0.34370430174E+03  0.50400001928E-02 0. -1.
        1   -1    0    0  501    0  0.00000000000E+00  0.00000000000E+00 -0.14064758322E+04  0.14064758322E+04  0.50400001928E-02 0.  1.
    10030    2    1    2    0    0  0.00000000000E+00  0.00000000000E+00 -0.10627715305E+04  0.17501801339E+04  0.13905564265E+04 0.  0.
        3    1    3    3  502    0 -0.64446747655E+03 -0.11691574758E+03 -0.82495477029E+03  0.10533555922E+04  0.10100000352E+00 0.  1.
       -3    1    3    3    0  502  0.64446747655E+03  0.11691574758E+03 -0.23781676020E+03  0.69682454176E+03  0.10100000352E+00 0. -1.
</event>
<event>
 5   0  0.3907270E-04  0.1411552E+04  0.7818609E-02  0.8945499E-01
       -1   -1    0    0    0  501  0.00000000000E+00  0.00000000000E+00  0.70292325074E+03  0.70292325076E+03  0.50400001928E-02 0.  1.
        1   -1    0    0  501    0  0.00000000000E+00  0.00000000000E+00 -0.70864054358E+03  0.70864054360E+03  0.50400001928E-02 0. -1.
    10030    2    1    2    0    0  0.00000000000E+00  0.00000000000E+00 -0.57172928384E+01  0.14115637944E+04  0.14115522159E+04 0.  0.
        3    1    3    3  502    0  0.46015722899E+03  0.48295367278E+03 -0.23336211824E+03  0.70671551127E+03  0.10100000352E+00 0. -1.
       -3    1    3    3    0  502 -0.46015722899E+03 -0.48295367278E+03  0.22764482540E+03  0.70484828309E+03  0.10100000352E+00 0.  1.
</event>
<event>
 5   0  0.3977658E-04  0.1431687E+04  0.7818609E-02  0.8931196E-01
       -1   -1    0    0    0  501  0.00000000000E+00  0.00000000000E+00  0.69084863434E+03  0.69084863435E+03  0.50400001928E-02 0.  1.
        1   -1    0    0  501    0  0.00000000000E+00  0.00000000000E+00 -0.74174314273E+03  0.74174314274E+03  0.50400001928E-02 0. -1.
    10030    2    1    2    0    0  0.00000000000E+00  0.00000000000E+00 -0.50894508390E+02  0.14325917771E+04  0.14316874480E+04 0.  0.
        5    1    3    3  502    0  0.61623333572E+03 -0.29951439870E+03  0.18194617388E+03  0.70892799301E+03  0.46999998093E+01 0. -1.
       -5    1    3    3    0  502 -0.61623333572E+03  0.29951439870E+03 -0.23284068227E+03  0.72366378409E+03  0.46999998093E+01 0.  1.
</event>
<event>
 5   0  0.3907093E-04  0.1391652E+04  0.7818609E-02  0.8959883E-01
        1   -1    0    0  501    0  0.00000000000E+00  0.00000000000E+00  0.58256949212E+03  0.58256949214E+03  0.50400001928E-02 0. -1.
       -1   -1    0    0    0  501  0.00000000000E+00  0.00000000000E+00 -0.83110098248E+03  0.83110098250E+03  0.50400001928E-02 0.  1.
    10030    2    1    2    0    0  0.00000000000E+00  0.00000000000E+00 -0.24853149037E+03  0.14136704746E+04  0.13916523665E+04 0.  0.
        4    1    3    3  502    0 -0.63360101272E+03  0.21512413325E+03  0.69657299622E+02  0.67274243832E+03  0.12699999809E+01 0.  1.
       -4    1    3    3    0  502  0.63360101272E+03 -0.21512413325E+03 -0.31818878999E+03  0.74092803632E+03  0.12699999809E+01 0. -1.
</event>
<event>
 5   0  0.3907270E-04  0.1402316E+04  0.7818609E-02  0.8952144E-01
       -1   -1    0    0    0  501  0.00000000000E+00  0.00000000000E+00  0.29565128763E+03  0.29565128767E+03  0.50400001928E-02 0.  1.
        1   -1    0    0  501    0  0.00000000000E+00  0.00000000000E+00 -0.16628460450E+04  0.16628460450E+04  0.50400001928E-02 0. -1.
    10030    2    1    2    0    0  0.00000000000E+00  0.00000000000E+00 -0.13671947574E+04  0.19584973327E+04  0.14023160477E+04 0.  0.
        3    1    3    3  502    0 -0.29206522441E+03 -0.51416438686E+03 -0.12098001356E+04  0.13465821513E+04  0.10100000352E+00 0. -1.
       -3    1    3    3    0  502  0.29206522441E+03  0.51416438686E+03 -0.15739462181E+03  0.61191518137E+03  0.10100000352E+00 0.  1.
</event>
<event>
 5   0  0.6895048E-04  0.1404336E+04  0.7818609E-02  0.8950686E-01
        2   -1    0    0  501    0  0.00000000000E+00  0.00000000000E+00  0.17430317641E+04  0.17430317641E+04  0.25500000920E-02 0.  1.
       -2   -1    0    0    0  501  0.00000000000E+00  0.00000000000E+00 -0.28286346469E+03  0.28286346470E+03  0.25500000920E-02 0. -1.
    10030    2    1    2    0    0  0.00000000000E+00  0.00000000000E+00  0.14601682994E+04  0.20258952288E+04  0.14043361476E+04 0.  0.
        4    1    3    3  502    0  0.44254631564E+03 -0.47107519131E+03  0.33427691131E+03  0.72766870463E+03  0.12699999809E+01 0. -1.
       -4    1    3    3    0  502 -0.44254631564E+03  0.47107519131E+03  0.11258913881E+04  0.12982265241E+04  0.12699999809E+01 0.  1.
</event>
<event>
 5   0  0.3907270E-04  0.1404914E+04  0.7818609E-02  0.8950269E-01
       -1   -1    0    0    0  501  0.00000000000E+00  0.00000000000E+00  0.51264209162E+03  0.51264209164E+03  0.50400001928E-02 0. -1.
        1   -1    0    0  501    0  0.00000000000E+00  0.00000000000E+00 -0.96255444028E+03  0.96255444029E+03  0.50400001928E-02 0.  1.
    10030    2    1    2    0    0  0.00000000000E+00  0.00000000000E+00 -0.44991234866E+03  0.14751965319E+04  0.14049141206E+04 0.  0.
        3    1    3    3  502    0 -0.27284753749E+03  0.10810678698E+03  0.44518186451E+03  0.53321642772E+03  0.10100000352E+00 0. -1.
       -3    1    3    3    0  502  0.27284753749E+03 -0.10810678698E+03 -0.89509421316E+03  0.94198010422E+03  0.10100000352E+00 0.  1.
</event>
<event>
 5   0  0.7296966E-04  0.1396472E+04  0.7818609E-02  0.8956376E-01
        2   -1    0    0  501    0  0.00000000000E+00  0.00000000000E+00  0.62676456013E+03  0.62676456013E+03  0.25500000920E-02 0.  1.
       -2   -1    0    0    0  501  0.00000000000E+00  0.00000000000E+00 -0.77785757289E+03  0.77785757290E+03  0.25500000920E-02 0. -1.
    10030    2    1    2    0    0  0.00000000000E+00  0.00000000000E+00 -0.15109301277E+03  0.14046221330E+04  0.13964720685E+04 0.  0.
        3    1    3    3  502    0 -0.71550215467E+02 -0.49501583312E+03 -0.56559980463E+03  0.75502533572E+03  0.10100000352E+00 0. -1.
       -3    1    3    3    0  502  0.71550215467E+02  0.49501583312E+03  0.41450679187E+03  0.64959679731E+03  0.10100000352E+00 0.  1.
</event>
<event>
 5   0  0.7296966E-04  0.1392303E+04  0.7818609E-02  0.8959409E-01
        2   -1    0    0  501    0  0.00000000000E+00  0.00000000000E+00  0.13730253801E+04  0.13730253801E+04  0.25500000920E-02 0. -1.
       -2   -1    0    0    0  501  0.00000000000E+00  0.00000000000E+00 -0.35296270401E+03  0.35296270402E+03  0.25500000920E-02 0.  1.
    10030    2    1    2    0    0  0.00000000000E+00  0.00000000000E+00  0.10200626761E+04  0.17259880841E+04  0.13923027700E+04 0.  0.
        3    1    3    3  502    0 -0.47003101720E+03  0.34539210914E+03  0.38955834169E+02  0.58458740441E+03  0.10100000352E+00 0.  1.
       -3    1    3    3    0  502  0.47003101720E+03 -0.34539210914E+03  0.98110684191E+03  0.11414006797E+04  0.10100000352E+00 0. -1.
</event>
<event>
 5   0  0.2660250E-04  0.1398133E+04  0.7818609E-02  0.8955171E-01
       -4   -1    0    0    0  501  0.00000000000E+00  0.00000000000E+00  0.17873018380E+04  0.17873022892E+04  0.12699999809E+01 0.  1.
        4   -1    0    0  501    0  0.00000000000E+00  0.00000000000E+00 -0.27342344999E+03  0.27342639943E+03  0.12699999809E+01 0. -1.
    10030    2    1    2    0    0  0.00000000000E+00  0.00000000000E+00  0.15138783880E+04  0.20607286886E+04  0.13981326670E+04 0.  0.
        4    1    3    3  502    0  0.99911612416E+02  0.59846257586E+03  0.24518635824E+03  0.65441404949E+03  0.12699999809E+01 0. -1.
       -4    1    3    3    0  502 -0.99911612416E+02 -0.59846257586E+03  0.12686920298E+04  0.14063146392E+04  0.12699999809E+01 0.  1.
</event>
<event>
 5   0  0.6959748E-04  0.1399032E+04  0.7818609E-02  0.8954520E-01
       -2   -1    0    0    0  501  0.00000000000E+00  0.00000000000E+00  0.34026764024E+03  0.34026764025E+03  0.25500000920E-02 0.  1.
        2   -1    0    0  501    0  0.00000000000E+00  0.00000000000E+00 -0.14380520048E+04  0.14380520048E+04  0.25500000920E-02 0. -1.
    10030    2    1    2    0    0  0.00000000000E+00  0.00000000000E+00 -0.10977843646E+04  0.17783196451E+04  0.13990318971E+04 0.  0.
        5    1    3    3  502    0 -0.12267247307E+01 -0.24703525757E+02  0.33969155336E+03  0.34062326764E+03  0.46999998093E+01 0.  1.
       -5    1    3    3    0  502  0.12267247307E+01  0.24703525757E+02 -0.14374759180E+04  0.14376963774E+04  0.46999998093E+01 0. -1.
</event>
<event>
 5   0  0.3977658E-04  0.1392079E+04  0.7818609E-02  0.8959572E-01
        1   -1    0    0  501    0  0.00000000000E+00  0.00000000000E+00  0.21912494001E+03  0.21912494006E+03  0.50400001928E-02 0. -1.
       -1   -1    0    0    0  501  0.00000000000E+00  0.00000000000E+00 -0.22109343575E+04  0.22109343575E+04  0.50400001928E-02 0.  1.
    10030    2    1    2    0    0  0.00000000000E+00  0.00000000000E+00 -0.19918094175E+04  0.24300592975E+04  0.13920788175E+04 0.  0.
        5    1    3    3  502    0 -0.66150084281E+03  0.12270296485E+03 -0.13072416745E+04  0.14702184423E+04  0.46999998093E+01 0.  1.
       -5    1    3    3    0  502  0.66150084281E+03 -0.12270296485E+03 -0.68456774295E+03  0.95984085520E+03  0.46999998093E+01 0. -1.
</event>
<event>
 5   0  0.3756664E-04  0.1404996E+04  0.7818609E-02  0.8950210E-01
       -1   -1    0    0    0  501  0.00000000000E+00  0.00000000000E+00  0.59084601237E+03  0.59084601239E+03  0.50400001928E-02 0. -1.
        1   -1    0    0  501    0  0.00000000000E+00  0.00000000000E+00 -0.83524929648E+03  0.83524929650E+03  0.50400001928E-02 0.  1.
    10030    2    1    2    0    0  0.00000000000E+00  0.00000000000E+00 -0.24440328411E+03  0.14260953089E+04  0.14049963931E+04 0.  0.
        2    1    3    3  502    0 -0.30161666533E+03  0.46862228993E+03  0.31191755069E+03  0.63864859027E+03  0.25500000920E-02 0. -1.
       -2    1    3    3    0  502  0.30161666533E+03 -0.46862228993E+03 -0.55632083480E+03  0.78744671862E+03  0.25500000920E-02 0.  1.
</event>
<event>
 5   0  0.6959748E-04  0.1442180E+04  0.7818609E-02  0.8923840E-01
        2   -1    0    0  501    0  0.00000000000E+00  0.00000000000E+00  0.19217940836E+04  0.19217940836E+04  0.25500000920E-02 0. -1.
       -2   -1    0    0    0  501  0.00000000000E+00  0.00000000000E+00 -0.27056514455E+03  0.27056514456E+03  0.25500000920E-02 0.  1.
    10030    2    1    2    0    0  0.00000000000E+00  0.00000000000E+00  0.16512289390E+04  0.21923592282E+04  0.14421795922E+04 0.  0.
        5    1    3    3  502    0  0.34212151020E+03  0.56752622108E+03  0.39345993839E+03  0.77069186610E+03  0.46999998093E+01 0.  1.
       -5    1    3    3    0  502 -0.34212151020E+03 -0.56752622108E+03  0.12577690007E+04  0.14216673621E+04  0.46999998093E+01 0. -1.
</event>
<event>
 5   0  0.7065539E-04  0.1407572E+04  0.7818609E-02  0.8948356E-01
       -2   -1    0    0    0  501  0.00000000000E+00  0.00000000000E+00  0.48918032753E+03  0.48918032753E+03  0.25500000920E-02 0.  1.
        2   -1    0    0  501    0  0.00000000000E+00  0.00000000000E+00 -0.10125403308E+04  0.10125403308E+04  0.25500000920E-02 0. -1.
    10030    2    1    2    0    0  0.00000000000E+00  0.00000000000E+00 -0.52336000328E+03  0.15017206583E+04  0.14075721092E+04 0.  0.
        1    1    3    3  502    0 -0.37528057128E+03  0.59072915500E+03 -0.34093449005E+03  0.77848106482E+03  0.50400001928E-02 0. -1.
       -1    1    3    3    0  502  0.37528057128E+03 -0.59072915500E+03 -0.18242551323E+03  0.72323959353E+03  0.50400001928E-02 0.  1.
</event>
<event>
 5   0  0.3756664E-04  0.1433287E+04  0.7818609E-02  0.8930070E-01
       -1   -1    0    0    0  501  0.00000000000E+00  0.00000000000E+00  0.38273897018E+03  0.38273897021E+03  0.50400001928E-02 0. -1.
        1   -1    0    0  501    0  0.00000000000E+00  0.00000000000E+00 -0.13418493526E+04  0.13418493526E+04  0.50400001928E-02 0.  1.
    10030    2    1    2    0    0  0.00000000000E+00  0.00000000000E+00 -0.95911038240E+03  0.17245883228E+04  0.14332871860E+04 0.  0.
        2    1    3    3  502    0  0.60659435341E+03 -0.27163278497E+03 -0.15705780766E+03  0.68294087183E+03  0.25500000920E-02 0. -1.
       -2    1    3    3    0  502 -0.60659435341E+03  0.27163278497E+03 -0.80205257474E+03  0.10416474510E+04  0.25500000920E-02 0.  1.
</event>
<event>
 5   0  0.7065539E-04  0.1403060E+04  0.7818609E-02  0.8951606E-01
        2   -1    0    0  501    0  0.00000000000E+00  0.00000000000E+00  0.87870286848E+03  0.87870286848E+03  0.25500000920E-02 0.  1.
       -2   -1    0    0    0  501  0.00000000000E+00  0.00000000000E+00 -0.56008070582E+03  0.56008070583E+03  0.25500000920E-02 0. -1.
    10030    2    1    2    0    0  0.00000000000E+00  0.00000000000E+00  0.31862216266E+03  0.14387835743E+04  0.14030602593E+04 0.  0.
        1    1    3    3  502    0 -0.53915236623E+03 -0.39934251042E+03  0.36943003707E+03  0.76592314690E+03  0.50400001928E-02 0.  1.
       -1    1    3    3    0  502  0.53915236623E+03  0.39934251042E+03 -0.50807874416E+02  0.67286042741E+03  0.50400001928E-02 0. -1.
</event>
<event>
 5   0  0.3907093E-04  0.1399558E+04  0.7818609E-02  0.8954139E-01
       -1   -1    0    0    0  501  0.00000000000E+00  0.00000000000E+00  0.22986974946E+04  0.22986974946E+04  0.50400001928E-02 0. -1.
        1   -1    0    0  501    0  0.00000000000E+00  0.00000000000E+00 -0.21302951137E+03  0.21302951143E+03  0.50400001928E-02 0.  1.
    10030    2    1    2    0    0  0.00000000000E+00  0.00000000000E+00  0.20856679832E+04  0.25117270060E+04  0.13995576503E+04 0.  0.
        4    1    3    3  502    0 -0.21295819188E+03  0.66240165991E+03  0.11766731221E+04  0.13669997805E+04  0.12699999809E+01 0. -1.
       -4    1    3    3    0  502  0.21295819188E+03 -0.66240165991E+03  0.90899486106E+03  0.11447272255E+04  0.12699999809E+01 0.  1.
</event>
<event>
 5   0  0.7296966E-04  0.1332141E+04  0.7818609E-02  0.9004458E-01
       -2   -1    0    0    0  501  0.00000000000E+00  0.00000000000E+00  0.24535463601E+03  0.24535463602E+03  0.25500000920E-02 0. -1.
        2   -1    0    0  501    0  0.00000000000E+00  0.00000000000E+00 -0.18081987797E+04  0.18081987797E+04  0.25500000920E-02 0.  1.
    10030    2    1    2    0    0  0.00000000000E+00  0.00000000000E+00 -0.15628441437E+04  0.20535534157E+04  0.13321410638E+04 0.  0.
        3    1    3    3  502    0  0.10662634761E+03  0.64601926177E+03 -0.59300106367E+03  0.88338006333E+03  0.10100000352E+00 0. -1.
       -3    1    3    3    0  502 -0.10662634761E+03 -0.64601926177E+03 -0.96984308004E+03  0.11701733524E+04  0.10100000352E+00 0.  1.
</event>
<event>
 5   0  0.3907093E-04  0.1401528E+04  0.7818609E-02  0.8952713E-01
       -1   -1    0    0    0  501  0.00000000000E+00  0.00000000000E+00  0.59262302806E+03  0.59262302808E+03  0.50400001928E-02 0. -1.
        1   -1    0    0  501    0  0.00000000000E+00  0.00000000000E+00 -0.82863830129E+03  0.82863830130E+03  0.50400001928E-02 0.  1.
    10030    2    1    2    0    0  0.00000000000E+00  0.00000000000E+00 -0.23601527323E+03  0.14212613294E+04  0.14015279367E+04 0.  0.
        4    1    3    3  502    0  0.68741480988E+03  0.13230442774E+03 -0.85542125697E+02  0.70523942786E+03  0.12699999809E+01 0. -1.
       -4    1    3    3    0  502 -0.68741480988E+03 -0.13230442774E+03 -0.15047314753E+03  0.71602190153E+03  0.12699999809E+01 0.  1.
</event>
<event>
 5   0  0.7296966E-04  0.1368495E+04  0.7818609E-02  0.8976944E-01
       -2   -1    0    0    0  501  0.00000000000E+00  0.00000000000E+00  0.19081760130E+03  0.19081760132E+03  0.25500000920E-02 0. -1.
        2   -1    0    0  501    0  0.00000000000E+00  0.00000000000E+00 -0.24536249303E+04  0.24536249303E+04  0.25500000920E-02 0.  1.
    10030    2    1    2    0    0  0.00000000000E+00  0.00000000000E+00 -0.22628073290E+04  0.26444425316E+04  0.13684952667E+04 0.  0.
        3    1    3    3  502    0  0.29778034212E+03  0.41135070534E+03 -0.20175861210E+04  0.20805134705E+04  0.10100000352E+00 0.  1.
       -3    1    3    3    0  502 -0.29778034212E+03 -0.41135070534E+03 -0.24522120795E+03  0.56392906111E+03  0.10100000352E+00 0. -1.
</event>
<event>
 5   0  0.6895048E-04  0.1395707E+04  0.7818609E-02  0.8956932E-01
       -2   -1    0    0    0  501  0.00000000000E+00  0.00000000000E+00  0.31475958389E+03  0.31475958390E+03  0.25500000920E-02 0. -1.
        2   -1    0    0  501    0  0.00000000000E+00  0.00000000000E+00 -0.15472118183E+04  0.15472118183E+04  0.25500000920E-02 0.  1.
    10030    2    1    2    0    0  0.00000000000E+00  0.00000000000E+00 -0.12324522344E+04  0.18619714022E+04  0.13957073448E+04 0.  0.
        4    1    3    3  502    0 -0.22189224889E+03 -0.73247064592E+02 -0.14934690829E+04  0.15116391160E+04  0.12699999809E+01 0.  1.
       -4    1    3    3    0  502  0.22189224889E+03  0.73247064592E+02  0.26101684853E+03  0.35033228614E+03  0.12699999809E+01 0. -1.
</event>
<event>
 5   0  0.6870835E-04  0.1397971E+04  0.7818609E-02  0.8955289E-01
       -2   -1    0    0    0  501  0.00000000000E+00  0.00000000000E+00  0.45150636673E+03  0.45150636674E+03  0.25500000920E-02 0. -1.
        2   -1    0    0  501    0  0.00000000000E+00  0.00000000000E+00 -0.10821119023E+04  0.10821119023E+04  0.25500000920E-02 0.  1.
    10030    2    1    2    0    0  0.00000000000E+00  0.00000000000E+00 -0.63060553559E+03  0.15336182691E+04  0.13979705482E+04 0.  0.
        2    1    3    3  502    0  0.30948337249E+03 -0.60043574258E+03 -0.11821105999E+03  0.68576737566E+03  0.25500000920E-02 0. -1.
       -2    1    3    3    0  502 -0.30948337249E+03  0.60043574258E+03 -0.51239447560E+03  0.84785089340E+03  0.25500000920E-02 0.  1.
</event>
<event>
 5   0  0.6870835E-04  0.1388245E+04  0.7818609E-02  0.8962371E-01
        2   -1    0    0  501    0  0.00000000000E+00  0.00000000000E+00  0.20215156149E+04  0.20215156149E+04  0.25500000920E-02 0.  1.
       -2   -1    0    0    0  501  0.00000000000E+00  0.00000000000E+00 -0.23833917853E+03  0.23833917854E+03  0.25500000920E-02 0. -1.
    10030    2    1    2    0    0  0.00000000000E+00  0.00000000000E+00  0.17831764364E+04  0.22598547935E+04  0.13882454697E+04 0.  0.
        2    1    3    3  502    0  0.52519489589E+03  0.24240239433E+03  0.15161773018E+04  0.16227699190E+04  0.25500000920E-02 0.  1.
       -2    1    3    3    0  502 -0.52519489589E+03 -0.24240239433E+03  0.26699913463E+03  0.63708487453E+03  0.25500000920E-02 0. -1.
</event>
<event>
 5   0  0.3756664E-04  0.1396783E+04  0.7818609E-02  0.8956150E-01
        1   -1    0    0  501    0  0.00000000000E+00  0.00000000000E+00  0.71211487717E+03  0.71211487719E+03  0.50400001928E-02 0. -1.
       -1   -1    0    0    0  501  0.00000000000E+00  0.00000000000E+00 -0.68493262962E+03  0.68493262964E+03  0.50400001928E-02 0.  1.
    10030    2    1    2    0    0  0.00000000000E+00  0.00000000000E+00  0.27182247550E+02  0.13970475068E+04  0.13967830403E+04 0.  0.
        2    1    3    3  502    0 -0.49500917626E+03 -0.31475354317E+03  0.39267058665E+03  0.70589947382E+03  0.25500000920E-02 0. -1.
       -2    1    3    3    0  502  0.49500917626E+03  0.31475354317E+03 -0.36548833910E+03  0.69114803301E+03  0.25500000920E-02 0.  1.
</event>
<event>
 5   0  0.6870835E-04  0.1433022E+04  0.7818609E-02  0.8930256E-01
       -2   -1    0    0    0  501  0.00000000000E+00  0.00000000000E+00  0.79301084585E+03  0.79301084585E+03  0.25500000920E-02 0.  1.
        2   -1    0    0  501    0  0.00000000000E+00  0.00000000000E+00 -0.64739135916E+03  0.64739135916E+03  0.25500000920E-02 0. -1.
    10030    2    1    2    0    0  0.00000000000E+00  0.00000000000E+00  0.14561948669E+03  0.14404022050E+04  0.14330224971E+04 0.  0.
        2    1    3    3  502    0  0.49327648430E+03  0.91910179390E+02  0.58693101643E+03  0.77217691566E+03  0.25500000920E-02 0.  1.
       -2    1    3    3    0  502 -0.49327648430E+03 -0.91910179390E+02 -0.44131152974E+03  0.66822528935E+03  0.25500000920E-02 0. -1.
</event>
<event>
 5   0  0.6959748E-04  0.1398468E+04  0.7818609E-02  0.8954928E-01
        2   -1    0    0  501    0  0.00000000000E+00  0.00000000000E+00  0.96408396954E+03  0.96408396954E+03  0.25500000920E-02 0. -1.
       -2   -1    0    0    0  501  0.00000000000E+00  0.00000000000E+00 -0.50714293100E+03  0.50714293101E+03  0.25500000920E-02 0.  1.
    10030    2    1    2    0    0  0.00000000000E+00  0.00000000000E+00  0.45694103854E+03  0.14712269005E+04  0.13984682621E+04 0.  0.
        5    1    3    3  502    0  0.33727986631E+02 -0.15542507389E+03 -0.48784483339E+03  0.51313663107E+03  0.46999998093E+01 0.  1.
       -5    1    3    3    0  502 -0.33727986631E+02  0.15542507389E+03  0.94478587193E+03  0.95809026948E+03  0.46999998093E+01 0. -1.
</event>
<event>
 5   0  0.6959748E-04  0.1406437E+04  0.7818609E-02  0.8949172E-01
        2   -1    0    0  501    0  0.00000000000E+00  0.00000000000E+00  0.72105281941E+03  0.72105281941E+03  0.25500000920E-02 0.  1.
       -2   -1    0    0    0  501  0.00000000000E+00  0.00000000000E+00 -0.68582534210E+03  0.68582534210E+03  0.25500000920E-02 0. -1.
    10030    2    1    2    0    0  0.00000000000E+00  0.00000000000E+00  0.35227477314E+02  0.14068781615E+04  0.14064370538E+04 0.  0.
        5    1    3    3  502    0 -0.19746309783E+02 -0.24936035855E+03 -0.63980140916E+03  0.68697775679E+03  0.46999998093E+01 0. -1.
       -5    1    3    3    0  502  0.19746309783E+02  0.24936035855E+03  0.67502888647E+03  0.71990040473E+03  0.46999998093E+01 0.  1.
</event>
<event>
 5   0  0.7296966E-04  0.1388254E+04  0.7818609E-02  0.8962365E-01
        2   -1    0    0  501    0  0.00000000000E+00  0.00000000000E+00  0.82831851419E+03  0.82831851420E+03  0.25500000920E-02 0. -1.
       -2   -1    0    0    0  501  0.00000000000E+00  0.00000000000E+00 -0.58167550281E+03  0.58167550281E+03  0.25500000920E-02 0.  1.
    10030    2    1    2    0    0  0.00000000000E+00  0.00000000000E+00  0.24664301138E+03  0.14099940170E+04  0.13882544266E+04 0.  0.
        3    1    3    3  502    0  0.67384013299E+03 -0.12443261090E+03  0.23581964173E+03  0.72467572963E+03  0.10100000352E+00 0. -1.
       -3    1    3    3    0  502 -0.67384013299E+03  0.12443261090E+03  0.10823369656E+02  0.68531828738E+03  0.10100000352E+00 0.  1.
</event>
<event>
 5   0  0.3977658E-04  0.1397912E+04  0.7818609E-02  0.8955332E-01
       -1   -1    0    0    0  501  0.00000000000E+00  0.00000000000E+00  0.73080679962E+03  0.73080679963E+03  0.50400001928E-02 0. -1.
        1   -1    0    0  501    0  0.00000000000E+00  0.00000000000E+00 -0.66849300144E+03  0.66849300146E+03  0.50400001928E-02 0.  1.
    10030    2    1    2    0    0  0.00000000000E+00  0.00000000000E+00  0.62313798174E+02  0.13992998011E+04  0.13979116295E+04 0.  0.
        5    1    3    3  502    0  0.22481601197E+03  0.29894858253E+03  0.62217072460E+03  0.72596900401E+03  0.46999998093E+01 0. -1.
       -5    1    3    3    0  502 -0.22481601197E+03 -0.29894858253E+03 -0.55985692643E+03  0.67333079709E+03  0.46999998093E+01 0.  1.
</event>
<event>
 5   0  0.3784219E-04  0.1405536E+04  0.7818609E-02  0.8949821E-01
        1   -1    0    0  501    0  0.00000000000E+00  0.00000000000E+00  0.40980199112E+03  0.40980199115E+03  0.50400001928E-02 0. -1.
       -1   -1    0    0    0  501  0.00000000000E+00  0.00000000000E+00 -0.12051739403E+04  0.12051739403E+04  0.50400001928E-02 0.  1.
    10030    2    1    2    0    0  0.00000000000E+00  0.00000000000E+00 -0.79537194915E+03  0.16149759314E+04  0.14055357419E+04 0.  0.
        1    1    3    3  502    0 -0.51237154028E+03  0.48099459844E+03 -0.39942146275E+03  0.80834268967E+03  0.50400001928E-02 0.  1.
       -1    1    3    3    0  502  0.51237154028E+03 -0.48099459844E+03 -0.39595048641E+03  0.80663324177E+03  0.50400001928E-02 0. -1.
</event>
<event>
 5   0  0.7296966E-04  0.1461490E+04  0.7818609E-02  0.8910473E-01
       -2   -1    0    0    0  501  0.00000000000E+00  0.00000000000E+00  0.48980708069E+03  0.48980708070E+03  0.25500000920E-02 0.  1.
        2   -1    0    0  501    0  0.00000000000E+00  0.00000000000E+00 -0.10902013223E+04  0.10902013223E+04  0.25500000920E-02 0. -1.
    10030    2    1    2    0    0  0.00000000000E+00  0.00000000000E+00 -0.60039424158E+03  0.15800084030E+04  0.14614900985E+04 0.  0.
        3    1    3    3  502    0  0.31988593366E+03 -0.63047839322E+03 -0.10038968059E+03  0.71407850622E+03  0.10100000352E+00 0.  1.
       -3    1    3    3    0  502 -0.31988593366E+03  0.63047839322E+03 -0.50000456099E+03  0.86592989675E+03  0.10100000352E+00 0. -1.
</event>
<event>
 5   0  0.2660250E-04  0.1400352E+04  0.7818609E-02  0.8953563E-01
        4   -1    0    0  501    0  0.00000000000E+00  0.00000000000E+00  0.10314601021E+04  0.10314608839E+04  0.12699999809E+01 0.  1.
       -4   -1    0    0    0  501  0.00000000000E+00  0.00000000000E+00 -0.47529210846E+03  0.47529380520E+03  0.12699999809E+01 0. -1.
    10030    2    1    2    0    0  0.00000000000E+00  0.00000000000E+00  0.55616799361E+03  0.15067546891E+04  0.14003524042E+04 0.  0.
        5    1    3    3  502    0 -0.53749487344E+03 -0.12874238516E+03 -0.18439987426E+03  0.58266692401E+03  0.46999998093E+01 0. -1.
       -5    1    3    3    0  502  0.53749487344E+03  0.12874238516E+03  0.74056786787E+03  0.92408776511E+03  0.46999998093E+01 0.  1.
</event>
<event>
 5   0  0.6895048E-04  0.1420849E+04  0.7818609E-02  0.8938864E-01
       -2   -1    0    0    0  501  0.00000000000E+00  0.00000000000E+00  0.37429685686E+03  0.37429685687E+03  0.25500000920E-02 0. -1.
        2   -1    0    0  501    0  0.00000000000E+00  0.00000000000E+00 -0.13484034199E+04  0.13484034199E+04  0.25500000920E-02 0.  1.
    10030    2    1    2    0    0  0.00000000000E+00  0.00000000000E+00 -0.97410656306E+03  0.17227002768E+04  0.14208492698E+04 0.  0.
        4    1    3    3  502    0 -0.35719827240E+03  0.40251592240E+03  0.75254013955E+02  0.54339162039E+03  0.12699999809E+01 0. -1.
       -4    1    3    3    0  502  0.35719827240E+03 -0.40251592240E+03 -0.10493605770E+04  0.11793086564E+04  0.12699999809E+01 0.  1.
</event>
<event>
 5   0  0.2660250E-04  0.1406516E+04  0.7818609E-02  0.8949116E-01
        3   -1    0    0  501    0  0.00000000000E+00  0.00000000000E+00  0.28707583420E+03  0.28707585196E+03  0.10100000352E+00 0.  1.
       -3   -1    0    0    0  501  0.00000000000E+00  0.00000000000E+00 -0.17227909405E+04  0.17227909434E+04  0.10100000352E+00 0. -1.
    10030    2    1    2    0    0  0.00000000000E+00  0.00000000000E+00 -0.14357151063E+04  0.20098667954E+04  0.14065157905E+04 0.  0.
        3    1    3    3  502    0  0.10817002881E+03  0.29416414039E+03  0.18175543591E+03  0.36230973670E+03  0.10100000352E+00 0.  1.
       -3    1    3    3    0  502 -0.10817002881E+03 -0.29416414039E+03 -0.16174705422E+04  0.16475570587E+04  0.10100000352E+00 0. -1.
</event>
<event>
 5   0  0.3907093E-04  0.1367033E+04  0.7818609E-02  0.8978033E-01
        1   -1    0    0  501    0  0.00000000000E+00  0.00000000000E+00  0.50780233278E+03  0.50780233280E+03  0.50400001928E-02 0.  1.
       -1   -1    0    0    0  501  0.00000000000E+00  0.00000000000E+00 -0.92003311914E+03  0.92003311916E+03  0.50400001928E-02 0. -1.
    10030    2    1    2    0    0  0.00000000000E+00  0.00000000000E+00 -0.41223078637E+03  0.14278354520E+04  0.13670332317E+04 0.  0.
        4    1    3    3  502    0 -0.64174100848E+03 -0.19303786980E+03 -0.65602265181E+02  0.67335014015E+03  0.12699999809E+01 0.  1.
       -4    1    3    3    0  502  0.64174100848E+03  0.19303786980E+03 -0.34662852118E+03  0.75448531181E+03  0.12699999809E+01 0. -1.
</event>
<event>
 5   0  0.6895048E-04  0.1370424E+04  0.7818609E-02  0.8975510E-01
        2   -1    0    0  501    0  0.00000000000E+00  0.00000000000E+00  0.90101983140E+03  0.90101983141E+03  0.25500000920E-02 0. -1.
       -2   -1    0    0    0  501  0.00000000000E+00  0.00000000000E+00 -0.52109325080E+03  0.52109325080E+03  0.25500000920E-02 0.  1.
    10030    2    1    2    0    0  0.00000000000E+00  0.00000000000E+00  0.37992658061E+03  0.14221130822E+04  0.13704238074E+04 0.  0.
        4    1    3    3  502    0 -0.62525339676E+03 -0.24226985912E+03  0.43658907851E+02  0.67197039216E+03  0.12699999809E+01 0.  1.
       -4    1    3    3    0  502  0.62525339676E+03  0.24226985912E+03  0.33626767275E+03  0.75014269005E+03  0.12699999809E+01 0. -1.
</event>
<event>
 5   0  0.7065539E-04  0.1405649E+04  0.7818609E-02  0.8949739E-01
        2   -1    0    0  501    0  0.00000000000E+00  0.00000000000E+00  0.75367220730E+03  0.75367220731E+03  0.25500000920E-02 0. -1.
       -2   -1    0    0    0  501  0.00000000000E+00  0.00000000000E+00 -0.65540761759E+03  0.65540761759E+03  0.25500000920E-02 0.  1.
    10030    2    1    2    0    0  0.00000000000E+00  0.00000000000E+00  0.98264589714E+02  0.14090798249E+04  0.14056493245E+04 0.  0.
        1    1    3    3  502    0  0.11719760375E+03  0.65312502766E+03  0.28133293227E+03  0.72073282073E+03  0.50400001928E-02 0. -1.
       -1    1    3    3    0  502 -0.11719760375E+03 -0.65312502766E+03 -0.18306834255E+03  0.68834700417E+03  0.50400001928E-02 0.  1.
</event>
<event>
 5   0  0.6870835E-04  0.1397015E+04  0.7818609E-02  0.8955982E-01
       -2   -1    0    0    0  501  0.00000000000E+00  0.00000000000E+00  0.31378578248E+03  0.31378578249E+03  0.25500000920E-02 0.  1.
        2   -1    0    0  501    0  0.00000000000E+00  0.00000000000E+00 -0.15549238133E+04  0.15549238133E+04  0.25500000920E-02 0. -1.
    10030    2    1    2    0    0  0.00000000000E+00  0.00000000000E+00 -0.12411380308E+04  0.18687095958E+04  0.13970153692E+04 0.  0.
        2    1    3    3  502    0 -0.48567333369E+03 -0.35433001502E+02  0.49294198655E+02  0.48945275838E+03  0.25500000920E-02 0.  1.
       -2    1    3    3    0  502  0.48567333369E+03  0.35433001502E+02 -0.12904322295E+04  0.13792568374E+04  0.25500000920E-02 0. -1.
</event>
<event>
 5   0  0.3907270E-04  0.1398276E+04  0.7818609E-02  0.8955067E-01
        1   -1    0    0  501    0  0.00000000000E+00  0.00000000000E+00  0.16197979142E+04  0.16197979142E+04  0.50400001928E-02 0. -1.
       -1   -1    0    0    0  501  0.00000000000E+00  0.00000000000E+00 -0.30176247494E+03  0.30176247498E+03  0.50400001928E-02 0.  1.
    10030    2    1    2    0    0  0.00000000000E+00  0.00000000000E+00  0.13180354392E+04  0.19215603892E+04  0.13982764069E+04 0.  0.
        3    1    3    3  502    0 -0.42870906243E+03 -0.51265777794E+03  0.94127087015E+03  0.11543830901E+04  0.10100000352E+00 0.  1.
       -3    1    3    3    0  502  0.42870906243E+03  0.51265777794E+03  0.37676456909E+03  0.76717729907E+03  0.10100000352E+00 0. -1.
</event>
<event>
 5   0  0.2660250E-04  0.1370283E+04  0.7818609E-02  0.8975615E-01
       -3   -1    0    0    0  501  0.00000000000E+00  0.00000000000E+00  0.35484763661E+03  0.35484765098E+03  0.10100000352E+00 0.  1.
        3   -1    0    0  501    0  0.00000000000E+00  0.00000000000E+00 -0.13228735846E+04  0.13228735884E+04  0.10100000352E+00 0. -1.
    10030    2    1    2    0    0  0.00000000000E+00  0.00000000000E+00 -0.96802594795E+03  0.16777212394E+04  0.13702825698E+04 0.  0.
        1    1    3    3  502    0 -0.65592946875E+03  0.17300054829E+02 -0.24260619983E+03  0.69957167474E+03  0.50400001928E-02 0. -1.
       -1    1    3    3    0  502  0.65592946875E+03 -0.17300054829E+02 -0.72541974812E+03  0.97814956466E+03  0.50400001928E-02 0.  1.
</event>
<event>
 5   0  0.3784219E-04  0.1396533E+04  0.7818609E-02  0.8956332E-01
        1   -1    0    0  501    0  0.00000000000E+00  0.00000000000E+00  0.11842986936E+04  0.11842986936E+04  0.50400001928E-02 0.  1.
       -1   -1    0    0    0  501  0.00000000000E+00  0.00000000000E+00 -0.41170014989E+03  0.41170014992E+03  0.50400001928E-02 0. -1.
    10030    2    1    2    0    0  0.00000000000E+00  0.00000000000E+00  0.77259854374E+03  0.15959988436E+04  0.13965327776E+04 0.  0.
        1    1    3    3  502    0  0.45424903898E+02 -0.49726729957E+03 -0.17151129624E+03  0.52797188740E+03  0.50400001928E-02 0. -1.
       -1    1    3    3    0  502 -0.45424903898E+02  0.49726729957E+03  0.94410983998E+03  0.10680269562E+04  0.50400001928E-02 0.  1.
</event>
<event>
 5   0  0.3756664E-04  0.1399349E+04  0.7818609E-02  0.8954290E-01
        1   -1    0    0  501    0  0.00000000000E+00  0.00000000000E+00  0.22658869842E+04  0.22658869842E+04  0.50400001928E-02 0.  1.
       -1   -1    0    0    0  501  0.00000000000E+00  0.00000000000E+00 -0.21604986791E+03  0.21604986797E+03  0.50400001928E-02 0. -1.
    10030    2    1    2    0    0  0.00000000000E+00  0.00000000000E+00  0.20498371163E+04  0.24819368521E+04  0.13993492541E+04 0.  0.
        2    1    3    3  502    0 -0.51844917839E+03 -0.29994241522E+03  0.16663513826E+04  0.17707292095E+04  0.25500000920E-02 0. -1.
       -2    1    3    3    0  502  0.51844917839E+03  0.29994241522E+03  0.38348573363E+03  0.71120764262E+03  0.25500000920E-02 0.  1.
</event>
<event>
 5   0  0.6870835E-04  0.1395510E+04  0.7818609E-02  0.8957075E-01
       -2   -1    0    0    0  501  0.00000000000E+00  0.00000000000E+00  0.19704423114E+03  0.19704423115E+03  0.25500000920E-02 0. -1.
        2   -1    0    0  501    0  0.00000000000E+00  0.00000000000E+00 -0.24708247659E+04  0.24708247659E+04  0.25500000920E-02 0.  1.
    10030    2    1    2    0    0  0.00000000000E+00  0.00000000000E+00 -0.22737805348E+04  0.26678689971E+04  0.13955096077E+04 0.  0.
        2    1    3    3  502    0 -0.59134072368E+03 -0.11579862932E+03 -0.18094593433E+04  0.19071539763E+04  0.25500000920E-02 0.  1.
       -2    1    3    3    0  502  0.59134072368E+03  0.11579862932E+03 -0.46432119145E+03  0.76071502080E+03  0.25500000920E-02 0. -1.
</event>
<event>
 5   0  0.6959748E-04  0.1389620E+04  0.7818609E-02  0.8961367E-01
       -2   -1    0    0    0  501  0.00000000000E+00  0.00000000000E+00  0.33434496526E+03  0.33434496527E+03  0.25500000920E-02 0. -1.
        2   -1    0    0  501    0  0.00000000000E+00  0.00000000000E+00 -0.14439007761E+04  0.14439007761E+04  0.25500000920E-02 0.  1.
    10030    2    1    2    0    0  0.00000000000E+00  0.00000000000E+00 -0.11095558109E+04  0.17782457414E+04  0.13896200270E+04 0.  0.
        5    1    3    3  502    0 -0.41437030502E+03 -0.19895748607E+03 -0.12214960321E+04  0.13051289122E+04  0.46999998093E+01 0.  1.
       -5    1    3    3    0  502  0.41437030502E+03  0.19895748607E+03  0.11194022125E+03  0.47311682921E+03  0.46999998093E+01 0. -1.
</event>
<event>
 5   0  0.3784219E-04  0.1392636E+04  0.7818609E-02  0.8959166E-01
        1   -1    0    0  501    0  0.00000000000E+00  0.00000000000E+00  0.87157251013E+03  0.87157251014E+03  0.50400001928E-02 0. -1.
       -1   -1    0    0    0  501  0.00000000000E+00  0.00000000000E+00 -0.55630368035E+03  0.55630368037E+03  0.50400001928E-02 0.  1.
    10030    2    1    2    0    0  0.00000000000E+00  0.00000000000E+00  0.31526882978E+03  0.14278761905E+04  0.13926363418E+04 0.  0.
        1    1    3    3  502    0 -0.22018926233E+03 -0.65521085158E+03  0.71396476747E+02  0.69489713497E+03  0.50400001928E-02 0. -1.
       -1    1    3    3    0  502  0.22018926233E+03  0.65521085158E+03  0.24387235303E+03  0.73297905554E+03  0.50400001928E-02 0.  1.
</event>
<event>
 5   0  0.7065539E-04  0.1449660E+04  0.7818609E-02  0.8918636E-01
       -2   -1    0    0    0  501  0.00000000000E+00  0.00000000000E+00  0.10660845047E+04  0.10660845047E+04  0.25500000920E-02 0.  1.
        2   -1    0    0  501    0  0.00000000000E+00  0.00000000000E+00 -0.49281140723E+03  0.49281140724E+03  0.25500000920E-02 0. -1.
    10030    2    1    2    0    0  0.00000000000E+00  0.00000000000E+00  0.57327309751E+03  0.15588959120E+04  0.14496601050E+04 0.  0.
        1    1    3    3  502    0  0.46910121250E+03 -0.35661223666E+03  0.74051994453E+03  0.94636040871E+03  0.50400001928E-02 0.  1.
       -1    1    3    3    0  502 -0.46910121250E+03  0.35661223666E+03 -0.16724684702E+03  0.61253550327E+03  0.50400001928E-02 0. -1.
</event>
<event>
 5   0  0.3784219E-04  0.1406465E+04  0.7818609E-02  0.8949152E-01
        1   -1    0    0  501    0  0.00000000000E+00  0.00000000000E+00  0.86114099737E+03  0.86114099738E+03  0.50400001928E-02 0.  1.
       -1   -1    0    0    0  501  0.00000000000E+00  0.00000000000E+00 -0.57428026349E+03  0.57428026351E+03  0.50400001928E-02 0. -1.
    10030    2    1    2    0    0  0.00000000000E+00  0.00000000000E+00  0.28686073388E+03  0.14354212609E+04  0.14064654690E+04 0.  0.
        1    1    3    3  502    0 -0.26078912117E+03 -0.22343564075E+03 -0.48288275705E+03  0.59254553273E+03  0.50400001928E-02 0. -1.
       -1    1    3    3    0  502  0.26078912117E+03  0.22343564075E+03  0.76974349093E+03  0.84287572817E+03  0.50400001928E-02 0.  1.
</event>
<event>
 5   0  0.6959748E-04  0.1395173E+04  0.7818609E-02  0.8957320E-01
        2   -1    0    0  501    0  0.00000000000E+00  0.00000000000E+00  0.40205399454E+03  0.40205399454E+03  0.25500000920E-02 0. -1.
       -2   -1    0    0    0  501  0.00000000000E+00  0.00000000000E+00 -0.12103514079E+04  0.12103514079E+04  0.25500000920E-02 0.  1.
    10030    2    1    2    0    0  0.00000000000E+00  0.00000000000E+00 -0.80829741335E+03  0.16124054024E+04  0.13951725604E+04 0.  0.
        5    1    3    3  502    0  0.65610282216E+03  0.21384934021E+03 -0.52201952656E+03  0.86529123979E+03  0.46999998093E+01 0.  1.
       -5    1    3    3    0  502 -0.65610282216E+03 -0.21384934021E+03 -0.28627788679E+03  0.74711416264E+03  0.46999998093E+01 0. -1.
</event>
<event>
 5   0  0.6895048E-04  0.1399827E+04  0.7818609E-02  0.8953944E-01
       -2   -1    0    0    0  501  0.00000000000E+00  0.00000000000E+00  0.11499421242E+04  0.11499421242E+04  0.25500000920E-02 0. -1.
        2   -1    0    0  501    0  0.00000000000E+00  0.00000000000E+00 -0.42600322315E+03  0.42600322316E+03  0.25500000920E-02 0.  1.
    10030    2    1    2    0    0  0.00000000000E+00  0.00000000000E+00  0.72393890109E+03  0.15759453474E+04  0.13998272056E+04 0.  0.
        4    1    3    3  502    0  0.15433472680E+02 -0.25725863847E+03  0.10945771921E+04  0.11245092447E+04  0.12699999809E+01 0. -1.
       -4    1    3    3    0  502 -0.15433472680E+02  0.25725863847E+03 -0.37063829100E+03  0.45143610268E+03  0.12699999809E+01 0.  1.
</event>
<event>
 5   0  0.6959748E-04  0.1401666E+04  0.7818609E-02  0.8952614E-01
        2   -1    0    0  501    0  0.00000000000E+00  0.00000000000E+00  0.29043339177E+03  0.29043339178E+03  0.25500000920E-02 0.  1.
       -2   -1    0    0    0  501  0.00000000000E+00  0.00000000000E+00 -0.16911505777E+04  0.16911505777E+04  0.25500000920E-02 0. -1.
    10030    2    1    2    0    0  0.00000000000E+00  0.00000000000E+00 -0.14007171860E+04  0.19815839695E+04  0.14016655782E+04 0.  0.
        5    1    3    3  502    0  0.41419437774E+03 -0.28732710596E+03 -0.13886468102E+04  0.14773205142E+04  0.46999998093E+01 0. -1.
       -5    1    3    3    0  502 -0.41419437774E+03  0.28732710596E+03 -0.12070375792E+02  0.50426345529E+03  0.46999998093E+01 0.  1.
</event>
<event>
 5   0  0.6959748E-04  0.1405194E+04  0.7818609E-02  0.8950067E-01
       -2   -1    0    0    0  501  0.00000000000E+00  0.00000000000E+00  0.56540447368E+03  0.56540447368E+03  0.25500000920E-02 0. -1.
        2   -1    0    0  501    0  0.00000000000E+00  0.00000000000E+00 -0.87307920406E+03  0.87307920406E+03  0.25500000920E-02 0.  1.
    10030    2    1    2    0    0  0.00000000000E+00  0.00000000000E+00 -0.30767473038E+03  0.14384836777E+04  0.14051944888E+04 0.  0.
        5    1    3    3  502    0  0.38808565026E+03 -0.57971196893E+03 -0.23914434815E+03  0.73748799862E+03  0.46999998093E+01 0. -1.
       -5    1    3    3    0  502 -0.38808565026E+03  0.57971196893E+03 -0.68530382234E+02  0.70099567912E+03  0.46999998093E+01 0.  1.
</event>
<event>
 5   0  0.2660250E-04  0.1394796E+04  0.7818609E-02  0.8957594E-01
        4   -1    0    0  501    0  0.00000000000E+00  0.00000000000E+00  0.10335700549E+04  0.10335708351E+04  0.12699999809E+01 0. -1.
       -4   -1    0    0    0  501  0.00000000000E+00  0.00000000000E+00 -0.47056543288E+03  0.47056714666E+03  0.12699999809E+01 0.  1.
    10030    2    1    2    0    0  0.00000000000E+00  0.00000000000E+00  0.56300462200E+03  0.15041379818E+04  0.13947963521E+04 0.  0.
        4    1    3    3  502    0  0.33281853189E+03 -0.61280912263E+03  0.27319049132E+03  0.74895784487E+03  0.12699999809E+01 0. -1.
       -4    1    3    3    0  502 -0.33281853189E+03  0.61280912263E+03  0.28981413068E+03  0.75518013692E+03  0.12699999809E+01 0.  1.
</event>
<event>
 5   0  0.7065539E-04  0.1396095E+04  0.7818609E-02  0.8956650E-01
       -2   -1    0    0    0  501  0.00000000000E+00  0.00000000000E+00  0.61899340490E+03  0.61899340491E+03  0.25500000920E-02 0.  1.
        2   -1    0    0  501    0  0.00000000000E+00  0.00000000000E+00 -0.78719765932E+03  0.78719765933E+03  0.25500000920E-02 0. -1.
    10030    2    1    2    0    0  0.00000000000E+00  0.00000000000E+00 -0.16820425442E+03  0.14061910642E+04  0.13960947811E+04 0.  0.
        1    1    3    3  502    0 -0.16213621574E+03  0.62884377941E+03 -0.34195643569E+03  0.73393927221E+03  0.50400001928E-02 0. -1.
       -1    1    3    3    0  502  0.16213621574E+03 -0.62884377941E+03  0.17375218128E+03  0.67225179202E+03  0.50400001928E-02 0.  1.
</event>
<event>
 5   0  0.3756664E-04  0.1394134E+04  0.7818609E-02  0.8958076E-01
        1   -1    0    0  501    0  0.00000000000E+00  0.00000000000E+00  0.85945588144E+03  0.85945588145E+03  0.50400001928E-02 0.  1.
       -1   -1    0    0    0  501  0.00000000000E+00  0.00000000000E+00 -0.56536053277E+03  0.56536053279E+03  0.50400001928E-02 0. -1.
    10030    2    1    2    0    0  0.00000000000E+00  0.00000000000E+00  0.29409534867E+03  0.14248164142E+04  0.13941340467E+04 0.  0.
        2    1    3    3  502    0 -0.32494665073E+03  0.12522161431E+03  0.76418464092E+03  0.83979101206E+03  0.25500000920E-02 0.  1.
       -2    1    3    3    0  502  0.32494665073E+03 -0.12522161431E+03 -0.47008929225E+03  0.58502540218E+03  0.25500000920E-02 0. -1.
</event>
<event>
 5   0  0.6895048E-04  0.1397340E+04  0.7818609E-02  0.8955746E-01
        2   -1    0    0  501    0  0.00000000000E+00  0.00000000000E+00  0.45998882800E+03  0.45998882801E+03  0.25500000920E-02 0.  1.
       -2   -1    0    0    0  501  0.00000000000E+00  0.00000000000E+00 -0.10611994241E+04  0.10611994241E+04  0.25500000920E-02 0. -1.
    10030    2    1    2    0    0  0.00000000000E+00  0.00000000000E+00 -0.60121059610E+03  0.15211882521E+04  0.13973401581E+04 0.  0.
        4    1    3    3  502    0 -0.25328356849E+02 -0.56238200424E+03  0.14986084503E+03  0.58255894992E+03  0.12699999809E+01 0.  1.
       -4    1    3    3    0  502  0.25328356849E+02  0.56238200424E+03 -0.75107144114E+03  0.93862930220E+03  0.12699999809E+01 0. -1.
</event>
<event>
 5   0  0.3907270E-04  0.1395107E+04  0.7818609E-02  0.8957368E-01
        1   -1    0    0  501    0  0.00000000000E+00  0.00000000000E+00  0.89730756522E+03  0.89730756524E+03  0.50400001928E-02 0. -1.
       -1   -1    0    0    0  501  0.00000000000E+00  0.00000000000E+00 -0.54226747127E+03  0.54226747129E+03  0.50400001928E-02 0.  1.
    10030    2    1    2    0    0  0.00000000000E+00  0.00000000000E+00  0.35504009396E+03  0.14395750365E+04  0.13951067405E+04 0.  0.
        3    1    3    3  502    0  0.59305766682E+03 -0.24509838337E+03  0.45971475826E+03  0.78938474958E+03  0.10100000352E+00 0. -1.
       -3    1    3    3    0  502 -0.59305766682E+03  0.24509838337E+03 -0.10467466430E+03  0.65019028695E+03  0.10100000352E+00 0.  1.
</event>
<event>
 5   0  0.7296966E-04  0.1420445E+04  0.7818609E-02  0.8939151E-01
        2   -1    0    0  501    0  0.00000000000E+00  0.00000000000E+00  0.20443977121E+04  0.20443977121E+04  0.25500000920E-02 0.  1.
       -2   -1    0    0    0  501  0.00000000000E+00  0.00000000000E+00 -0.24673080552E+03  0.24673080553E+03  0.25500000920E-02 0. -1.
    10030    2    1    2    0    0  0.00000000000E+00  0.00000000000E+00  0.17976669066E+04  0.22911285176E+04  0.14204448519E+04 0.  0.
        3    1    3    3  502    0  0.38951053979E+03  0.46327294696E+03  0.29947926621E+03  0.67529854515E+03  0.10100000352E+00 0. -1.
       -3    1    3    3    0  502 -0.38951053979E+03 -0.46327294696E+03  0.14981876404E+04  0.16158299725E+04  0.10100000352E+00 0.  1.
</event>
<event>
 5   0  0.3907093E-04  0.1433678E+04  0.7818609E-02  0.8929795E-01
        1   -1    0    0  501    0  0.00000000000E+00  0.00000000000E+00  0.13608919896E+04  0.13608919896E+04  0.50400001928E-02 0. -1.
       -1   -1    0    0    0  501  0.00000000000E+00  0.00000000000E+00 -0.37758930755E+03  0.37758930758E+03  0.50400001928E-02 0.  1.
    10030    2    1    2    0    0  0.00000000000E+00  0.00000000000E+00  0.98330268208E+03  0.17384812972E+04  0.14336781564E+04 0.  0.
        4    1    3    3  502    0 -0.34516829238E+03  0.11683955987E+03 -0.25689264567E+03  0.44585656563E+03  0.12699999809E+01 0.  1.
       -4    1    3    3    0  502  0.34516829238E+03 -0.11683955987E+03  0.12401953278E+04  0.12926247316E+04  0.12699999809E+01 0. -1.
</event>
<event>
 5   0  0.7065539E-04  0.1397799E+04  0.7818609E-02  0.8955413E-01
       -2   -1    0    0    0  501  0.00000000000E+00  0.00000000000E+00  0.52804894805E+03  0.52804894805E+03  0.25500000920E-02 0. -1.
        2   -1    0    0  501    0  0.00000000000E+00  0.00000000000E+00 -0.92502950063E+03  0.92502950064E+03  0.25500000920E-02 0.  1.
    10030    2    1    2    0    0  0.00000000000E+00  0.00000000000E+00 -0.39698055258E+03  0.14530784487E+04  0.13977994917E+04 0.  0.
        1    1    3    3  502    0 -0.37622783198E+03  0.43964940798E+03 -0.60593688629E+03  0.83785350372E+03  0.50400001928E-02 0.  1.
       -1    1    3    3    0  502  0.37622783198E+03 -0.43964940798E+03  0.20895633371E+03  0.61522494497E+03  0.50400001928E-02 0. -1.
</event>
<event>
 5   0  0.3977658E-04  0.1402525E+04  0.7818609E-02  0.8951993E-01
        1   -1    0    0  501    0  0.00000000000E+00  0.00000000000E+00  0.13193337113E+04  0.13193337113E+04  0.50400001928E-02 0.  1.
       -1   -1    0    0    0  501  0.00000000000E+00  0.00000000000E+00 -0.37274027505E+03  0.37274027509E+03  0.50400001928E-02 0. -1.
    10030    2    1    2    0    0  0.00000000000E+00  0.00000000000E+00  0.94659343623E+03  0.16920739864E+04  0.14025245958E+04 0.  0.
        5    1    3    3  502    0 -0.50708958138E+03 -0.34163388820E+03  0.59055630706E+02  0.61429896193E+03  0.46999998093E+01 0. -1.
       -5    1    3    3    0  502  0.50708958138E+03  0.34163388820E+03  0.88753780553E+03  0.10777750245E+04  0.46999998093E+01 0.  1.
</event>
<event>
 5   0  0.3907093E-04  0.1295373E+04  0.7818609E-02  0.9033243E-01
       -1   -1    0    0    0  501  0.00000000000E+00  0.00000000000E+00  0.45858077021E+03  0.45858077024E+03  0.50400001928E-02 0.  1.
        1   -1    0    0  501    0  0.00000000000E+00  0.00000000000E+00 -0.91477362688E+03  0.91477362689E+03  0.50400001928E-02 0. -1.
    10030    2    1    2    0    0  0.00000000000E+00  0.00000000000E+00 -0.45619285666E+03  0.13733543971E+04  0.12953726791E+04 0.  0.
        4    1    3    3  502    0 -0.17888860214E+03 -0.61726073852E+03 -0.31346743534E+03  0.71503524194E+03  0.12699999809E+01 0. -1.
       -4    1    3    3    0  502  0.17888860214E+03  0.61726073852E+03 -0.14272542132E+03  0.65831915519E+03  0.12699999809E+01 0.  1.
</event>
<event>
 5   0  0.7296966E-04  0.1395533E+04  0.7818609E-02  0.8957058E-01
       -2   -1    0    0    0  501  0.00000000000E+00  0.00000000000E+00  0.34682023007E+03  0.34682023008E+03  0.25500000920E-02 0. -1.
        2   -1    0    0  501    0  0.00000000000E+00  0.00000000000E+00 -0.14038343683E+04  0.14038343683E+04  0.25500000920E-02 0.  1.
    10030    2    1    2    0    0  0.00000000000E+00  0.00000000000E+00 -0.10570141382E+04  0.17506545984E+04  0.13955331004E+04 0.  0.
        3    1    3    3  502    0 -0.48362516861E+03 -0.38237230960E+03 -0.93842572361E+03  0.11228288987E+04  0.10100000352E+00 0.  1.
       -3    1    3    3    0  502  0.48362516861E+03  0.38237230960E+03 -0.11858841460E+03  0.62782569965E+03  0.10100000352E+00 0. -1.
</event>
<event>
 5   0  0.3977658E-04  0.1398512E+04  0.7818609E-02  0.8954896E-01
        1   -1    0    0  501    0  0.00000000000E+00  0.00000000000E+00  0.12470190618E+04  0.12470190618E+04  0.50400001928E-02 0.  1.
       -1   -1    0    0    0  501  0.00000000000E+00  0.00000000000E+00 -0.39210238768E+03  0.39210238771E+03  0.50400001928E-02 0. -1.
    10030    2    1    2    0    0  0.00000000000E+00  0.00000000000E+00  0.85491667411E+03  0.16391214495E+04  0.13985122833E+04 0.  0.
        5    1    3    3  502    0 -0.41297744226E+02 -0.62531553072E+03  0.63912169133E+02  0.62994592784E+03  0.46999998093E+01 0. -1.
       -5    1    3    3    0  502  0.41297744226E+02  0.62531553072E+03  0.79100450498E+03  0.10091755217E+04  0.46999998093E+01 0.  1.
</event>
<event>
 5   0  0.3907270E-04  0.1395192E+04  0.7818609E-02  0.8957306E-01
       -1   -1    0    0    0  501  0.00000000000E+00  0.00000000000E+00  0.42617402232E+03  0.42617402235E+03  0.50400001928E-02 0. -1.
        1   -1    0    0  501    0  0.00000000000E+00  0.00000000000E+00 -0.11418812024E+04  0.11418812025E+04  0.50400001928E-02 0.  1.
    10030    2    1    2    0    0  0.00000000000E+00  0.00000000000E+00 -0.71570718012E+03  0.15680552248E+04  0.13951918937E+04 0.  0.
        3    1    3    3  502    0 -0.47685835267E+02 -0.66788269621E+03 -0.57780175033E+03  0.88441851386E+03  0.10100000352E+00 0.  1.
       -3    1    3    3    0  502  0.47685835267E+02  0.66788269621E+03 -0.13790542978E+03  0.68363671094E+03  0.10100000352E+00 0. -1.
</event>
<event>
 5   0  0.3756664E-04  0.1397409E+04  0.7818609E-02  0.8955696E-01
        1   -1    0    0  501    0  0.00000000000E+00  0.00000000000E+00  0.13518380298E+04  0.13518380298E+04  0.50400001928E-02 0. -1.
       -1   -1    0    0    0  501  0.00000000000E+00  0.00000000000E+00 -0.36112927544E+03  0.36112927548E+03  0.50400001928E-02 0.  1.
    10030    2    1    2    0    0  0.00000000000E+00  0.00000000000E+00  0.99070875433E+03  0.17129673053E+04  0.13974094436E+04 0.  0.
        2    1    3    3  502    0 -0.50830465389E+03  0.81625622424E+02  0.10744172473E+04  0.11913894346E+04  0.25500000920E-02 0.  1.
       -2    1    3    3    0  502  0.50830465389E+03 -0.81625622424E+02 -0.83708493005E+02  0.52157787070E+03  0.25500000920E-02 0. -1.
</event>
<event>
 5   0  0.6870835E-04  0.1404756E+04  0.7818609E-02  0.8950383E-01
       -2   -1    0    0    0  501  0.00000000000E+00  0.00000000000E+00  0.70867931553E+03  0.70867931553E+03  0.25500000920E-02 0.  1.
        2   -1    0    0  501    0  0.00000000000E+00  0.00000000000E+00 -0.69613302947E+03  0.69613302947E+03  0.25500000920E-02 0. -1.
    10030    2    1    2    0    0  0.00000000000E+00  0.00000000000E+00  0.12546286063E+02  0.14048123450E+04  0.14047563189E+04 0.  0.
        2    1    3    3  502    0  0.29786608995E+03  0.31493168720E+03 -0.54640512426E+03  0.69747023948E+03  0.25500000920E-02 0. -1.
       -2    1    3    3    0  502 -0.29786608995E+03 -0.31493168720E+03  0.55895141032E+03  0.70734210552E+03  0.25500000920E-02 0.  1.
</event>
<event>
 5   0  0.3756664E-04  0.1390282E+04  0.7818609E-02  0.8960883E-01
       -1   -1    0    0    0  501  0.00000000000E+00  0.00000000000E+00  0.15416166587E+04  0.15416166587E+04  0.50400001928E-02 0.  1.
        1   -1    0    0  501    0  0.00000000000E+00  0.00000000000E+00 -0.31345093449E+03  0.31345093453E+03  0.50400001928E-02 0. -1.
    10030    2    1    2    0    0  0.00000000000E+00  0.00000000000E+00  0.12281657242E+04  0.18550675933E+04  0.13902822481E+04 0.  0.
        2    1    3    3  502    0  0.23745876976E+03  0.73874223765E+02  0.14802311144E+04  0.15009757560E+04  0.25500000920E-02 0.  1.
       -2    1    3    3    0  502 -0.23745876976E+03 -0.73874223765E+02 -0.25206539014E+03  0.35409183722E+03  0.25500000920E-02 0. -1.
</event>
<event>
 5   0  0.3756664E-04  0.1401081E+04  0.7818609E-02  0.8953036E-01
       -1   -1    0    0    0  501  0.00000000000E+00  0.00000000000E+00  0.60077093363E+03  0.60077093365E+03  0.50400001928E-02 0.  1.
        1   -1    0    0  501    0  0.00000000000E+00  0.00000000000E+00 -0.81687895127E+03  0.81687895129E+03  0.50400001928E-02 0. -1.
    10030    2    1    2    0    0  0.00000000000E+00  0.00000000000E+00 -0.21610801765E+03  0.14176498849E+04  0.14010811971E+04 0.  0.
        2    1    3    3  502    0  0.57194807419E+03  0.35346132074E+03 -0.30709743578E+03  0.73916732875E+03  0.25500000920E-02 0. -1.
       -2    1    3    3    0  502 -0.57194807419E+03 -0.35346132074E+03  0.90989418137E+02  0.67848255618E+03  0.25500000920E-02 0.  1.
</event>
<event>
 5   0  0.3907270E-04  0.1394165E+04  0.7818609E-02  0.8958053E-01
       -1   -1    0    0    0  501  0.00000000000E+00  0.00000000000E+00  0.23564802533E+03  0.23564802539E+03  0.50400001928E-02 0. -1.
        1   -1    0    0  501    0  0.00000000000E+00  0.00000000000E+00 -0.20620755571E+04  0.20620755571E+04  0.50400001928E-02 0.  1.
    10030    2    1    2    0    0  0.00000000000E+00  0.00000000000E+00 -0.18264275318E+04  0.22977235825E+04  0.13941650307E+04 0.  0.
        3    1    3    3  502    0  0.33922979039E+03  0.14156667773E+03 -0.18893650556E+04  0.19247904557E+04  0.10100000352E+00 0.  1.
       -3    1    3    3    0  502 -0.33922979039E+03 -0.14156667773E+03  0.62937523836E+02  0.37293312677E+03  0.10100000352E+00 0. -1.
</event>
<event>
 5   0  0.7065539E-04  0.1384123E+04  0.7818609E-02  0.8965392E-01
       -2   -1    0    0    0  501  0.00000000000E+00  0.00000000000E+00  0.43253989242E+03  0.43253989242E+03  0.25500000920E-02 0. -1.
        2   -1    0    0  501    0  0.00000000000E+00  0.00000000000E+00 -0.11072939378E+04  0.11072939378E+04  0.25500000920E-02 0.  1.
    10030    2    1    2    0    0  0.00000000000E+00  0.00000000000E+00 -0.67475404543E+03  0.15398338303E+04  0.13841225390E+04 0.  0.
        1    1    3    3  502    0 -0.17982432811E+03 -0.26638825981E+01  0.40608889725E+03  0.44413069894E+03  0.50400001928E-02 0. -1.
       -1    1    3    3    0  502  0.17982432811E+03  0.26638825981E+01 -0.10808429427E+04  0.10957031313E+04  0.50400001928E-02 0.  1.
</event>
<event>
 5   0  0.6895048E-04  0.1403321E+04  0.7818609E-02  0.8951418E-01
        2   -1    0    0  501    0  0.00000000000E+00  0.00000000000E+00  0.76692738890E+03  0.76692738890E+03  0.25500000920E-02 0. -1.
       -2   -1    0    0    0  501  0.00000000000E+00  0.00000000000E+00 -0.64194781432E+03  0.64194781433E+03  0.25500000920E-02 0.  1.
    10030    2    1    2    0    0  0.00000000000E+00  0.00000000000E+00  0.12497957457E+03  0.14088752032E+04  0.14033208629E+04 0.  0.
        4    1    3    3  502    0 -0.70429508441E+02 -0.59255169027E+03  0.43306852272E+03  0.73731118232E+03  0.12699999809E+01 0. -1.
       -4    1    3    3    0  502  0.70429508441E+02  0.59255169027E+03 -0.30808894815E+03  0.67156402091E+03  0.12699999809E+01 0.  1.
</event>
<event>
 5   0  0.3784219E-04  0.1401832E+04  0.7818609E-02  0.8952493E-01
        1   -1    0    0  501    0  0.00000000000E+00  0.00000000000E+00  0.41766967888E+03  0.41766967892E+03  0.50400001928E-02 0.  1.
       -1   -1    0    0    0  501  0.00000000000E+00  0.00000000000E+00 -0.11762489866E+04  0.11762489866E+04  0.50400001928E-02 0. -1.
    10030    2    1    2    0    0  0.00000000000E+00  0.00000000000E+00 -0.75857930770E+03  0.15939186655E+04  0.14018324244E+04 0.  0.
        1    1    3    3  502    0  0.10973950323E+03 -0.15960635554E+03  0.38663546613E+03  0.43243951137E+03  0.50400001928E-02 0.  1.
       -1    1    3    3    0  502 -0.10973950323E+03  0.15960635554E+03 -0.11452147738E+04  0.11614791541E+04  0.50400001928E-02 0. -1.
</event>
<event>
 5   0  0.7065539E-04  0.1411524E+04  0.7818609E-02  0.8945519E-01
        2   -1    0    0  501    0  0.00000000000E+00  0.00000000000E+00  0.79722073045E+03  0.79722073046E+03  0.25500000920E-02 0.  1.
       -2   -1    0    0    0  501  0.00000000000E+00  0.00000000000E+00 -0.62479592105E+03  0.62479592106E+03  0.25500000920E-02 0. -1.
    10030    2    1    2    0    0  0.00000000000E+00  0.00000000000E+00  0.17242480940E+03  0.14220166515E+04  0.14115243683E+04 0.  0.
        1    1    3    3  502    0 -0.60824862874E+03  0.24220862191E+03  0.35174103516E+03  0.74320466006E+03  0.50400001928E-02 0.  1.
       -1    1    3    3    0  502  0.60824862874E+03 -0.24220862191E+03 -0.17931622576E+03  0.67881199145E+03  0.50400001928E-02 0. -1.
</event>
<event>
 5   0  0.6895048E-04  0.1448348E+04  0.7818609E-02  0.8919546E-01
        2   -1    0    0  501    0  0.00000000000E+00  0.00000000000E+00  0.95583814732E+03  0.95583814732E+03  0.25500000920E-02 0.  1.
       -2   -1    0    0    0  501  0.00000000000E+00  0.00000000000E+00 -0.54865795776E+03  0.54865795776E+03  0.25500000920E-02 0. -1.
    10030    2    1    2    0    0  0.00000000000E+00  0.00000000000E+00  0.40718018956E+03  0.15044961051E+04  0.14483483087E+04 0.  0.
        4    1    3    3  502    0 -0.35625463759E+03 -0.49977402754E+03  0.60285392281E+03  0.86030570762E+03  0.12699999809E+01 0.  1.
       -4    1    3    3    0  502  0.35625463759E+03  0.49977402754E+03 -0.19567373325E+03  0.64419039747E+03  0.12699999809E+01 0. -1.
</event>
<event>
 5   0  0.6959748E-04  0.1402364E+04  0.7818609E-02  0.8952109E-01
       -2   -1    0    0    0  501  0.00000000000E+00  0.00000000000E+00  0.53464538538E+03  0.53464538539E+03  0.25500000920E-02 0.  1.
        2   -1    0    0  501    0  0.00000000000E+00  0.00000000000E+00 -0.91959304735E+03  0.91959304736E+03  0.25500000920E-02 0. -1.
    10030    2    1    2    0    0  0.00000000000E+00  0.00000000000E+00 -0.38494766197E+03  0.14542384327E+04  0.14023639744E+04 0.  0.
        5    1    3    3  502    0  0.42270466367E+03 -0.38920768895E+03  0.22422645150E+03  0.61681557161E+03  0.46999998093E+01 0.  1.
       -5    1    3    3    0  502 -0.42270466367E+03  0.38920768895E+03 -0.60917411347E+03  0.83742286114E+03  0.46999998093E+01 0. -1.
</event>
<event>
 5   0  0.7065539E-04  0.1409138E+04  0.7818609E-02  0.8947230E-01
        2   -1    0    0  501    0  0.00000000000E+00  0.00000000000E+00  0.18483292435E+04  0.18483292435E+04  0.25500000920E-02 0. -1.
       -2   -1    0    0    0  501  0.00000000000E+00  0.00000000000E+00 -0.26857635035E+03  0.26857635036E+03  0.25500000920E-02 0.  1.
    10030    2    1    2    0    0  0.00000000000E+00  0.00000000000E+00  0.15797528932E+04  0.21169055939E+04  0.14091380663E+04 0.  0.
        1    1    3    3  502    0 -0.45347365562E+03  0.20773307755E+03  0.15374366658E+04  0.16163238813E+04  0.50400001928E-02 0. -1.
       -1    1    3    3    0  502  0.45347365562E+03 -0.20773307755E+03  0.42316227368E+02  0.50058171259E+03  0.50400001928E-02 0.  1.
</event>
<event>
 5   0  0.6959748E-04  0.1389169E+04  0.7818609E-02  0.8961696E-01
       -2   -1    0    0    0  501  0.00000000000E+00  0.00000000000E+00  0.59701215356E+03  0.59701215356E+03  0.25500000920E-02 0.  1.
        2   -1    0    0  501    0  0.00000000000E+00  0.00000000000E+00 -0.80810406633E+03  0.80810406633E+03  0.25500000920E-02 0. -1.
    10030    2    1    2    0    0  0.00000000000E+00  0.00000000000E+00 -0.21109191277E+03  0.14051162199E+04  0.13891694626E+04 0.  0.
        5    1    3    3  502    0 -0.90727359902E+02  0.35827317849E+02 -0.80112524035E+03  0.80705563084E+03  0.46999998093E+01 0. -1.
       -5    1    3    3    0  502  0.90727359902E+02 -0.35827317849E+02  0.59003332758E+03  0.59806058906E+03  0.46999998093E+01 0.  1.
</event>
<event>
 5   0  0.7065539E-04  0.1409178E+04  0.7818609E-02  0.8947201E-01
        2   -1    0    0  501    0  0.00000000000E+00  0.00000000000E+00  0.89029722752E+03  0.89029722752E+03  0.25500000920E-02 0. -1.
       -2   -1    0    0    0  501  0.00000000000E+00  0.00000000000E+00 -0.55761821142E+03  0.55761821143E+03  0.25500000920E-02 0.  1.
    10030    2    1    2    0    0  0.00000000000E+00  0.00000000000E+00  0.33267901610E+03  0.14479154389E+04  0.14091784098E+04 0.  0.
        1    1    3    3  502    0 -0.26496857197E+03  0.18619728502E+03 -0.47661598571E+03  0.57622961651E+03  0.50400001928E-02 0.  1.
       -1    1    3    3    0  502  0.26496857197E+03 -0.18619728502E+03  0.80929500180E+03  0.87168582244E+03  0.50400001928E-02 0. -1.
</event>
<event>
 5   0  0.3907093E-04  0.1404208E+04  0.7818609E-02  0.8950778E-01
       -1   -1    0    0    0  501  0.00000000000E+00  0.00000000000E+00  0.80143893253E+03  0.80143893255E+03  0.50400001928E-02 0. -1.
        1   -1    0    0  501    0  0.00000000000E+00  0.00000000000E+00 -0.61508144053E+03  0.61508144055E+03  0.50400001928E-02 0.  1.
    10030    2    1    2    0    0  0.00000000000E+00  0.00000000000E+00  0.18635749200E+03  0.14165203731E+04  0.14042082654E+04 0.  0.
        4    1    3    3  502    0 -0.21107550076E+03  0.37619255437E+03  0.65199879713E+03  0.78177858077E+03  0.12699999809E+01 0. -1.
       -4    1    3    3    0  502  0.21107550076E+03 -0.37619255437E+03 -0.46564130513E+03  0.63474179233E+03  0.12699999809E+01 0.  1.
</event>
<event>
 5   0  0.3907270E-04  0.1394593E+04  0.7818609E-02  0.8957742E-01
       -1   -1    0    0    0  501  0.00000000000E+00  0.00000000000E+00  0.89999565060E+03  0.89999565062E+03  0.50400001928E-02 0. -1.
        1   -1    0    0  501    0  0.00000000000E+00  0.00000000000E+00 -0.54024983185E+03  0.54024983187E+03  0.50400001928E-02 0.  1.
    10030    2    1    2    0    0  0.00000000000E+00  0.00000000000E+00  0.35974581876E+03  0.14402454825E+04  0.13945931291E+04 0.  0.
        3    1    3    3  502    0 -0.53728485323E+03  0.60246339135E+02  0.63464928742E+03  0.83371719612E+03  0.10100000352E+00 0. -1.
       -3    1    3    3    0  502  0.53728485323E+03 -0.60246339135E+02 -0.27490346866E+03  0.60652828637E+03  0.10100000352E+00 0.  1.
</event>
<event>
 5   0  0.7065539E-04  0.1404776E+04  0.7818609E-02  0.8950369E-01
       -2   -1    0    0    0  501  0.00000000000E+00  0.00000000000E+00  0.14406113322E+04  0.14406113322E+04  0.25500000920E-02 0.  1.
        2   -1    0    0  501    0  0.00000000000E+00  0.00000000000E+00 -0.34245782534E+03  0.34245782535E+03  0.25500000920E-02 0. -1.
    10030    2    1    2    0    0  0.00000000000E+00  0.00000000000E+00  0.10981535069E+04  0.17830691576E+04  0.14047756034E+04 0.  0.
        1    1    3    3  502    0 -0.84759904630E+02 -0.22084588069E+03 -0.29037625706E+03  0.37453373031E+03  0.50400001928E-02 0. -1.
       -1    1    3    3    0  502  0.84759904630E+02  0.22084588069E+03  0.13885297639E+04  0.14085354273E+04  0.50400001928E-02 0.  1.
</event>
<event>
 5   0  0.3756664E-04  0.1401827E+04  0.7818609E-02  0.8952497E-01
       -1   -1    0    0    0  501  0.00000000000E+00  0.00000000000E+00  0.47923314938E+03  0.47923314941E+03  0.50400001928E-02 0. -1.
        1   -1    0    0  501    0  0.00000000000E+00  0.00000000000E+00 -0.10251377127E+04  0.10251377127E+04  0.50400001928E-02 0.  1.
    10030    2    1    2    0    0  0.00000000000E+00  0.00000000000E+00 -0.54590456330E+03  0.15043708621E+04  0.14018273426E+04 0.  0.
        2    1    3    3  502    0  0.33691239118E+03  0.19595064333E+03  0.35221934728E+03  0.52532378830E+03  0.25500000920E-02 0. -1.
       -2    1    3    3    0  502 -0.33691239118E+03 -0.19595064333E+03 -0.89812391058E+03  0.97904707379E+03  0.25500000920E-02 0.  1.
</event>
<event>
 5   0  0.6870835E-04  0.1351317E+04  0.7818609E-02  0.8989832E-01
        2   -1    0    0  501    0  0.00000000000E+00  0.00000000000E+00  0.88167622429E+03  0.88167622430E+03  0.25500000920E-02 0.  1.
       -2   -1    0    0    0  501  0.00000000000E+00  0.00000000000E+00 -0.51778004893E+03  0.51778004893E+03  0.25500000920E-02 0. -1.
    10030    2    1    2    0    0  0.00000000000E+00  0.00000000000E+00  0.36389617537E+03  0.13994562732E+04  0.13513169259E+04 0.  0.
        2    1    3    3  502    0  0.40471980280E+03 -0.31900467197E+03 -0.27059977383E+03  0.58205355176E+03  0.25500000920E-02 0. -1.
       -2    1    3    3    0  502 -0.40471980280E+03  0.31900467197E+03  0.63449594919E+03  0.81740272147E+03  0.25500000920E-02 0.  1.
</event>
<event>
 5   0  0.3907093E-04  0.1389219E+04  0.7818609E-02  0.8961660E-01
       -1   -1    0    0    0  501  0.00000000000E+00  0.00000000000E+00  0.19486246499E+04  0.19486246499E+04  0.50400001928E-02 0.  1.
        1   -1    0    0  501    0  0.00000000000E+00  0.00000000000E+00 -0.24760147913E+03  0.24760147918E+03  0.50400001928E-02 0. -1.
    10030    2    1    2    0    0  0.00000000000E+00  0.00000000000E+00  0.17010231708E+04  0.21962261291E+04  0.13892189830E+04 0.  0.
        4    1    3    3  502    0  0.44770372631E+01 -0.43050784577E+03  0.17122490615E+04  0.17655468022E+04  0.12699999809E+01 0.  1.
       -4    1    3    3    0  502 -0.44770372631E+01  0.43050784577E+03 -0.11225890703E+02  0.43067932694E+03  0.12699999809E+01 0. -1.
</event>
<event>
 5   0  0.6959748E-04  0.1403651E+04  0.7818609E-02  0.8951180E-01
        2   -1    0    0  501    0  0.00000000000E+00  0.00000000000E+00  0.93654671861E+03  0.93654671862E+03  0.25500000920E-02 0.  1.
       -2   -1    0    0    0  501  0.00000000000E+00  0.00000000000E+00 -0.52593072734E+03  0.52593072734E+03  0.25500000920E-02 0. -1.
    10030    2    1    2    0    0  0.00000000000E+00  0.00000000000E+00  0.41061599128E+03  0.14624774460E+04  0.14036505219E+04 0.  0.
        5    1    3    3  502    0 -0.61570805116E+03 -0.82654657819E+02  0.54550142342E+03  0.82675394748E+03  0.46999998093E+01 0.  1.
       -5    1    3    3    0  502  0.61570805116E+03  0.82654657819E+02 -0.13488543214E+03  0.63572349848E+03  0.46999998093E+01 0. -1.
</event>
<event>
 5   0  0.3907093E-04  0.1401860E+04  0.7818609E-02  0.8952473E-01
       -1   -1    0    0    0  501  0.00000000000E+00  0.00000000000E+00  0.74618722552E+03  0.74618722553E+03  0.50400001928E-02 0. -1.
        1   -1    0    0  501    0  0.00000000000E+00  0.00000000000E+00 -0.65841810854E+03  0.65841810856E+03  0.50400001928E-02 0.  1.
    10030    2    1    2    0    0  0.00000000000E+00  0.00000000000E+00  0.87769116973E+02  0.14046053341E+04  0.14018604519E+04 0.  0.
        4    1    3    3  502    0 -0.50869771278E+03  0.46073224592E+03 -0.98710661699E+02  0.69339236587E+03  0.12699999809E+01 0.  1.
       -4    1    3    3    0  502  0.50869771278E+03 -0.46073224592E+03  0.18647977867E+03  0.71121296822E+03  0.12699999809E+01 0. -1.
</event>
<event>
 5   0  0.7065539E-04  0.1409533E+04  0.7818609E-02  0.8946947E-01
        2   -1    0    0  501    0  0.00000000000E+00  0.00000000000E+00  0.10972926692E+04  0.10972926692E+04  0.25500000920E-02 0. -1.
       -2   -1    0    0    0  501  0.00000000000E+00  0.00000000000E+00 -0.45265570825E+03  0.45265570826E+03  0.25500000920E-02 0.  1.
    10030    2    1    2    0    0  0.00000000000E+00  0.00000000000E+00  0.64463696095E+03  0.15499483775E+04  0.14095329586E+04 0.  0.
        1    1    3    3  502    0 -0.26796354519E+03  0.46427685052E+03 -0.18079549486E+03  0.56572472676E+03  0.50400001928E-02 0.  1.
       -1    1    3    3    0  502  0.26796354519E+03 -0.46427685052E+03  0.82543245580E+03  0.98422365070E+03  0.50400001928E-02 0. -1.
</event>
<event>
 5   0  0.3756664E-04  0.1408636E+04  0.7818609E-02  0.8947591E-01
       -1   -1    0    0    0  501  0.00000000000E+00  0.00000000000E+00  0.48053899207E+03  0.48053899209E+03  0.50400001928E-02 0. -1.
        1   -1    0    0  501    0  0.00000000000E+00  0.00000000000E+00 -0.10323070888E+04  0.10323070889E+04  0.50400001928E-02 0.  1.
    10030    2    1    2    0    0  0.00000000000E+00  0.00000000000E+00 -0.55176809678E+03  0.15128460810E+04  0.14086359473E+04 0.  0.
        2    1    3    3  502    0 -0.32968451762E+03  0.43035016135E+02  0.39095248609E+03  0.51321315275E+03  0.25500000920E-02 0. -1.
       -2    1    3    3    0  502  0.32968451762E+03 -0.43035016135E+02 -0.94272058287E+03  0.99963292820E+03  0.25500000920E-02 0.  1.
</event>
<event>
 5   0  0.3756664E-04  0.1407563E+04  0.7818609E-02  0.8948362E-01
       -1   -1    0    0    0  501  0.00000000000E+00  0.00000000000E+00  0.10566713313E+04  0.10566713313E+04  0.50400001928E-02 0.  1.
        1   -1    0    0  501    0  0.00000000000E+00  0.00000000000E+00 -0.46874409756E+03  0.46874409759E+03  0.50400001928E-02 0. -1.
    10030    2    1    2    0    0  0.00000000000E+00  0.00000000000E+00  0.58792723372E+03  0.15254154289E+04  0.14075630709E+04 0.  0.
        2    1    3    3  502    0 -0.62635750803E+03  0.15727823715E+03  0.59711368123E+03  0.87954813402E+03  0.25500000920E-02 0.  1.
       -2    1    3    3    0  502  0.62635750803E+03 -0.15727823715E+03 -0.91864475046E+01  0.64586729486E+03  0.25500000920E-02 0. -1.
</event>
<event>
 5   0  0.3907270E-04  0.1402839E+04  0.7818609E-02  0.8951766E-01
        1   -1    0    0  501    0  0.00000000000E+00  0.00000000000E+00  0.87988410590E+03  0.87988410592E+03  0.50400001928E-02 0. -1.
       -1   -1    0    0    0  501  0.00000000000E+00  0.00000000000E+00 -0.55915209611E+03  0.55915209614E+03  0.50400001928E-02 0.  1.
    10030    2    1    2    0    0  0.00000000000E+00  0.00000000000E+00  0.32073200979E+03  0.14390362021E+04  0.14028386111E+04 0.  0.
        3    1    3    3  502    0  0.32830858563E+02 -0.71108867662E+02 -0.55465238407E+03  0.56015499077E+03  0.10100000352E+00 0.  1.
       -3    1    3    3    0  502 -0.32830858563E+02  0.71108867662E+02  0.87538439386E+03  0.87888121128E+03  0.10100000352E+00 0. -1.
</event>
<event>
 5   0  0.3977658E-04  0.1357889E+04  0.7818609E-02  0.8984877E-01
       -1   -1    0    0    0  501  0.00000000000E+00  0.00000000000E+00  0.22516723744E+03  0.22516723750E+03  0.50400001928E-02 0.  1.
        1   -1    0    0  501    0  0.00000000000E+00  0.00000000000E+00 -0.20472156984E+04  0.20472156984E+04  0.50400001928E-02 0. -1.
    10030    2    1    2    0    0  0.00000000000E+00  0.00000000000E+00 -0.18220484609E+04  0.22723829359E+04  0.13578893966E+04 0.  0.
        5    1    3    3  502    0 -0.31782649891E+03  0.53008910632E+03 -0.44085546968E+03  0.75919943308E+03  0.46999998093E+01 0.  1.
       -5    1    3    3    0  502  0.31782649891E+03 -0.53008910632E+03 -0.13811929913E+04  0.15131835028E+04  0.46999998093E+01 0. -1.
</event>
<event>
 5   0  0.3907093E-04  0.1408238E+04  0.7818609E-02  0.8947877E-01
       -1   -1    0    0    0  501  0.00000000000E+00  0.00000000000E+00  0.22319830103E+03  0.22319830108E+03  0.50400001928E-02 0. -1.
        1   -1    0    0  501    0  0.00000000000E+00  0.00000000000E+00 -0.22212693965E+04  0.22212693965E+04  0.50400001928E-02 0.  1.
    10030    2    1    2    0    0  0.00000000000E+00  0.00000000000E+00 -0.19980710955E+04  0.24444676976E+04  0.14082379849E+04 0.  0.
        4    1    3    3  502    0 -0.55059335535E+03  0.43073782836E+03 -0.11452358997E+04  0.13417358155E+04  0.12699999809E+01 0. -1.
       -4    1    3    3    0  502  0.55059335535E+03 -0.43073782836E+03 -0.85283519578E+03  0.11027318821E+04  0.12699999809E+01 0.  1.
</event>
<event>
 5   0  0.6895048E-04  0.1397920E+04  0.7818609E-02  0.8955326E-01
        2   -1    0    0  501    0  0.00000000000E+00  0.00000000000E+00  0.67138560641E+03  0.67138560641E+03  0.25500000920E-02 0. -1.
       -2   -1    0    0    0  501  0.00000000000E+00  0.00000000000E+00 -0.72766650395E+03  0.72766650396E+03  0.25500000920E-02 0.  1.
    10030    2    1    2    0    0  0.00000000000E+00  0.00000000000E+00 -0.56280897546E+02  0.13990521104E+04  0.13979196215E+04 0.  0.
        4    1    3    3  502    0  0.22681603023E+03  0.55015716576E+03 -0.39507733075E+03  0.71428714729E+03  0.12699999809E+01 0.  1.
       -4    1    3    3    0  502 -0.22681603023E+03 -0.55015716576E+03  0.33879643321E+03  0.68476496308E+03  0.12699999809E+01 0. -1.
</event>
<event>
 5   0  0.7065539E-04  0.1412424E+04  0.7818609E-02  0.8944874E-01
       -2   -1    0    0    0  501  0.00000000000E+00  0.00000000000E+00  0.73146141535E+03  0.73146141535E+03  0.25500000920E-02 0. -1.
        2   -1    0    0  501    0  0.00000000000E+00  0.00000000000E+00 -0.68183384403E+03  0.68183384404E+03  0.25500000920E-02 0.  1.
    10030    2    1    2    0    0  0.00000000000E+00  0.00000000000E+00  0.49627571314E+02  0.14132952594E+04  0.14124236597E+04 0.  0.
        1    1    3    3  502    0 -0.57477931546E+03 -0.23849527191E+03  0.35891186579E+03  0.71837941482E+03  0.50400001928E-02 0.  1.
       -1    1    3    3    0  502  0.57477931546E+03  0.23849527191E+03 -0.30928429448E+03  0.69491584457E+03  0.50400001928E-02 0. -1.
</event>
<event>
 5   0  0.6959748E-04  0.1398453E+04  0.7818609E-02  0.8954939E-01
       -2   -1    0    0    0  501  0.00000000000E+00  0.00000000000E+00  0.22815036349E+03  0.22815036351E+03  0.25500000920E-02 0.  1.
        2   -1    0    0  501    0  0.00000000000E+00  0.00000000000E+00 -0.21429633692E+04  0.21429633692E+04  0.25500000920E-02 0. -1.
    10030    2    1    2    0    0  0.00000000000E+00  0.00000000000E+00 -0.19148130057E+04  0.23711137327E+04  0.13984532479E+04 0.  0.
        5    1    3    3  502    0  0.33533020352E+03  0.16490566980E+03  0.44612818654E+02  0.37636766454E+03  0.46999998093E+01 0.  1.
       -5    1    3    3    0  502 -0.33533020352E+03 -0.16490566980E+03 -0.19594258243E+04  0.19947460682E+04  0.46999998093E+01 0. -1.
</event>
<event>
 5   0  0.6870835E-04  0.1394494E+04  0.7818609E-02  0.8957814E-01
        2   -1    0    0  501    0  0.00000000000E+00  0.00000000000E+00  0.97558825040E+03  0.97558825040E+03  0.25500000920E-02 0.  1.
       -2   -1    0    0    0  501  0.00000000000E+00  0.00000000000E+00 -0.49831788246E+03  0.49831788246E+03  0.25500000920E-02 0. -1.
    10030    2    1    2    0    0  0.00000000000E+00  0.00000000000E+00  0.47727036795E+03  0.14739061329E+04  0.13944935584E+04 0.  0.
        2    1    3    3  502    0  0.37307490533E+03  0.47300701329E+03  0.60967117061E+03  0.85709944341E+03  0.25500000920E-02 0.  1.
       -2    1    3    3    0  502 -0.37307490533E+03 -0.47300701329E+03 -0.13240080267E+03  0.61680668946E+03  0.25500000920E-02 0. -1.
</event>
<event>
 5   0  0.3756664E-04  0.1401272E+04  0.7818609E-02  0.8952898E-01
       -1   -1    0    0    0  501  0.00000000000E+00  0.00000000000E+00  0.39398945395E+03  0.39398945399E+03  0.50400001928E-02 0.  1.
        1   -1    0    0  501    0  0.00000000000E+00  0.00000000000E+00 -0.12459489089E+04  0.12459489089E+04  0.50400001928E-02 0. -1.
    10030    2    1    2    0    0  0.00000000000E+00  0.00000000000E+00 -0.85195945497E+03  0.16399383629E+04  0.14012718941E+04 0.  0.
        2    1    3    3  502    0  0.69754236897E+03  0.63179921725E+02 -0.40460185230E+03  0.80886322571E+03  0.25500000920E-02 0.  1.
       -2    1    3    3    0  502 -0.69754236897E+03 -0.63179921725E+02 -0.44735760267E+03  0.83107513721E+03  0.25500000920E-02 0. -1.
</event>
<event>
 5   0  0.3784219E-04  0.1402482E+04  0.7818609E-02  0.8952024E-01
        1   -1    0    0  501    0  0.00000000000E+00  0.00000000000E+00  0.58248445600E+03  0.58248445602E+03  0.50400001928E-02 0. -1.
       -1   -1    0    0    0  501  0.00000000000E+00  0.00000000000E+00 -0.84420910651E+03  0.84420910652E+03  0.50400001928E-02 0.  1.
    10030    2    1    2    0    0  0.00000000000E+00  0.00000000000E+00 -0.26172465050E+03  0.14266935625E+04  0.14024816322E+04 0.  0.
        1    1    3    3  502    0  0.38529366956E+02 -0.65953028609E+03  0.10830059942E+03  0.66947272554E+03  0.50400001928E-02 0. -1.
       -1    1    3    3    0  502 -0.38529366956E+02  0.65953028609E+03 -0.37002524993E+03  0.75722083700E+03  0.50400001928E-02 0.  1.
</event>
<event>
 5   0  0.6959748E-04  0.1397650E+04  0.7818609E-02  0.8955521E-01
        2   -1    0    0  501    0  0.00000000000E+00  0.00000000000E+00  0.20298359293E+04  0.20298359293E+04  0.25500000920E-02 0.  1.
       -2   -1    0    0    0  501  0.00000000000E+00  0.00000000000E+00 -0.24058902332E+03  0.24058902333E+03  0.25500000920E-02 0. -1.
    10030    2    1    2    0    0  0.00000000000E+00  0.00000000000E+00  0.17892469060E+04  0.22704249527E+04  0.13976498041E+04 0.  0.
        5    1    3    3  502    0 -0.18626474009E+03 -0.11296653371E+02  0.19885877992E+04  0.19973296406E+04  0.46999998093E+01 0.  1.
       -5    1    3    3    0  502  0.18626474009E+03  0.11296653371E+02 -0.19934089323E+03  0.27309531210E+03  0.46999998093E+01 0. -1.
</event>
<event>
 5   0  0.7065539E-04  0.1402663E+04  0.7818609E-02  0.8951893E-01
        2   -1    0    0  501    0  0.00000000000E+00  0.00000000000E+00  0.61230334365E+03  0.61230334366E+03  0.25500000920E-02 0. -1.
       -2   -1    0    0    0  501  0.00000000000E+00  0.00000000000E+00 -0.80330383177E+03  0.80330383178E+03  0.25500000920E-02 0.  1.
    10030    2    1    2    0    0  0.00000000000E+00  0.00000000000E+00 -0.19100048812E+03  0.14156071754E+04  0.14026626425E+04 0.  0.
        1    1    3    3  502    0  0.12462816008E+03 -0.54813150306E+03 -0.51875738677E+03  0.76491146500E+03  0.50400001928E-02 0.  1.
       -1    1    3    3    0  502 -0.12462816008E+03  0.54813150306E+03  0.32775689865E+03  0.65069571043E+03  0.50400001928E-02 0. -1.
</event>
<event>
 5   0  0.3977658E-04  0.1395587E+04  0.7818609E-02  0.8957019E-01
       -1   -1    0    0    0  501  0.00000000000E+00  0.00000000000E+00  0.74726174831E+03  0.74726174832E+03  0.50400001928E-02 0. -1.
        1   -1    0    0  501    0  0.00000000000E+00  0.00000000000E+00 -0.65160039014E+03  0.65160039016E+03  0.50400001928E-02 0.  1.
    10030    2    1    2    0    0  0.00000000000E+00  0.00000000000E+00  0.95661358170E+02  0.13988621385E+04  0.13955873986E+04 0.  0.
        5    1    3    3  502    0  0.40239095611E+03 -0.15834249369E+03 -0.50108846252E+03  0.66189316671E+03  0.46999998093E+01 0.  1.
       -5    1    3    3    0  502 -0.40239095611E+03  0.15834249369E+03  0.59674982069E+03  0.73696897177E+03  0.46999998093E+01 0. -1.
</event>
<event>
 5   0  0.3907270E-04  0.1397817E+04  0.7818609E-02  0.8955400E-01
        1   -1    0    0  501    0  0.00000000000E+00  0.00000000000E+00  0.58606670982E+03  0.58606670984E+03  0.50400001928E-02 0.  1.
       -1   -1    0    0    0  501  0.00000000000E+00  0.00000000000E+00 -0.83347731178E+03  0.83347731179E+03  0.50400001928E-02 0. -1.
    10030    2    1    2    0    0  0.00000000000E+00  0.00000000000E+00 -0.24741060196E+03  0.14195440216E+04  0.13978173069E+04 0.  0.
        3    1    3    3  502    0  0.69222458580E+03  0.96346085657E+02 -0.12774841846E+03  0.71047668085E+03  0.10100000352E+00 0. -1.
       -3    1    3    3    0  502 -0.69222458580E+03 -0.96346085657E+02 -0.11966218350E+03  0.70906734079E+03  0.10100000352E+00 0.  1.
</event>
<event>
 5   0  0.6959748E-04  0.1422852E+04  0.7818609E-02  0.8937441E-01
       -2   -1    0    0    0  501  0.00000000000E+00  0.00000000000E+00  0.32592317518E+03  0.32592317518E+03  0.25500000920E-02 0. -1.
        2   -1    0    0  501    0  0.00000000000E+00  0.00000000000E+00 -0.15529036798E+04  0.15529036798E+04  0.25500000920E-02 0.  1.
    10030    2    1    2    0    0  0.00000000000E+00  0.00000000000E+00 -0.12269805046E+04  0.18788268550E+04  0.14228524844E+04 0.  0.
        5    1    3    3  502    0  0.43809158798E+03  0.30044987325E+03 -0.12383239517E+04  0.13474652741E+04  0.46999998093E+01 0.  1.
       -5    1    3    3    0  502 -0.43809158798E+03 -0.30044987325E+03  0.11343447037E+02  0.53136158083E+03  0.46999998093E+01 0. -1.
</event>
<event>
 5   0  0.3907270E-04  0.1403087E+04  0.7818609E-02  0.8951587E-01
       -1   -1    0    0    0  501  0.00000000000E+00  0.00000000000E+00  0.60939513476E+03  0.60939513478E+03  0.50400001928E-02 0. -1.
        1   -1    0    0  501    0  0.00000000000E+00  0.00000000000E+00 -0.80762603804E+03  0.80762603806E+03  0.50400001928E-02 0.  1.
    10030    2    1    2    0    0  0.00000000000E+00  0.00000000000E+00 -0.19823090329E+03  0.14170211728E+04  0.14030871367E+04 0.  0.
        3    1    3    3  502    0 -0.58147600401E+03 -0.23226551587E+03 -0.41864611586E+03  0.75321059049E+03  0.10100000352E+00 0.  1.
       -3    1    3    3    0  502  0.58147600401E+03  0.23226551587E+03  0.22041521257E+03  0.66381058235E+03  0.10100000352E+00 0. -1.
</event>
<event>
 5   0  0.6959748E-04  0.1409834E+04  0.7818609E-02  0.8946731E-01
        2   -1    0    0  501    0  0.00000000000E+00  0.00000000000E+00  0.68136387559E+03  0.68136387559E+03  0.25500000920E-02 0. -1.
       -2   -1    0    0    0  501  0.00000000000E+00  0.00000000000E+00 -0.72928433745E+03  0.72928433745E+03  0.25500000920E-02 0.  1.
    10030    2    1    2    0    0  0.00000000000E+00  0.00000000000E+00 -0.47920461861E+02  0.14106482130E+04  0.14098340364E+04 0.  0.
        5    1    3    3  502    0  0.16340029296E+03  0.14683713861E+03  0.64622140233E+03  0.68255768389E+03  0.46999998093E+01 0. -1.
       -5    1    3    3    0  502 -0.16340029296E+03 -0.14683713861E+03 -0.69414186419E+03  0.72809052915E+03  0.46999998093E+01 0.  1.
</event>
<event>
 5   0  0.3756664E-04  0.1391923E+04  0.7818609E-02  0.8959686E-01
       -1   -1    0    0    0  501  0.00000000000E+00  0.00000000000E+00  0.81651324035E+03  0.81651324037E+03  0.50400001928E-02 0. -1.
        1   -1    0    0  501    0  0.00000000000E+00  0.00000000000E+00 -0.59320818011E+03  0.59320818014E+03  0.50400001928E-02 0.  1.
    10030    2    1    2    0    0  0.00000000000E+00  0.00000000000E+00  0.22330506024E+03  0.14097214205E+04  0.13919228906E+04 0.  0.
        2    1    3    3  502    0  0.63396780849E+02 -0.35830551515E+02 -0.58933902120E+03  0.59382106915E+03  0.25500000920E-02 0.  1.
       -2    1    3    3    0  502 -0.63396780849E+02  0.35830551515E+02  0.81264408144E+03  0.81590035136E+03  0.25500000920E-02 0. -1.
</event>
<event>
 5   0  0.7065539E-04  0.1406421E+04  0.7818609E-02  0.8949184E-01
       -2   -1    0    0    0  501  0.00000000000E+00  0.00000000000E+00  0.26079961087E+03  0.26079961088E+03  0.25500000920E-02 0.  1.
        2   -1    0    0  501    0  0.00000000000E+00  0.00000000000E+00 -0.18961110565E+04  0.18961110565E+04  0.25500000920E-02 0. -1.
    10030    2    1    2    0    0  0.00000000000E+00  0.00000000000E+00 -0.16353114456E+04  0.21569106674E+04  0.14064210262E+04 0.  0.
        1    1    3    3  502    0  0.27869262473E+02  0.49557067179E+03 -0.53708281231E+02  0.49925100503E+03  0.50400001928E-02 0.  1.
       -1    1    3    3    0  502 -0.27869262473E+02 -0.49557067179E+03 -0.15816031644E+04  0.16576596623E+04  0.50400001928E-02 0. -1.
</event>
<event>
 5   0  0.3756664E-04  0.1400635E+04  0.7818609E-02  0.8953359E-01
        1   -1    0    0  501    0  0.00000000000E+00  0.00000000000E+00  0.16859404153E+04  0.16859404153E+04  0.50400001928E-02 0.  1.
       -1   -1    0    0    0  501  0.00000000000E+00  0.00000000000E+00 -0.29090265673E+03  0.29090265678E+03  0.50400001928E-02 0. -1.
    10030    2    1    2    0    0  0.00000000000E+00  0.00000000000E+00  0.13950377586E+04  0.19768430721E+04  0.14006349217E+04 0.  0.
        2    1    3    3  502    0  0.42306610304E+03  0.15341321928E+03  0.14548506570E+04  0.15228627573E+04  0.25500000920E-02 0.  1.
       -2    1    3    3    0  502 -0.42306610304E+03 -0.15341321928E+03 -0.59812898425E+02  0.45398031479E+03  0.25500000920E-02 0. -1.
</event>
<event>
 5   0  0.6895048E-04  0.1397173E+04  0.7818609E-02  0.8955867E-01
        2   -1    0    0  501    0  0.00000000000E+00  0.00000000000E+00  0.47580150866E+03  0.47580150867E+03  0.25500000920E-02 0.  1.
       -2   -1    0    0    0  501  0.00000000000E+00  0.00000000000E+00 -0.10256863363E+04  0.10256863363E+04  0.25500000920E-02 0. -1.
    10030    2    1    2    0    0  0.00000000000E+00  0.00000000000E+00 -0.54988482764E+03  0.15014878450E+04  0.13971730118E+04 0.  0.
        4    1    3    3  502    0 -0.13120854562E+03  0.37767170045E+03 -0.89057415507E+03  0.97620465802E+03  0.12699999809E+01 0. -1.
       -4    1    3    3    0  502  0.13120854562E+03 -0.37767170045E+03  0.34068932743E+03  0.52528318695E+03  0.12699999809E+01 0.  1.
</event>
<event>
 5   0  0.3907093E-04  0.1396644E+04  0.7818609E-02  0.8956251E-01
       -1   -1    0    0    0  501  0.00000000000E+00  0.00000000000E+00  0.56015786996E+03  0.56015786999E+03  0.50400001928E-02 0.  1.
        1   -1    0    0  501    0  0.00000000000E+00  0.00000000000E+00 -0.87056448514E+03  0.87056448515E+03  0.50400001928E-02 0. -1.
    10030    2    1    2    0    0  0.00000000000E+00  0.00000000000E+00 -0.31040661517E+03  0.14307223551E+04  0.13966439026E+04 0.  0.
        4    1    3    3  502    0 -0.32346751130E+03  0.61335275547E+03 -0.70610538069E+02  0.69700810217E+03  0.12699999809E+01 0. -1.
       -4    1    3    3    0  502  0.32346751130E+03 -0.61335275547E+03 -0.23979607711E+03  0.73371425297E+03  0.12699999809E+01 0.  1.
</event>
<event>
 5   0  0.2660250E-04  0.1404833E+04  0.7818609E-02  0.8950328E-01
       -4   -1    0    0    0  501  0.00000000000E+00  0.00000000000E+00  0.77825234729E+03  0.77825338352E+03  0.12699999809E+01 0. -1.
        4   -1    0    0  501    0  0.00000000000E+00  0.00000000000E+00 -0.63396785985E+03  0.63396913192E+03  0.12699999809E+01 0.  1.
    10030    2    1    2    0    0  0.00000000000E+00  0.00000000000E+00  0.14428448744E+03  0.14122225154E+04  0.14048325238E+04 0.  0.
        1    1    3    3  502    0 -0.45200520053E+03  0.22607517803E+03  0.56252998836E+03  0.75621337945E+03  0.50400001928E-02 0. -1.
       -1    1    3    3    0  502  0.45200520053E+03 -0.22607517803E+03 -0.41824550092E+03  0.65600913599E+03  0.50400001928E-02 0.  1.
</event>
<event>
 5   0  0.3907270E-04  0.1402767E+04  0.7818609E-02  0.8951818E-01
       -1   -1    0    0    0  501  0.00000000000E+00  0.00000000000E+00  0.62722001678E+03  0.62722001680E+03  0.50400001928E-02 0. -1.
        1   -1    0    0  501    0  0.00000000000E+00  0.00000000000E+00 -0.78431563907E+03  0.78431563909E+03  0.50400001928E-02 0.  1.
    10030    2    1    2    0    0  0.00000000000E+00  0.00000000000E+00 -0.15709562229E+03  0.14115356559E+04  0.14027665071E+04 0.  0.
        3    1    3    3  502    0 -0.61447632442E+03 -0.27651711827E+03  0.11733701300E+03  0.68396699832E+03  0.10100000352E+00 0. -1.
       -3    1    3    3    0  502  0.61447632442E+03  0.27651711827E+03 -0.27443263529E+03  0.72756865757E+03  0.10100000352E+00 0.  1.
</event>
<event>
 5   0  0.3756664E-04  0.1398798E+04  0.7818609E-02  0.8954689E-01
        1   -1    0    0  501    0  0.00000000000E+00  0.00000000000E+00  0.59248233648E+03  0.59248233650E+03  0.50400001928E-02 0. -1.
       -1   -1    0    0    0  501  0.00000000000E+00  0.00000000000E+00 -0.82560979886E+03  0.82560979888E+03  0.50400001928E-02 0.  1.
    10030    2    1    2    0    0  0.00000000000E+00  0.00000000000E+00 -0.23312746238E+03  0.14180921354E+04  0.13987983739E+04 0.  0.
        2    1    3    3  502    0 -0.53952592993E+02 -0.12418249668E+02 -0.82338484961E+03  0.82524402802E+03  0.25500000920E-02 0.  1.
       -2    1    3    3    0  502  0.53952592993E+02  0.12418249668E+02  0.59025738722E+03  0.59284810735E+03  0.25500000920E-02 0. -1.
</event>
<event>
 5   0  0.3907270E-04  0.1399526E+04  0.7818609E-02  0.8954161E-01
        1   -1    0    0  501    0  0.00000000000E+00  0.00000000000E+00  0.83832062286E+03  0.83832062287E+03  0.50400001928E-02 0.  1.
       -1   -1    0    0    0  501  0.00000000000E+00  0.00000000000E+00 -0.58410656239E+03  0.58410656242E+03  0.50400001928E-02 0. -1.
    10030    2    1    2    0    0  0.00000000000E+00  0.00000000000E+00  0.25421406046E+03  0.14224271853E+04  0.13995264588E+04 0.  0.
        3    1    3    3  502    0 -0.95153100065E+02 -0.47617652190E+03  0.63920722656E+03  0.80273537430E+03  0.10100000352E+00 0.  1.
       -3    1    3    3    0  502  0.95153100065E+02  0.47617652190E+03 -0.38499316610E+03  0.61969181099E+03  0.10100000352E+00 0. -1.
</event>
<event>
 5   0  0.3977658E-04  0.1401983E+04  0.7818609E-02  0.8952384E-01
        1   -1    0    0  501    0  0.00000000000E+00  0.00000000000E+00  0.12370237384E+04  0.12370237384E+04  0.50400001928E-02 0.  1.
       -1   -1    0    0    0  501  0.00000000000E+00  0.00000000000E+00 -0.39723505630E+03  0.39723505634E+03  0.50400001928E-02 0. -1.
    10030    2    1    2    0    0  0.00000000000E+00  0.00000000000E+00  0.83978868210E+03  0.16342587947E+04  0.14019831588E+04 0.  0.
        5    1    3    3  502    0 -0.20978875151E+03 -0.55766929229E+03  0.85034434490E+03  0.10383226641E+04  0.46999998093E+01 0.  1.
       -5    1    3    3    0  502  0.20978875151E+03  0.55766929229E+03 -0.10555662800E+02  0.59593613068E+03  0.46999998093E+01 0. -1.
</event>
<event>
 5   0  0.3977658E-04  0.1400685E+04  0.7818609E-02  0.8953323E-01
       -1   -1    0    0    0  501  0.00000000000E+00  0.00000000000E+00  0.72877603204E+03  0.72877603206E+03  0.50400001928E-02 0.  1.
        1   -1    0    0  501    0  0.00000000000E+00  0.00000000000E+00 -0.67301801855E+03  0.67301801856E+03  0.50400001928E-02 0. -1.
    10030    2    1    2    0    0  0.00000000000E+00  0.00000000000E+00  0.55758013492E+02  0.14017940506E+04  0.14006846912E+04 0.  0.
        5    1    3    3  502    0 -0.51460815011E+03 -0.15656062513E+03 -0.42094528616E+03  0.68304450912E+03  0.46999998093E+01 0. -1.
       -5    1    3    3    0  502  0.51460815011E+03  0.15656062513E+03  0.47670329965E+03  0.71874954150E+03  0.46999998093E+01 0.  1.
</event>
<event>
 5   0  0.3977658E-04  0.1413220E+04  0.7818609E-02  0.8944304E-01
       -1   -1    0    0    0  501  0.00000000000E+00  0.00000000000E+00  0.70894814642E+03  0.70894814643E+03  0.50400001928E-02 0. -1.
        1   -1    0    0  501    0  0.00000000000E+00  0.00000000000E+00 -0.70427970711E+03  0.70427970712E+03  0.50400001928E-02 0.  1.
    10030    2    1    2    0    0  0.00000000000E+00  0.00000000000E+00  0.46684393109E+01  0.14132278536E+04  0.14132201427E+04 0.  0.
        5    1    3    3  502    0 -0.39173778079E+03 -0.31310027851E+03 -0.49544899982E+03  0.70496955588E+03  0.46999998093E+01 0.  1.
       -5    1    3    3    0  502  0.39173778079E+03  0.31310027851E+03  0.50011743913E+03  0.70825829767E+03  0.46999998093E+01 0. -1.
</event>
<event>
 5   0  0.6895048E-04  0.1401717E+04  0.7818609E-02  0.8952577E-01
        2   -1    0    0  501    0  0.00000000000E+00  0.00000000000E+00  0.73484163526E+03  0.73484163527E+03  0.25500000920E-02 0. -1.
       -2   -1    0    0    0  501  0.00000000000E+00  0.00000000000E+00 -0.66844690196E+03  0.66844690197E+03  0.25500000920E-02 0.  1.
    10030    2    1    2    0    0  0.00000000000E+00  0.00000000000E+00  0.66394733303E+02  0.14032885372E+04  0.14017169679E+04 0.  0.
        4    1    3    3  502    0 -0.12724138756E+03 -0.67824638450E+03 -0.89383667934E+02  0.69584450978E+03  0.12699999809E+01 0.  1.
       -4    1    3    3    0  502  0.12724138756E+03  0.67824638450E+03  0.15577840124E+03  0.70744402746E+03  0.12699999809E+01 0. -1.
</event>
<event>
 5   0  0.3907093E-04  0.1386721E+04  0.7818609E-02  0.8963487E-01
       -1   -1    0    0    0  501  0.00000000000E+00  0.00000000000E+00  0.64635065694E+03  0.64635065696E+03  0.50400001928E-02 0. -1.
        1   -1    0    0  501    0  0.00000000000E+00  0.00000000000E+00 -0.74378980486E+03  0.74378980487E+03  0.50400001928E-02 0.  1.
    10030    2    1    2    0    0  0.00000000000E+00  0.00000000000E+00 -0.97439147914E+02  0.13901404618E+04  0.13867213549E+04 0.  0.
        4    1    3    3  502    0 -0.38211541998E+03  0.37648297022E+03 -0.48911561286E+03  0.72593892077E+03  0.12699999809E+01 0. -1.
       -4    1    3    3    0  502  0.38211541998E+03 -0.37648297022E+03  0.39167646495E+03  0.66420154106E+03  0.12699999809E+01 0.  1.
</event>
<event>
 5   0  0.7296966E-04  0.1303505E+04  0.7818609E-02  0.9026790E-01
        2   -1    0    0  501    0  0.00000000000E+00  0.00000000000E+00  0.47434968335E+03  0.47434968336E+03  0.25500000920E-02 0.  1.
       -2   -1    0    0    0  501  0.00000000000E+00  0.00000000000E+00 -0.89550216581E+03  0.89550216581E+03  0.25500000920E-02 0. -1.
    10030    2    1    2    0    0  0.00000000000E+00  0.00000000000E+00 -0.42115248246E+03  0.13698518492E+04  0.13035047661E+04 0.  0.
        3    1    3    3  502    0  0.15933537231E+03  0.25521577638E+03  0.39700181522E+03  0.49812980725E+03  0.10100000352E+00 0.  1.
       -3    1    3    3    0  502 -0.15933537231E+03 -0.25521577638E+03 -0.81815429767E+03  0.87172204193E+03  0.10100000352E+00 0. -1.
</event>
<event>
 5   0  0.7065539E-04  0.1401759E+04  0.7818609E-02  0.8952546E-01
        2   -1    0    0  501    0  0.00000000000E+00  0.00000000000E+00  0.14871414569E+04  0.14871414569E+04  0.25500000920E-02 0.  1.
       -2   -1    0    0    0  501  0.00000000000E+00  0.00000000000E+00 -0.33031956404E+03  0.33031956405E+03  0.25500000920E-02 0. -1.
    10030    2    1    2    0    0  0.00000000000E+00  0.00000000000E+00  0.11568218929E+04  0.18174610210E+04  0.14017587777E+04 0.  0.
        1    1    3    3  502    0 -0.54562234712E+03  0.43881265760E+03  0.61882578412E+03  0.93445473152E+03  0.50400001928E-02 0.  1.
       -1    1    3    3    0  502  0.54562234712E+03 -0.43881265760E+03  0.53799610876E+03  0.88300628945E+03  0.50400001928E-02 0. -1.
</event>
<event>
 5   0  0.3907093E-04  0.1402904E+04  0.7818609E-02  0.8951719E-01
        1   -1    0    0  501    0  0.00000000000E+00  0.00000000000E+00  0.71395155365E+03  0.71395155367E+03  0.50400001928E-02 0.  1.
       -1   -1    0    0    0  501  0.00000000000E+00  0.00000000000E+00 -0.68917163273E+03  0.68917163275E+03  0.50400001928E-02 0. -1.
    10030    2    1    2    0    0  0.00000000000E+00  0.00000000000E+00  0.24779920922E+02  0.14031231864E+04  0.14029043559E+04 0.  0.
        4    1    3    3  502    0  0.22759652290E+03  0.77280925322E+02  0.67147759684E+03  0.71320144042E+03  0.12699999809E+01 0.  1.
       -4    1    3    3    0  502 -0.22759652290E+03 -0.77280925322E+02 -0.64669767592E+03  0.68992174600E+03  0.12699999809E+01 0. -1.
</event>
<event>
 5   0  0.7065539E-04  0.1397079E+04  0.7818609E-02  0.8955935E-01
       -2   -1    0    0    0  501  0.00000000000E+00  0.00000000000E+00  0.68628729185E+03  0.68628729185E+03  0.25500000920E-02 0. -1.
        2   -1    0    0  501    0  0.00000000000E+00  0.00000000000E+00 -0.71101074757E+03  0.71101074757E+03  0.25500000920E-02 0.  1.
    10030    2    1    2    0    0  0.00000000000E+00  0.00000000000E+00 -0.24723455716E+02  0.13972980394E+04  0.13970792969E+04 0.  0.
        1    1    3    3  502    0  0.75554709002E+02  0.33903508372E+03  0.59378954536E+03  0.68792392475E+03  0.50400001928E-02 0. -1.
       -1    1    3    3    0  502 -0.75554709002E+02 -0.33903508372E+03 -0.61851300107E+03  0.70937411467E+03  0.50400001928E-02 0.  1.
</event>
<event>
 5   0  0.7065539E-04  0.1371443E+04  0.7818609E-02  0.8974753E-01
       -2   -1    0    0    0  501  0.00000000000E+00  0.00000000000E+00  0.68736708662E+03  0.68736708662E+03  0.25500000920E-02 0. -1.
        2   -1    0    0  501    0  0.00000000000E+00  0.00000000000E+00 -0.68407944336E+03  0.68407944336E+03  0.25500000920E-02 0.  1.
    10030    2    1    2    0    0  0.00000000000E+00  0.00000000000E+00  0.32876432613E+01  0.13714465300E+04  0.13714425894E+04 0.  0.
        1    1    3    3  502    0  0.52939307626E+01 -0.68567108257E+03 -0.47464078549E+01  0.68570794628E+03  0.50400001928E-02 0.  1.
       -1    1    3    3    0  502 -0.52939307626E+01  0.68567108257E+03  0.80340511162E+01  0.68573858370E+03  0.50400001928E-02 0. -1.
</event>
<event>
 5   0  0.3756664E-04  0.1393594E+04  0.7818609E-02  0.8958469E-01
        1   -1    0    0  501    0  0.00000000000E+00  0.00000000000E+00  0.64546510101E+03  0.64546510103E+03  0.50400001928E-02 0.  1.
       -1   -1    0    0    0  501  0.00000000000E+00  0.00000000000E+00 -0.75221116658E+03  0.75221116660E+03  0.50400001928E-02 0. -1.
    10030    2    1    2    0    0  0.00000000000E+00  0.00000000000E+00 -0.10674606557E+03  0.13976762676E+04  0.13935939963E+04 0.  0.
        2    1    3    3  502    0  0.51502086980E+03  0.12949124267E+03 -0.50581708724E+03  0.73339307606E+03  0.25500000920E-02 0.  1.
       -2    1    3    3    0  502 -0.51502086980E+03 -0.12949124267E+03  0.39907102167E+03  0.66428319157E+03  0.25500000920E-02 0. -1.
</event>
<event>
 5   0  0.7065539E-04  0.1484074E+04  0.7818609E-02  0.8895113E-01
        2   -1    0    0  501    0  0.00000000000E+00  0.00000000000E+00  0.13728027393E+04  0.13728027393E+04  0.25500000920E-02 0. -1.
       -2   -1    0    0    0  501  0.00000000000E+00  0.00000000000E+00 -0.40109085783E+03  0.40109085783E+03  0.25500000920E-02 0.  1.
    10030    2    1    2    0    0  0.00000000000E+00  0.00000000000E+00  0.97171188147E+03  0.17738935971E+04  0.14840736213E+04 0.  0.
        1    1    3    3  502    0 -0.67167513375E+03 -0.17496470339E+03  0.17220190103E+03  0.71513189515E+03  0.50400001928E-02 0. -1.
       -1    1    3    3    0  502  0.67167513375E+03  0.17496470339E+03  0.79950998044E+03  0.10587617020E+04  0.50400001928E-02 0.  1.
</event>
<event>
 5   0  0.3907093E-04  0.1400372E+04  0.7818609E-02  0.8953549E-01
        1   -1    0    0  501    0  0.00000000000E+00  0.00000000000E+00  0.11483503038E+04  0.11483503038E+04  0.50400001928E-02 0.  1.
       -1   -1    0    0    0  501  0.00000000000E+00  0.00000000000E+00 -0.42692604427E+03  0.42692604430E+03  0.50400001928E-02 0. -1.
    10030    2    1    2    0    0  0.00000000000E+00  0.00000000000E+00  0.72142425950E+03  0.15752763481E+04  0.14003723114E+04 0.  0.
        4    1    3    3  502    0  0.24893578008E+02 -0.26257123223E+03 -0.36890878126E+03  0.45349602425E+03  0.12699999809E+01 0. -1.
       -4    1    3    3    0  502 -0.24893578008E+02  0.26257123223E+03  0.10903330408E+04  0.11217803238E+04  0.12699999809E+01 0.  1.
</event>
<event>
 5   0  0.2660250E-04  0.1320288E+04  0.7818609E-02  0.9013630E-01
       -4   -1    0    0    0  501  0.00000000000E+00  0.00000000000E+00  0.58333637883E+03  0.58333776131E+03  0.12699999809E+01 0.  1.
        4   -1    0    0  501    0  0.00000000000E+00  0.00000000000E+00 -0.74706179634E+03  0.74706287584E+03  0.12699999809E+01 0. -1.
    10030    2    1    2    0    0  0.00000000000E+00  0.00000000000E+00 -0.16372541751E+03  0.13304006371E+04  0.13202877879E+04 0.  0.
        5    1    3    3  502    0  0.21954607696E+03  0.37670148265E+03 -0.58130354918E+03  0.72666387913E+03  0.46999998093E+01 0. -1.
       -5    1    3    3    0  502 -0.21954607696E+03 -0.37670148265E+03  0.41757813167E+03  0.60373675802E+03  0.46999998093E+01 0.  1.
</event>
<event>
 5   0  0.3907093E-04  0.1403592E+04  0.7818609E-02  0.8951223E-01
       -1   -1    0    0    0  501  0.00000000000E+00  0.00000000000E+00  0.52985707764E+03  0.52985707766E+03  0.50400001928E-02 0. -1.
        1   -1    0    0  501    0  0.00000000000E+00  0.00000000000E+00 -0.92952923907E+03  0.92952923908E+03  0.50400001928E-02 0.  1.
    10030    2    1    2    0    0  0.00000000000E+00  0.00000000000E+00 -0.39967216143E+03  0.14593863167E+04  0.14035920294E+04 0.  0.
        4    1    3    3  502    0 -0.17571533309E+03  0.56674685039E+03 -0.58948362733E+03  0.83640327026E+03  0.12699999809E+01 0.  1.
       -4    1    3    3    0  502  0.17571533309E+03 -0.56674685039E+03  0.18981146590E+03  0.62298304648E+03  0.12699999809E+01 0. -1.
</event>
<event>
 5   0  0.7065539E-04  0.1401965E+04  0.7818609E-02  0.8952398E-01
        2   -1    0    0  501    0  0.00000000000E+00  0.00000000000E+00  0.43795479895E+03  0.43795479896E+03  0.25500000920E-02 0.  1.
       -2   -1    0    0    0  501  0.00000000000E+00  0.00000000000E+00 -0.11219793791E+04  0.11219793791E+04  0.25500000920E-02 0. -1.
    10030    2    1    2    0    0  0.00000000000E+00  0.00000000000E+00 -0.68402458013E+03  0.15599341780E+04  0.14019646977E+04 0.  0.
        1    1    3    3  502    0  0.55289242826E+03 -0.27721474221E+03 -0.70909157463E+03  0.94092981234E+03  0.50400001928E-02 0. -1.
       -1    1    3    3    0  502 -0.55289242826E+03  0.27721474221E+03  0.25066994493E+02  0.61900436570E+03  0.50400001928E-02 0.  1.
</event>
<event>
 5   0  0.3784219E-04  0.1401003E+04  0.7818609E-02  0.8953093E-01
       -1   -1    0    0    0  501  0.00000000000E+00  0.00000000000E+00  0.37495721009E+03  0.37495721013E+03  0.50400001928E-02 0. -1.
        1   -1    0    0  501    0  0.00000000000E+00  0.00000000000E+00 -0.13086889647E+04  0.13086889647E+04  0.50400001928E-02 0.  1.
    10030    2    1    2    0    0  0.00000000000E+00  0.00000000000E+00 -0.93373175462E+03  0.16836461748E+04  0.14010030166E+04 0.  0.
        1    1    3    3  502    0  0.58933173050E+02 -0.33547632840E+03  0.26873940636E+03  0.43386444238E+03  0.50400001928E-02 0. -1.
       -1    1    3    3    0  502 -0.58933173050E+02  0.33547632840E+03 -0.12024711610E+04  0.12497817325E+04  0.50400001928E-02 0.  1.
</event>
<event>
 5   0  0.3756664E-04  0.1404081E+04  0.7818609E-02  0.8950870E-01
       -1   -1    0    0    0  501  0.00000000000E+00  0.00000000000E+00  0.30663885470E+03  0.30663885474E+03  0.50400001928E-02 0. -1.
        1   -1    0    0  501    0  0.00000000000E+00  0.00000000000E+00 -0.16073013894E+04  0.16073013894E+04  0.50400001928E-02 0.  1.
    10030    2    1    2    0    0  0.00000000000E+00  0.00000000000E+00 -0.13006625347E+04  0.19139402442E+04  0.14040812758E+04 0.  0.
        2    1    3    3  502    0 -0.64150735212E+03  0.74437136336E+02 -0.27506653972E+03  0.70195026274E+03  0.25500000920E-02 0.  1.
       -2    1    3    3    0  502  0.64150735212E+03 -0.74437136336E+02 -0.10255959950E+04  0.12119899814E+04  0.25500000920E-02 0. -1.
</event>
<event>
 5   0  0.6870835E-04  0.1400571E+04  0.7818609E-02  0.8953405E-01
        2   -1    0    0  501    0  0.00000000000E+00  0.00000000000E+00  0.12079060836E+04  0.12079060836E+04  0.25500000920E-02 0. -1.
       -2   -1    0    0    0  501  0.00000000000E+00  0.00000000000E+00 -0.40599163741E+03  0.40599163742E+03  0.25500000920E-02 0.  1.
    10030    2    1    2    0    0  0.00000000000E+00  0.00000000000E+00  0.80191444617E+03  0.16138977210E+04  0.14005709817E+04 0.  0.
        2    1    3    3  502    0  0.35058745516E+03  0.54791111177E+03  0.10206191368E+03  0.65843358386E+03  0.25500000920E-02 0.  1.
       -2    1    3    3    0  502 -0.35058745516E+03 -0.54791111177E+03  0.69985253249E+03  0.95546413714E+03  0.25500000920E-02 0. -1.
</event>
<event>
 5   0  0.6870835E-04  0.1389602E+04  0.7818609E-02  0.8961380E-01
       -2   -1    0    0    0  501  0.00000000000E+00  0.00000000000E+00  0.37603604274E+03  0.37603604275E+03  0.25500000920E-02 0.  1.
        2   -1    0    0  501    0  0.00000000000E+00  0.00000000000E+00 -0.12837823512E+04  0.12837823512E+04  0.25500000920E-02 0. -1.
    10030    2    1    2    0    0  0.00000000000E+00  0.00000000000E+00 -0.90774630842E+03  0.16598183939E+04  0.13896020079E+04 0.  0.
        2    1    3    3  502    0 -0.45198285954E+03  0.22230113948E+03  0.11777371592E+03  0.51727840676E+03  0.25500000920E-02 0.  1.
       -2    1    3    3    0  502  0.45198285954E+03 -0.22230113948E+03 -0.10255200243E+04  0.11425399872E+04  0.25500000920E-02 0. -1.
</event>
<event>
 5   0  0.6959748E-04  0.1402621E+04  0.7818609E-02  0.8951923E-01
        2   -1    0    0  501    0  0.00000000000E+00  0.00000000000E+00  0.34285557930E+03  0.34285557931E+03  0.25500000920E-02 0. -1.
       -2   -1    0    0    0  501  0.00000000000E+00  0.00000000000E+00 -0.14345295664E+04  0.14345295664E+04  0.25500000920E-02 0.  1.
    10030    2    1    2    0    0  0.00000000000E+00  0.00000000000E+00 -0.10916739871E+04  0.17773851457E+04  0.14026210686E+04 0.  0.
        5    1    3    3  502    0 -0.61714830751E+03 -0.10290995375E+03 -0.94726156479E+03  0.11352484548E+04  0.46999998093E+01 0.  1.
       -5    1    3    3    0  502  0.61714830751E+03  0.10290995375E+03 -0.14441242227E+03  0.64213669086E+03  0.46999998093E+01 0. -1.
</event>
<event>
 5   0  0.7065539E-04  0.1407853E+04  0.7818609E-02  0.8948154E-01
        2   -1    0    0  501    0  0.00000000000E+00  0.00000000000E+00  0.16669786386E+04  0.16669786386E+04  0.25500000920E-02 0.  1.
       -2   -1    0    0    0  501  0.00000000000E+00  0.00000000000E+00 -0.29725198046E+03  0.29725198047E+03  0.25500000920E-02 0. -1.
    10030    2    1    2    0    0  0.00000000000E+00  0.00000000000E+00  0.13697266581E+04  0.19642306191E+04  0.14078532618E+04 0.  0.
        1    1    3    3  502    0  0.21218113207E+03 -0.32261937404E+03  0.15060264246E+04  0.15547410347E+04  0.50400001928E-02 0.  1.
       -1    1    3    3    0  502 -0.21218113207E+03  0.32261937404E+03 -0.13629976650E+03  0.40948958434E+03  0.50400001928E-02 0. -1.
</event>
<event>
 5   0  0.3907270E-04  0.1414865E+04  0.7818609E-02  0.8943128E-01
       -1   -1    0    0    0  501  0.00000000000E+00  0.00000000000E+00  0.56774395489E+03  0.56774395492E+03  0.50400001928E-02 0.  1.
        1   -1    0    0  501    0  0.00000000000E+00  0.00000000000E+00 -0.88149080862E+03  0.88149080863E+03  0.50400001928E-02 0. -1.
    10030    2    1    2    0    0  0.00000000000E+00  0.00000000000E+00 -0.31374685372E+03  0.14492347635E+04  0.14148654748E+04 0.  0.
        3    1    3    3  502    0  0.18911685424E+03 -0.51841337263E+02 -0.85309665814E+03  0.87534371942E+03  0.10100000352E+00 0. -1.
       -3    1    3    3    0  502 -0.18911685424E+03  0.51841337263E+02  0.53934980441E+03  0.57389104413E+03  0.10100000352E+00 0.  1.
</event>
<event>
 5   0  0.6895048E-04  0.1397126E+04  0.7818609E-02  0.8955902E-01
        2   -1    0    0  501    0  0.00000000000E+00  0.00000000000E+00  0.58194513976E+03  0.58194513977E+03  0.25500000920E-02 0.  1.
       -2   -1    0    0    0  501  0.00000000000E+00  0.00000000000E+00 -0.83855015676E+03  0.83855015676E+03  0.25500000920E-02 0. -1.
    10030    2    1    2    0    0  0.00000000000E+00  0.00000000000E+00 -0.25660501700E+03  0.14204952965E+04  0.13971258901E+04 0.  0.
        4    1    3    3  502    0  0.45496258595E+02  0.66745592254E+03  0.76110800197E+02  0.67332145732E+03  0.12699999809E+01 0.  1.
       -4    1    3    3    0  502 -0.45496258595E+02 -0.66745592254E+03 -0.33271581719E+03  0.74717383921E+03  0.12699999809E+01 0. -1.
</event>
<event>
 5   0  0.6959748E-04  0.1394857E+04  0.7818609E-02  0.8957550E-01
       -2   -1    0    0    0  501  0.00000000000E+00  0.00000000000E+00  0.64601076665E+03  0.64601076666E+03  0.25500000920E-02 0.  1.
        2   -1    0    0  501    0  0.00000000000E+00  0.00000000000E+00 -0.75293855097E+03  0.75293855097E+03  0.25500000920E-02 0. -1.
    10030    2    1    2    0    0  0.00000000000E+00  0.00000000000E+00 -0.10692778431E+03  0.13989493176E+04  0.13948568537E+04 0.  0.
        5    1    3    3  502    0  0.26247777943E+03 -0.35009759493E+03 -0.59812390352E+03  0.74110539374E+03  0.46999998093E+01 0. -1.
       -5    1    3    3    0  502 -0.26247777943E+03  0.35009759493E+03  0.49119611921E+03  0.65784392389E+03  0.46999998093E+01 0.  1.
</event>
<event>
 5   0  0.7065539E-04  0.1363635E+04  0.7818609E-02  0.8980571E-01
        2   -1    0    0  501    0  0.00000000000E+00  0.00000000000E+00  0.11517503397E+04  0.11517503397E+04  0.25500000920E-02 0.  1.
       -2   -1    0    0    0  501  0.00000000000E+00  0.00000000000E+00 -0.40362472619E+03  0.40362472619E+03  0.25500000920E-02 0. -1.
    10030    2    1    2    0    0  0.00000000000E+00  0.00000000000E+00  0.74812561355E+03  0.15553750659E+04  0.13636347246E+04 0.  0.
        1    1    3    3  502    0  0.29001357187E+03  0.10538825640E+03 -0.31942450761E+03  0.44412450117E+03  0.50400001928E-02 0. -1.
       -1    1    3    3    0  502 -0.29001357187E+03 -0.10538825640E+03  0.10675501212E+04  0.11112505648E+04  0.50400001928E-02 0.  1.
</event>
<event>
 5   0  0.3784219E-04  0.1386518E+04  0.7818609E-02  0.8963635E-01
        1   -1    0    0  501    0  0.00000000000E+00  0.00000000000E+00  0.41427581491E+03  0.41427581494E+03  0.50400001928E-02 0. -1.
       -1   -1    0    0    0  501  0.00000000000E+00  0.00000000000E+00 -0.11601169171E+04  0.11601169171E+04  0.50400001928E-02 0.  1.
    10030    2    1    2    0    0  0.00000000000E+00  0.00000000000E+00 -0.74584110222E+03  0.15743927321E+04  0.13865184907E+04 0.  0.
        1    1    3    3  502    0  0.17525606055E+03  0.32613004525E+03 -0.10384565796E+04  0.11024824538E+04  0.50400001928E-02 0.  1.
       -1    1    3    3    0  502 -0.17525606055E+03 -0.32613004525E+03  0.29261547735E+03  0.47191027832E+03  0.50400001928E-02 0. -1.
</event>
<event>
 5   0  0.2660250E-04  0.1401379E+04  0.7818609E-02  0.8952821E-01
       -4   -1    0    0    0  501  0.00000000000E+00  0.00000000000E+00  0.82053629457E+03  0.82053727740E+03  0.12699999809E+01 0.  1.
        4   -1    0    0  501    0  0.00000000000E+00  0.00000000000E+00 -0.59834530713E+03  0.59834665493E+03  0.12699999809E+01 0. -1.
    10030    2    1    2    0    0  0.00000000000E+00  0.00000000000E+00  0.22219098744E+03  0.14188839323E+04  0.14013788847E+04 0.  0.
        1    1    3    3  502    0  0.19559347180E+03  0.47312518316E+03  0.59546592481E+03  0.78529224674E+03  0.50400001928E-02 0.  1.
       -1    1    3    3    0  502 -0.19559347180E+03 -0.47312518316E+03 -0.37327493738E+03  0.63359168559E+03  0.50400001928E-02 0. -1.
</event>
<event>
 5   0  0.3756664E-04  0.1406906E+04  0.7818609E-02  0.8948835E-01
       -1   -1    0    0    0  501  0.00000000000E+00  0.00000000000E+00  0.10052122141E+04  0.10052122141E+04  0.50400001928E-02 0. -1.
        1   -1    0    0  501    0  0.00000000000E+00  0.00000000000E+00 -0.49227991792E+03  0.49227991794E+03  0.50400001928E-02 0.  1.
    10030    2    1    2    0    0  0.00000000000E+00  0.00000000000E+00  0.51293229619E+03  0.14974921321E+04  0.14069055210E+04 0.  0.
        2    1    3    3  502    0  0.32852824623E+03  0.15701516704E+03 -0.38416866475E+03  0.52931099954E+03  0.25500000920E-02 0.  1.
       -2    1    3    3    0  502 -0.32852824623E+03 -0.15701516704E+03  0.89710096095E+03  0.96818113253E+03  0.25500000920E-02 0. -1.
</event>
<event>
 5   0  0.6870835E-04  0.1399315E+04  0.7818609E-02  0.8954314E-01
        2   -1    0    0  501    0  0.00000000000E+00  0.00000000000E+00  0.11836080837E+04  0.11836080837E+04  0.25500000920E-02 0. -1.
       -2   -1    0    0    0  501  0.00000000000E+00  0.00000000000E+00 -0.41358350761E+03  0.41358350761E+03  0.25500000920E-02 0.  1.
    10030    2    1    2    0    0  0.00000000000E+00  0.00000000000E+00  0.77002457607E+03  0.15971915913E+04  0.13993152367E+04 0.  0.
        2    1    3    3  502    0  0.30384089610E+03  0.21258709477E+03 -0.29218912332E+03  0.47210914712E+03  0.25500000920E-02 0.  1.
       -2    1    3    3    0  502 -0.30384089610E+03 -0.21258709477E+03  0.10622136994E+04  0.11250824442E+04  0.25500000920E-02 0. -1.
</event>
<event>
 5   0  0.6895048E-04  0.1403619E+04  0.7818609E-02  0.8951203E-01
        2   -1    0    0  501    0  0.00000000000E+00  0.00000000000E+00  0.23149925298E+04  0.23149925298E+04  0.25500000920E-02 0.  1.
       -2   -1    0    0    0  501  0.00000000000E+00  0.00000000000E+00 -0.21275933459E+03  0.21275933461E+03  0.25500000920E-02 0. -1.
    10030    2    1    2    0    0  0.00000000000E+00  0.00000000000E+00  0.21022331952E+04  0.25277518644E+04  0.14036185668E+04 0.  0.
        4    1    3    3  502    0 -0.11865403904E+02 -0.65252398676E+03  0.15158919005E+04  0.16504115269E+04  0.12699999809E+01 0.  1.
       -4    1    3    3    0  502  0.11865403904E+02  0.65252398676E+03  0.58634129469E+03  0.87734033754E+03  0.12699999809E+01 0. -1.
</event>
<event>
 5   0  0.6959748E-04  0.1392160E+04  0.7818609E-02  0.8959513E-01
        2   -1    0    0  501    0  0.00000000000E+00  0.00000000000E+00  0.16065544641E+04  0.16065544641E+04  0.25500000920E-02 0.  1.
       -2   -1    0    0    0  501  0.00000000000E+00  0.00000000000E+00 -0.30159404427E+03  0.30159404428E+03  0.25500000920E-02 0. -1.
    10030    2    1    2    0    0  0.00000000000E+00  0.00000000000E+00  0.13049604198E+04  0.19081485084E+04  0.13921598445E+04 0.  0.
        5    1    3    3  502    0 -0.46119535821E+03  0.56498821465E+01 -0.62058062047E+02  0.46540989747E+03  0.46999998093E+01 0. -1.
       -5    1    3    3    0  502  0.46119535821E+03 -0.56498821465E+01  0.13670184819E+04  0.14427386109E+04  0.46999998093E+01 0.  1.
</event>
<event>
 5   0  0.3907093E-04  0.1392726E+04  0.7818609E-02  0.8959100E-01
        1   -1    0    0  501    0  0.00000000000E+00  0.00000000000E+00  0.66685766690E+03  0.66685766692E+03  0.50400001928E-02 0. -1.
       -1   -1    0    0    0  501  0.00000000000E+00  0.00000000000E+00 -0.72717427313E+03  0.72717427315E+03  0.50400001928E-02 0.  1.
    10030    2    1    2    0    0  0.00000000000E+00  0.00000000000E+00 -0.60316606237E+02  0.13940319401E+04  0.13927264473E+04 0.  0.
        4    1    3    3  502    0 -0.16985088021E+03  0.28944706449E+03 -0.64088694512E+03  0.72344081580E+03  0.12699999809E+01 0.  1.
       -4    1    3    3    0  502  0.16985088021E+03 -0.28944706449E+03  0.58057033888E+03  0.67059112426E+03  0.12699999809E+01 0. -1.
</event>
<event>
 5   0  0.3907093E-04  0.1320234E+04  0.7818609E-02  0.9013672E-01
       -1   -1    0    0    0  501  0.00000000000E+00  0.00000000000E+00  0.25447901520E+03  0.25447901525E+03  0.50400001928E-02 0. -1.
        1   -1    0    0  501    0  0.00000000000E+00  0.00000000000E+00 -0.17123385407E+04  0.17123385407E+04  0.50400001928E-02 0.  1.
    10030    2    1    2    0    0  0.00000000000E+00  0.00000000000E+00 -0.14578595255E+04  0.19668175560E+04  0.13202336544E+04 0.  0.
        4    1    3    3  502    0  0.78310055826E+02  0.16413361192E+03  0.21642207215E+03  0.28268787314E+03  0.12699999809E+01 0. -1.
       -4    1    3    3    0  502 -0.78310055826E+02 -0.16413361192E+03 -0.16742815977E+04  0.16841296828E+04  0.12699999809E+01 0.  1.
</event>
<event>
 5   0  0.6870835E-04  0.1422362E+04  0.7818609E-02  0.8937789E-01
        2   -1    0    0  501    0  0.00000000000E+00  0.00000000000E+00  0.76265426010E+03  0.76265426010E+03  0.25500000920E-02 0.  1.
       -2   -1    0    0    0  501  0.00000000000E+00  0.00000000000E+00 -0.66318157152E+03  0.66318157153E+03  0.25500000920E-02 0. -1.
    10030    2    1    2    0    0  0.00000000000E+00  0.00000000000E+00  0.99472688578E+02  0.14258358316E+04  0.14223617694E+04 0.  0.
        2    1    3    3  502    0  0.60279243721E+03 -0.38074868068E+02 -0.32664019621E+03  0.68666020397E+03  0.25500000920E-02 0. -1.
       -2    1    3    3    0  502 -0.60279243721E+03  0.38074868068E+02  0.42611288479E+03  0.73917562766E+03  0.25500000920E-02 0.  1.
</event>
<event>
 5   0  0.7065539E-04  0.1397303E+04  0.7818609E-02  0.8955773E-01
        2   -1    0    0  501    0  0.00000000000E+00  0.00000000000E+00  0.72646924233E+03  0.72646924233E+03  0.25500000920E-02 0.  1.
       -2   -1    0    0    0  501  0.00000000000E+00  0.00000000000E+00 -0.67189858804E+03  0.67189858805E+03  0.25500000920E-02 0. -1.
    10030    2    1    2    0    0  0.00000000000E+00  0.00000000000E+00  0.54570654285E+02  0.13983678304E+04  0.13973026275E+04 0.  0.
        1    1    3    3  502    0 -0.66786584347E+03 -0.91873178434E+02  0.21080503543E+03  0.70634568646E+03  0.50400001928E-02 0.  1.
       -1    1    3    3    0  502  0.66786584347E+03  0.91873178434E+02 -0.15623438115E+03  0.69202214392E+03  0.50400001928E-02 0. -1.
</event>
<event>
 5   0  0.6895048E-04  0.1398740E+04  0.7818609E-02  0.8954731E-01
       -2   -1    0    0    0  501  0.00000000000E+00  0.00000000000E+00  0.72497782850E+03  0.72497782851E+03  0.25500000920E-02 0.  1.
        2   -1    0    0  501    0  0.00000000000E+00  0.00000000000E+00 -0.67466675905E+03  0.67466675906E+03  0.25500000920E-02 0. -1.
    10030    2    1    2    0    0  0.00000000000E+00  0.00000000000E+00  0.50311069449E+02  0.13996445876E+04  0.13987400644E+04 0.  0.
        4    1    3    3  502    0 -0.57846486431E+02 -0.98699664661E+02 -0.66523917527E+03  0.67500563925E+03  0.12699999809E+01 0. -1.
       -4    1    3    3    0  502  0.57846486431E+02  0.98699664661E+02  0.71555024472E+03  0.72463894832E+03  0.12699999809E+01 0.  1.
</event>
<event>
 5   0  0.3756664E-04  0.1485960E+04  0.7818609E-02  0.8893844E-01
       -1   -1    0    0    0  501  0.00000000000E+00  0.00000000000E+00  0.60493087809E+03  0.60493087811E+03  0.50400001928E-02 0. -1.
        1   -1    0    0  501    0  0.00000000000E+00  0.00000000000E+00 -0.91253256752E+03  0.91253256753E+03  0.50400001928E-02 0.  1.
    10030    2    1    2    0    0  0.00000000000E+00  0.00000000000E+00 -0.30760168943E+03  0.15174634456E+04  0.14859597940E+04 0.  0.
        2    1    3    3  502    0  0.70971309717E+02 -0.69868320065E+03 -0.40147939844E+03  0.80893809964E+03  0.25500000920E-02 0. -1.
       -2    1    3    3    0  502 -0.70971309717E+02  0.69868320065E+03  0.93877709003E+02  0.70852534600E+03  0.25500000920E-02 0.  1.
</event>
<event>
 5   0  0.6959748E-04  0.1361371E+04  0.7818609E-02  0.8982265E-01
        2   -1    0    0  501    0  0.00000000000E+00  0.00000000000E+00  0.41860600961E+03  0.41860600962E+03  0.25500000920E-02 0.  1.
       -2   -1    0    0    0  501  0.00000000000E+00  0.00000000000E+00 -0.11068463264E+04  0.11068463264E+04  0.25500000920E-02 0. -1.
    10030    2    1    2    0    0  0.00000000000E+00  0.00000000000E+00 -0.68824031682E+03  0.15254523361E+04  0.13613706681E+04 0.  0.
        5    1    3    3  502    0  0.28251613029E+03  0.50985164617E+03  0.49735642398E+02  0.58502973352E+03  0.46999998093E+01 0.  1.
       -5    1    3    3    0  502 -0.28251613029E+03 -0.50985164617E+03 -0.73797595922E+03  0.94042260253E+03  0.46999998093E+01 0. -1.
</event>
<event>
 5   0  0.3907093E-04  0.1401648E+04  0.7818609E-02  0.8952626E-01
        1   -1    0    0  501    0  0.00000000000E+00  0.00000000000E+00  0.10507484643E+04  0.10507484643E+04  0.50400001928E-02 0. -1.
       -1   -1    0    0    0  501  0.00000000000E+00  0.00000000000E+00 -0.46743307293E+03  0.46743307296E+03  0.50400001928E-02 0.  1.
    10030    2    1    2    0    0  0.00000000000E+00  0.00000000000E+00  0.58331539132E+03  0.15181815372E+04  0.14016484346E+04 0.  0.
        4    1    3    3  502    0  0.49651289630E+03 -0.38718632758E+03 -0.41686745040E+02  0.63101323763E+03  0.12699999809E+01 0.  1.
       -4    1    3    3    0  502 -0.49651289630E+03  0.38718632758E+03  0.62500213636E+03  0.88716829960E+03  0.12699999809E+01 0. -1.
</event>
<event>
 5   0  0.3784219E-04  0.1400855E+04  0.7818609E-02  0.8953200E-01
        1   -1    0    0  501    0  0.00000000000E+00  0.00000000000E+00  0.62111061800E+03  0.62111061802E+03  0.50400001928E-02 0. -1.
       -1   -1    0    0    0  501  0.00000000000E+00  0.00000000000E+00 -0.78987310783E+03  0.78987310785E+03  0.50400001928E-02 0.  1.
    10030    2    1    2    0    0  0.00000000000E+00  0.00000000000E+00 -0.16876248984E+03  0.14109837259E+04  0.14008548450E+04 0.  0.
        1    1    3    3  502    0 -0.43268649646E+03 -0.13159990578E+03  0.45433402213E+03  0.64105814331E+03  0.50400001928E-02 0. -1.
       -1    1    3    3    0  502  0.43268649646E+03  0.13159990578E+03 -0.62309651197E+03  0.76992558255E+03  0.50400001928E-02 0.  1.
</event>
<event>
 5   0  0.3784219E-04  0.1399282E+04  0.7818609E-02  0.8954338E-01
        1   -1    0    0  501    0  0.00000000000E+00  0.00000000000E+00  0.59341458178E+03  0.59341458181E+03  0.50400001928E-02 0. -1.
       -1   -1    0    0    0  501  0.00000000000E+00  0.00000000000E+00 -0.82488330404E+03  0.82488330406E+03  0.50400001928E-02 0.  1.
    10030    2    1    2    0    0  0.00000000000E+00  0.00000000000E+00 -0.23146872226E+03  0.14182978859E+04  0.13992823602E+04 0.  0.
        1    1    3    3  502    0  0.69405472595E+03 -0.88000845738E+02 -0.12227726984E+03  0.71021675720E+03  0.50400001928E-02 0.  1.
       -1    1    3    3    0  502 -0.69405472595E+03  0.88000845738E+02 -0.10919145242E+03  0.70808112866E+03  0.50400001928E-02 0. -1.
</event>
<event>
 5   0  0.3756664E-04  0.1398435E+04  0.7818609E-02  0.8954952E-01
       -1   -1    0    0    0  501  0.00000000000E+00  0.00000000000E+00  0.45778823769E+03  0.45778823772E+03  0.50400001928E-02 0.  1.
        1   -1    0    0  501    0  0.00000000000E+00  0.00000000000E+00 -0.10679720496E+04  0.10679720496E+04  0.50400001928E-02 0. -1.
    10030    2    1    2    0    0  0.00000000000E+00  0.00000000000E+00 -0.61018381189E+03  0.15257602873E+04  0.13984349002E+04 0.  0.
        2    1    3    3  502    0  0.20879304375E+03  0.54176127863E+03 -0.73018829108E+03  0.93288517974E+03  0.25500000920E-02 0. -1.
       -2    1    3    3    0  502 -0.20879304375E+03 -0.54176127863E+03  0.12000447919E+03  0.59287510757E+03  0.25500000920E-02 0.  1.
</event>
<event>
 5   0  0.3784219E-04  0.1398122E+04  0.7818609E-02  0.8955179E-01
       -1   -1    0    0    0  501  0.00000000000E+00  0.00000000000E+00  0.39782930571E+03  0.39782930574E+03  0.50400001928E-02 0. -1.
        1   -1    0    0  501    0  0.00000000000E+00  0.00000000000E+00 -0.12283822253E+04  0.12283822253E+04  0.50400001928E-02 0.  1.
    10030    2    1    2    0    0  0.00000000000E+00  0.00000000000E+00 -0.83055291959E+03  0.16262115311E+04  0.13981222377E+04 0.  0.
        1    1    3    3  502    0 -0.19761197650E+03 -0.21134385472E+03  0.32491347277E+03  0.43506951513E+03  0.50400001928E-02 0. -1.
       -1    1    3    3    0  502  0.19761197650E+03  0.21134385472E+03 -0.11554663924E+04  0.11911420159E+04  0.50400001928E-02 0.  1.
</event>
<event>
 5   0  0.7296966E-04  0.1380191E+04  0.7818609E-02  0.8968283E-01
        2   -1    0    0  501    0  0.00000000000E+00  0.00000000000E+00  0.83715807006E+03  0.83715807006E+03  0.25500000920E-02 0.  1.
       -2   -1    0    0    0  501  0.00000000000E+00  0.00000000000E+00 -0.56886729434E+03  0.56886729435E+03  0.25500000920E-02 0. -1.
    10030    2    1    2    0    0  0.00000000000E+00  0.00000000000E+00  0.26829077572E+03  0.14060253644E+04  0.13801910683E+04 0.  0.
        3    1    3    3  502    0 -0.39617934933E+03 -0.51485976519E+03  0.37129710097E+03  0.74826479407E+03  0.10100000352E+00 0. -1.
       -3    1    3    3    0  502  0.39617934933E+03  0.51485976519E+03 -0.10300632525E+03  0.65776057034E+03  0.10100000352E+00 0.  1.
</event>
<event>
 5   0  0.3907270E-04  0.1395205E+04  0.7818609E-02  0.8957296E-01
        1   -1    0    0  501    0  0.00000000000E+00  0.00000000000E+00  0.81567072807E+03  0.81567072808E+03  0.50400001928E-02 0. -1.
       -1   -1    0    0    0  501  0.00000000000E+00  0.00000000000E+00 -0.59662504217E+03  0.59662504219E+03  0.50400001928E-02 0.  1.
    10030    2    1    2    0    0  0.00000000000E+00  0.00000000000E+00  0.21904568590E+03  0.14122957703E+04  0.13952054796E+04 0.  0.
        3    1    3    3  502    0  0.25496310399E+03 -0.52233413183E+03 -0.28096200766E+03  0.64558406859E+03  0.10100000352E+00 0.  1.
       -3    1    3    3    0  502 -0.25496310399E+03  0.52233413183E+03  0.50000769356E+03  0.76671170168E+03  0.10100000352E+00 0. -1.
</event>
<event>
 5   0  0.6895048E-04  0.1400154E+04  0.7818609E-02  0.8953707E-01
       -2   -1    0    0    0  501  0.00000000000E+00  0.00000000000E+00  0.39345546788E+03  0.39345546789E+03  0.25500000920E-02 0.  1.
        2   -1    0    0  501    0  0.00000000000E+00  0.00000000000E+00 -0.12456492502E+04  0.12456492502E+04  0.25500000920E-02 0. -1.
    10030    2    1    2    0    0  0.00000000000E+00  0.00000000000E+00 -0.85219378235E+03  0.16391047181E+04  0.14001535753E+04 0.  0.
        4    1    3    3  502    0 -0.16190949233E+03 -0.55363001461E+03  0.38325042074E+02  0.57809281134E+03  0.12699999809E+01 0.  1.
       -4    1    3    3    0  502  0.16190949233E+03  0.55363001461E+03 -0.89051882443E+03  0.10610119068E+04  0.12699999809E+01 0. -1.
</event>
<event>
 5   0  0.7296966E-04  0.1393208E+04  0.7818609E-02  0.8958750E-01
        2   -1    0    0  501    0  0.00000000000E+00  0.00000000000E+00  0.91048268404E+03  0.91048268404E+03  0.25500000920E-02 0.  1.
       -2   -1    0    0    0  501  0.00000000000E+00  0.00000000000E+00 -0.53296668622E+03  0.53296668623E+03  0.25500000920E-02 0. -1.
    10030    2    1    2    0    0  0.00000000000E+00  0.00000000000E+00  0.37751599782E+03  0.14434493703E+04  0.13932077217E+04 0.  0.
        3    1    3    3  502    0  0.16483495988E+03  0.34255166263E+03  0.79354194182E+03  0.87989830617E+03  0.10100000352E+00 0.  1.
       -3    1    3    3    0  502 -0.16483495988E+03 -0.34255166263E+03 -0.41602594400E+03  0.56355106410E+03  0.10100000352E+00 0. -1.
</event>
<event>
 5   0  0.6870835E-04  0.1407688E+04  0.7818609E-02  0.8948273E-01
       -2   -1    0    0    0  501  0.00000000000E+00  0.00000000000E+00  0.89729487797E+03  0.89729487797E+03  0.25500000920E-02 0. -1.
        2   -1    0    0  501    0  0.00000000000E+00  0.00000000000E+00 -0.55209963766E+03  0.55209963766E+03  0.25500000920E-02 0.  1.
    10030    2    1    2    0    0  0.00000000000E+00  0.00000000000E+00  0.34519524031E+03  0.14493945156E+04  0.14076877168E+04 0.  0.
        2    1    3    3  502    0  0.62827405261E+03  0.10001902210E+03 -0.13742825272E+03  0.65085990399E+03  0.25500000920E-02 0.  1.
       -2    1    3    3    0  502 -0.62827405261E+03 -0.10001902210E+03  0.48262349304E+03  0.79853461165E+03  0.25500000920E-02 0. -1.
</event>
<event>
 5   0  0.3977658E-04  0.1424151E+04  0.7818609E-02  0.8936520E-01
       -1   -1    0    0    0  501  0.00000000000E+00  0.00000000000E+00  0.77450279094E+03  0.77450279096E+03  0.50400001928E-02 0.  1.
        1   -1    0    0  501    0  0.00000000000E+00  0.00000000000E+00 -0.65467962748E+03  0.65467962750E+03  0.50400001928E-02 0. -1.
    10030    2    1    2    0    0  0.00000000000E+00  0.00000000000E+00  0.11982316346E+03  0.14291824185E+04  0.14241505520E+04 0.  0.
        5    1    3    3  502    0  0.61183691491E+03 -0.14159541148E+03 -0.27688625080E+03  0.68635395888E+03  0.46999998093E+01 0. -1.
       -5    1    3    3    0  502 -0.61183691491E+03  0.14159541148E+03  0.39670941426E+03  0.74282845958E+03  0.46999998093E+01 0.  1.
</event>
<event>
 5   0  0.3784219E-04  0.1401655E+04  0.7818609E-02  0.8952621E-01
        1   -1    0    0  501    0  0.00000000000E+00  0.00000000000E+00  0.94840017596E+03  0.94840017597E+03  0.50400001928E-02 0. -1.
       -1   -1    0    0    0  501  0.00000000000E+00  0.00000000000E+00 -0.51788179008E+03  0.51788179010E+03  0.50400001928E-02 0.  1.
    10030    2    1    2    0    0  0.00000000000E+00  0.00000000000E+00  0.43051838588E+03  0.14662819661E+04  0.14016549944E+04 0.  0.
        1    1    3    3  502    0  0.12701192161E+03  0.85609627584E+02  0.93067608073E+03  0.94319616402E+03  0.50400001928E-02 0. -1.
       -1    1    3    3    0  502 -0.12701192161E+03 -0.85609627584E+02 -0.50015769485E+03  0.52308580205E+03  0.50400001928E-02 0.  1.
</event>
<event>
 5   0  0.6895048E-04  0.1402324E+04  0.7818609E-02  0.8952138E-01
       -2   -1    0    0    0  501  0.00000000000E+00  0.00000000000E+00  0.33427031676E+03  0.33427031677E+03  0.25500000920E-02 0.  1.
        2   -1    0    0  501    0  0.00000000000E+00  0.00000000000E+00 -0.14707512058E+04  0.14707512058E+04  0.25500000920E-02 0. -1.
    10030    2    1    2    0    0  0.00000000000E+00  0.00000000000E+00 -0.11364808890E+04  0.18050215225E+04  0.14023244581E+04 0.  0.
        4    1    3    3  502    0  0.37608697503E+03 -0.35302400589E+03 -0.11795545752E+04  0.12874074609E+04  0.12699999809E+01 0. -1.
       -4    1    3    3    0  502 -0.37608697503E+03  0.35302400589E+03  0.43073686167E+02  0.51761406169E+03  0.12699999809E+01 0.  1.
</event>
<event>
 5   0  0.6895048E-04  0.1406649E+04  0.7818609E-02  0.8949020E-01
       -2   -1    0    0    0  501  0.00000000000E+00  0.00000000000E+00  0.10752976246E+04  0.10752976246E+04  0.25500000920E-02 0.  1.
        2   -1    0    0  501    0  0.00000000000E+00  0.00000000000E+00 -0.46002643404E+03  0.46002643405E+03  0.25500000920E-02 0. -1.
    10030    2    1    2    0    0  0.00000000000E+00  0.00000000000E+00  0.61527119058E+03  0.15353240587E+04  0.14066489708E+04 0.  0.
        4    1    3    3  502    0  0.36790849272E+03 -0.18126570366E+03  0.93125917676E+03  0.10175751479E+04  0.12699999809E+01 0.  1.
       -4    1    3    3    0  502 -0.36790849272E+03  0.18126570366E+03 -0.31598798618E+03  0.51774891081E+03  0.12699999809E+01 0. -1.
</event>
<event>
 5   0  0.6959748E-04  0.1399264E+04  0.7818609E-02  0.8954352E-01
        2   -1    0    0  501    0  0.00000000000E+00  0.00000000000E+00  0.73273354234E+03  0.73273354234E+03  0.25500000920E-02 0. -1.
       -2   -1    0    0    0  501  0.00000000000E+00  0.00000000000E+00 -0.66802574184E+03  0.66802574184E+03  0.25500000920E-02 0.  1.
    10030    2    1    2    0    0  0.00000000000E+00  0.00000000000E+00  0.64707800500E+02  0.14007592842E+04  0.13992639039E+04 0.  0.
        5    1    3    3  502    0 -0.66041901211E+02  0.21210113952E+03 -0.63176622966E+03  0.66970074290E+03  0.46999998093E+01 0.  1.
       -5    1    3    3    0  502  0.66041901211E+02 -0.21210113952E+03  0.69647403016E+03  0.73105854128E+03  0.46999998093E+01 0. -1.
</event>
<event>
 5   0  0.7296966E-04  0.1400302E+04  0.7818609E-02  0.8953600E-01
       -2   -1    0    0    0  501  0.00000000000E+00  0.00000000000E+00  0.49979988810E+03  0.49979988811E+03  0.25500000920E-02 0.  1.
        2   -1    0    0  501    0  0.00000000000E+00  0.00000000000E+00 -0.98081595984E+03  0.98081595985E+03  0.25500000920E-02 0. -1.
    10030    2    1    2    0    0  0.00000000000E+00  0.00000000000E+00 -0.48101607174E+03  0.14806158480E+04  0.14003024059E+04 0.  0.
        3    1    3    3  502    0 -0.99929843913E+02 -0.22332862608E+02  0.49184017418E+03  0.50238580553E+03  0.10100000352E+00 0.  1.
       -3    1    3    3    0  502  0.99929843913E+02  0.22332862608E+02 -0.97285624593E+03  0.97823004242E+03  0.10100000352E+00 0. -1.
</event>
<event>
 5   0  0.6895048E-04  0.1399461E+04  0.7818609E-02  0.8954208E-01
        2   -1    0    0  501    0  0.00000000000E+00  0.00000000000E+00  0.68649239238E+03  0.68649239238E+03  0.25500000920E-02 0.  1.
       -2   -1    0    0    0  501  0.00000000000E+00  0.00000000000E+00 -0.71322438840E+03  0.71322438841E+03  0.25500000920E-02 0. -1.
    10030    2    1    2    0    0  0.00000000000E+00  0.00000000000E+00 -0.26731996027E+02  0.13997167808E+04  0.13994614917E+04 0.  0.
        4    1    3    3  502    0 -0.30021736158E+03 -0.34215461837E+03  0.51816415581E+03  0.68970714969E+03  0.12699999809E+01 0.  1.
       -4    1    3    3    0  502  0.30021736158E+03  0.34215461837E+03 -0.54489615184E+03  0.71000963110E+03  0.12699999809E+01 0. -1.
</event>
<event>
 5   0  0.3977658E-04  0.1413809E+04  0.7818609E-02  0.8943883E-01
        1   -1    0    0  501    0  0.00000000000E+00  0.00000000000E+00  0.12900576943E+04  0.12900576943E+04  0.50400001928E-02 0.  1.
       -1   -1    0    0    0  501  0.00000000000E+00  0.00000000000E+00 -0.38735773881E+03  0.38735773885E+03  0.50400001928E-02 0. -1.
    10030    2    1    2    0    0  0.00000000000E+00  0.00000000000E+00  0.90269995544E+03  0.16774154331E+04  0.14138088010E+04 0.  0.
        5    1    3    3  502    0 -0.46709155125E+03  0.43675159610E+03  0.80879544938E+03  0.10310667500E+04  0.46999998093E+01 0.  1.
       -5    1    3    3    0  502  0.46709155125E+03 -0.43675159610E+03  0.93904506055E+02  0.64634868314E+03  0.46999998093E+01 0. -1.
</event>
<event>
 5   0  0.3756664E-04  0.1393655E+04  0.7818609E-02  0.8958424E-01
       -1   -1    0    0    0  501  0.00000000000E+00  0.00000000000E+00  0.31425149725E+03  0.31425149729E+03  0.50400001928E-02 0.  1.
        1   -1    0    0  501    0  0.00000000000E+00  0.00000000000E+00 -0.15451588417E+04  0.15451588417E+04  0.50400001928E-02 0. -1.
    10030    2    1    2    0    0  0.00000000000E+00  0.00000000000E+00 -0.12309073444E+04  0.18594103390E+04  0.13936548777E+04 0.  0.
        2    1    3    3  502    0 -0.31607863947E+03  0.56236263204E+03 -0.96696092337E+03  0.11623987541E+04  0.25500000920E-02 0.  1.
       -2    1    3    3    0  502  0.31607863947E+03 -0.56236263204E+03 -0.26394642107E+03  0.69701158487E+03  0.25500000920E-02 0. -1.
</event>
<event>
 5   0  0.2660250E-04  0.1407201E+04  0.7818609E-02  0.8948623E-01
        3   -1    0    0  501    0  0.00000000000E+00  0.00000000000E+00  0.15710740516E+04  0.15710740548E+04  0.10100000352E+00 0. -1.
       -3   -1    0    0    0  501  0.00000000000E+00  0.00000000000E+00 -0.31510519438E+03  0.31510521056E+03  0.10100000352E+00 0.  1.
    10030    2    1    2    0    0  0.00000000000E+00  0.00000000000E+00  0.12559688572E+04  0.18861792654E+04  0.14072009277E+04 0.  0.
        5    1    3    3  502    0  0.95339172872E+02 -0.42288383697E+03  0.13707892243E+04  0.14377084145E+04  0.46999998093E+01 0. -1.
       -5    1    3    3    0  502 -0.95339172872E+02  0.42288383697E+03 -0.11482036711E+03  0.44847085096E+03  0.46999998093E+01 0.  1.
</event>
<event>
 5   0  0.6895048E-04  0.1408035E+04  0.7818609E-02  0.8948023E-01
        2   -1    0    0  501    0  0.00000000000E+00  0.00000000000E+00  0.73811950091E+03  0.73811950091E+03  0.25500000920E-02 0. -1.
       -2   -1    0    0    0  501  0.00000000000E+00  0.00000000000E+00 -0.67149127115E+03  0.67149127115E+03  0.25500000920E-02 0.  1.
    10030    2    1    2    0    0  0.00000000000E+00  0.00000000000E+00  0.66628229760E+02  0.14096107721E+04  0.14080352296E+04 0.  0.
        4    1    3    3  502    0 -0.53225687079E+03 -0.25173306273E+03 -0.35308704168E+03  0.68654131942E+03  0.12699999809E+01 0.  1.
       -4    1    3    3    0  502  0.53225687079E+03  0.25173306273E+03  0.41971527144E+03  0.72306945265E+03  0.12699999809E+01 0. -1.
</event>
<event>
 5   0  0.7296966E-04  0.1389274E+04  0.7818609E-02  0.8961619E-01
       -2   -1    0    0    0  501  0.00000000000E+00  0.00000000000E+00  0.31334341161E+03  0.31334341162E+03  0.25500000920E-02 0. -1.
        2   -1    0    0  501    0  0.00000000000E+00  0.00000000000E+00 -0.15399098427E+04  0.15399098427E+04  0.25500000920E-02 0.  1.
    10030    2    1    2    0    0  0.00000000000E+00  0.00000000000E+00 -0.12265664311E+04  0.18532532544E+04  0.13892740604E+04 0.  0.
        3    1    3    3  502    0 -0.72493135343E+02  0.12195152001E+03 -0.15203777448E+04  0.15269826211E+04  0.10100000352E+00 0.  1.
       -3    1    3    3    0  502  0.72493135343E+02 -0.12195152001E+03  0.29381131368E+03  0.32627063330E+03  0.10100000352E+00 0. -1.
</event>
<event>
 5   0  0.3977658E-04  0.1390860E+04  0.7818609E-02  0.8960462E-01
        1   -1    0    0  501    0  0.00000000000E+00  0.00000000000E+00  0.39024896268E+03  0.39024896271E+03  0.50400001928E-02 0.  1.
       -1   -1    0    0    0  501  0.00000000000E+00  0.00000000000E+00 -0.12392668466E+04  0.12392668466E+04  0.50400001928E-02 0. -1.
    10030    2    1    2    0    0  0.00000000000E+00  0.00000000000E+00 -0.84901788393E+03  0.16295158093E+04  0.13908595923E+04 0.  0.
        5    1    3    3  502    0  0.12136598413E+03 -0.14186184111E+03  0.36032106010E+03  0.40584213731E+03  0.46999998093E+01 0.  1.
       -5    1    3    3    0  502 -0.12136598413E+03  0.14186184111E+03 -0.12093389440E+04  0.12236736720E+04  0.46999998093E+01 0. -1.
</event>
<event>
 5   0  0.6870835E-04  0.1396334E+04  0.7818609E-02  0.8956476E-01
       -2   -1    0    0    0  501  0.00000000000E+00  0.00000000000E+00  0.93175868021E+03  0.93175868021E+03  0.25500000920E-02 0. -1.
        2   -1    0    0  501    0  0.00000000000E+00  0.00000000000E+00 -0.52313675646E+03  0.52313675647E+03  0.25500000920E-02 0.  1.
    10030    2    1    2    0    0  0.00000000000E+00  0.00000000000E+00  0.40862192375E+03  0.14548954367E+04  0.13963340772E+04 0.  0.
        2    1    3    3  502    0  0.45108639842E+02  0.52840979583E+01 -0.52159593721E+03  0.52356951095E+03  0.25500000920E-02 0.  1.
       -2    1    3    3    0  502 -0.45108639842E+02 -0.52840979583E+01  0.93021786096E+03  0.93132592572E+03  0.25500000920E-02 0. -1.
</event>
<event>
 5   0  0.6895048E-04  0.1403644E+04  0.7818609E-02  0.8951185E-01
        2   -1    0    0  501    0  0.00000000000E+00  0.00000000000E+00  0.24154881918E+04  0.24154881918E+04  0.25500000920E-02 0.  1.
       -2   -1    0    0    0  501  0.00000000000E+00  0.00000000000E+00 -0.20391479601E+03  0.20391479603E+03  0.25500000920E-02 0. -1.
    10030    2    1    2    0    0  0.00000000000E+00  0.00000000000E+00  0.22115733958E+04  0.26194029879E+04  0.14036435187E+04 0.  0.
        4    1    3    3  502    0  0.35052791587E+03  0.57637040295E+03  0.14670654611E+04  0.16147307334E+04  0.12699999809E+01 0.  1.
       -4    1    3    3    0  502 -0.35052791587E+03 -0.57637040295E+03  0.74450793472E+03  0.10046722545E+04  0.12699999809E+01 0. -1.
</event>
<event>
 5   0  0.3784219E-04  0.1387791E+04  0.7818609E-02  0.8962704E-01
       -1   -1    0    0    0  501  0.00000000000E+00  0.00000000000E+00  0.80522848475E+03  0.80522848477E+03  0.50400001928E-02 0. -1.
        1   -1    0    0  501    0  0.00000000000E+00  0.00000000000E+00 -0.59795574577E+03  0.59795574580E+03  0.50400001928E-02 0.  1.
    10030    2    1    2    0    0  0.00000000000E+00  0.00000000000E+00  0.20727273898E+03  0.14031842306E+04  0.13877910493E+04 0.  0.
        1    1    3    3  502    0  0.11293318626E+03 -0.14508170570E+03 -0.57288034441E+03  0.60165978337E+03  0.50400001928E-02 0.  1.
       -1    1    3    3    0  502 -0.11293318626E+03  0.14508170570E+03  0.78015308339E+03  0.80152444719E+03  0.50400001928E-02 0. -1.
</event>
<event>
 5   0  0.6870835E-04  0.1398023E+04  0.7818609E-02  0.8955251E-01
       -2   -1    0    0    0  501  0.00000000000E+00  0.00000000000E+00  0.32127027981E+03  0.32127027982E+03  0.25500000920E-02 0. -1.
        2   -1    0    0  501    0  0.00000000000E+00  0.00000000000E+00 -0.15208907008E+04  0.15208907008E+04  0.25500000920E-02 0.  1.
    10030    2    1    2    0    0  0.00000000000E+00  0.00000000000E+00 -0.11996204210E+04  0.18421609807E+04  0.13980228625E+04 0.  0.
        2    1    3    3  502    0 -0.61518371132E+02 -0.34052360532E+03 -0.14001116368E+04  0.14422390341E+04  0.25500000920E-02 0.  1.
       -2    1    3    3    0  502  0.61518371132E+02  0.34052360532E+03  0.20049121579E+03  0.39992194662E+03  0.25500000920E-02 0. -1.
</event>
<event>
 5   0  0.3977658E-04  0.1445210E+04  0.7818609E-02  0.8921728E-01
        1   -1    0    0  501    0  0.00000000000E+00  0.00000000000E+00  0.13510636935E+04  0.13510636935E+04  0.50400001928E-02 0. -1.
       -1   -1    0    0    0  501  0.00000000000E+00  0.00000000000E+00 -0.38647905523E+03  0.38647905526E+03  0.50400001928E-02 0.  1.
    10030    2    1    2    0    0  0.00000000000E+00  0.00000000000E+00  0.96458463827E+03  0.17375427488E+04  0.14452097700E+04 0.  0.
        5    1    3    3  502    0 -0.60610095511E+03  0.29150893790E+03  0.16465464053E+03  0.69243705079E+03  0.46999998093E+01 0.  1.
       -5    1    3    3    0  502  0.60610095511E+03 -0.29150893790E+03  0.79992999774E+03  0.10451056980E+04  0.46999998093E+01 0. -1.
</event>
<event>
 5   0  0.2660250E-04  0.1391262E+04  0.7818609E-02  0.8960168E-01
        3   -1    0    0  501    0  0.00000000000E+00  0.00000000000E+00  0.19378344621E+04  0.19378344647E+04  0.10100000352E+00 0. -1.
       -3   -1    0    0    0  501  0.00000000000E+00  0.00000000000E+00 -0.24971303596E+03  0.24971305638E+03  0.10100000352E+00 0.  1.
    10030    2    1    2    0    0  0.00000000000E+00  0.00000000000E+00  0.16881214261E+04  0.21875475211E+04  0.13912620917E+04 0.  0.
        3    1    3    3  502    0 -0.67413862310E+03 -0.16672710506E+03  0.78035189548E+03  0.10446099280E+04  0.10100000352E+00 0.  1.
       -3    1    3    3    0  502  0.67413862310E+03  0.16672710506E+03  0.90776953065E+03  0.11429375931E+04  0.10100000352E+00 0. -1.
</event>
<event>
 5   0  0.3784219E-04  0.1412603E+04  0.7818609E-02  0.8944746E-01
        1   -1    0    0  501    0  0.00000000000E+00  0.00000000000E+00  0.10969252934E+04  0.10969252934E+04  0.50400001928E-02 0. -1.
       -1   -1    0    0    0  501  0.00000000000E+00  0.00000000000E+00 -0.45478193493E+03  0.45478193496E+03  0.50400001928E-02 0.  1.
    10030    2    1    2    0    0  0.00000000000E+00  0.00000000000E+00  0.64214335843E+03  0.15517072283E+04  0.14126029979E+04 0.  0.
        1    1    3    3  502    0 -0.68789540440E+03  0.13120406290E+03  0.22011236202E+03  0.73407359676E+03  0.50400001928E-02 0.  1.
       -1    1    3    3    0  502  0.68789540440E+03 -0.13120406290E+03  0.42203099641E+03  0.81763363157E+03  0.50400001928E-02 0. -1.
</event>
<event>
 5   0  0.6959748E-04  0.1396996E+04  0.7818609E-02  0.8955996E-01
        2   -1    0    0  501    0  0.00000000000E+00  0.00000000000E+00  0.45729974514E+03  0.45729974514E+03  0.25500000920E-02 0.  1.
       -2   -1    0    0    0  501  0.00000000000E+00  0.00000000000E+00 -0.10669135422E+04  0.10669135422E+04  0.25500000920E-02 0. -1.
    10030    2    1    2    0    0  0.00000000000E+00  0.00000000000E+00 -0.60961379705E+03  0.15242132873E+04  0.13969957637E+04 0.  0.
        5    1    3    3  502    0 -0.52896099259E+03  0.38257039912E+03 -0.57585996243E+03  0.87051515110E+03  0.46999998093E+01 0. -1.
       -5    1    3    3    0  502  0.52896099259E+03 -0.38257039912E+03 -0.33753834621E+02  0.65369813623E+03  0.46999998093E+01 0.  1.
</event>
<event>
 5   0  0.3977658E-04  0.1425536E+04  0.7818609E-02  0.8935539E-01
        1   -1    0    0  501    0  0.00000000000E+00  0.00000000000E+00  0.11803498948E+04  0.11803498949E+04  0.50400001928E-02 0.  1.
       -1   -1    0    0    0  501  0.00000000000E+00  0.00000000000E+00 -0.43041333570E+03  0.43041333573E+03  0.50400001928E-02 0. -1.
    10030    2    1    2    0    0  0.00000000000E+00  0.00000000000E+00  0.74993655915E+03  0.16107632306E+04  0.14255361596E+04 0.  0.
        5    1    3    3  502    0 -0.46841248081E+03  0.42014142336E+03 -0.33274480105E+01  0.62925529772E+03  0.46999998093E+01 0. -1.
       -5    1    3    3    0  502  0.46841248081E+03 -0.42014142336E+03  0.75326400716E+03  0.98150793287E+03  0.46999998093E+01 0.  1.
</event>
<event>
 5   0  0.7296966E-04  0.1355198E+04  0.7818609E-02  0.8986902E-01
       -2   -1    0    0    0  501  0.00000000000E+00  0.00000000000E+00  0.54989376911E+03  0.54989376911E+03  0.25500000920E-02 0. -1.
        2   -1    0    0  501    0  0.00000000000E+00  0.00000000000E+00 -0.83496256270E+03  0.83496256270E+03  0.25500000920E-02 0.  1.
    10030    2    1    2    0    0  0.00000000000E+00  0.00000000000E+00 -0.28506879359E+03  0.13848563318E+04  0.13551984514E+04 0.  0.
        3    1    3    3  502    0  0.57910451116E+03 -0.33215903995E+03 -0.26104233203E+03  0.71682269215E+03  0.10100000352E+00 0. -1.
       -3    1    3    3    0  502 -0.57910451116E+03  0.33215903995E+03 -0.24026461563E+02  0.66803363966E+03  0.10100000352E+00 0.  1.
</event>
<event>
 5   0  0.3784219E-04  0.1445789E+04  0.7818609E-02  0.8921325E-01
       -1   -1    0    0    0  501  0.00000000000E+00  0.00000000000E+00  0.26418832787E+03  0.26418832792E+03  0.50400001928E-02 0.  1.
        1   -1    0    0  501    0  0.00000000000E+00  0.00000000000E+00 -0.19780454567E+04  0.19780454567E+04  0.50400001928E-02 0. -1.
    10030    2    1    2    0    0  0.00000000000E+00  0.00000000000E+00 -0.17138571288E+04  0.22422337846E+04  0.14457890879E+04 0.  0.
        1    1    3    3  502    0 -0.98237323353E+02 -0.38888591375E+03  0.75780976188E+02  0.40819796911E+03  0.50400001928E-02 0.  1.
       -1    1    3    3    0  502  0.98237323353E+02  0.38888591375E+03 -0.17896381050E+04  0.18340358155E+04  0.50400001928E-02 0. -1.
</event>
<event>
 5   0  0.3907270E-04  0.1276401E+04  0.7818609E-02  0.9048491E-01
       -1   -1    0    0    0  501  0.00000000000E+00  0.00000000000E+00  0.20925451902E+03  0.20925451908E+03  0.50400001928E-02 0.  1.
        1   -1    0    0  501    0  0.00000000000E+00  0.00000000000E+00 -0.19464334508E+04  0.19464334508E+04  0.50400001928E-02 0. -1.
    10030    2    1    2    0    0  0.00000000000E+00  0.00000000000E+00 -0.17371789318E+04  0.21556879699E+04  0.12764011840E+04 0.  0.
        3    1    3    3  502    0  0.46117966692E+03  0.20339870757E+03 -0.15297211676E+04  0.16106224201E+04  0.10100000352E+00 0. -1.
       -3    1    3    3    0  502 -0.46117966692E+03 -0.20339870757E+03 -0.20745776419E+03  0.54506554977E+03  0.10100000352E+00 0.  1.
</event>
<event>
 5   0  0.7296966E-04  0.1406706E+04  0.7818609E-02  0.8948978E-01
        2   -1    0    0  501    0  0.00000000000E+00  0.00000000000E+00  0.66425575448E+03  0.66425575448E+03  0.25500000920E-02 0. -1.
       -2   -1    0    0    0  501  0.00000000000E+00  0.00000000000E+00 -0.74475177529E+03  0.74475177529E+03  0.25500000920E-02 0.  1.
    10030    2    1    2    0    0  0.00000000000E+00  0.00000000000E+00 -0.80496020808E+02  0.14090075298E+04  0.14067062983E+04 0.  0.
        3    1    3    3  502    0  0.59074830713E+03  0.64034551321E+02  0.33669415085E+03  0.68296921421E+03  0.10100000352E+00 0. -1.
       -3    1    3    3    0  502 -0.59074830713E+03 -0.64034551321E+02 -0.41719017166E+03  0.72603831557E+03  0.10100000352E+00 0.  1.
</event>
<event>
 5   0  0.6959748E-04  0.1358692E+04  0.7818609E-02  0.8984275E-01
       -2   -1    0    0    0  501  0.00000000000E+00  0.00000000000E+00  0.46780234221E+03  0.46780234221E+03  0.25500000920E-02 0.  1.
        2   -1    0    0  501    0  0.00000000000E+00  0.00000000000E+00 -0.98655093341E+03  0.98655093341E+03  0.25500000920E-02 0. -1.
    10030    2    1    2    0    0  0.00000000000E+00  0.00000000000E+00 -0.51874859120E+03  0.14543532756E+04  0.13586917787E+04 0.  0.
        5    1    3    3  502    0  0.30438378797E+03  0.20250954252E+03  0.35350188737E+03  0.50857180374E+03  0.46999998093E+01 0.  1.
       -5    1    3    3    0  502 -0.30438378797E+03 -0.20250954252E+03 -0.87225047857E+03  0.94578147188E+03  0.46999998093E+01 0. -1.
</event>
<event>
 5   0  0.6959748E-04  0.1416120E+04  0.7818609E-02  0.8942232E-01
        2   -1    0    0  501    0  0.00000000000E+00  0.00000000000E+00  0.58800031691E+03  0.58800031692E+03  0.25500000920E-02 0.  1.
       -2   -1    0    0    0  501  0.00000000000E+00  0.00000000000E+00 -0.85263351650E+03  0.85263351650E+03  0.25500000920E-02 0. -1.
    10030    2    1    2    0    0  0.00000000000E+00  0.00000000000E+00 -0.26463319958E+03  0.14406338334E+04  0.14161197378E+04 0.  0.
        5    1    3    3  502    0  0.73007949359E+02 -0.20207105735E+03  0.55402053674E+03  0.59424213753E+03  0.46999998093E+01 0.  1.
       -5    1    3    3    0  502 -0.73007949359E+02  0.20207105735E+03 -0.81865373632E+03  0.84639169589E+03  0.46999998093E+01 0. -1.
</event>
<event>
 5   0  0.3907093E-04  0.1379764E+04  0.7818609E-02  0.8968598E-01
       -1   -1    0    0    0  501  0.00000000000E+00  0.00000000000E+00  0.40509643761E+03  0.40509643765E+03  0.50400001928E-02 0.  1.
        1   -1    0    0  501    0  0.00000000000E+00  0.00000000000E+00 -0.11748738142E+04  0.11748738142E+04  0.50400001928E-02 0. -1.
    10030    2    1    2    0    0  0.00000000000E+00  0.00000000000E+00 -0.76977737656E+03  0.15799702518E+04  0.13797640332E+04 0.  0.
        4    1    3    3  502    0  0.30544335588E+03  0.17716673092E+03  0.29377314331E+03  0.45933426481E+03  0.12699999809E+01 0.  1.
       -4    1    3    3    0  502 -0.30544335588E+03 -0.17716673092E+03 -0.10635505199E+04  0.11206359870E+04  0.12699999809E+01 0. -1.
</event>
<event>
 5   0  0.3977658E-04  0.1402288E+04  0.7818609E-02  0.8952164E-01
       -1   -1    0    0    0  501  0.00000000000E+00  0.00000000000E+00  0.12534824122E+04  0.12534824122E+04  0.50400001928E-02 0. -1.
        1   -1    0    0  501    0  0.00000000000E+00  0.00000000000E+00 -0.39218988626E+03  0.39218988629E+03  0.50400001928E-02 0.  1.
    10030    2    1    2    0    0  0.00000000000E+00  0.00000000000E+00  0.86129252595E+03  0.16456722985E+04  0.14022883080E+04 0.  0.
        5    1    3    3  502    0 -0.26567754296E+03 -0.85355148921E+02  0.11854856748E+04  0.12178950831E+04  0.46999998093E+01 0. -1.
       -5    1    3    3    0  502  0.26567754296E+03  0.85355148921E+02 -0.32419314884E+03  0.42777721542E+03  0.46999998093E+01 0.  1.
</event>
<event>
 5   0  0.3907093E-04  0.1423410E+04  0.7818609E-02  0.8937045E-01
        1   -1    0    0  501    0  0.00000000000E+00  0.00000000000E+00  0.11231760124E+04  0.11231760124E+04  0.50400001928E-02 0.  1.
       -1   -1    0    0    0  501  0.00000000000E+00  0.00000000000E+00 -0.45097505109E+03  0.45097505112E+03  0.50400001928E-02 0. -1.
    10030    2    1    2    0    0  0.00000000000E+00  0.00000000000E+00  0.67220096130E+03  0.15741510635E+04  0.14234104954E+04 0.  0.
        4    1    3    3  502    0 -0.41837442123E+03 -0.56845512576E+03  0.43712173785E+03  0.83021407658E+03  0.12699999809E+01 0.  1.
       -4    1    3    3    0  502  0.41837442123E+03  0.56845512576E+03  0.23507922345E+03  0.74393698694E+03  0.12699999809E+01 0. -1.
</event>
<event>
 5   0  0.3784219E-04  0.1398674E+04  0.7818609E-02  0.8954779E-01
       -1   -1    0    0    0  501  0.00000000000E+00  0.00000000000E+00  0.36576648943E+03  0.36576648946E+03  0.50400001928E-02 0. -1.
        1   -1    0    0  501    0  0.00000000000E+00  0.00000000000E+00 -0.13371167844E+04  0.13371167844E+04  0.50400001928E-02 0.  1.
    10030    2    1    2    0    0  0.00000000000E+00  0.00000000000E+00 -0.97135029498E+03  0.17028832739E+04  0.13986743899E+04 0.  0.
        1    1    3    3  502    0 -0.31053543969E+03 -0.54749391004E+03 -0.11460646031E+03  0.63977846291E+03  0.50400001928E-02 0. -1.
       -1    1    3    3    0  502  0.31053543969E+03  0.54749391004E+03 -0.85674383467E+03  0.10631048110E+04  0.50400001928E-02 0.  1.
</event>
<event>
 5   0  0.3907093E-04  0.1395241E+04  0.7818609E-02  0.8957271E-01
       -1   -1    0    0    0  501  0.00000000000E+00  0.00000000000E+00  0.24763967443E+03  0.24763967448E+03  0.50400001928E-02 0.  1.
        1   -1    0    0  501    0  0.00000000000E+00  0.00000000000E+00 -0.19652512364E+04  0.19652512364E+04  0.50400001928E-02 0. -1.
    10030    2    1    2    0    0  0.00000000000E+00  0.00000000000E+00 -0.17176115619E+04  0.22128909109E+04  0.13952407339E+04 0.  0.
        4    1    3    3  502    0  0.56480017582E+02  0.68128270801E+03 -0.63825979876E+03  0.93526108880E+03  0.12699999809E+01 0. -1.
       -4    1    3    3    0  502 -0.56480017582E+02 -0.68128270801E+03 -0.10793517632E+04  0.12776298221E+04  0.12699999809E+01 0.  1.
</event>
<event>
 5   0  0.7296966E-04  0.1385684E+04  0.7818609E-02  0.8964247E-01
        2   -1    0    0  501    0  0.00000000000E+00  0.00000000000E+00  0.16451225500E+04  0.16451225500E+04  0.25500000920E-02 0.  1.
       -2   -1    0    0    0  501  0.00000000000E+00  0.00000000000E+00 -0.29178973729E+03  0.29178973730E+03  0.25500000920E-02 0. -1.
    10030    2    1    2    0    0  0.00000000000E+00  0.00000000000E+00  0.13533328127E+04  0.19369122873E+04  0.13856837687E+04 0.  0.
        3    1    3    3  502    0  0.16846165783E+03  0.56999650805E+03  0.11743204612E+04  0.13161701657E+04  0.10100000352E+00 0. -1.
       -3    1    3    3    0  502 -0.16846165783E+03 -0.56999650805E+03  0.17901235157E+03  0.62074212163E+03  0.10100000352E+00 0.  1.
</event>
<event>
 5   0  0.6959748E-04  0.1395737E+04  0.7818609E-02  0.8956910E-01
       -2   -1    0    0    0  501  0.00000000000E+00  0.00000000000E+00  0.57776687141E+03  0.57776687142E+03  0.25500000920E-02 0.  1.
        2   -1    0    0  501    0  0.00000000000E+00  0.00000000000E+00 -0.84293627199E+03  0.84293627199E+03  0.25500000920E-02 0. -1.
    10030    2    1    2    0    0  0.00000000000E+00  0.00000000000E+00 -0.26516940058E+03  0.14207031434E+04  0.13957373000E+04 0.  0.
        5    1    3    3  502    0 -0.56832836188E+03 -0.10018760089E+03  0.26681623783E+03  0.63580474759E+03  0.46999998093E+01 0.  1.
       -5    1    3    3    0  502  0.56832836188E+03  0.10018760089E+03 -0.53198563841E+03  0.78489839582E+03  0.46999998093E+01 0. -1.
</event>
<event>
 5   0  0.6959748E-04  0.1377280E+04  0.7818609E-02  0.8970431E-01
        2   -1    0    0  501    0  0.00000000000E+00  0.00000000000E+00  0.86817437594E+03  0.86817437595E+03  0.25500000920E-02 0.  1.
       -2   -1    0    0    0  501  0.00000000000E+00  0.00000000000E+00 -0.54623255285E+03  0.54623255285E+03  0.25500000920E-02 0. -1.
    10030    2    1    2    0    0  0.00000000000E+00  0.00000000000E+00  0.32194182309E+03  0.14144069288E+04  0.13772800815E+04 0.  0.
        5    1    3    3  502    0 -0.49138751356E+03 -0.50701876527E+02 -0.33172286631E+03  0.59505841629E+03  0.46999998093E+01 0. -1.
       -5    1    3    3    0  502  0.49138751356E+03  0.50701876527E+02  0.65366468941E+03  0.81934851251E+03  0.46999998093E+01 0.  1.
</event>
<event>
 5   0  0.3784219E-04  0.1399754E+04  0.7818609E-02  0.8953997E-01
       -1   -1    0    0    0  501  0.00000000000E+00  0.00000000000E+00  0.89242429952E+03  0.89242429954E+03  0.50400001928E-02 0. -1.
        1   -1    0    0  501    0  0.00000000000E+00  0.00000000000E+00 -0.54887300331E+03  0.54887300333E+03  0.50400001928E-02 0.  1.
    10030    2    1    2    0    0  0.00000000000E+00  0.00000000000E+00  0.34355129621E+03  0.14412973029E+04  0.13997537005E+04 0.  0.
        1    1    3    3  502    0  0.25398338746E+03 -0.29417649840E+03 -0.42754740090E+03  0.57779248295E+03  0.50400001928E-02 0.  1.
       -1    1    3    3    0  502 -0.25398338746E+03  0.29417649840E+03  0.77109869711E+03  0.86350481992E+03  0.50400001928E-02 0. -1.
</event>
<event>
 5   0  0.7065539E-04  0.1412150E+04  0.7818609E-02  0.8945070E-01
       -2   -1    0    0    0  501  0.00000000000E+00  0.00000000000E+00  0.16941231687E+03  0.16941231689E+03  0.25500000920E-02 0.  1.
        2   -1    0    0  501    0  0.00000000000E+00  0.00000000000E+00 -0.29427723395E+04  0.29427723395E+04  0.25500000920E-02 0. -1.
    10030    2    1    2    0    0  0.00000000000E+00  0.00000000000E+00 -0.27733600226E+04  0.31121846564E+04  0.14121499638E+04 0.  0.
        1    1    3    3  502    0  0.21924885691E+03 -0.23100898875E+02 -0.28649744921E+04  0.28734443710E+04  0.50400001928E-02 0. -1.
       -1    1    3    3    0  502 -0.21924885691E+03  0.23100898875E+02  0.91614469539E+02  0.23874028533E+03  0.50400001928E-02 0.  1.
</event>
<event>
 5   0  0.7065539E-04  0.1397744E+04  0.7818609E-02  0.8955453E-01
        2   -1    0    0  501    0  0.00000000000E+00  0.00000000000E+00  0.88709169053E+03  0.88709169053E+03  0.25500000920E-02 0. -1.
       -2   -1    0    0    0  501  0.00000000000E+00  0.00000000000E+00 -0.55058817917E+03  0.55058817917E+03  0.25500000920E-02 0.  1.
    10030    2    1    2    0    0  0.00000000000E+00  0.00000000000E+00  0.33650351136E+03  0.14376798697E+04  0.13977441807E+04 0.  0.
        1    1    3    3  502    0  0.23121388791E+03 -0.52284120748E+03  0.58173163640E+03  0.81561908206E+03  0.50400001928E-02 0. -1.
       -1    1    3    3    0  502 -0.23121388791E+03  0.52284120748E+03 -0.24522812504E+03  0.62206078765E+03  0.50400001928E-02 0.  1.
</event>
<event>
 5   0  0.3907270E-04  0.1404880E+04  0.7818609E-02  0.8950294E-01
       -1   -1    0    0    0  501  0.00000000000E+00  0.00000000000E+00  0.29978650528E+03  0.29978650533E+03  0.50400001928E-02 0.  1.
        1   -1    0    0  501    0  0.00000000000E+00  0.00000000000E+00 -0.16459108423E+04  0.16459108423E+04  0.50400001928E-02 0. -1.
    10030    2    1    2    0    0  0.00000000000E+00  0.00000000000E+00 -0.13461243370E+04  0.19456973477E+04  0.14048798660E+04 0.  0.
        3    1    3    3  502    0  0.41104900774E+03  0.44056550198E+03 -0.11731112189E+04  0.13188059714E+04  0.10100000352E+00 0. -1.
       -3    1    3    3    0  502 -0.41104900774E+03 -0.44056550198E+03 -0.17301311817E+03  0.62689137620E+03  0.10100000352E+00 0.  1.
</event>
<event>
 5   0  0.6895048E-04  0.1400896E+04  0.7818609E-02  0.8953170E-01
        2   -1    0    0  501    0  0.00000000000E+00  0.00000000000E+00  0.10195723196E+04  0.10195723196E+04  0.25500000920E-02 0.  1.
       -2   -1    0    0    0  501  0.00000000000E+00  0.00000000000E+00 -0.48120903142E+03  0.48120903143E+03  0.25500000920E-02 0. -1.
    10030    2    1    2    0    0  0.00000000000E+00  0.00000000000E+00  0.53836328815E+03  0.15007813510E+04  0.14008960110E+04 0.  0.
        4    1    3    3  502    0 -0.13015192790E+02 -0.69535374252E+03  0.35842541240E+03  0.78240437859E+03  0.12699999809E+01 0. -1.
       -4    1    3    3    0  502  0.13015192790E+02  0.69535374252E+03  0.17993787574E+03  0.71837697242E+03  0.12699999809E+01 0.  1.
</event>
<event>
 5   0  0.3756664E-04  0.1397508E+04  0.7818609E-02  0.8955624E-01
       -1   -1    0    0    0  501  0.00000000000E+00  0.00000000000E+00  0.88425229380E+03  0.88425229382E+03  0.50400001928E-02 0.  1.
        1   -1    0    0  501    0  0.00000000000E+00  0.00000000000E+00 -0.55216949555E+03  0.55216949557E+03  0.50400001928E-02 0. -1.
    10030    2    1    2    0    0  0.00000000000E+00  0.00000000000E+00  0.33208279825E+03  0.14364217894E+04  0.13975079864E+04 0.  0.
        2    1    3    3  502    0 -0.59658493180E+03 -0.34435242825E+03  0.45450293050E+02  0.69033173535E+03  0.25500000920E-02 0. -1.
       -2    1    3    3    0  502  0.59658493180E+03  0.34435242825E+03  0.28663250520E+03  0.74609005404E+03  0.25500000920E-02 0.  1.
</event>
<event>
 5   0  0.6870835E-04  0.1404944E+04  0.7818609E-02  0.8950247E-01
        2   -1    0    0  501    0  0.00000000000E+00  0.00000000000E+00  0.88480646383E+03  0.88480646383E+03  0.25500000920E-02 0. -1.
       -2   -1    0    0    0  501  0.00000000000E+00  0.00000000000E+00 -0.55771188462E+03  0.55771188462E+03  0.25500000920E-02 0.  1.
    10030    2    1    2    0    0  0.00000000000E+00  0.00000000000E+00  0.32709457921E+03  0.14425183485E+04  0.14049442416E+04 0.  0.
        2    1    3    3  502    0 -0.45219202867E+03  0.23174038224E+02  0.71498866157E+03  0.84629986000E+03  0.25500000920E-02 0. -1.
       -2    1    3    3    0  502  0.45219202867E+03 -0.23174038224E+02 -0.38789408236E+03  0.59621848846E+03  0.25500000920E-02 0.  1.
</event>
<event>
 5   0  0.3784219E-04  0.1404415E+04  0.7818609E-02  0.8950629E-01
        1   -1    0    0  501    0  0.00000000000E+00  0.00000000000E+00  0.84046407276E+03  0.84046407277E+03  0.50400001928E-02 0.  1.
       -1   -1    0    0    0  501  0.00000000000E+00  0.00000000000E+00 -0.58669379473E+03  0.58669379475E+03  0.50400001928E-02 0. -1.
    10030    2    1    2    0    0  0.00000000000E+00  0.00000000000E+00  0.25377027803E+03  0.14271578675E+04  0.14044145488E+04 0.  0.
        1    1    3    3  502    0  0.33909461460E+03 -0.19330076103E+03 -0.46630136296E+03  0.60810139203E+03  0.50400001928E-02 0. -1.
       -1    1    3    3    0  502 -0.33909461460E+03  0.19330076103E+03  0.72007164099E+03  0.81905647549E+03  0.50400001928E-02 0.  1.
</event>
<event>
 5   0  0.6870835E-04  0.1405655E+04  0.7818609E-02  0.8949736E-01
        2   -1    0    0  501    0  0.00000000000E+00  0.00000000000E+00  0.39630873596E+03  0.39630873597E+03  0.25500000920E-02 0. -1.
       -2   -1    0    0    0  501  0.00000000000E+00  0.00000000000E+00 -0.12464177458E+04  0.12464177458E+04  0.25500000920E-02 0.  1.
    10030    2    1    2    0    0  0.00000000000E+00  0.00000000000E+00 -0.85010900984E+03  0.16427264818E+04  0.14056546394E+04 0.  0.
        2    1    3    3  502    0 -0.22500231317E+03  0.65062834051E+03 -0.25968676171E+03  0.73578562952E+03  0.25500000920E-02 0. -1.
       -2    1    3    3    0  502  0.22500231317E+03 -0.65062834051E+03 -0.59042224814E+03  0.90694085226E+03  0.25500000920E-02 0.  1.
</event>
<event>
 5   0  0.6959748E-04  0.1390424E+04  0.7818609E-02  0.8960780E-01
       -2   -1    0    0    0  501  0.00000000000E+00  0.00000000000E+00  0.43233223171E+03  0.43233223172E+03  0.25500000920E-02 0.  1.
        2   -1    0    0  501    0  0.00000000000E+00  0.00000000000E+00 -0.11179357826E+04  0.11179357826E+04  0.25500000920E-02 0. -1.
    10030    2    1    2    0    0  0.00000000000E+00  0.00000000000E+00 -0.68560355091E+03  0.15502680144E+04  0.13904239236E+04 0.  0.
        5    1    3    3  502    0  0.37241017693E+03  0.20397906370E+03 -0.95653753839E+03  0.10465576671E+04  0.46999998093E+01 0. -1.
       -5    1    3    3    0  502 -0.37241017693E+03 -0.20397906370E+03  0.27093398748E+03  0.50371034720E+03  0.46999998093E+01 0.  1.
</event>
<event>
 5   0  0.6959748E-04  0.1374655E+04  0.7818609E-02  0.8972371E-01
       -2   -1    0    0    0  501  0.00000000000E+00  0.00000000000E+00  0.59807949800E+03  0.59807949800E+03  0.25500000920E-02 0.  1.
        2   -1    0    0  501    0  0.00000000000E+00  0.00000000000E+00 -0.78989392822E+03  0.78989392822E+03  0.25500000920E-02 0. -1.
    10030    2    1    2    0    0  0.00000000000E+00  0.00000000000E+00 -0.19181443022E+03  0.13879734262E+04  0.13746553955E+04 0.  0.
        5    1    3    3  502    0 -0.51222902202E+03  0.21843841851E+03 -0.50267922953E+03  0.75020158056E+03  0.46999998093E+01 0. -1.
       -5    1    3    3    0  502  0.51222902202E+03 -0.21843841851E+03  0.31086479931E+03  0.63777184567E+03  0.46999998093E+01 0.  1.
</event>
<event>
 5   0  0.6959748E-04  0.1403097E+04  0.7818609E-02  0.8951580E-01
        2   -1    0    0  501    0  0.00000000000E+00  0.00000000000E+00  0.15203178182E+04  0.15203178182E+04  0.25500000920E-02 0. -1.
       -2   -1    0    0    0  501  0.00000000000E+00  0.00000000000E+00 -0.32372849214E+03  0.32372849215E+03  0.25500000920E-02 0.  1.
    10030    2    1    2    0    0  0.00000000000E+00  0.00000000000E+00  0.11965893260E+04  0.18440463103E+04  0.14030968532E+04 0.  0.
        5    1    3    3  502    0 -0.23008608232E+03 -0.24279225926E+03  0.14087418772E+04  0.14479169358E+04  0.46999998093E+01 0. -1.
       -5    1    3    3    0  502  0.23008608232E+03  0.24279225926E+03 -0.21215255113E+03  0.39612937455E+03  0.46999998093E+01 0.  1.
</event>
<event>
 5   0  0.3784219E-04  0.1412418E+04  0.7818609E-02  0.8944879E-01
        1   -1    0    0  501    0  0.00000000000E+00  0.00000000000E+00  0.10530856799E+04  0.10530856799E+04  0.50400001928E-02 0. -1.
       -1   -1    0    0    0  501  0.00000000000E+00  0.00000000000E+00 -0.47359027106E+03  0.47359027109E+03  0.50400001928E-02 0.  1.
    10030    2    1    2    0    0  0.00000000000E+00  0.00000000000E+00  0.57949540884E+03  0.15266759510E+04  0.14124179730E+04 0.  0.
        1    1    3    3  502    0  0.15578960056E+03 -0.67787708094E+03  0.42187978790E+03  0.81349265023E+03  0.50400001928E-02 0. -1.
       -1    1    3    3    0  502 -0.15578960056E+03  0.67787708094E+03  0.15761562094E+03  0.71318330077E+03  0.50400001928E-02 0.  1.
</event>
<event>
 5   0  0.3784219E-04  0.1396945E+04  0.7818609E-02  0.8956033E-01
       -1   -1    0    0    0  501  0.00000000000E+00  0.00000000000E+00  0.22618030830E+03  0.22618030835E+03  0.50400001928E-02 0.  1.
        1   -1    0    0  501    0  0.00000000000E+00  0.00000000000E+00 -0.21569695936E+04  0.21569695936E+04  0.50400001928E-02 0. -1.
    10030    2    1    2    0    0  0.00000000000E+00  0.00000000000E+00 -0.19307892853E+04  0.23831499020E+04  0.13969453071E+04 0.  0.
        1    1    3    3  502    0 -0.30519158383E+03 -0.39330882779E+03 -0.18011997130E+04  0.18687306234E+04  0.50400001928E-02 0. -1.
       -1    1    3    3    0  502  0.30519158383E+03  0.39330882779E+03 -0.12958957234E+03  0.51441927856E+03  0.50400001928E-02 0.  1.
</event>
<event>
 5   0  0.3907270E-04  0.1426201E+04  0.7818609E-02  0.8935068E-01
        1   -1    0    0  501    0  0.00000000000E+00  0.00000000000E+00  0.72130616668E+03  0.72130616670E+03  0.50400001928E-02 0.  1.
       -1   -1    0    0    0  501  0.00000000000E+00  0.00000000000E+00 -0.70498790144E+03  0.70498790146E+03  0.50400001928E-02 0. -1.
    10030    2    1    2    0    0  0.00000000000E+00  0.00000000000E+00  0.16318265244E+02  0.14262940682E+04  0.14262007163E+04 0.  0.
        3    1    3    3  502    0 -0.75011263189E+01 -0.65572737089E+03 -0.27199748884E+03  0.70994175533E+03  0.10100000352E+00 0. -1.
       -3    1    3    3    0  502  0.75011263189E+01  0.65572737089E+03  0.28831575409E+03  0.71635231282E+03  0.10100000352E+00 0.  1.
</event>
<event>
 5   0  0.7065539E-04  0.1362664E+04  0.7818609E-02  0.8981297E-01
        2   -1    0    0  501    0  0.00000000000E+00  0.00000000000E+00  0.86131085081E+03  0.86131085082E+03  0.25500000920E-02 0. -1.
       -2   -1    0    0    0  501  0.00000000000E+00  0.00000000000E+00 -0.53896149104E+03  0.53896149105E+03  0.25500000920E-02 0.  1.
    10030    2    1    2    0    0  0.00000000000E+00  0.00000000000E+00  0.32234935977E+03  0.14002723419E+04  0.13626641265E+04 0.  0.
        1    1    3    3  502    0 -0.23794473775E+03  0.58935140803E+03  0.41343004609E+03  0.75820655722E+03  0.50400001928E-02 0. -1.
       -1    1    3    3    0  502  0.23794473775E+03 -0.58935140803E+03 -0.91080686318E+02  0.64206578465E+03  0.50400001928E-02 0.  1.
</event>
<event>
 5   0  0.3977658E-04  0.1405210E+04  0.7818609E-02  0.8950056E-01
       -1   -1    0    0    0  501  0.00000000000E+00  0.00000000000E+00  0.51766249103E+03  0.51766249105E+03  0.50400001928E-02 0. -1.
        1   -1    0    0  501    0  0.00000000000E+00  0.00000000000E+00 -0.95362137244E+03  0.95362137246E+03  0.50400001928E-02 0.  1.
    10030    2    1    2    0    0  0.00000000000E+00  0.00000000000E+00 -0.43595888142E+03  0.14712838635E+04  0.14052103262E+04 0.  0.
        5    1    3    3  502    0  0.44067490695E+03  0.34360028392E+03  0.22792882605E+03  0.60351401680E+03  0.46999998093E+01 0. -1.
       -5    1    3    3    0  502 -0.44067490695E+03 -0.34360028392E+03 -0.66388770747E+03  0.86776984671E+03  0.46999998093E+01 0.  1.
</event>
<event>
 5   0  0.7065539E-04  0.1404341E+04  0.7818609E-02  0.8950682E-01
        2   -1    0    0  501    0  0.00000000000E+00  0.00000000000E+00  0.50048149813E+03  0.50048149814E+03  0.25500000920E-02 0.  1.
       -2   -1    0    0    0  501  0.00000000000E+00  0.00000000000E+00 -0.98513876222E+03  0.98513876223E+03  0.25500000920E-02 0. -1.
    10030    2    1    2    0    0  0.00000000000E+00  0.00000000000E+00 -0.48465726409E+03  0.14856202604E+04  0.14043414451E+04 0.  0.
        1    1    3    3  502    0  0.57335333382E+03 -0.18130592004E+03 -0.62585507254E+03  0.86792882997E+03  0.50400001928E-02 0. -1.
       -1    1    3    3    0  502 -0.57335333382E+03  0.18130592004E+03  0.14119780845E+03  0.61769143039E+03  0.50400001928E-02 0.  1.
</event>
<event>
 5   0  0.7296966E-04  0.1448653E+04  0.7818609E-02  0.8919335E-01
        2   -1    0    0  501    0  0.00000000000E+00  0.00000000000E+00  0.12187662169E+04  0.12187662169E+04  0.25500000920E-02 0.  1.
       -2   -1    0    0    0  501  0.00000000000E+00  0.00000000000E+00 -0.43047553757E+03  0.43047553758E+03  0.25500000920E-02 0. -1.
    10030    2    1    2    0    0  0.00000000000E+00  0.00000000000E+00  0.78829067931E+03  0.16492417545E+04  0.14486532261E+04 0.  0.
        3    1    3    3  502    0  0.29701595325E+03  0.57446557831E+03  0.22754476590E+02  0.64710660138E+03  0.10100000352E+00 0. -1.
       -3    1    3    3    0  502 -0.29701595325E+03 -0.57446557831E+03  0.76553620272E+03  0.10021351531E+04  0.10100000352E+00 0.  1.
</event>
<event>
 5   0  0.6870835E-04  0.1390556E+04  0.7818609E-02  0.8960683E-01
        2   -1    0    0  501    0  0.00000000000E+00  0.00000000000E+00  0.16547510089E+04  0.16547510089E+04  0.25500000920E-02 0. -1.
       -2   -1    0    0    0  501  0.00000000000E+00  0.00000000000E+00 -0.29213534780E+03  0.29213534781E+03  0.25500000920E-02 0.  1.
    10030    2    1    2    0    0  0.00000000000E+00  0.00000000000E+00  0.13626156611E+04  0.19468863567E+04  0.13905556609E+04 0.  0.
        2    1    3    3  502    0  0.47031212275E+03 -0.16236431612E+03  0.13612552318E+04  0.14493348371E+04  0.25500000920E-02 0. -1.
       -2    1    3    3    0  502 -0.47031212275E+03  0.16236431612E+03  0.13604293743E+01  0.49755151967E+03  0.25500000920E-02 0.  1.
</event>
<event>
 5   0  0.3756664E-04  0.1257788E+04  0.7818609E-02  0.9063726E-01
       -1   -1    0    0    0  501  0.00000000000E+00  0.00000000000E+00  0.25015273908E+03  0.25015273913E+03  0.50400001928E-02 0.  1.
        1   -1    0    0  501    0  0.00000000000E+00  0.00000000000E+00 -0.15810652663E+04  0.15810652663E+04  0.50400001928E-02 0. -1.
    10030    2    1    2    0    0  0.00000000000E+00  0.00000000000E+00 -0.13309125272E+04  0.18312180055E+04  0.12577882287E+04 0.  0.
        2    1    3    3  502    0  0.29002736963E+03 -0.36192099589E+03 -0.47074093543E+02  0.46617448738E+03  0.25500000920E-02 0.  1.
       -2    1    3    3    0  502 -0.29002736963E+03  0.36192099589E+03 -0.12838384337E+04  0.13650435181E+04  0.25500000920E-02 0. -1.
</event>
<event>
 5   0  0.6959748E-04  0.1400372E+04  0.7818609E-02  0.8953549E-01
       -2   -1    0    0    0  501  0.00000000000E+00  0.00000000000E+00  0.29265188860E+03  0.29265188861E+03  0.25500000920E-02 0. -1.
        2   -1    0    0  501    0  0.00000000000E+00  0.00000000000E+00 -0.16752344883E+04  0.16752344883E+04  0.25500000920E-02 0.  1.
    10030    2    1    2    0    0  0.00000000000E+00  0.00000000000E+00 -0.13825825997E+04  0.19678863769E+04  0.14003721460E+04 0.  0.
        5    1    3    3  502    0 -0.21495103288E+03  0.62231075487E+03 -0.35648595661E+03  0.74871820428E+03  0.46999998093E+01 0. -1.
       -5    1    3    3    0  502  0.21495103288E+03 -0.62231075487E+03 -0.10260966431E+04  0.12191681726E+04  0.46999998093E+01 0.  1.
</event>
<event>
 5   0  0.2660250E-04  0.1382073E+04  0.7818609E-02  0.8966898E-01
       -3   -1    0    0    0  501  0.00000000000E+00  0.00000000000E+00  0.96536129707E+03  0.96536130235E+03  0.10100000352E+00 0.  1.
        3   -1    0    0  501    0  0.00000000000E+00  0.00000000000E+00 -0.49466630693E+03  0.49466631724E+03  0.10100000352E+00 0. -1.
    10030    2    1    2    0    0  0.00000000000E+00  0.00000000000E+00  0.47069499014E+03  0.14600276196E+04  0.13820733976E+04 0.  0.
        2    1    3    3  502    0 -0.38889211637E+03  0.19614468636E+03  0.80209795846E+03  0.91272720521E+03  0.25500000920E-02 0.  1.
       -2    1    3    3    0  502  0.38889211637E+03 -0.19614468636E+03 -0.33140296832E+03  0.54730041438E+03  0.25500000920E-02 0. -1.
</event>
<event>
 5   0  0.6959748E-04  0.1403706E+04  0.7818609E-02  0.8951140E-01
        2   -1    0    0  501    0  0.00000000000E+00  0.00000000000E+00  0.25289200923E+04  0.25289200923E+04  0.25500000920E-02 0. -1.
       -2   -1    0    0    0  501  0.00000000000E+00  0.00000000000E+00 -0.19478572733E+03  0.19478572735E+03  0.25500000920E-02 0.  1.
    10030    2    1    2    0    0  0.00000000000E+00  0.00000000000E+00  0.23341343649E+04  0.27237058196E+04  0.14037058660E+04 0.  0.
        5    1    3    3  502    0 -0.29969558404E+03 -0.38996475430E+03  0.21385803438E+04  0.21944106110E+04  0.46999998093E+01 0. -1.
       -5    1    3    3    0  502  0.29969558404E+03  0.38996475430E+03  0.19555402110E+03  0.52929520861E+03  0.46999998093E+01 0.  1.
</event>
<event>
 5   0  0.7065539E-04  0.1400046E+04  0.7818609E-02  0.8953786E-01
       -2   -1    0    0    0  501  0.00000000000E+00  0.00000000000E+00  0.31985242173E+03  0.31985242174E+03  0.25500000920E-02 0.  1.
        2   -1    0    0  501    0  0.00000000000E+00  0.00000000000E+00 -0.15320562743E+04  0.15320562743E+04  0.25500000920E-02 0. -1.
    10030    2    1    2    0    0  0.00000000000E+00  0.00000000000E+00 -0.12122038526E+04  0.18519086961E+04  0.14000455844E+04 0.  0.
        1    1    3    3  502    0  0.34882234501E+02  0.23314945383E+03 -0.14779695088E+04  0.14966527009E+04  0.50400001928E-02 0. -1.
       -1    1    3    3    0  502 -0.34882234501E+02 -0.23314945383E+03  0.26576565618E+03  0.35525599521E+03  0.50400001928E-02 0.  1.
</event>
<event>
 5   0  0.6895048E-04  0.1410445E+04  0.7818609E-02  0.8946292E-01
        2   -1    0    0  501    0  0.00000000000E+00  0.00000000000E+00  0.10867941919E+04  0.10867941919E+04  0.25500000920E-02 0. -1.
       -2   -1    0    0    0  501  0.00000000000E+00  0.00000000000E+00 -0.45762009819E+03  0.45762009819E+03  0.25500000920E-02 0.  1.
    10030    2    1    2    0    0  0.00000000000E+00  0.00000000000E+00  0.62917409370E+03  0.15444142901E+04  0.14104451280E+04 0.  0.
        4    1    3    3  502    0  0.56063568170E+03  0.24925410575E+03  0.69531597180E+03  0.92731110765E+03  0.12699999809E+01 0. -1.
       -4    1    3    3    0  502 -0.56063568170E+03 -0.24925410575E+03 -0.66141878101E+02  0.61710318243E+03  0.12699999809E+01 0.  1.
</event>
<event>
 5   0  0.3756664E-04  0.1402068E+04  0.7818609E-02  0.8952323E-01
        1   -1    0    0  501    0  0.00000000000E+00  0.00000000000E+00  0.58982816110E+03  0.58982816112E+03  0.50400001928E-02 0.  1.
       -1   -1    0    0    0  501  0.00000000000E+00  0.00000000000E+00 -0.83320707892E+03  0.83320707893E+03  0.50400001928E-02 0. -1.
    10030    2    1    2    0    0  0.00000000000E+00  0.00000000000E+00 -0.24337891781E+03  0.14230352401E+04  0.14020684708E+04 0.  0.
        2    1    3    3  502    0 -0.12579823186E+03 -0.11585232643E+03  0.56833162673E+03  0.59350467111E+03  0.25500000920E-02 0.  1.
       -2    1    3    3    0  502  0.12579823186E+03  0.11585232643E+03 -0.81171054455E+03  0.82953056894E+03  0.25500000920E-02 0. -1.
</event>
<event>
 5   0  0.3756664E-04  0.1399602E+04  0.7818609E-02  0.8954107E-01
        1   -1    0    0  501    0  0.00000000000E+00  0.00000000000E+00  0.75361549653E+03  0.75361549655E+03  0.50400001928E-02 0.  1.
       -1   -1    0    0    0  501  0.00000000000E+00  0.00000000000E+00 -0.64982922343E+03  0.64982922345E+03  0.50400001928E-02 0. -1.
    10030    2    1    2    0    0  0.00000000000E+00  0.00000000000E+00  0.10378627310E+03  0.14034447200E+04  0.13996019047E+04 0.  0.
        2    1    3    3  502    0  0.25033071136E+03  0.35701705392E+03  0.60074844845E+03  0.74231081103E+03  0.25500000920E-02 0.  1.
       -2    1    3    3    0  502 -0.25033071136E+03 -0.35701705392E+03 -0.49696217536E+03  0.66113390897E+03  0.25500000920E-02 0. -1.
</event>
<event>
 5   0  0.6959748E-04  0.1394625E+04  0.7818609E-02  0.8957719E-01
       -2   -1    0    0    0  501  0.00000000000E+00  0.00000000000E+00  0.12576547065E+04  0.12576547065E+04  0.25500000920E-02 0.  1.
        2   -1    0    0  501    0  0.00000000000E+00  0.00000000000E+00 -0.38662810680E+03  0.38662810681E+03  0.25500000920E-02 0. -1.
    10030    2    1    2    0    0  0.00000000000E+00  0.00000000000E+00  0.87102659967E+03  0.16442828133E+04  0.13946249075E+04 0.  0.
        5    1    3    3  502    0 -0.47485873111E+03 -0.49366461452E+03  0.28166659659E+03  0.74064413031E+03  0.46999998093E+01 0.  1.
       -5    1    3    3    0  502  0.47485873111E+03  0.49366461452E+03  0.58936000308E+03  0.90363868297E+03  0.46999998093E+01 0. -1.
</event>
<event>
 5   0  0.7296966E-04  0.1401931E+04  0.7818609E-02  0.8952422E-01
        2   -1    0    0  501    0  0.00000000000E+00  0.00000000000E+00  0.71260785157E+03  0.71260785158E+03  0.25500000920E-02 0. -1.
       -2   -1    0    0    0  501  0.00000000000E+00  0.00000000000E+00 -0.68951286577E+03  0.68951286578E+03  0.25500000920E-02 0.  1.
    10030    2    1    2    0    0  0.00000000000E+00  0.00000000000E+00  0.23094985799E+02  0.14021207174E+04  0.14019305003E+04 0.  0.
        3    1    3    3  502    0  0.89015837715E+02  0.29878985501E+03  0.63944879190E+03  0.71140281450E+03  0.10100000352E+00 0. -1.
       -3    1    3    3    0  502 -0.89015837715E+02 -0.29878985501E+03 -0.61635380610E+03  0.69071790285E+03  0.10100000352E+00 0.  1.
</event>
<event>
 5   0  0.3756664E-04  0.1384877E+04  0.7818609E-02  0.8964839E-01
       -1   -1    0    0    0  501  0.00000000000E+00  0.00000000000E+00  0.21023482123E+03  0.21023482129E+03  0.50400001928E-02 0. -1.
        1   -1    0    0  501    0  0.00000000000E+00  0.00000000000E+00 -0.22806460093E+04  0.22806460093E+04  0.50400001928E-02 0.  1.
    10030    2    1    2    0    0  0.00000000000E+00  0.00000000000E+00 -0.20704111881E+04  0.24908808306E+04  0.13848771875E+04 0.  0.
        2    1    3    3  502    0 -0.12826753928E+03 -0.40069808852E+03 -0.20243858466E+04  0.20676434837E+04  0.25500000920E-02 0.  1.
       -2    1    3    3    0  502  0.12826753928E+03  0.40069808852E+03 -0.46025341528E+02  0.42323734695E+03  0.25500000920E-02 0. -1.
</event>
<event>
 5   0  0.6895048E-04  0.1395440E+04  0.7818609E-02  0.8957126E-01
       -2   -1    0    0    0  501  0.00000000000E+00  0.00000000000E+00  0.82141936159E+03  0.82141936159E+03  0.25500000920E-02 0.  1.
        2   -1    0    0  501    0  0.00000000000E+00  0.00000000000E+00 -0.59264888050E+03  0.59264888050E+03  0.25500000920E-02 0. -1.
    10030    2    1    2    0    0  0.00000000000E+00  0.00000000000E+00  0.22877048109E+03  0.14140682421E+04  0.13954400956E+04 0.  0.
        4    1    3    3  502    0 -0.17339059186E+03  0.65452149237E+03  0.28500440858E+03  0.73463719422E+03  0.12699999809E+01 0.  1.
       -4    1    3    3    0  502  0.17339059186E+03 -0.65452149237E+03 -0.56233927488E+02  0.67943104788E+03  0.12699999809E+01 0. -1.
</event>
<event>
 5   0  0.3756664E-04  0.1368484E+04  0.7818609E-02  0.8976953E-01
        1   -1    0    0  501    0  0.00000000000E+00  0.00000000000E+00  0.87699150488E+03  0.87699150489E+03  0.50400001928E-02 0.  1.
       -1   -1    0    0    0  501  0.00000000000E+00  0.00000000000E+00 -0.53385602787E+03  0.53385602790E+03  0.50400001928E-02 0. -1.
    10030    2    1    2    0    0  0.00000000000E+00  0.00000000000E+00  0.34313547701E+03  0.14108475328E+04  0.13684841268E+04 0.  0.
        2    1    3    3  502    0 -0.14126205550E+03  0.23704923339E+03  0.81708141813E+03  0.86242063475E+03  0.25500000920E-02 0.  1.
       -2    1    3    3    0  502  0.14126205550E+03 -0.23704923339E+03 -0.47394594113E+03  0.54842689804E+03  0.25500000920E-02 0. -1.
</event>
<event>
 5   0  0.3907270E-04  0.1398671E+04  0.7818609E-02  0.8954781E-01
       -1   -1    0    0    0  501  0.00000000000E+00  0.00000000000E+00  0.80360181877E+03  0.80360181878E+03  0.50400001928E-02 0.  1.
        1   -1    0    0  501    0  0.00000000000E+00  0.00000000000E+00 -0.60859791466E+03  0.60859791468E+03  0.50400001928E-02 0. -1.
    10030    2    1    2    0    0  0.00000000000E+00  0.00000000000E+00  0.19500390411E+03  0.14121997335E+04  0.13986713569E+04 0.  0.
        3    1    3    3  502    0 -0.14017440705E+03 -0.58352782442E+03  0.46002464172E+03  0.75615889035E+03  0.10100000352E+00 0.  1.
       -3    1    3    3    0  502  0.14017440705E+03  0.58352782442E+03 -0.26502073761E+03  0.65604084311E+03  0.10100000352E+00 0. -1.
</event>
<event>
 5   0  0.7065539E-04  0.1397798E+04  0.7818609E-02  0.8955414E-01
       -2   -1    0    0    0  501  0.00000000000E+00  0.00000000000E+00  0.40260003129E+03  0.40260003129E+03  0.25500000920E-02 0.  1.
        2   -1    0    0  501    0  0.00000000000E+00  0.00000000000E+00 -0.12132635509E+04  0.12132635509E+04  0.25500000920E-02 0. -1.
    10030    2    1    2    0    0  0.00000000000E+00  0.00000000000E+00 -0.81066351964E+03  0.16158635822E+04  0.13977981880E+04 0.  0.
        1    1    3    3  502    0 -0.83119424106E+02  0.64127413052E+03 -0.71187751764E+03  0.96172290671E+03  0.50400001928E-02 0. -1.
       -1    1    3    3    0  502  0.83119424106E+02 -0.64127413052E+03 -0.98786001995E+02  0.65414067551E+03  0.50400001928E-02 0.  1.
</event>
<event>
 5   0  0.3756664E-04  0.1408905E+04  0.7818609E-02  0.8947398E-01
        1   -1    0    0  501    0  0.00000000000E+00  0.00000000000E+00  0.50505429874E+03  0.50505429877E+03  0.50400001928E-02 0.  1.
       -1   -1    0    0    0  501  0.00000000000E+00  0.00000000000E+00 -0.98257466074E+03  0.98257466076E+03  0.50400001928E-02 0. -1.
    10030    2    1    2    0    0  0.00000000000E+00  0.00000000000E+00 -0.47752036200E+03  0.14876289595E+04  0.14089053286E+04 0.  0.
        2    1    3    3  502    0  0.45449292925E+03  0.45985191228E+03  0.56556678850E+02  0.64901946188E+03  0.25500000920E-02 0.  1.
       -2    1    3    3    0  502 -0.45449292925E+03 -0.45985191228E+03 -0.53407704085E+03  0.83860949765E+03  0.25500000920E-02 0. -1.
</event>
<event>
 5   0  0.7065539E-04  0.1406901E+04  0.7818609E-02  0.8948839E-01
        2   -1    0    0  501    0  0.00000000000E+00  0.00000000000E+00  0.81051376888E+03  0.81051376888E+03  0.25500000920E-02 0. -1.
       -2   -1    0    0    0  501  0.00000000000E+00  0.00000000000E+00 -0.61052920605E+03  0.61052920605E+03  0.25500000920E-02 0.  1.
    10030    2    1    2    0    0  0.00000000000E+00  0.00000000000E+00  0.19998456283E+03  0.14210429749E+04  0.14069006046E+04 0.  0.
        1    1    3    3  502    0  0.39006277749E+03  0.15247498390E+03  0.67086812209E+03  0.79086132056E+03  0.50400001928E-02 0. -1.
       -1    1    3    3    0  502 -0.39006277749E+03 -0.15247498390E+03 -0.47088355927E+03  0.63018165437E+03  0.50400001928E-02 0.  1.
</event>
<event>
 5   0  0.7296966E-04  0.1379158E+04  0.7818609E-02  0.8969045E-01
        2   -1    0    0  501    0  0.00000000000E+00  0.00000000000E+00  0.65592126931E+03  0.65592126931E+03  0.25500000920E-02 0. -1.
       -2   -1    0    0    0  501  0.00000000000E+00  0.00000000000E+00 -0.72496392811E+03  0.72496392812E+03  0.25500000920E-02 0.  1.
    10030    2    1    2    0    0  0.00000000000E+00  0.00000000000E+00 -0.69042658808E+02  0.13808851974E+04  0.13791580909E+04 0.  0.
        3    1    3    3  502    0  0.16609136300E+03  0.42490490947E+03  0.48322266410E+03  0.66455599934E+03  0.10100000352E+00 0. -1.
       -3    1    3    3    0  502 -0.16609136300E+03 -0.42490490947E+03 -0.55226532290E+03  0.71632919809E+03  0.10100000352E+00 0.  1.
</event>
<event>
 5   0  0.3784219E-04  0.1396724E+04  0.7818609E-02  0.8956193E-01
        1   -1    0    0  501    0  0.00000000000E+00  0.00000000000E+00  0.98871384336E+03  0.98871384337E+03  0.50400001928E-02 0.  1.
       -1   -1    0    0    0  501  0.00000000000E+00  0.00000000000E+00 -0.49327701663E+03  0.49327701665E+03  0.50400001928E-02 0. -1.
    10030    2    1    2    0    0  0.00000000000E+00  0.00000000000E+00  0.49543682673E+03  0.14819908600E+04  0.13967244753E+04 0.  0.
        1    1    3    3  502    0 -0.25522994529E+03  0.81244003485E+01 -0.44196360188E+03  0.51043134334E+03  0.50400001928E-02 0. -1.
       -1    1    3    3    0  502  0.25522994529E+03 -0.81244003485E+01  0.93740042861E+03  0.97155951668E+03  0.50400001928E-02 0.  1.
</event>
<event>
 5   0  0.3784219E-04  0.1388184E+04  0.7818609E-02  0.8962417E-01
       -1   -1    0    0    0  501  0.00000000000E+00  0.00000000000E+00  0.82274951376E+03  0.82274951378E+03  0.50400001928E-02 0.  1.
        1   -1    0    0  501    0  0.00000000000E+00  0.00000000000E+00 -0.58555293446E+03  0.58555293448E+03  0.50400001928E-02 0. -1.
    10030    2    1    2    0    0  0.00000000000E+00  0.00000000000E+00  0.23719657931E+03  0.14083024483E+04  0.13881835500E+04 0.  0.
        1    1    3    3  502    0  0.52553813806E+02  0.33852440682E+03 -0.49380828206E+03  0.60100523859E+03  0.50400001928E-02 0. -1.
       -1    1    3    3    0  502 -0.52553813806E+02 -0.33852440682E+03  0.73100486137E+03  0.80729720966E+03  0.50400001928E-02 0.  1.
</event>
<event>
 5   0  0.7065539E-04  0.1400438E+04  0.7818609E-02  0.8953501E-01
       -2   -1    0    0    0  501  0.00000000000E+00  0.00000000000E+00  0.75423298668E+03  0.75423298669E+03  0.25500000920E-02 0. -1.
        2   -1    0    0  501    0  0.00000000000E+00  0.00000000000E+00 -0.65007340376E+03  0.65007340376E+03  0.25500000920E-02 0.  1.
    10030    2    1    2    0    0  0.00000000000E+00  0.00000000000E+00  0.10415958292E+03  0.14043063905E+04  0.14004382241E+04 0.  0.
        1    1    3    3  502    0 -0.54745410553E+02 -0.21262016942E+03 -0.61466457749E+03  0.65269973132E+03  0.50400001928E-02 0.  1.
       -1    1    3    3    0  502  0.54745410553E+02  0.21262016942E+03  0.71882416042E+03  0.75160665913E+03  0.50400001928E-02 0. -1.
</event>
<event>
 5   0  0.3756664E-04  0.1390969E+04  0.7818609E-02  0.8960382E-01
        1   -1    0    0  501    0  0.00000000000E+00  0.00000000000E+00  0.99629460130E+03  0.99629460132E+03  0.50400001928E-02 0. -1.
       -1   -1    0    0    0  501  0.00000000000E+00  0.00000000000E+00 -0.48549744750E+03  0.48549744753E+03  0.50400001928E-02 0.  1.
    10030    2    1    2    0    0  0.00000000000E+00  0.00000000000E+00  0.51079715380E+03  0.14817920488E+04  0.13909687069E+04 0.  0.
        2    1    3    3  502    0 -0.35352345782E+03  0.46881439446E+02  0.89148032546E+03  0.96016346279E+03  0.25500000920E-02 0. -1.
       -2    1    3    3    0  502  0.35352345782E+03 -0.46881439446E+02 -0.38068317167E+03  0.52162858605E+03  0.25500000920E-02 0.  1.
</event>
<event>
 5   0  0.3784219E-04  0.1402410E+04  0.7818609E-02  0.8952076E-01
        1   -1    0    0  501    0  0.00000000000E+00  0.00000000000E+00  0.52753213458E+03  0.52753213461E+03  0.50400001928E-02 0.  1.
       -1   -1    0    0    0  501  0.00000000000E+00  0.00000000000E+00 -0.93205371456E+03  0.93205371457E+03  0.50400001928E-02 0. -1.
    10030    2    1    2    0    0  0.00000000000E+00  0.00000000000E+00 -0.40452157998E+03  0.14595858492E+04  0.14024097627E+04 0.  0.
        1    1    3    3  502    0 -0.55454525114E+03 -0.26029363478E+03  0.15284628623E+03  0.63137564025E+03  0.50400001928E-02 0. -1.
       -1    1    3    3    0  502  0.55454525114E+03  0.26029363478E+03 -0.55736786620E+03  0.82821020893E+03  0.50400001928E-02 0.  1.
</event>
<event>
 5   0  0.7296966E-04  0.1399047E+04  0.7818609E-02  0.8954509E-01
       -2   -1    0    0    0  501  0.00000000000E+00  0.00000000000E+00  0.86363986955E+03  0.86363986955E+03  0.25500000920E-02 0. -1.
        2   -1    0    0  501    0  0.00000000000E+00  0.00000000000E+00 -0.56659381409E+03  0.56659381410E+03  0.25500000920E-02 0.  1.
    10030    2    1    2    0    0  0.00000000000E+00  0.00000000000E+00  0.29704605546E+03  0.14302336836E+04  0.13990468294E+04 0.  0.
        3    1    3    3  502    0  0.19233801328E+03 -0.57445801110E+03  0.50608704244E+03  0.78937951747E+03  0.10100000352E+00 0. -1.
       -3    1    3    3    0  502 -0.19233801328E+03  0.57445801110E+03 -0.20904098699E+03  0.64085416618E+03  0.10100000352E+00 0.  1.
</event>
<event>
 5   0  0.3907093E-04  0.1411927E+04  0.7818609E-02  0.8945230E-01
        1   -1    0    0  501    0  0.00000000000E+00  0.00000000000E+00  0.98790375978E+03  0.98790375979E+03  0.50400001928E-02 0.  1.
       -1   -1    0    0    0  501  0.00000000000E+00  0.00000000000E+00 -0.50448687358E+03  0.50448687360E+03  0.50400001928E-02 0. -1.
    10030    2    1    2    0    0  0.00000000000E+00  0.00000000000E+00  0.48341688620E+03  0.14923906334E+04  0.14119270225E+04 0.  0.
        4    1    3    3  502    0  0.67565725392E+03  0.20280230324E+03  0.21292869524E+03  0.73687294775E+03  0.12699999809E+01 0.  1.
       -4    1    3    3    0  502 -0.67565725392E+03 -0.20280230324E+03  0.27048819096E+03  0.75551768564E+03  0.12699999809E+01 0. -1.
</event>
<event>
 5   0  0.3907093E-04  0.1381542E+04  0.7818609E-02  0.8967289E-01
       -1   -1    0    0    0  501  0.00000000000E+00  0.00000000000E+00  0.24973375882E+03  0.24973375887E+03  0.50400001928E-02 0.  1.
        1   -1    0    0  501    0  0.00000000000E+00  0.00000000000E+00 -0.19106931128E+04  0.19106931128E+04  0.50400001928E-02 0. -1.
    10030    2    1    2    0    0  0.00000000000E+00  0.00000000000E+00 -0.16609593539E+04  0.21604268716E+04  0.13815419980E+04 0.  0.
        4    1    3    3  502    0  0.46835571034E+03  0.50609556730E+03 -0.89444504912E+03  0.11293907001E+04  0.12699999809E+01 0. -1.
       -4    1    3    3    0  502 -0.46835571034E+03 -0.50609556730E+03 -0.76651430482E+03  0.10310361716E+04  0.12699999809E+01 0.  1.
</event>
<event>
 5   0  0.3907093E-04  0.1402238E+04  0.7818609E-02  0.8952200E-01
        1   -1    0    0  501    0  0.00000000000E+00  0.00000000000E+00  0.11894409900E+04  0.11894409900E+04  0.50400001928E-02 0. -1.
       -1   -1    0    0    0  501  0.00000000000E+00  0.00000000000E+00 -0.41327614700E+03  0.41327614703E+03  0.50400001928E-02 0.  1.
    10030    2    1    2    0    0  0.00000000000E+00  0.00000000000E+00  0.77616484296E+03  0.16027171370E+04  0.14022376253E+04 0.  0.
        4    1    3    3  502    0 -0.53069329784E+03 -0.22967374018E+03  0.84122481964E+03  0.10208066484E+04  0.12699999809E+01 0. -1.
       -4    1    3    3    0  502  0.53069329784E+03  0.22967374018E+03 -0.65059976678E+02  0.58191048863E+03  0.12699999809E+01 0.  1.
</event>
<event>
 5   0  0.6870835E-04  0.1403652E+04  0.7818609E-02  0.8951179E-01
        2   -1    0    0  501    0  0.00000000000E+00  0.00000000000E+00  0.10361477532E+04  0.10361477532E+04  0.25500000920E-02 0. -1.
       -2   -1    0    0    0  501  0.00000000000E+00  0.00000000000E+00 -0.47537613686E+03  0.47537613686E+03  0.25500000920E-02 0.  1.
    10030    2    1    2    0    0  0.00000000000E+00  0.00000000000E+00  0.56077161638E+03  0.15115238901E+04  0.14036522591E+04 0.  0.
        2    1    3    3  502    0  0.27225847597E+03 -0.60051995186E+03  0.21468654186E+02  0.65970432273E+03  0.25500000920E-02 0.  1.
       -2    1    3    3    0  502 -0.27225847597E+03  0.60051995186E+03  0.53930296219E+03  0.85181956737E+03  0.25500000920E-02 0. -1.
</event>
<event>
 5   0  0.6895048E-04  0.1399545E+04  0.7818609E-02  0.8954148E-01
        2   -1    0    0  501    0  0.00000000000E+00  0.00000000000E+00  0.11231242321E+04  0.11231242321E+04  0.25500000920E-02 0. -1.
       -2   -1    0    0    0  501  0.00000000000E+00  0.00000000000E+00 -0.43599935778E+03  0.43599935779E+03  0.25500000920E-02 0.  1.
    10030    2    1    2    0    0  0.00000000000E+00  0.00000000000E+00  0.68712487428E+03  0.15591235898E+04  0.13995448459E+04 0.  0.
        4    1    3    3  502    0  0.14212421569E+03 -0.31827707716E+02  0.11060512449E+04  0.11155999574E+04  0.12699999809E+01 0. -1.
       -4    1    3    3    0  502 -0.14212421569E+03  0.31827707716E+02 -0.41892637062E+03  0.44352363247E+03  0.12699999809E+01 0.  1.
</event>
<event>
 5   0  0.7296966E-04  0.1377067E+04  0.7818609E-02  0.8970588E-01
       -2   -1    0    0    0  501  0.00000000000E+00  0.00000000000E+00  0.58056316672E+03  0.58056316673E+03  0.25500000920E-02 0. -1.
        2   -1    0    0  501    0  0.00000000000E+00  0.00000000000E+00 -0.81658387431E+03  0.81658387431E+03  0.25500000920E-02 0.  1.
    10030    2    1    2    0    0  0.00000000000E+00  0.00000000000E+00 -0.23602070758E+03  0.13971470410E+04  0.13770672024E+04 0.  0.
        3    1    3    3  502    0 -0.38147434474E+03 -0.54440870445E+03 -0.29999981332E+03  0.72931708562E+03  0.10100000352E+00 0.  1.
       -3    1    3    3    0  502  0.38147434474E+03  0.54440870445E+03  0.63979105733E+02  0.66782995542E+03  0.10100000352E+00 0. -1.
</event>
<event>
 5   0  0.3907270E-04  0.1408627E+04  0.7818609E-02  0.8947597E-01
        1   -1    0    0  501    0  0.00000000000E+00  0.00000000000E+00  0.83637937774E+03  0.83637937776E+03  0.50400001928E-02 0. -1.
       -1   -1    0    0    0  501  0.00000000000E+00  0.00000000000E+00 -0.59310107841E+03  0.59310107843E+03  0.50400001928E-02 0.  1.
    10030    2    1    2    0    0  0.00000000000E+00  0.00000000000E+00  0.24327829934E+03  0.14294804562E+04  0.14086270066E+04 0.  0.
        3    1    3    3  502    0  0.23967158342E+03 -0.16511137976E+03  0.77250230299E+03  0.82550836092E+03  0.10100000352E+00 0. -1.
       -3    1    3    3    0  502 -0.23967158342E+03  0.16511137976E+03 -0.52922400365E+03  0.60397209527E+03  0.10100000352E+00 0.  1.
</event>
<event>
 5   0  0.6959748E-04  0.1363764E+04  0.7818609E-02  0.8980474E-01
        2   -1    0    0  501    0  0.00000000000E+00  0.00000000000E+00  0.87439273980E+03  0.87439273980E+03  0.25500000920E-02 0.  1.
       -2   -1    0    0    0  501  0.00000000000E+00  0.00000000000E+00 -0.53175501270E+03  0.53175501270E+03  0.25500000920E-02 0. -1.
    10030    2    1    2    0    0  0.00000000000E+00  0.00000000000E+00  0.34263772710E+03  0.14061477525E+04  0.13637635022E+04 0.  0.
        5    1    3    3  502    0 -0.23839081634E+03  0.15622632627E+02 -0.48717366273E+03  0.54261820428E+03  0.46999998093E+01 0. -1.
       -5    1    3    3    0  502  0.23839081634E+03 -0.15622632627E+02  0.82981138983E+03  0.86352954823E+03  0.46999998093E+01 0.  1.
</event>
<event>
 5   0  0.6870835E-04  0.1394246E+04  0.7818609E-02  0.8957994E-01
       -2   -1    0    0    0  501  0.00000000000E+00  0.00000000000E+00  0.27773453242E+04  0.27773453242E+04  0.25500000920E-02 0. -1.
        2   -1    0    0  501    0  0.00000000000E+00  0.00000000000E+00 -0.17498029414E+03  0.17498029415E+03  0.25500000920E-02 0.  1.
    10030    2    1    2    0    0  0.00000000000E+00  0.00000000000E+00  0.26023650301E+04  0.29523256184E+04  0.13942463222E+04 0.  0.
        2    1    3    3  502    0  0.38523391017E+03 -0.21964533616E+03  0.16218551907E+03  0.47217939583E+03  0.25500000920E-02 0.  1.
       -2    1    3    3    0  502 -0.38523391017E+03  0.21964533616E+03  0.24401795110E+04  0.24801462225E+04  0.25500000920E-02 0. -1.
</event>
<event>
 5   0  0.3907270E-04  0.1390596E+04  0.7818609E-02  0.8960654E-01
        1   -1    0    0  501    0  0.00000000000E+00  0.00000000000E+00  0.81338993342E+03  0.81338993344E+03  0.50400001928E-02 0.  1.
       -1   -1    0    0    0  501  0.00000000000E+00  0.00000000000E+00 -0.59435106392E+03  0.59435106394E+03  0.50400001928E-02 0. -1.
    10030    2    1    2    0    0  0.00000000000E+00  0.00000000000E+00  0.21903886950E+03  0.14077409974E+04  0.13905958037E+04 0.  0.
        3    1    3    3  502    0  0.22023713967E+03 -0.46650899510E+03 -0.36238692073E+03  0.63044375698E+03  0.10100000352E+00 0. -1.
       -3    1    3    3    0  502 -0.22023713967E+03  0.46650899510E+03  0.58142579023E+03  0.77729724041E+03  0.10100000352E+00 0.  1.
</event>
<event>
 5   0  0.6959748E-04  0.1429907E+04  0.7818609E-02  0.8932450E-01
       -2   -1    0    0    0  501  0.00000000000E+00  0.00000000000E+00  0.22774791429E+03  0.22774791430E+03  0.25500000920E-02 0. -1.
        2   -1    0    0  501    0  0.00000000000E+00  0.00000000000E+00 -0.22444049875E+04  0.22444049875E+04  0.25500000920E-02 0.  1.
    10030    2    1    2    0    0  0.00000000000E+00  0.00000000000E+00 -0.20166570732E+04  0.24721529018E+04  0.14299070666E+04 0.  0.
        5    1    3    3  502    0 -0.31199068411E+02 -0.93179807171E+02  0.21599045682E+03  0.23733905235E+03  0.46999998093E+01 0. -1.
       -5    1    3    3    0  502  0.31199068411E+02  0.93179807171E+02 -0.22326475301E+04  0.22348138495E+04  0.46999998093E+01 0.  1.
</event>
<event>
 5   0  0.3977658E-04  0.1405472E+04  0.7818609E-02  0.8949867E-01
       -1   -1    0    0    0  501  0.00000000000E+00  0.00000000000E+00  0.89176493413E+03  0.89176493414E+03  0.50400001928E-02 0.  1.
        1   -1    0    0  501    0  0.00000000000E+00  0.00000000000E+00 -0.55377614458E+03  0.55377614460E+03  0.50400001928E-02 0. -1.
    10030    2    1    2    0    0  0.00000000000E+00  0.00000000000E+00  0.33798878955E+03  0.14455410787E+04  0.14054723720E+04 0.  0.
        5    1    3    3  502    0  0.66190800034E+03 -0.23599503508E+03  0.16853485618E+03  0.72266309248E+03  0.46999998093E+01 0. -1.
       -5    1    3    3    0  502 -0.66190800034E+03  0.23599503508E+03  0.16945393337E+03  0.72287798626E+03  0.46999998093E+01 0.  1.
</event>
<event>
 5   0  0.6959748E-04  0.1391810E+04  0.7818609E-02  0.8959769E-01
       -2   -1    0    0    0  501  0.00000000000E+00  0.00000000000E+00  0.17111856356E+03  0.17111856358E+03  0.25500000920E-02 0. -1.
        2   -1    0    0  501    0  0.00000000000E+00  0.00000000000E+00 -0.28301051211E+04  0.28301051211E+04  0.25500000920E-02 0.  1.
    10030    2    1    2    0    0  0.00000000000E+00  0.00000000000E+00 -0.26589865575E+04  0.30012236846E+04  0.13918096466E+04 0.  0.
        5    1    3    3  502    0 -0.22961218449E+03  0.14673154576E+03  0.51258143308E+02  0.27731099697E+03  0.46999998093E+01 0. -1.
       -5    1    3    3    0  502  0.22961218449E+03 -0.14673154576E+03 -0.27102447008E+04  0.27239126877E+04  0.46999998093E+01 0.  1.
</event>
<event>
 5   0  0.7065539E-04  0.1423693E+04  0.7818609E-02  0.8936844E-01
       -2   -1    0    0    0  501  0.00000000000E+00  0.00000000000E+00  0.55972030074E+03  0.55972030074E+03  0.25500000920E-02 0.  1.
        2   -1    0    0  501    0  0.00000000000E+00  0.00000000000E+00 -0.90531956482E+03  0.90531956482E+03  0.25500000920E-02 0. -1.
    10030    2    1    2    0    0  0.00000000000E+00  0.00000000000E+00 -0.34559926408E+03  0.14650398656E+04  0.14236934208E+04 0.  0.
        1    1    3    3  502    0 -0.43829009809E+03 -0.38250424428E+03 -0.59498024580E+03  0.83211129057E+03  0.50400001928E-02 0. -1.
       -1    1    3    3    0  502  0.43829009809E+03  0.38250424428E+03  0.24938098172E+03  0.63292857499E+03  0.50400001928E-02 0.  1.
</event>
<event>
 5   0  0.6895048E-04  0.1404119E+04  0.7818609E-02  0.8950843E-01
        2   -1    0    0  501    0  0.00000000000E+00  0.00000000000E+00  0.68835292286E+03  0.68835292287E+03  0.25500000920E-02 0. -1.
       -2   -1    0    0    0  501  0.00000000000E+00  0.00000000000E+00 -0.71603870024E+03  0.71603870024E+03  0.25500000920E-02 0.  1.
    10030    2    1    2    0    0  0.00000000000E+00  0.00000000000E+00 -0.27685777375E+02  0.14043916231E+04  0.14041187018E+04 0.  0.
        4    1    3    3  502    0 -0.36067103778E+03  0.59665800500E+03 -0.96329197353E+02  0.70382192321E+03  0.12699999809E+01 0.  1.
       -4    1    3    3    0  502  0.36067103778E+03 -0.59665800500E+03  0.68643419978E+02  0.70056969991E+03  0.12699999809E+01 0. -1.
</event>
<event>
 5   0  0.3907270E-04  0.1387973E+04  0.7818609E-02  0.8962570E-01
       -1   -1    0    0    0  501  0.00000000000E+00  0.00000000000E+00  0.31634314350E+03  0.31634314354E+03  0.50400001928E-02 0.  1.
        1   -1    0    0  501    0  0.00000000000E+00  0.00000000000E+00 -0.15224524530E+04  0.15224524530E+04  0.50400001928E-02 0. -1.
    10030    2    1    2    0    0  0.00000000000E+00  0.00000000000E+00 -0.12061093095E+04  0.18387955965E+04  0.13879731912E+04 0.  0.
        3    1    3    3  502    0  0.57949110818E+03  0.77182403425E+02 -0.10762259742E+03  0.59443225142E+03  0.10100000352E+00 0.  1.
       -3    1    3    3    0  502 -0.57949110818E+03 -0.77182403425E+02 -0.10984867121E+04  0.12443633451E+04  0.10100000352E+00 0. -1.
</event>
<event>
 5   0  0.3907093E-04  0.1396667E+04  0.7818609E-02  0.8956235E-01
       -1   -1    0    0    0  501  0.00000000000E+00  0.00000000000E+00  0.11629618442E+04  0.11629618442E+04  0.50400001928E-02 0. -1.
        1   -1    0    0  501    0  0.00000000000E+00  0.00000000000E+00 -0.41933401989E+03  0.41933401992E+03  0.50400001928E-02 0.  1.
    10030    2    1    2    0    0  0.00000000000E+00  0.00000000000E+00  0.74362782433E+03  0.15822958642E+04  0.13966666963E+04 0.  0.
        4    1    3    3  502    0 -0.55148058431E+03 -0.23094680612E+03  0.78060497431E+03  0.98326649538E+03  0.12699999809E+01 0. -1.
       -4    1    3    3    0  502  0.55148058431E+03  0.23094680612E+03 -0.36977149982E+02  0.59902936877E+03  0.12699999809E+01 0.  1.
</event>
<event>
 5   0  0.7065539E-04  0.1395795E+04  0.7818609E-02  0.8956868E-01
       -2   -1    0    0    0  501  0.00000000000E+00  0.00000000000E+00  0.53091817356E+03  0.53091817357E+03  0.25500000920E-02 0.  1.
        2   -1    0    0  501    0  0.00000000000E+00  0.00000000000E+00 -0.91739421276E+03  0.91739421276E+03  0.25500000920E-02 0. -1.
    10030    2    1    2    0    0  0.00000000000E+00  0.00000000000E+00 -0.38647603919E+03  0.14483123863E+04  0.13957954863E+04 0.  0.
        1    1    3    3  502    0 -0.57040620970E+03 -0.23995390112E+03 -0.52805527295E+03  0.81350076216E+03  0.50400001928E-02 0. -1.
       -1    1    3    3    0  502  0.57040620970E+03  0.23995390112E+03  0.14157923376E+03  0.63481162417E+03  0.50400001928E-02 0.  1.
</event>
<event>
 5   0  0.3907093E-04  0.1412623E+04  0.7818609E-02  0.8944731E-01
        1   -1    0    0  501    0  0.00000000000E+00  0.00000000000E+00  0.18683939347E+04  0.18683939347E+04  0.50400001928E-02 0.  1.
       -1   -1    0    0    0  501  0.00000000000E+00  0.00000000000E+00 -0.26700807589E+03  0.26700807594E+03  0.50400001928E-02 0. -1.
    10030    2    1    2    0    0  0.00000000000E+00  0.00000000000E+00  0.16013858588E+04  0.21354020106E+04  0.14126234736E+04 0.  0.
        4    1    3    3  502    0 -0.26324968774E+03 -0.39814623075E+03  0.15877043032E+04  0.16578984850E+04  0.12699999809E+01 0. -1.
       -4    1    3    3    0  502  0.26324968774E+03  0.39814623075E+03  0.13681555587E+02  0.47750352566E+03  0.12699999809E+01 0.  1.
</event>
<event>
 5   0  0.6895048E-04  0.1391626E+04  0.7818609E-02  0.8959903E-01
        2   -1    0    0  501    0  0.00000000000E+00  0.00000000000E+00  0.16186723215E+04  0.16186723215E+04  0.25500000920E-02 0. -1.
       -2   -1    0    0    0  501  0.00000000000E+00  0.00000000000E+00 -0.29910658117E+03  0.29910658118E+03  0.25500000920E-02 0.  1.
    10030    2    1    2    0    0  0.00000000000E+00  0.00000000000E+00  0.13195657403E+04  0.19177789027E+04  0.13916257315E+04 0.  0.
        4    1    3    3  502    0  0.31475957457E+03 -0.61016770568E+03  0.81554742907E+03  0.10660663398E+04  0.12699999809E+01 0. -1.
       -4    1    3    3    0  502 -0.31475957457E+03  0.61016770568E+03  0.50401831126E+03  0.85171256291E+03  0.12699999809E+01 0.  1.
</event>
<event>
 5   0  0.6959748E-04  0.1399191E+04  0.7818609E-02  0.8954404E-01
       -2   -1    0    0    0  501  0.00000000000E+00  0.00000000000E+00  0.87116521392E+03  0.87116521393E+03  0.25500000920E-02 0.  1.
        2   -1    0    0  501    0  0.00000000000E+00  0.00000000000E+00 -0.56181543919E+03  0.56181543919E+03  0.25500000920E-02 0. -1.
    10030    2    1    2    0    0  0.00000000000E+00  0.00000000000E+00  0.30934977474E+03  0.14329806531E+04  0.13991912911E+04 0.  0.
        5    1    3    3  502    0  0.14602694895E+02  0.11872431341E+02 -0.56153996266E+03  0.56187490866E+03  0.46999998093E+01 0. -1.
       -5    1    3    3    0  502 -0.14602694895E+02 -0.11872431341E+02  0.87088973740E+03  0.87110574446E+03  0.46999998093E+01 0.  1.
</event>
<event>
 5   0  0.6959748E-04  0.1400584E+04  0.7818609E-02  0.8953396E-01
       -2   -1    0    0    0  501  0.00000000000E+00  0.00000000000E+00  0.10080311044E+04  0.10080311044E+04  0.25500000920E-02 0. -1.
        2   -1    0    0  501    0  0.00000000000E+00  0.00000000000E+00 -0.48650181499E+03  0.48650181500E+03  0.25500000920E-02 0.  1.
    10030    2    1    2    0    0  0.00000000000E+00  0.00000000000E+00  0.52152928938E+03  0.14945329194E+04  0.14005841094E+04 0.  0.
        5    1    3    3  502    0 -0.52331263728E+03  0.40224116020E+03  0.51040807528E+03  0.83438154378E+03  0.46999998093E+01 0. -1.
       -5    1    3    3    0  502  0.52331263728E+03 -0.40224116020E+03  0.11121214100E+02  0.66015137559E+03  0.46999998093E+01 0.  1.
</event>
<event>
 5   0  0.3907093E-04  0.1408051E+04  0.7818609E-02  0.8948011E-01
        1   -1    0    0  501    0  0.00000000000E+00  0.00000000000E+00  0.12221486356E+04  0.12221486356E+04  0.50400001928E-02 0. -1.
       -1   -1    0    0    0  501  0.00000000000E+00  0.00000000000E+00 -0.40555788850E+03  0.40555788854E+03  0.50400001928E-02 0.  1.
    10030    2    1    2    0    0  0.00000000000E+00  0.00000000000E+00  0.81659074705E+03  0.16277065241E+04  0.14080511640E+04 0.  0.
        4    1    3    3  502    0 -0.61326292693E+02  0.11351111951E+03 -0.39177384915E+03  0.41247309028E+03  0.12699999809E+01 0.  1.
       -4    1    3    3    0  502  0.61326292693E+02 -0.11351111951E+03  0.12083645962E+04  0.12152334338E+04  0.12699999809E+01 0. -1.
</event>
<event>
 5   0  0.3907093E-04  0.1420824E+04  0.7818609E-02  0.8938881E-01
       -1   -1    0    0    0  501  0.00000000000E+00  0.00000000000E+00  0.48912415194E+03  0.48912415197E+03  0.50400001928E-02 0.  1.
        1   -1    0    0  501    0  0.00000000000E+00  0.00000000000E+00 -0.10318142202E+04  0.10318142203E+04  0.50400001928E-02 0. -1.
    10030    2    1    2    0    0  0.00000000000E+00  0.00000000000E+00 -0.54269006830E+03  0.15209383722E+04  0.14208240644E+04 0.  0.
        4    1    3    3  502    0  0.57147661649E+03 -0.25632571125E+03  0.87531688365E+02  0.63241742767E+03  0.12699999809E+01 0.  1.
       -4    1    3    3    0  502 -0.57147661649E+03  0.25632571125E+03 -0.63022175666E+03  0.88852094456E+03  0.12699999809E+01 0. -1.
</event>
<event>
 5   0  0.2660250E-04  0.1401991E+04  0.7818609E-02  0.8952378E-01
       -3   -1    0    0    0  501  0.00000000000E+00  0.00000000000E+00  0.10673322478E+04  0.10673322526E+04  0.10100000352E+00 0. -1.
        3   -1    0    0  501    0  0.00000000000E+00  0.00000000000E+00 -0.46039545125E+03  0.46039546233E+03  0.10100000352E+00 0.  1.
    10030    2    1    2    0    0  0.00000000000E+00  0.00000000000E+00  0.60693679654E+03  0.15277277149E+04  0.14019913323E+04 0.  0.
        5    1    3    3  502    0 -0.61380921322E+01 -0.64592532630E+03  0.60012603512E+03  0.88172022283E+03  0.46999998093E+01 0. -1.
       -5    1    3    3    0  502  0.61380921322E+01  0.64592532630E+03  0.68107614205E+01  0.64600749206E+03  0.46999998093E+01 0.  1.
</event>
<event>
 5   0  0.3784219E-04  0.1392975E+04  0.7818609E-02  0.8958919E-01
       -1   -1    0    0    0  501  0.00000000000E+00  0.00000000000E+00  0.24480798048E+03  0.24480798053E+03  0.50400001928E-02 0. -1.
        1   -1    0    0  501    0  0.00000000000E+00  0.00000000000E+00 -0.19815321304E+04  0.19815321304E+04  0.50400001928E-02 0.  1.
    10030    2    1    2    0    0  0.00000000000E+00  0.00000000000E+00 -0.17367241499E+04  0.22263401110E+04  0.13929750596E+04 0.  0.
        1    1    3    3  502    0 -0.25968980032E+02  0.50245375936E+03 -0.16381221568E+04  0.17136447616E+04  0.50400001928E-02 0.  1.
       -1    1    3    3    0  502  0.25968980032E+02 -0.50245375936E+03 -0.98601993156E+02  0.51269534940E+03  0.50400001928E-02 0. -1.
</event>
<event>
 5   0  0.6959748E-04  0.1397626E+04  0.7818609E-02  0.8955539E-01
       -2   -1    0    0    0  501  0.00000000000E+00  0.00000000000E+00  0.36818322112E+03  0.36818322113E+03  0.25500000920E-02 0. -1.
        2   -1    0    0  501    0  0.00000000000E+00  0.00000000000E+00 -0.13263493632E+04  0.13263493632E+04  0.25500000920E-02 0.  1.
    10030    2    1    2    0    0  0.00000000000E+00  0.00000000000E+00 -0.95816614204E+03  0.16945325843E+04  0.13976259598E+04 0.  0.
        5    1    3    3  502    0  0.31905366078E+03  0.54111168859E+03 -0.85025576230E+03  0.10571442897E+04  0.46999998093E+01 0. -1.
       -5    1    3    3    0  502 -0.31905366078E+03 -0.54111168859E+03 -0.10791037974E+03  0.63738829456E+03  0.46999998093E+01 0.  1.
</event>
<event>
 5   0  0.6895048E-04  0.1249574E+04  0.7818609E-02  0.9070538E-01
       -2   -1    0    0    0  501  0.00000000000E+00  0.00000000000E+00  0.33552955882E+03  0.33552955883E+03  0.25500000920E-02 0. -1.
        2   -1    0    0  501    0  0.00000000000E+00  0.00000000000E+00 -0.11634114974E+04  0.11634114974E+04  0.25500000920E-02 0.  1.
    10030    2    1    2    0    0  0.00000000000E+00  0.00000000000E+00 -0.82788193862E+03  0.14989410563E+04  0.12495742419E+04 0.  0.
        4    1    3    3  502    0  0.52167037690E+03 -0.27072283026E+03 -0.15968346081E+03  0.60904125765E+03  0.12699999809E+01 0. -1.
       -4    1    3    3    0  502 -0.52167037690E+03  0.27072283026E+03 -0.66819847780E+03  0.88989979863E+03  0.12699999809E+01 0.  1.
</event>
<event>
 5   0  0.7065539E-04  0.1403259E+04  0.7818609E-02  0.8951463E-01
       -2   -1    0    0    0  501  0.00000000000E+00  0.00000000000E+00  0.54177445723E+03  0.54177445723E+03  0.25500000920E-02 0.  1.
        2   -1    0    0  501    0  0.00000000000E+00  0.00000000000E+00 -0.90865132144E+03  0.90865132144E+03  0.25500000920E-02 0. -1.
    10030    2    1    2    0    0  0.00000000000E+00  0.00000000000E+00 -0.36687686421E+03  0.14504257787E+04  0.14032591728E+04 0.  0.
        1    1    3    3  502    0 -0.22615330696E+03  0.74727009028E+02 -0.86558694813E+03  0.89775843573E+03  0.50400001928E-02 0. -1.
       -1    1    3    3    0  502  0.22615330696E+03 -0.74727009028E+02  0.49871008392E+03  0.55266734294E+03  0.50400001928E-02 0.  1.
</event>
<event>
 5   0  0.7065539E-04  0.1402193E+04  0.7818609E-02  0.8952233E-01
        2   -1    0    0  501    0  0.00000000000E+00  0.00000000000E+00  0.73792072812E+03  0.73792072813E+03  0.25500000920E-02 0. -1.
       -2   -1    0    0    0  501  0.00000000000E+00  0.00000000000E+00 -0.66610958241E+03  0.66610958242E+03  0.25500000920E-02 0.  1.
    10030    2    1    2    0    0  0.00000000000E+00  0.00000000000E+00  0.71811145710E+02  0.14040303105E+04  0.14021926659E+04 0.  0.
        1    1    3    3  502    0 -0.68434462417E+03  0.15211975848E+03  0.44167597733E+02  0.70243772839E+03  0.50400001928E-02 0.  1.
       -1    1    3    3    0  502  0.68434462417E+03 -0.15211975848E+03  0.27643547977E+02  0.70159258215E+03  0.50400001928E-02 0. -1.
</event>
<event>
 5   0  0.3756664E-04  0.1406832E+04  0.7818609E-02  0.8948888E-01
       -1   -1    0    0    0  501  0.00000000000E+00  0.00000000000E+00  0.80503543161E+03  0.80503543163E+03  0.50400001928E-02 0.  1.
        1   -1    0    0  501    0  0.00000000000E+00  0.00000000000E+00 -0.61462369259E+03  0.61462369261E+03  0.50400001928E-02 0. -1.
    10030    2    1    2    0    0  0.00000000000E+00  0.00000000000E+00  0.19041173903E+03  0.14196591242E+04  0.14068316881E+04 0.  0.
        2    1    3    3  502    0  0.48947664322E+03  0.41011555950E+03  0.39287290762E+03  0.74975414500E+03  0.25500000920E-02 0. -1.
       -2    1    3    3    0  502 -0.48947664322E+03 -0.41011555950E+03 -0.20246116859E+03  0.66990497923E+03  0.25500000920E-02 0.  1.
</event>
<event>
 5   0  0.3977658E-04  0.1388366E+04  0.7818609E-02  0.8962283E-01
        1   -1    0    0  501    0  0.00000000000E+00  0.00000000000E+00  0.16372767015E+04  0.16372767015E+04  0.50400001928E-02 0.  1.
       -1   -1    0    0    0  501  0.00000000000E+00  0.00000000000E+00 -0.29432400497E+03  0.29432400501E+03  0.50400001928E-02 0. -1.
    10030    2    1    2    0    0  0.00000000000E+00  0.00000000000E+00  0.13429526965E+04  0.19316007065E+04  0.13883657099E+04 0.  0.
        5    1    3    3  502    0  0.42893375849E+03  0.19168831006E+03 -0.39490720871E+02  0.47149780956E+03  0.46999998093E+01 0. -1.
       -5    1    3    3    0  502 -0.42893375849E+03 -0.19168831006E+03  0.13824434174E+04  0.14601028969E+04  0.46999998093E+01 0.  1.
</event>
<event>
 5   0  0.6959748E-04  0.1411510E+04  0.7818609E-02  0.8945529E-01
       -2   -1    0    0    0  501  0.00000000000E+00  0.00000000000E+00  0.62697640815E+03  0.62697640815E+03  0.25500000920E-02 0.  1.
        2   -1    0    0  501    0  0.00000000000E+00  0.00000000000E+00 -0.79443152825E+03  0.79443152826E+03  0.25500000920E-02 0. -1.
    10030    2    1    2    0    0  0.00000000000E+00  0.00000000000E+00 -0.16745512011E+03  0.14214079364E+04  0.14115095835E+04 0.  0.
        5    1    3    3  502    0 -0.34890524791E+03 -0.47414085034E+03  0.30826212671E+03  0.66452392488E+03  0.46999998093E+01 0.  1.
       -5    1    3    3    0  502  0.34890524791E+03  0.47414085034E+03 -0.47571724682E+03  0.75688401152E+03  0.46999998093E+01 0. -1.
</event>
<event>
 5   0  0.3907093E-04  0.1395572E+04  0.7818609E-02  0.8957030E-01
        1   -1    0    0  501    0  0.00000000000E+00  0.00000000000E+00  0.39360738670E+03  0.39360738674E+03  0.50400001928E-02 0. -1.
       -1   -1    0    0    0  501  0.00000000000E+00  0.00000000000E+00 -0.12370322238E+04  0.12370322238E+04  0.50400001928E-02 0.  1.
    10030    2    1    2    0    0  0.00000000000E+00  0.00000000000E+00 -0.84342483712E+03  0.16306396106E+04  0.13955715975E+04 0.  0.
        4    1    3    3  502    0 -0.68224675037E+03  0.10953530052E+03 -0.30815848247E+03  0.75658566843E+03  0.12699999809E+01 0. -1.
       -4    1    3    3    0  502  0.68224675037E+03 -0.10953530052E+03 -0.53526635464E+03  0.87405394214E+03  0.12699999809E+01 0.  1.
</event>
<event>
 5   0  0.6870835E-04  0.1390395E+04  0.7818609E-02  0.8960800E-01
       -2   -1    0    0    0  501  0.00000000000E+00  0.00000000000E+00  0.55272013617E+03  0.55272013618E+03  0.25500000920E-02 0.  1.
        2   -1    0    0  501    0  0.00000000000E+00  0.00000000000E+00 -0.87440231104E+03  0.87440231104E+03  0.25500000920E-02 0. -1.
    10030    2    1    2    0    0  0.00000000000E+00  0.00000000000E+00 -0.32168217487E+03  0.14271224472E+04  0.13903952883E+04 0.  0.
        2    1    3    3  502    0 -0.52166174073E+03  0.34019493000E+03 -0.47792888125E+03  0.78503476208E+03  0.25500000920E-02 0. -1.
       -2    1    3    3    0  502  0.52166174073E+03 -0.34019493000E+03  0.15624670638E+03  0.64208768513E+03  0.25500000920E-02 0.  1.
</event>
<event>
 5   0  0.3784219E-04  0.1402420E+04  0.7818609E-02  0.8952069E-01
        1   -1    0    0  501    0  0.00000000000E+00  0.00000000000E+00  0.13260912277E+04  0.13260912277E+04  0.50400001928E-02 0.  1.
       -1   -1    0    0    0  501  0.00000000000E+00  0.00000000000E+00 -0.37078553238E+03  0.37078553241E+03  0.50400001928E-02 0. -1.
    10030    2    1    2    0    0  0.00000000000E+00  0.00000000000E+00  0.95530569530E+03  0.16968767601E+04  0.14024199683E+04 0.  0.
        1    1    3    3  502    0 -0.55811888208E+03 -0.15672197047E+03  0.95499370793E+03  0.11171711797E+04  0.50400001928E-02 0.  1.
       -1    1    3    3    0  502  0.55811888208E+03  0.15672197047E+03  0.31198736954E+00  0.57970558038E+03  0.50400001928E-02 0. -1.
</event>
<event>
 5   0  0.7296966E-04  0.1424617E+04  0.7818609E-02  0.8936190E-01
        2   -1    0    0  501    0  0.00000000000E+00  0.00000000000E+00  0.52747694887E+03  0.52747694888E+03  0.25500000920E-02 0.  1.
       -2   -1    0    0    0  501  0.00000000000E+00  0.00000000000E+00 -0.96190623384E+03  0.96190623384E+03  0.25500000920E-02 0. -1.
    10030    2    1    2    0    0  0.00000000000E+00  0.00000000000E+00 -0.43442928497E+03  0.14893831827E+04  0.14246169525E+04 0.  0.
        3    1    3    3  502    0 -0.17219538692E+03  0.59041608271E+03  0.15848461039E+03  0.63510612022E+03  0.10100000352E+00 0.  1.
       -3    1    3    3    0  502  0.17219538692E+03 -0.59041608271E+03 -0.59291389536E+03  0.85427706250E+03  0.10100000352E+00 0. -1.
</event>
<event>
 5   0  0.6959748E-04  0.1400382E+04  0.7818609E-02  0.8953542E-01
        2   -1    0    0  501    0  0.00000000000E+00  0.00000000000E+00  0.11198868994E+04  0.11198868994E+04  0.25500000920E-02 0. -1.
       -2   -1    0    0    0  501  0.00000000000E+00  0.00000000000E+00 -0.43778321586E+03  0.43778321587E+03  0.25500000920E-02 0.  1.
    10030    2    1    2    0    0  0.00000000000E+00  0.00000000000E+00  0.68210368354E+03  0.15576701153E+04  0.14003823596E+04 0.  0.
        5    1    3    3  502    0 -0.27926511473E+03  0.55843942608E+03 -0.11400208536E+02  0.62449631837E+03  0.46999998093E+01 0.  1.
       -5    1    3    3    0  502  0.27926511473E+03 -0.55843942608E+03  0.69350389208E+03  0.93317379691E+03  0.46999998093E+01 0. -1.
</event>
<event>
 5   0  0.3784219E-04  0.1386134E+04  0.7818609E-02  0.8963917E-01
       -1   -1    0    0    0  501  0.00000000000E+00  0.00000000000E+00  0.58199448232E+03  0.58199448235E+03  0.50400001928E-02 0.  1.
        1   -1    0    0  501    0  0.00000000000E+00  0.00000000000E+00 -0.82533779366E+03  0.82533779368E+03  0.50400001928E-02 0. -1.
    10030    2    1    2    0    0  0.00000000000E+00  0.00000000000E+00 -0.24334331134E+03  0.14073322760E+04  0.13861342532E+04 0.  0.
        1    1    3    3  502    0  0.53652401290E+02 -0.41882876596E+03  0.43632017920E+03  0.60718318007E+03  0.50400001928E-02 0.  1.
       -1    1    3    3    0  502 -0.53652401290E+02  0.41882876596E+03 -0.67966349054E+03  0.80014909595E+03  0.50400001928E-02 0. -1.
</event>
<event>
 5   0  0.3907093E-04  0.1357641E+04  0.7818609E-02  0.8985064E-01
       -1   -1    0    0    0  501  0.00000000000E+00  0.00000000000E+00  0.61287790748E+03  0.61287790750E+03  0.50400001928E-02 0.  1.
        1   -1    0    0  501    0  0.00000000000E+00  0.00000000000E+00 -0.75185800384E+03  0.75185800385E+03  0.50400001928E-02 0. -1.
    10030    2    1    2    0    0  0.00000000000E+00  0.00000000000E+00 -0.13898009635E+03  0.13647359114E+04  0.13576408364E+04 0.  0.
        4    1    3    3  502    0  0.16022428733E+03  0.65917119776E+03 -0.94460498841E+02  0.68491086205E+03  0.12699999809E+01 0. -1.
       -4    1    3    3    0  502 -0.16022428733E+03 -0.65917119776E+03 -0.44519597513E+02  0.67982504931E+03  0.12699999809E+01 0.  1.
</event>
<event>
 5   0  0.3977658E-04  0.1399307E+04  0.7818609E-02  0.8954320E-01
       -1   -1    0    0    0  501  0.00000000000E+00  0.00000000000E+00  0.91415172367E+03  0.91415172368E+03  0.50400001928E-02 0. -1.
        1   -1    0    0  501    0  0.00000000000E+00  0.00000000000E+00 -0.53548545177E+03  0.53548545179E+03  0.50400001928E-02 0.  1.
    10030    2    1    2    0    0  0.00000000000E+00  0.00000000000E+00  0.37866627190E+03  0.14496371755E+04  0.13993068981E+04 0.  0.
        5    1    3    3  502    0  0.39226569571E+03  0.23672829852E+03 -0.35843850557E+03  0.58173268400E+03  0.46999998093E+01 0.  1.
       -5    1    3    3    0  502 -0.39226569571E+03 -0.23672829852E+03  0.73710477747E+03  0.86790449148E+03  0.46999998093E+01 0. -1.
</event>
<event>
 5   0  0.3977658E-04  0.1403091E+04  0.7818609E-02  0.8951584E-01
        1   -1    0    0  501    0  0.00000000000E+00  0.00000000000E+00  0.11167555438E+04  0.11167555438E+04  0.50400001928E-02 0.  1.
       -1   -1    0    0    0  501  0.00000000000E+00  0.00000000000E+00 -0.44071063162E+03  0.44071063165E+03  0.50400001928E-02 0. -1.
    10030    2    1    2    0    0  0.00000000000E+00  0.00000000000E+00  0.67604491219E+03  0.15574661755E+04  0.14030909324E+04 0.  0.
        5    1    3    3  502    0  0.12042340809E+03  0.18012266056E+03  0.10786662681E+04  0.11002222403E+04  0.46999998093E+01 0.  1.
       -5    1    3    3    0  502 -0.12042340809E+03 -0.18012266056E+03 -0.40262135590E+03  0.45724393521E+03  0.46999998093E+01 0. -1.
</event>
<event>
 5   0  0.6959748E-04  0.1399052E+04  0.7818609E-02  0.8954505E-01
       -2   -1    0    0    0  501  0.00000000000E+00  0.00000000000E+00  0.14828921023E+04  0.14828921023E+04  0.25500000920E-02 0. -1.
        2   -1    0    0  501    0  0.00000000000E+00  0.00000000000E+00 -0.32998824543E+03  0.32998824544E+03  0.25500000920E-02 0.  1.
    10030    2    1    2    0    0  0.00000000000E+00  0.00000000000E+00  0.11529038569E+04  0.18128803477E+04  0.13990524836E+04 0.  0.
        5    1    3    3  502    0  0.81150286774E+02 -0.26168947453E+02  0.14761127039E+04  0.14785807341E+04  0.46999998093E+01 0. -1.
       -5    1    3    3    0  502 -0.81150286774E+02  0.26168947453E+02 -0.32320884701E+03  0.33429961358E+03  0.46999998093E+01 0.  1.
</event>
<event>
 5   0  0.6959748E-04  0.1406712E+04  0.7818609E-02  0.8948974E-01
       -2   -1    0    0    0  501  0.00000000000E+00  0.00000000000E+00  0.65001223611E+03  0.65001223611E+03  0.25500000920E-02 0. -1.
        2   -1    0    0  501    0  0.00000000000E+00  0.00000000000E+00 -0.76107752697E+03  0.76107752697E+03  0.25500000920E-02 0.  1.
    10030    2    1    2    0    0  0.00000000000E+00  0.00000000000E+00 -0.11106529086E+03  0.14110897631E+04  0.14067120603E+04 0.  0.
        5    1    3    3  502    0 -0.15094511535E+03  0.63485922250E+03 -0.31875534376E+03  0.72626284458E+03  0.46999998093E+01 0.  1.
       -5    1    3    3    0  502  0.15094511535E+03 -0.63485922250E+03  0.20769005290E+03  0.68482691851E+03  0.46999998093E+01 0. -1.
</event>
<event>
 5   0  0.7296966E-04  0.1397696E+04  0.7818609E-02  0.8955488E-01
       -2   -1    0    0    0  501  0.00000000000E+00  0.00000000000E+00  0.50776478200E+03  0.50776478201E+03  0.25500000920E-02 0. -1.
        2   -1    0    0  501    0  0.00000000000E+00  0.00000000000E+00 -0.96184028273E+03  0.96184028273E+03  0.25500000920E-02 0.  1.
    10030    2    1    2    0    0  0.00000000000E+00  0.00000000000E+00 -0.45407550073E+03  0.14696050647E+04  0.13976961351E+04 0.  0.
        3    1    3    3  502    0  0.26439468202E+03 -0.24242086573E+02 -0.90674543930E+03  0.94481719319E+03  0.10100000352E+00 0.  1.
       -3    1    3    3    0  502 -0.26439468202E+03  0.24242086573E+02  0.45266993858E+03  0.52478787156E+03  0.10100000352E+00 0. -1.
</event>
<event>
 5   0  0.6959748E-04  0.1372085E+04  0.7818609E-02  0.8974276E-01
        2   -1    0    0  501    0  0.00000000000E+00  0.00000000000E+00  0.20262003454E+04  0.20262003454E+04  0.25500000920E-02 0.  1.
       -2   -1    0    0    0  501  0.00000000000E+00  0.00000000000E+00 -0.23228434687E+03  0.23228434688E+03  0.25500000920E-02 0. -1.
    10030    2    1    2    0    0  0.00000000000E+00  0.00000000000E+00  0.17939159985E+04  0.22584846923E+04  0.13720854549E+04 0.  0.
        5    1    3    3  502    0  0.75423002282E+02 -0.30087657825E+03 -0.11023774057E+03  0.32922605312E+03  0.46999998093E+01 0. -1.
       -5    1    3    3    0  502 -0.75423002282E+02  0.30087657825E+03  0.19041537391E+04  0.19292586392E+04  0.46999998093E+01 0.  1.
</event>
<event>
 5   0  0.3756664E-04  0.1393171E+04  0.7818609E-02  0.8958776E-01
       -1   -1    0    0    0  501  0.00000000000E+00  0.00000000000E+00  0.56075461506E+03  0.56075461509E+03  0.50400001928E-02 0.  1.
        1   -1    0    0  501    0  0.00000000000E+00  0.00000000000E+00 -0.86531899655E+03  0.86531899657E+03  0.50400001928E-02 0. -1.
    10030    2    1    2    0    0  0.00000000000E+00  0.00000000000E+00 -0.30456438149E+03  0.14260736117E+04  0.13931713762E+04 0.  0.
        2    1    3    3  502    0  0.65699803022E+03  0.12690048223E+03 -0.35045576729E+03  0.75536043644E+03  0.25500000920E-02 0. -1.
       -2    1    3    3    0  502 -0.65699803022E+03 -0.12690048223E+03  0.45891385797E+02  0.67071317521E+03  0.25500000920E-02 0.  1.
</event>
<event>
 5   0  0.7296966E-04  0.1392496E+04  0.7818609E-02  0.8959268E-01
       -2   -1    0    0    0  501  0.00000000000E+00  0.00000000000E+00  0.42245893002E+03  0.42245893003E+03  0.25500000920E-02 0. -1.
        2   -1    0    0  501    0  0.00000000000E+00  0.00000000000E+00 -0.11474751300E+04  0.11474751300E+04  0.25500000920E-02 0.  1.
    10030    2    1    2    0    0  0.00000000000E+00  0.00000000000E+00 -0.72501620000E+03  0.15699340600E+04  0.13924957675E+04 0.  0.
        3    1    3    3  502    0 -0.22567291119E+03  0.45560605230E+03 -0.89878309726E+03  0.10326258780E+04  0.10100000352E+00 0.  1.
       -3    1    3    3    0  502  0.22567291119E+03 -0.45560605230E+03  0.17376689727E+03  0.53730818207E+03  0.10100000352E+00 0. -1.
</event>
<event>
 5   0  0.6870835E-04  0.1401956E+04  0.7818609E-02  0.8952404E-01
        2   -1    0    0  501    0  0.00000000000E+00  0.00000000000E+00  0.10886817757E+04  0.10886817757E+04  0.25500000920E-02 0.  1.
       -2   -1    0    0    0  501  0.00000000000E+00  0.00000000000E+00 -0.45134427810E+03  0.45134427811E+03  0.25500000920E-02 0. -1.
    10030    2    1    2    0    0  0.00000000000E+00  0.00000000000E+00  0.63733749757E+03  0.15400260538E+04  0.14019561907E+04 0.  0.
        2    1    3    3  502    0 -0.17213005534E+03  0.51193392769E+03  0.80951423436E+03  0.97314870287E+03  0.25500000920E-02 0.  1.
       -2    1    3    3    0  502  0.17213005534E+03 -0.51193392769E+03 -0.17217673679E+03  0.56687735091E+03  0.25500000920E-02 0. -1.
</event>
<event>
 5   0  0.7296966E-04  0.1398127E+04  0.7818609E-02  0.8955175E-01
        2   -1    0    0  501    0  0.00000000000E+00  0.00000000000E+00  0.66186668737E+03  0.66186668737E+03  0.25500000920E-02 0.  1.
       -2   -1    0    0    0  501  0.00000000000E+00  0.00000000000E+00 -0.73835107229E+03  0.73835107229E+03  0.25500000920E-02 0. -1.
    10030    2    1    2    0    0  0.00000000000E+00  0.00000000000E+00 -0.76484384916E+02  0.14002177597E+04  0.13981272880E+04 0.  0.
        3    1    3    3  502    0  0.41259233870E+03 -0.50051820834E+03  0.22279874175E+03  0.68584998678E+03  0.10100000352E+00 0.  1.
       -3    1    3    3    0  502 -0.41259233870E+03  0.50051820834E+03 -0.29928312667E+03  0.71436777289E+03  0.10100000352E+00 0. -1.
</event>
<event>
 5   0  0.3756664E-04  0.1399376E+04  0.7818609E-02  0.8954270E-01
       -1   -1    0    0    0  501  0.00000000000E+00  0.00000000000E+00  0.42429295517E+03  0.42429295520E+03  0.50400001928E-02 0.  1.
        1   -1    0    0  501    0  0.00000000000E+00  0.00000000000E+00 -0.11538332087E+04  0.11538332087E+04  0.50400001928E-02 0. -1.
    10030    2    1    2    0    0  0.00000000000E+00  0.00000000000E+00 -0.72954025355E+03  0.15781261639E+04  0.13993760066E+04 0.  0.
        2    1    3    3  502    0  0.22157762275E+03 -0.39708861639E+03  0.23493427927E+03  0.51183017472E+03  0.25500000920E-02 0.  1.
       -2    1    3    3    0  502 -0.22157762275E+03  0.39708861639E+03 -0.96447453282E+03  0.10662959892E+04  0.25500000920E-02 0. -1.
</event>
<event>
 5   0  0.6870835E-04  0.1428409E+04  0.7818609E-02  0.8933507E-01
        2   -1    0    0  501    0  0.00000000000E+00  0.00000000000E+00  0.17617803254E+04  0.17617803254E+04  0.25500000920E-02 0.  1.
       -2   -1    0    0    0  501  0.00000000000E+00  0.00000000000E+00 -0.28952994353E+03  0.28952994354E+03  0.25500000920E-02 0. -1.
    10030    2    1    2    0    0  0.00000000000E+00  0.00000000000E+00  0.14722503819E+04  0.20513102690E+04  0.14284091265E+04 0.  0.
        2    1    3    3  502    0 -0.10625152116E+03 -0.46313236180E+03 -0.29599511233E+02  0.47608518289E+03  0.25500000920E-02 0. -1.
       -2    1    3    3    0  502  0.10625152116E+03  0.46313236180E+03  0.15018498931E+04  0.15752250861E+04  0.25500000920E-02 0.  1.
</event>
<event>
 5   0  0.3907093E-04  0.1425871E+04  0.7818609E-02  0.8935302E-01
        1   -1    0    0  501    0  0.00000000000E+00  0.00000000000E+00  0.95683045481E+03  0.95683045482E+03  0.50400001928E-02 0. -1.
       -1   -1    0    0    0  501  0.00000000000E+00  0.00000000000E+00 -0.53120885190E+03  0.53120885192E+03  0.50400001928E-02 0.  1.
    10030    2    1    2    0    0  0.00000000000E+00  0.00000000000E+00  0.42562160291E+03  0.14880393067E+04  0.14258706917E+04 0.  0.
        4    1    3    3  502    0  0.57704198093E+03  0.32746454830E+03  0.48507797346E+03  0.82189581541E+03  0.12699999809E+01 0. -1.
       -4    1    3    3    0  502 -0.57704198093E+03 -0.32746454830E+03 -0.59456370547E+02  0.66614349134E+03  0.12699999809E+01 0.  1.
</event>
<event>
 5   0  0.3907093E-04  0.1394908E+04  0.7818609E-02  0.8957513E-01
       -1   -1    0    0    0  501  0.00000000000E+00  0.00000000000E+00  0.84654886967E+03  0.84654886969E+03  0.50400001928E-02 0. -1.
        1   -1    0    0  501    0  0.00000000000E+00  0.00000000000E+00 -0.57461752587E+03  0.57461752589E+03  0.50400001928E-02 0.  1.
    10030    2    1    2    0    0  0.00000000000E+00  0.00000000000E+00  0.27193134380E+03  0.14211663956E+04  0.13949076199E+04 0.  0.
        4    1    3    3  502    0  0.10287924909E+02 -0.54744908036E+02 -0.57234643467E+03  0.57505208506E+03  0.12699999809E+01 0.  1.
       -4    1    3    3    0  502 -0.10287924909E+02  0.54744908036E+02  0.84427777847E+03  0.84611431052E+03  0.12699999809E+01 0. -1.
</event>
<event>
 5   0  0.6895048E-04  0.1400720E+04  0.7818609E-02  0.8953297E-01
       -2   -1    0    0    0  501  0.00000000000E+00  0.00000000000E+00  0.10787521263E+04  0.10787521263E+04  0.25500000920E-02 0.  1.
        2   -1    0    0  501    0  0.00000000000E+00  0.00000000000E+00 -0.45469594934E+03  0.45469594934E+03  0.25500000920E-02 0. -1.
    10030    2    1    2    0    0  0.00000000000E+00  0.00000000000E+00  0.62405617693E+03  0.15334480756E+04  0.14007201322E+04 0.  0.
        4    1    3    3  502    0 -0.15737510403E+03 -0.42423728050E+03  0.89724547303E+03  0.10048856877E+04  0.12699999809E+01 0.  1.
       -4    1    3    3    0  502  0.15737510403E+03  0.42423728050E+03 -0.27318929610E+03  0.52856238793E+03  0.12699999809E+01 0. -1.
</event>
<event>
 5   0  0.3907270E-04  0.1392237E+04  0.7818609E-02  0.8959457E-01
        1   -1    0    0  501    0  0.00000000000E+00  0.00000000000E+00  0.11931981643E+04  0.11931981643E+04  0.50400001928E-02 0. -1.
       -1   -1    0    0    0  501  0.00000000000E+00  0.00000000000E+00 -0.40611958684E+03  0.40611958687E+03  0.50400001928E-02 0.  1.
    10030    2    1    2    0    0  0.00000000000E+00  0.00000000000E+00  0.78707857742E+03  0.15993177511E+04  0.13922372578E+04 0.  0.
        3    1    3    3  502    0  0.69346587081E+03  0.28175247339E+02  0.33175914158E+03  0.76925476714E+03  0.10100000352E+00 0.  1.
       -3    1    3    3    0  502 -0.69346587081E+03 -0.28175247339E+02  0.45531943585E+03  0.83006298400E+03  0.10100000352E+00 0. -1.
</event>
<event>
 5   0  0.2660250E-04  0.1415565E+04  0.7818609E-02  0.8942628E-01
        4   -1    0    0  501    0  0.00000000000E+00  0.00000000000E+00  0.37448730597E+03  0.37448945944E+03  0.12699999809E+01 0.  1.
       -4   -1    0    0    0  501  0.00000000000E+00  0.00000000000E+00 -0.13377062685E+04  0.13377068714E+04  0.12699999809E+01 0. -1.
    10030    2    1    2    0    0  0.00000000000E+00  0.00000000000E+00 -0.96321896257E+03  0.17121963308E+04  0.14155654367E+04 0.  0.
        3    1    3    3  502    0  0.56876364162E+03 -0.20619869614E+02  0.27320712268E+02  0.56979267333E+03  0.10100000352E+00 0.  1.
       -3    1    3    3    0  502 -0.56876364162E+03  0.20619869614E+02 -0.99053967484E+03  0.11424036575E+04  0.10100000352E+00 0. -1.
</event>
<event>
 5   0  0.7065539E-04  0.1405072E+04  0.7818609E-02  0.8950155E-01
       -2   -1    0    0    0  501  0.00000000000E+00  0.00000000000E+00  0.86132381270E+03  0.86132381271E+03  0.25500000920E-02 0. -1.
        2   -1    0    0  501    0  0.00000000000E+00  0.00000000000E+00 -0.57302113582E+03  0.57302113582E+03  0.25500000920E-02 0.  1.
    10030    2    1    2    0    0  0.00000000000E+00  0.00000000000E+00  0.28830267688E+03  0.14343449485E+04  0.14050718835E+04 0.  0.
        1    1    3    3  502    0  0.38458087121E+03  0.58325670225E+03  0.21962350006E+03  0.73234234414E+03  0.50400001928E-02 0. -1.
       -1    1    3    3    0  502 -0.38458087121E+03 -0.58325670225E+03  0.68679176825E+02  0.70200260439E+03  0.50400001928E-02 0.  1.
</event>
<event>
 5   0  0.7296966E-04  0.1397821E+04  0.7818609E-02  0.8955397E-01
        2   -1    0    0  501    0  0.00000000000E+00  0.00000000000E+00  0.54291464671E+03  0.54291464671E+03  0.25500000920E-02 0. -1.
       -2   -1    0    0    0  501  0.00000000000E+00  0.00000000000E+00 -0.89972918683E+03  0.89972918683E+03  0.25500000920E-02 0.  1.
    10030    2    1    2    0    0  0.00000000000E+00  0.00000000000E+00 -0.35681454012E+03  0.14426438335E+04  0.13978213814E+04 0.  0.
        3    1    3    3  502    0 -0.32973868147E+03  0.29203361061E+03 -0.73845394522E+03  0.85984037309E+03  0.10100000352E+00 0.  1.
       -3    1    3    3    0  502  0.32973868147E+03 -0.29203361061E+03  0.38163940510E+03  0.58280346045E+03  0.10100000352E+00 0. -1.
</event>
<event>
 5   0  0.6870835E-04  0.1396509E+04  0.7818609E-02  0.8956349E-01
        2   -1    0    0  501    0  0.00000000000E+00  0.00000000000E+00  0.15816064551E+04  0.15816064551E+04  0.25500000920E-02 0. -1.
       -2   -1    0    0    0  501  0.00000000000E+00  0.00000000000E+00 -0.30826856609E+03  0.30826856610E+03  0.25500000920E-02 0.  1.
    10030    2    1    2    0    0  0.00000000000E+00  0.00000000000E+00  0.12733378890E+04  0.18898750212E+04  0.13965092969E+04 0.  0.
        2    1    3    3  502    0 -0.18069591672E+03 -0.47032038307E+03 -0.17553397411E+02  0.50414323244E+03  0.25500000920E-02 0.  1.
       -2    1    3    3    0  502  0.18069591672E+03  0.47032038307E+03  0.12908912864E+04  0.13857317888E+04  0.25500000920E-02 0. -1.
</event>
<event>
 5   0  0.3784219E-04  0.1394218E+04  0.7818609E-02  0.8958014E-01
        1   -1    0    0  501    0  0.00000000000E+00  0.00000000000E+00  0.68085523885E+03  0.68085523887E+03  0.50400001928E-02 0.  1.
       -1   -1    0    0    0  501  0.00000000000E+00  0.00000000000E+00 -0.71375126114E+03  0.71375126116E+03  0.50400001928E-02 0. -1.
    10030    2    1    2    0    0  0.00000000000E+00  0.00000000000E+00 -0.32896022293E+02  0.13946065000E+04  0.13942184698E+04 0.  0.
        1    1    3    3  502    0  0.38197614701E+03 -0.25053472097E+03  0.51027984043E+03  0.68487877677E+03  0.50400001928E-02 0.  1.
       -1    1    3    3    0  502 -0.38197614701E+03  0.25053472097E+03 -0.54317586272E+03  0.70972772326E+03  0.50400001928E-02 0. -1.
</event>
<event>
 5   0  0.6895048E-04  0.1396049E+04  0.7818609E-02  0.8956683E-01
       -2   -1    0    0    0  501  0.00000000000E+00  0.00000000000E+00  0.51652860565E+03  0.51652860565E+03  0.25500000920E-02 0. -1.
        2   -1    0    0  501    0  0.00000000000E+00  0.00000000000E+00 -0.94329435268E+03  0.94329435268E+03  0.25500000920E-02 0.  1.
    10030    2    1    2    0    0  0.00000000000E+00  0.00000000000E+00 -0.42676574704E+03  0.14598229583E+04  0.13960494500E+04 0.  0.
        4    1    3    3  502    0  0.11208131556E+03 -0.51853918033E+03 -0.68774872926E+03  0.86858795198E+03  0.12699999809E+01 0.  1.
       -4    1    3    3    0  502 -0.11208131556E+03  0.51853918033E+03  0.26098298222E+03  0.59123500636E+03  0.12699999809E+01 0. -1.
</event>
<event>
 5   0  0.3907270E-04  0.1395259E+04  0.7818609E-02  0.8957257E-01
        1   -1    0    0  501    0  0.00000000000E+00  0.00000000000E+00  0.74853307342E+03  0.74853307343E+03  0.50400001928E-02 0.  1.
       -1   -1    0    0    0  501  0.00000000000E+00  0.00000000000E+00 -0.65018765359E+03  0.65018765361E+03  0.50400001928E-02 0. -1.
    10030    2    1    2    0    0  0.00000000000E+00  0.00000000000E+00  0.98345419826E+02  0.13987207270E+04  0.13952590622E+04 0.  0.
        3    1    3    3  502    0 -0.63043091344E+03 -0.26277488498E+03 -0.93282543709E+02  0.68934419557E+03  0.10100000352E+00 0. -1.
       -3    1    3    3    0  502  0.63043091344E+03  0.26277488498E+03  0.19162796354E+03  0.70937653148E+03  0.10100000352E+00 0.  1.
</event>
<event>
 5   0  0.7296966E-04  0.1388998E+04  0.7818609E-02  0.8961821E-01
        2   -1    0    0  501    0  0.00000000000E+00  0.00000000000E+00  0.71111974231E+03  0.71111974232E+03  0.25500000920E-02 0. -1.
       -2   -1    0    0    0  501  0.00000000000E+00  0.00000000000E+00 -0.67826663006E+03  0.67826663007E+03  0.25500000920E-02 0.  1.
    10030    2    1    2    0    0  0.00000000000E+00  0.00000000000E+00  0.32853112250E+02  0.13893863724E+04  0.13889978995E+04 0.  0.
        3    1    3    3  502    0  0.38082272463E+03  0.14506478139E+03  0.57895297245E+03  0.70799455712E+03  0.10100000352E+00 0. -1.
       -3    1    3    3    0  502 -0.38082272463E+03 -0.14506478139E+03 -0.54609986020E+03  0.68139181527E+03  0.10100000352E+00 0.  1.
</event>
<event>
 5   0  0.7296966E-04  0.1457224E+04  0.7818609E-02  0.8913408E-01
       -2   -1    0    0    0  501  0.00000000000E+00  0.00000000000E+00  0.30833560885E+03  0.30833560886E+03  0.25500000920E-02 0.  1.
        2   -1    0    0  501    0  0.00000000000E+00  0.00000000000E+00 -0.17217449369E+04  0.17217449369E+04  0.25500000920E-02 0. -1.
    10030    2    1    2    0    0  0.00000000000E+00  0.00000000000E+00 -0.14134093280E+04  0.20300805458E+04  0.14572237624E+04 0.  0.
        3    1    3    3  502    0  0.26252055161E+03 -0.11623133421E+03  0.22621299279E+03  0.36551209470E+03  0.10100000352E+00 0.  1.
       -3    1    3    3    0  502 -0.26252055161E+03  0.11623133421E+03 -0.16396223208E+04  0.16645684511E+04  0.10100000352E+00 0. -1.
</event>
<event>
 5   0  0.3907093E-04  0.1442507E+04  0.7818609E-02  0.8923612E-01
        1   -1    0    0  501    0  0.00000000000E+00  0.00000000000E+00  0.17542623640E+04  0.17542623640E+04  0.50400001928E-02 0. -1.
       -1   -1    0    0    0  501  0.00000000000E+00  0.00000000000E+00 -0.29653854488E+03  0.29653854492E+03  0.50400001928E-02 0.  1.
    10030    2    1    2    0    0  0.00000000000E+00  0.00000000000E+00  0.14577238192E+04  0.20508009090E+04  0.14425067193E+04 0.  0.
        4    1    3    3  502    0 -0.44407833691E+03  0.39052043155E+02  0.15349429282E+04  0.15983685548E+04  0.12699999809E+01 0. -1.
       -4    1    3    3    0  502  0.44407833691E+03 -0.39052043155E+02 -0.77219109016E+02  0.45243235415E+03  0.12699999809E+01 0.  1.
</event>
<event>
 5   0  0.3784219E-04  0.1399802E+04  0.7818609E-02  0.8953962E-01
        1   -1    0    0  501    0  0.00000000000E+00  0.00000000000E+00  0.84162188016E+03  0.84162188018E+03  0.50400001928E-02 0. -1.
       -1   -1    0    0    0  501  0.00000000000E+00  0.00000000000E+00 -0.58204418271E+03  0.58204418273E+03  0.50400001928E-02 0.  1.
    10030    2    1    2    0    0  0.00000000000E+00  0.00000000000E+00  0.25957769745E+03  0.14236660629E+04  0.13998015851E+04 0.  0.
        1    1    3    3  502    0 -0.36820560696E+03  0.49408554892E+03  0.46735889719E+03  0.77338233588E+03  0.50400001928E-02 0. -1.
       -1    1    3    3    0  502  0.36820560696E+03 -0.49408554892E+03 -0.20778119974E+03  0.65028372703E+03  0.50400001928E-02 0.  1.
</event>
<event>
 5   0  0.7065539E-04  0.1399030E+04  0.7818609E-02  0.8954521E-01
       -2   -1    0    0    0  501  0.00000000000E+00  0.00000000000E+00  0.45127905772E+03  0.45127905773E+03  0.25500000920E-02 0.  1.
        2   -1    0    0  501    0  0.00000000000E+00  0.00000000000E+00 -0.10842990613E+04  0.10842990613E+04  0.25500000920E-02 0. -1.
    10030    2    1    2    0    0  0.00000000000E+00  0.00000000000E+00 -0.63302000354E+03  0.15355781190E+04  0.13990303194E+04 0.  0.
        1    1    3    3  502    0 -0.43229099679E+03 -0.21573514011E+03 -0.87175362819E+03  0.99668026211E+03  0.50400001928E-02 0.  1.
       -1    1    3    3    0  502  0.43229099679E+03  0.21573514011E+03  0.23873362465E+03  0.53889785688E+03  0.50400001928E-02 0. -1.
</event>
<event>
 5   0  0.3907093E-04  0.1357370E+04  0.7818609E-02  0.8985268E-01
       -1   -1    0    0    0  501  0.00000000000E+00  0.00000000000E+00  0.47365826572E+03  0.47365826575E+03  0.50400001928E-02 0. -1.
        1   -1    0    0  501    0  0.00000000000E+00  0.00000000000E+00 -0.97245933974E+03  0.97245933975E+03  0.50400001928E-02 0.  1.
    10030    2    1    2    0    0  0.00000000000E+00  0.00000000000E+00 -0.49880107402E+03  0.14461176055E+04  0.13573701107E+04 0.  0.
        4    1    3    3  502    0 -0.57613549505E+02 -0.20837773805E+03 -0.93479079755E+03  0.95946654495E+03  0.12699999809E+01 0.  1.
       -4    1    3    3    0  502  0.57613549505E+02  0.20837773805E+03  0.43598972353E+03  0.48665106054E+03  0.12699999809E+01 0. -1.
</event>
<event>
 5   0  0.6959748E-04  0.1396991E+04  0.7818609E-02  0.8955999E-01
        2   -1    0    0  501    0  0.00000000000E+00  0.00000000000E+00  0.73546241208E+03  0.73546241208E+03  0.25500000920E-02 0. -1.
       -2   -1    0    0    0  501  0.00000000000E+00  0.00000000000E+00 -0.66338678584E+03  0.66338678585E+03  0.25500000920E-02 0.  1.
    10030    2    1    2    0    0  0.00000000000E+00  0.00000000000E+00  0.72075626233E+02  0.13988491979E+04  0.13969911176E+04 0.  0.
        5    1    3    3  502    0 -0.43893348743E+03  0.13779291002E+03 -0.49023183396E+03  0.67230858500E+03  0.46999998093E+01 0.  1.
       -5    1    3    3    0  502  0.43893348743E+03 -0.13779291002E+03  0.56230746020E+03  0.72654061293E+03  0.46999998093E+01 0. -1.
</event>
<event>
 5   0  0.3756664E-04  0.1392008E+04  0.7818609E-02  0.8959624E-01
        1   -1    0    0  501    0  0.00000000000E+00  0.00000000000E+00  0.74423736211E+03  0.74423736212E+03  0.50400001928E-02 0.  1.
       -1   -1    0    0    0  501  0.00000000000E+00  0.00000000000E+00 -0.65089660067E+03  0.65089660069E+03  0.50400001928E-02 0. -1.
    10030    2    1    2    0    0  0.00000000000E+00  0.00000000000E+00  0.93340761436E+02  0.13951339628E+04  0.13920080016E+04 0.  0.
        2    1    3    3  502    0 -0.12012454764E+03  0.27085387676E+03 -0.58452944700E+03  0.65533686293E+03  0.25500000920E-02 0. -1.
       -2    1    3    3    0  502  0.12012454764E+03 -0.27085387676E+03  0.67787020844E+03  0.73979709988E+03  0.25500000920E-02 0.  1.
</event>
<event>
 5   0  0.3977658E-04  0.1407901E+04  0.7818609E-02  0.8948119E-01
        1   -1    0    0  501    0  0.00000000000E+00  0.00000000000E+00  0.78977668032E+03  0.78977668033E+03  0.50400001928E-02 0. -1.
       -1   -1    0    0    0  501  0.00000000000E+00  0.00000000000E+00 -0.62745095119E+03  0.62745095121E+03  0.50400001928E-02 0.  1.
    10030    2    1    2    0    0  0.00000000000E+00  0.00000000000E+00  0.16232572912E+03  0.14172276315E+04  0.14079007484E+04 0.  0.
        5    1    3    3  502    0 -0.18299860574E+03 -0.45960262086E+03  0.58528084342E+03  0.76635423563E+03  0.46999998093E+01 0. -1.
       -5    1    3    3    0  502  0.18299860574E+03  0.45960262086E+03 -0.42295511429E+03  0.65087339591E+03  0.46999998093E+01 0.  1.
</event>
<event>
 5   0  0.3784219E-04  0.1428949E+04  0.7818609E-02  0.8933126E-01
        1   -1    0    0  501    0  0.00000000000E+00  0.00000000000E+00  0.15453104357E+04  0.15453104357E+04  0.50400001928E-02 0.  1.
       -1   -1    0    0    0  501  0.00000000000E+00  0.00000000000E+00 -0.33033744674E+03  0.33033744678E+03  0.50400001928E-02 0. -1.
    10030    2    1    2    0    0  0.00000000000E+00  0.00000000000E+00  0.12149729889E+04  0.18756478824E+04  0.14289491296E+04 0.  0.
        1    1    3    3  502    0  0.14686252906E+03  0.69921748418E+03  0.60808961384E+03  0.93821461890E+03  0.50400001928E-02 0. -1.
       -1    1    3    3    0  502 -0.14686252906E+03 -0.69921748418E+03  0.60688337507E+03  0.93743326354E+03  0.50400001928E-02 0.  1.
</event>
<event>
 5   0  0.6959748E-04  0.1404082E+04  0.7818609E-02  0.8950869E-01
        2   -1    0    0  501    0  0.00000000000E+00  0.00000000000E+00  0.99844404157E+03  0.99844404157E+03  0.25500000920E-02 0.  1.
       -2   -1    0    0    0  501  0.00000000000E+00  0.00000000000E+00 -0.49362961252E+03  0.49362961252E+03  0.25500000920E-02 0. -1.
    10030    2    1    2    0    0  0.00000000000E+00  0.00000000000E+00  0.50481442905E+03  0.14920736541E+04  0.14040819711E+04 0.  0.
        5    1    3    3  502    0  0.38979022325E+01  0.33396371863E+02 -0.49275676462E+03  0.49392492383E+03  0.46999998093E+01 0. -1.
       -5    1    3    3    0  502 -0.38979022325E+01 -0.33396371863E+02  0.99757119367E+03  0.99814873027E+03  0.46999998093E+01 0.  1.
</event>
<event>
 5   0  0.3756664E-04  0.1401905E+04  0.7818609E-02  0.8952441E-01
        1   -1    0    0  501    0  0.00000000000E+00  0.00000000000E+00  0.39243686160E+03  0.39243686164E+03  0.50400001928E-02 0. -1.
       -1   -1    0    0    0  501  0.00000000000E+00  0.00000000000E+00 -0.12520086311E+04  0.12520086311E+04  0.50400001928E-02 0.  1.
    10030    2    1    2    0    0  0.00000000000E+00  0.00000000000E+00 -0.85957176952E+03  0.16444454928E+04  0.14019049011E+04 0.  0.
        2    1    3    3  502    0 -0.11842015281E+03 -0.37642232831E+03 -0.11093384512E+04  0.11774331834E+04  0.25500000920E-02 0.  1.
       -2    1    3    3    0  502  0.11842015281E+03  0.37642232831E+03  0.24976668173E+03  0.46701230942E+03  0.25500000920E-02 0. -1.
</event>
<event>
 5   0  0.3907270E-04  0.1401727E+04  0.7818609E-02  0.8952570E-01
       -1   -1    0    0    0  501  0.00000000000E+00  0.00000000000E+00  0.32571199326E+03  0.32571199330E+03  0.50400001928E-02 0.  1.
        1   -1    0    0  501    0  0.00000000000E+00  0.00000000000E+00 -0.15081099571E+04  0.15081099571E+04  0.50400001928E-02 0. -1.
    10030    2    1    2    0    0  0.00000000000E+00  0.00000000000E+00 -0.11823979638E+04  0.18338219504E+04  0.14017267925E+04 0.  0.
        3    1    3    3  502    0  0.47381130358E+03 -0.88249798045E+02  0.74503548235E+02  0.48768429046E+03  0.10100000352E+00 0.  1.
       -3    1    3    3    0  502 -0.47381130358E+03  0.88249798045E+02 -0.12569015120E+04  0.13461376599E+04  0.10100000352E+00 0. -1.
</event>
<event>
 5   0  0.7296966E-04  0.1384842E+04  0.7818609E-02  0.8964864E-01
       -2   -1    0    0    0  501  0.00000000000E+00  0.00000000000E+00  0.41383684136E+03  0.41383684137E+03  0.25500000920E-02 0. -1.
        2   -1    0    0  501    0  0.00000000000E+00  0.00000000000E+00 -0.11585410247E+04  0.11585410247E+04  0.25500000920E-02 0.  1.
    10030    2    1    2    0    0  0.00000000000E+00  0.00000000000E+00 -0.74470418332E+03  0.15723778661E+04  0.13848421690E+04 0.  0.
        3    1    3    3  502    0  0.55322876395E+03 -0.41565230693E+03 -0.40057916310E+03  0.79955774128E+03  0.10100000352E+00 0.  1.
       -3    1    3    3    0  502 -0.55322876395E+03  0.41565230693E+03 -0.34412502022E+03  0.77282012478E+03  0.10100000352E+00 0. -1.
</event>
<event>
 5   0  0.6959748E-04  0.1348765E+04  0.7818609E-02  0.8991763E-01
        2   -1    0    0  501    0  0.00000000000E+00  0.00000000000E+00  0.23128338886E+04  0.23128338886E+04  0.25500000920E-02 0. -1.
       -2   -1    0    0    0  501  0.00000000000E+00  0.00000000000E+00 -0.19663834515E+03  0.19663834517E+03  0.25500000920E-02 0.  1.
    10030    2    1    2    0    0  0.00000000000E+00  0.00000000000E+00  0.21161955435E+04  0.25094722338E+04  0.13487651070E+04 0.  0.
        5    1    3    3  502    0 -0.12636904109E+03 -0.49439872035E+03  0.23781940326E+03  0.56300922532E+03  0.46999998093E+01 0.  1.
       -5    1    3    3    0  502  0.12636904109E+03  0.49439872035E+03  0.18783761402E+04  0.19464630085E+04  0.46999998093E+01 0. -1.
</event>
<event>
 5   0  0.7065539E-04  0.1402504E+04  0.7818609E-02  0.8952008E-01
       -2   -1    0    0    0  501  0.00000000000E+00  0.00000000000E+00  0.81698799602E+03  0.81698799603E+03  0.25500000920E-02 0.  1.
        2   -1    0    0  501    0  0.00000000000E+00  0.00000000000E+00 -0.60191155497E+03  0.60191155497E+03  0.25500000920E-02 0. -1.
    10030    2    1    2    0    0  0.00000000000E+00  0.00000000000E+00  0.21507644105E+03  0.14188995510E+04  0.14025042105E+04 0.  0.
        1    1    3    3  502    0  0.23323498302E+03 -0.18923422719E+02 -0.56124771838E+03  0.60807536921E+03  0.50400001928E-02 0. -1.
       -1    1    3    3    0  502 -0.23323498302E+03  0.18923422719E+02  0.77632415943E+03  0.81082418179E+03  0.50400001928E-02 0.  1.
</event>
<event>
 5   0  0.3907093E-04  0.1330150E+04  0.7818609E-02  0.9005992E-01
       -1   -1    0    0    0  501  0.00000000000E+00  0.00000000000E+00  0.69264888311E+03  0.69264888313E+03  0.50400001928E-02 0.  1.
        1   -1    0    0  501    0  0.00000000000E+00  0.00000000000E+00 -0.63859915721E+03  0.63859915723E+03  0.50400001928E-02 0. -1.
    10030    2    1    2    0    0  0.00000000000E+00  0.00000000000E+00  0.54049725900E+02  0.13312480404E+04  0.13301503570E+04 0.  0.
        4    1    3    3  502    0  0.39085057103E+02  0.64813630166E+03  0.17107095460E+03  0.67147240571E+03  0.12699999809E+01 0. -1.
       -4    1    3    3    0  502 -0.39085057103E+02 -0.64813630166E+03 -0.11702122870E+03  0.65977563466E+03  0.12699999809E+01 0.  1.
</event>
<event>
 5   0  0.3907270E-04  0.1397373E+04  0.7818609E-02  0.8955722E-01
        1   -1    0    0  501    0  0.00000000000E+00  0.00000000000E+00  0.77701890321E+03  0.77701890323E+03  0.50400001928E-02 0. -1.
       -1   -1    0    0    0  501  0.00000000000E+00  0.00000000000E+00 -0.62825111492E+03  0.62825111494E+03  0.50400001928E-02 0.  1.
    10030    2    1    2    0    0  0.00000000000E+00  0.00000000000E+00  0.14876778829E+03  0.14052700182E+04  0.13973732390E+04 0.  0.
        3    1    3    3  502    0 -0.23419931118E+03 -0.34496335453E+03  0.63818923566E+03  0.76232181134E+03  0.10100000352E+00 0. -1.
       -3    1    3    3    0  502  0.23419931118E+03  0.34496335453E+03 -0.48942144737E+03  0.64294820684E+03  0.10100000352E+00 0.  1.
</event>
<event>
 5   0  0.3784219E-04  0.1409803E+04  0.7818609E-02  0.8946753E-01
        1   -1    0    0  501    0  0.00000000000E+00  0.00000000000E+00  0.60356550834E+03  0.60356550837E+03  0.50400001928E-02 0. -1.
       -1   -1    0    0    0  501  0.00000000000E+00  0.00000000000E+00 -0.82325109922E+03  0.82325109924E+03  0.50400001928E-02 0.  1.
    10030    2    1    2    0    0  0.00000000000E+00  0.00000000000E+00 -0.21968559088E+03  0.14268166076E+04  0.14098027780E+04 0.  0.
        1    1    3    3  502    0  0.39792858288E+02  0.16586064714E+03 -0.80205066679E+03  0.81998688890E+03  0.50400001928E-02 0.  1.
       -1    1    3    3    0  502 -0.39792858288E+02 -0.16586064714E+03  0.58236507591E+03  0.60682971871E+03  0.50400001928E-02 0. -1.
</event>
<event>
 5   0  0.6870835E-04  0.1399522E+04  0.7818609E-02  0.8954165E-01
        2   -1    0    0  501    0  0.00000000000E+00  0.00000000000E+00  0.98213422007E+03  0.98213422008E+03  0.25500000920E-02 0.  1.
       -2   -1    0    0    0  501  0.00000000000E+00  0.00000000000E+00 -0.49857292254E+03  0.49857292255E+03  0.25500000920E-02 0. -1.
    10030    2    1    2    0    0  0.00000000000E+00  0.00000000000E+00  0.48356129753E+03  0.14807071426E+04  0.13995221019E+04 0.  0.
        2    1    3    3  502    0  0.65754743867E+03  0.56337603322E+02  0.48791952602E+03  0.82073626917E+03  0.25500000920E-02 0.  1.
       -2    1    3    3    0  502 -0.65754743867E+03 -0.56337603322E+02 -0.43582284895E+01  0.65997087346E+03  0.25500000920E-02 0. -1.
</event>
<event>
 5   0  0.3784219E-04  0.1377222E+04  0.7818609E-02  0.8970473E-01
        1   -1    0    0  501    0  0.00000000000E+00  0.00000000000E+00  0.27554394604E+04  0.27554394604E+04  0.50400001928E-02 0. -1.
       -1   -1    0    0    0  501  0.00000000000E+00  0.00000000000E+00 -0.17209059970E+03  0.17209059978E+03  0.50400001928E-02 0.  1.
    10030    2    1    2    0    0  0.00000000000E+00  0.00000000000E+00  0.25833488607E+04  0.29275300602E+04  0.13772221742E+04 0.  0.
        1    1    3    3  502    0 -0.53231791044E+02  0.19300276926E+03  0.26922063724E+04  0.26996405027E+04  0.50400001928E-02 0. -1.
       -1    1    3    3    0  502  0.53231791044E+02 -0.19300276926E+03 -0.10885751168E+03  0.22788955745E+03  0.50400001928E-02 0.  1.
</event>
<event>
 5   0  0.2660250E-04  0.1380850E+04  0.7818609E-02  0.8967798E-01
        4   -1    0    0  501    0  0.00000000000E+00  0.00000000000E+00  0.30290077990E+03  0.30290344231E+03  0.12699999809E+01 0.  1.
       -4   -1    0    0    0  501  0.00000000000E+00  0.00000000000E+00 -0.15737281169E+04  0.15737286293E+04  0.12699999809E+01 0. -1.
    10030    2    1    2    0    0  0.00000000000E+00  0.00000000000E+00 -0.12708273370E+04  0.18766320717E+04  0.13808496703E+04 0.  0.
        1    1    3    3  502    0  0.61876061999E+03  0.14928306970E+03 -0.27192070303E+03  0.69216400406E+03  0.50400001928E-02 0.  1.
       -1    1    3    3    0  502 -0.61876061999E+03 -0.14928306970E+03 -0.99890663396E+03  0.11844680676E+04  0.50400001928E-02 0. -1.
</event>
<event>
 5   0  0.3907093E-04  0.1399153E+04  0.7818609E-02  0.8954432E-01
        1   -1    0    0  501    0  0.00000000000E+00  0.00000000000E+00  0.75108921116E+03  0.75108921117E+03  0.50400001928E-02 0.  1.
       -1   -1    0    0    0  501  0.00000000000E+00  0.00000000000E+00 -0.65159660787E+03  0.65159660789E+03  0.50400001928E-02 0. -1.
    10030    2    1    2    0    0  0.00000000000E+00  0.00000000000E+00  0.99492603283E+02  0.14026858191E+04  0.13991528612E+04 0.  0.
        4    1    3    3  502    0 -0.61115394099E+03 -0.14590396995E+03 -0.25861525620E+03  0.67947080266E+03  0.12699999809E+01 0. -1.
       -4    1    3    3    0  502  0.61115394099E+03  0.14590396995E+03  0.35810785948E+03  0.72321501640E+03  0.12699999809E+01 0.  1.
</event>
<event>
 5   0  0.7065539E-04  0.1408148E+04  0.7818609E-02  0.8947942E-01
        2   -1    0    0  501    0  0.00000000000E+00  0.00000000000E+00  0.68529557942E+03  0.68529557943E+03  0.25500000920E-02 0.  1.
       -2   -1    0    0    0  501  0.00000000000E+00  0.00000000000E+00 -0.72336676405E+03  0.72336676405E+03  0.25500000920E-02 0. -1.
    10030    2    1    2    0    0  0.00000000000E+00  0.00000000000E+00 -0.38071184628E+02  0.14086623435E+04  0.14081477844E+04 0.  0.
        1    1    3    3  502    0  0.72567400567E+02  0.11585673973E+03 -0.70996245301E+03  0.72300449271E+03  0.50400001928E-02 0. -1.
       -1    1    3    3    0  502 -0.72567400567E+02 -0.11585673973E+03  0.67189126838E+03  0.68565785077E+03  0.50400001928E-02 0.  1.
</event>
<event>
 5   0  0.7296966E-04  0.1396349E+04  0.7818609E-02  0.8956465E-01
        2   -1    0    0  501    0  0.00000000000E+00  0.00000000000E+00  0.56982279400E+03  0.56982279401E+03  0.25500000920E-02 0.  1.
       -2   -1    0    0    0  501  0.00000000000E+00  0.00000000000E+00 -0.85543747729E+03  0.85543747729E+03  0.25500000920E-02 0. -1.
    10030    2    1    2    0    0  0.00000000000E+00  0.00000000000E+00 -0.28561468329E+03  0.14252602713E+04  0.13963492019E+04 0.  0.
        3    1    3    3  502    0 -0.36911118133E+03 -0.33094195710E+03 -0.64459780053E+03  0.81318631186E+03  0.10100000352E+00 0. -1.
       -3    1    3    3    0  502  0.36911118133E+03  0.33094195710E+03  0.35898311724E+03  0.61207395944E+03  0.10100000352E+00 0.  1.
</event>
<event>
 5   0  0.3756664E-04  0.1406357E+04  0.7818609E-02  0.8949230E-01
       -1   -1    0    0    0  501  0.00000000000E+00  0.00000000000E+00  0.25473544293E+03  0.25473544298E+03  0.50400001928E-02 0.  1.
        1   -1    0    0  501    0  0.00000000000E+00  0.00000000000E+00 -0.19410730525E+04  0.19410730525E+04  0.50400001928E-02 0. -1.
    10030    2    1    2    0    0  0.00000000000E+00  0.00000000000E+00 -0.16863376096E+04  0.21958084955E+04  0.14063571436E+04 0.  0.
        2    1    3    3  502    0 -0.30337272480E+03 -0.28073117012E+03 -0.17313738361E+04  0.17800281909E+04  0.25500000920E-02 0. -1.
       -2    1    3    3    0  502  0.30337272480E+03  0.28073117012E+03  0.45036226487E+02  0.41578030464E+03  0.25500000920E-02 0.  1.
</event>
<event>
 5   0  0.2660250E-04  0.1390849E+04  0.7818609E-02  0.8960470E-01
        3   -1    0    0  501    0  0.00000000000E+00  0.00000000000E+00  0.11895765844E+04  0.11895765886E+04  0.10100000352E+00 0. -1.
       -3   -1    0    0    0  501  0.00000000000E+00  0.00000000000E+00 -0.40654375771E+03  0.40654377026E+03  0.10100000352E+00 0.  1.
    10030    2    1    2    0    0  0.00000000000E+00  0.00000000000E+00  0.78303282664E+03  0.15961203589E+04  0.13908485872E+04 0.  0.
        1    1    3    3  502    0 -0.48772655933E+03  0.20063775409E+02  0.95993165173E+03  0.10769162121E+04  0.50400001928E-02 0. -1.
       -1    1    3    3    0  502  0.48772655933E+03 -0.20063775409E+02 -0.17689882509E+03  0.51920414685E+03  0.50400001928E-02 0.  1.
</event>
<event>
 5   0  0.3977658E-04  0.1404371E+04  0.7818609E-02  0.8950661E-01
       -1   -1    0    0    0  501  0.00000000000E+00  0.00000000000E+00  0.22330711327E+03  0.22330711333E+03  0.50400001928E-02 0. -1.
        1   -1    0    0  501    0  0.00000000000E+00  0.00000000000E+00 -0.22080101778E+04  0.22080101778E+04  0.50400001928E-02 0.  1.
    10030    2    1    2    0    0  0.00000000000E+00  0.00000000000E+00 -0.19847030645E+04  0.24313172911E+04  0.14043708612E+04 0.  0.
        5    1    3    3  502    0 -0.14573357728E+03  0.48831945322E+03 -0.18286513202E+04  0.18983366153E+04  0.46999998093E+01 0.  1.
       -5    1    3    3    0  502  0.14573357728E+03 -0.48831945322E+03 -0.15605174430E+03  0.53298067585E+03  0.46999998093E+01 0. -1.
</event>
<event>
 5   0  0.6959748E-04  0.1401917E+04  0.7818609E-02  0.8952432E-01
        2   -1    0    0  501    0  0.00000000000E+00  0.00000000000E+00  0.10721416273E+04  0.10721416273E+04  0.25500000920E-02 0.  1.
       -2   -1    0    0    0  501  0.00000000000E+00  0.00000000000E+00 -0.45828171301E+03  0.45828171302E+03  0.25500000920E-02 0. -1.
    10030    2    1    2    0    0  0.00000000000E+00  0.00000000000E+00  0.61385991425E+03  0.15304233403E+04  0.14019171182E+04 0.  0.
        5    1    3    3  502    0  0.35042208080E+03 -0.36557319876E+03  0.83600048217E+03  0.97742431653E+03  0.46999998093E+01 0.  1.
       -5    1    3    3    0  502 -0.35042208080E+03  0.36557319876E+03 -0.22214056792E+03  0.55299902376E+03  0.46999998093E+01 0. -1.
</event>
<event>
 5   0  0.7065539E-04  0.1391946E+04  0.7818609E-02  0.8959669E-01
       -2   -1    0    0    0  501  0.00000000000E+00  0.00000000000E+00  0.23164972194E+03  0.23164972195E+03  0.25500000920E-02 0.  1.
        2   -1    0    0  501    0  0.00000000000E+00  0.00000000000E+00 -0.20909950350E+04  0.20909950350E+04  0.25500000920E-02 0. -1.
    10030    2    1    2    0    0  0.00000000000E+00  0.00000000000E+00 -0.18593453130E+04  0.23226447569E+04  0.13919460025E+04 0.  0.
        1    1    3    3  502    0 -0.17552022880E+03  0.63615958974E+03 -0.12985573665E+04  0.14566254180E+04  0.50400001928E-02 0.  1.
       -1    1    3    3    0  502  0.17552022880E+03 -0.63615958974E+03 -0.56078794656E+03  0.86601933891E+03  0.50400001928E-02 0. -1.
</event>
<event>
 5   0  0.3977658E-04  0.1436042E+04  0.7818609E-02  0.8928135E-01
       -1   -1    0    0    0  501  0.00000000000E+00  0.00000000000E+00  0.55670181014E+03  0.55670181016E+03  0.50400001928E-02 0.  1.
        1   -1    0    0  501    0  0.00000000000E+00  0.00000000000E+00 -0.92608637794E+03  0.92608637796E+03  0.50400001928E-02 0. -1.
    10030    2    1    2    0    0  0.00000000000E+00  0.00000000000E+00 -0.36938456780E+03  0.14827881881E+04  0.14360417306E+04 0.  0.
        5    1    3    3  502    0  0.56697389839E+03  0.15719879787E+03 -0.60962363498E+03  0.84725080692E+03  0.46999998093E+01 0. -1.
       -5    1    3    3    0  502 -0.56697389839E+03 -0.15719879787E+03  0.24023906718E+03  0.63553738120E+03  0.46999998093E+01 0.  1.
</event>
<event>
 5   0  0.3907093E-04  0.1389296E+04  0.7818609E-02  0.8961603E-01
        1   -1    0    0  501    0  0.00000000000E+00  0.00000000000E+00  0.73569821672E+03  0.73569821673E+03  0.50400001928E-02 0.  1.
       -1   -1    0    0    0  501  0.00000000000E+00  0.00000000000E+00 -0.65588836879E+03  0.65588836881E+03  0.50400001928E-02 0. -1.
    10030    2    1    2    0    0  0.00000000000E+00  0.00000000000E+00  0.79809847923E+02  0.13915865855E+04  0.13892960855E+04 0.  0.
        4    1    3    3  502    0  0.66014368394E+03 -0.17647920208E+03 -0.85199745492E+02  0.68861832806E+03  0.12699999809E+01 0.  1.
       -4    1    3    3    0  502 -0.66014368394E+03  0.17647920208E+03  0.16500959342E+03  0.70296825748E+03  0.12699999809E+01 0. -1.
</event>
<event>
 5   0  0.6895048E-04  0.1399778E+04  0.7818609E-02  0.8953979E-01
       -2   -1    0    0    0  501  0.00000000000E+00  0.00000000000E+00  0.12209164929E+04  0.12209164929E+04  0.25500000920E-02 0.  1.
        2   -1    0    0  501    0  0.00000000000E+00  0.00000000000E+00 -0.40121061966E+03  0.40121061967E+03  0.25500000920E-02 0. -1.
    10030    2    1    2    0    0  0.00000000000E+00  0.00000000000E+00  0.81970587322E+03  0.16221271126E+04  0.13997780719E+04 0.  0.
        4    1    3    3  502    0  0.30974326212E+02  0.64722061983E+03  0.71643089893E+03  0.96598591370E+03  0.12699999809E+01 0.  1.
       -4    1    3    3    0  502 -0.30974326212E+02 -0.64722061983E+03  0.10327497429E+03  0.65614119886E+03  0.12699999809E+01 0. -1.
</event>
<event>
 5   0  0.7065539E-04  0.1392866E+04  0.7818609E-02  0.8958999E-01
       -2   -1    0    0    0  501  0.00000000000E+00  0.00000000000E+00  0.52298342756E+03  0.52298342757E+03  0.25500000920E-02 0.  1.
        2   -1    0    0  501    0  0.00000000000E+00  0.00000000000E+00 -0.92740766291E+03  0.92740766291E+03  0.25500000920E-02 0. -1.
    10030    2    1    2    0    0  0.00000000000E+00  0.00000000000E+00 -0.40442423534E+03  0.14503910905E+04  0.13928658777E+04 0.  0.
        1    1    3    3  502    0 -0.55824959556E+03  0.23415706312E+03 -0.56073803305E+03  0.82516621531E+03  0.50400001928E-02 0. -1.
       -1    1    3    3    0  502  0.55824959556E+03 -0.23415706312E+03  0.15631379771E+03  0.62522487517E+03  0.50400001928E-02 0.  1.
</event>
<event>
 5   0  0.6959748E-04  0.1396980E+04  0.7818609E-02  0.8956008E-01
        2   -1    0    0  501    0  0.00000000000E+00  0.00000000000E+00  0.12510245930E+04  0.12510245930E+04  0.25500000920E-02 0.  1.
       -2   -1    0    0    0  501  0.00000000000E+00  0.00000000000E+00 -0.38999071197E+03  0.38999071198E+03  0.25500000920E-02 0. -1.
    10030    2    1    2    0    0  0.00000000000E+00  0.00000000000E+00  0.86103388108E+03  0.16410153050E+04  0.13969795585E+04 0.  0.
        5    1    3    3  502    0  0.32704333147E+03  0.41469396877E+03  0.96746308557E+03  0.11022410536E+04  0.46999998093E+01 0.  1.
       -5    1    3    3    0  502 -0.32704333147E+03 -0.41469396877E+03 -0.10642920449E+03  0.53877425139E+03  0.46999998093E+01 0. -1.
</event>
<event>
 5   0  0.6959748E-04  0.1357126E+04  0.7818609E-02  0.8985451E-01
        2   -1    0    0  501    0  0.00000000000E+00  0.00000000000E+00  0.16381729150E+04  0.16381729150E+04  0.25500000920E-02 0. -1.
       -2   -1    0    0    0  501  0.00000000000E+00  0.00000000000E+00 -0.28107403294E+03  0.28107403295E+03  0.25500000920E-02 0.  1.
    10030    2    1    2    0    0  0.00000000000E+00  0.00000000000E+00  0.13570988820E+04  0.19192469479E+04  0.13571261811E+04 0.  0.
        5    1    3    3  502    0 -0.41993469274E+03 -0.52382856786E+03  0.53937998747E+03  0.86121679939E+03  0.46999998093E+01 0.  1.
       -5    1    3    3    0  502  0.41993469274E+03  0.52382856786E+03  0.81771889456E+03  0.10580301485E+04  0.46999998093E+01 0. -1.
</event>
<event>
 5   0  0.6959748E-04  0.1399873E+04  0.7818609E-02  0.8953911E-01
        2   -1    0    0  501    0  0.00000000000E+00  0.00000000000E+00  0.45001357297E+03  0.45001357298E+03  0.25500000920E-02 0.  1.
       -2   -1    0    0    0  501  0.00000000000E+00  0.00000000000E+00 -0.10886581916E+04  0.10886581916E+04  0.25500000920E-02 0. -1.
    10030    2    1    2    0    0  0.00000000000E+00  0.00000000000E+00 -0.63864461864E+03  0.15386717646E+04  0.13998727979E+04 0.  0.
        5    1    3    3  502    0 -0.61125996656E+03 -0.33775387330E+03 -0.26809140808E+03  0.74807186736E+03  0.46999998093E+01 0. -1.
       -5    1    3    3    0  502  0.61125996656E+03  0.33775387330E+03 -0.37055321056E+03  0.79059989723E+03  0.46999998093E+01 0.  1.
</event>
<event>
 5   0  0.3977658E-04  0.1412151E+04  0.7818609E-02  0.8945070E-01
       -1   -1    0    0    0  501  0.00000000000E+00  0.00000000000E+00  0.35066221480E+03  0.35066221483E+03  0.50400001928E-02 0. -1.
        1   -1    0    0  501    0  0.00000000000E+00  0.00000000000E+00 -0.14217176396E+04  0.14217176396E+04  0.50400001928E-02 0.  1.
    10030    2    1    2    0    0  0.00000000000E+00  0.00000000000E+00 -0.10710554248E+04  0.17723798545E+04  0.14121510633E+04 0.  0.
        5    1    3    3  502    0  0.37566205168E+03  0.14658744157E+03  0.19189620090E+03  0.44660507947E+03  0.46999998093E+01 0. -1.
       -5    1    3    3    0  502 -0.37566205168E+03 -0.14658744157E+03 -0.12629516257E+04  0.13257747750E+04  0.46999998093E+01 0.  1.
</event>
<event>
 5   0  0.7065539E-04  0.1375727E+04  0.7818609E-02  0.8971578E-01
        2   -1    0    0  501    0  0.00000000000E+00  0.00000000000E+00  0.24228634180E+04  0.24228634180E+04  0.25500000920E-02 0. -1.
       -2   -1    0    0    0  501  0.00000000000E+00  0.00000000000E+00 -0.19528803738E+03  0.19528803740E+03  0.25500000920E-02 0.  1.
    10030    2    1    2    0    0  0.00000000000E+00  0.00000000000E+00  0.22275753806E+04  0.26181514554E+04  0.13757270685E+04 0.  0.
        1    1    3    3  502    0 -0.49812079362E+03  0.47190063657E+03  0.10216942578E+04  0.12307208019E+04  0.50400001928E-02 0.  1.
       -1    1    3    3    0  502  0.49812079362E+03 -0.47190063657E+03  0.12058811228E+04  0.13874306535E+04  0.50400001928E-02 0. -1.
</event>
<event>
 5   0  0.3756664E-04  0.1415033E+04  0.7818609E-02  0.8943009E-01
       -1   -1    0    0    0  501  0.00000000000E+00  0.00000000000E+00  0.16843709556E+04  0.16843709556E+04  0.50400001928E-02 0. -1.
        1   -1    0    0  501    0  0.00000000000E+00  0.00000000000E+00 -0.29719063901E+03  0.29719063905E+03  0.50400001928E-02 0.  1.
    10030    2    1    2    0    0  0.00000000000E+00  0.00000000000E+00  0.13871803165E+04  0.19815615946E+04  0.14150325518E+04 0.  0.
        2    1    3    3  502    0  0.22524200852E+02 -0.68393070549E+03  0.44187200410E+03  0.81456701231E+03  0.25500000920E-02 0. -1.
       -2    1    3    3    0  502 -0.22524200852E+02  0.68393070549E+03  0.94530831245E+03  0.11669945823E+04  0.25500000920E-02 0.  1.
</event>
<event>
 5   0  0.3756664E-04  0.1410005E+04  0.7818609E-02  0.8946608E-01
        1   -1    0    0  501    0  0.00000000000E+00  0.00000000000E+00  0.11008268866E+04  0.11008268866E+04  0.50400001928E-02 0.  1.
       -1   -1    0    0    0  501  0.00000000000E+00  0.00000000000E+00 -0.45150482091E+03  0.45150482094E+03  0.50400001928E-02 0. -1.
    10030    2    1    2    0    0  0.00000000000E+00  0.00000000000E+00  0.64932206567E+03  0.15523317075E+04  0.14100051721E+04 0.  0.
        2    1    3    3  502    0 -0.36529324285E+03  0.60059876099E+03  0.26567464851E+03  0.75149254411E+03  0.25500000920E-02 0. -1.
       -2    1    3    3    0  502  0.36529324285E+03 -0.60059876099E+03  0.38364741716E+03  0.80083916343E+03  0.25500000920E-02 0.  1.
</event>
<event>
 5   0  0.3907270E-04  0.1390709E+04  0.7818609E-02  0.8960571E-01
       -1   -1    0    0    0  501  0.00000000000E+00  0.00000000000E+00  0.10398433064E+04  0.10398433064E+04  0.50400001928E-02 0. -1.
        1   -1    0    0  501    0  0.00000000000E+00  0.00000000000E+00 -0.46499131987E+03  0.46499131989E+03  0.50400001928E-02 0.  1.
    10030    2    1    2    0    0  0.00000000000E+00  0.00000000000E+00  0.57485198651E+03  0.15048346263E+04  0.13907093320E+04 0.  0.
        3    1    3    3  502    0  0.28171323164E+03  0.13180814642E+03  0.96038055502E+03  0.10094882629E+04  0.10100000352E+00 0. -1.
       -3    1    3    3    0  502 -0.28171323164E+03 -0.13180814642E+03 -0.38552856851E+03  0.49534636335E+03  0.10100000352E+00 0.  1.
</event>
<event>
 5   0  0.7065539E-04  0.1384499E+04  0.7818609E-02  0.8965116E-01
        2   -1    0    0  501    0  0.00000000000E+00  0.00000000000E+00  0.11644715662E+04  0.11644715662E+04  0.25500000920E-02 0.  1.
       -2   -1    0    0    0  501  0.00000000000E+00  0.00000000000E+00 -0.41152536382E+03  0.41152536382E+03  0.25500000920E-02 0. -1.
    10030    2    1    2    0    0  0.00000000000E+00  0.00000000000E+00  0.75294620238E+03  0.15759969300E+04  0.13844993101E+04 0.  0.
        1    1    3    3  502    0 -0.14081281839E+03 -0.67770724169E+03  0.36542325020E+03  0.78271930286E+03  0.50400001928E-02 0. -1.
       -1    1    3    3    0  502  0.14081281839E+03  0.67770724169E+03  0.38752295218E+03  0.79327762716E+03  0.50400001928E-02 0.  1.
</event>
<event>
 5   0  0.3907093E-04  0.1376122E+04  0.7818609E-02  0.8971287E-01
        1   -1    0    0  501    0  0.00000000000E+00  0.00000000000E+00  0.77355267910E+03  0.77355267912E+03  0.50400001928E-02 0.  1.
       -1   -1    0    0    0  501  0.00000000000E+00  0.00000000000E+00 -0.61201745366E+03  0.61201745368E+03  0.50400001928E-02 0. -1.
    10030    2    1    2    0    0  0.00000000000E+00  0.00000000000E+00  0.16153522545E+03  0.13855701328E+04  0.13761217111E+04 0.  0.
        4    1    3    3  502    0  0.67448609728E+03  0.13103949726E+03  0.44140895142E+02  0.68851497935E+03  0.12699999809E+01 0.  1.
       -4    1    3    3    0  502 -0.67448609728E+03 -0.13103949726E+03  0.11739433030E+03  0.69705515345E+03  0.12699999809E+01 0. -1.
</event>
<event>
 5   0  0.3907093E-04  0.1382820E+04  0.7818609E-02  0.8966349E-01
       -1   -1    0    0    0  501  0.00000000000E+00  0.00000000000E+00  0.10386669893E+04  0.10386669893E+04  0.50400001928E-02 0.  1.
        1   -1    0    0  501    0  0.00000000000E+00  0.00000000000E+00 -0.46025125422E+03  0.46025125425E+03  0.50400001928E-02 0. -1.
    10030    2    1    2    0    0  0.00000000000E+00  0.00000000000E+00  0.57841573510E+03  0.14989182436E+04  0.13828199949E+04 0.  0.
        4    1    3    3  502    0 -0.46254755190E+03 -0.51316063247E+03  0.31913175743E+03  0.76100641520E+03  0.12699999809E+01 0. -1.
       -4    1    3    3    0  502  0.46254755190E+03  0.51316063247E+03  0.25928397767E+03  0.73791182838E+03  0.12699999809E+01 0.  1.
</event>
<event>
 5   0  0.3977658E-04  0.1401966E+04  0.7818609E-02  0.8952397E-01
       -1   -1    0    0    0  501  0.00000000000E+00  0.00000000000E+00  0.50491645982E+03  0.50491645984E+03  0.50400001928E-02 0.  1.
        1   -1    0    0  501    0  0.00000000000E+00  0.00000000000E+00 -0.97318499373E+03  0.97318499374E+03  0.50400001928E-02 0. -1.
    10030    2    1    2    0    0  0.00000000000E+00  0.00000000000E+00 -0.46826853391E+03  0.14781014536E+04  0.14019659365E+04 0.  0.
        5    1    3    3  502    0 -0.24744044615E+02 -0.52943802120E+03 -0.71778184307E+03  0.89227224000E+03  0.46999998093E+01 0. -1.
       -5    1    3    3    0  502  0.24744044615E+02  0.52943802120E+03  0.24951330916E+03  0.58582921358E+03  0.46999998093E+01 0.  1.
</event>
<event>
 5   0  0.6870835E-04  0.1388064E+04  0.7818609E-02  0.8962504E-01
        2   -1    0    0  501    0  0.00000000000E+00  0.00000000000E+00  0.78992758956E+03  0.78992758957E+03  0.25500000920E-02 0.  1.
       -2   -1    0    0    0  501  0.00000000000E+00  0.00000000000E+00 -0.60977828535E+03  0.60977828535E+03  0.25500000920E-02 0. -1.
    10030    2    1    2    0    0  0.00000000000E+00  0.00000000000E+00  0.18014930421E+03  0.13997058749E+04  0.13880643949E+04 0.  0.
        2    1    3    3  502    0  0.33615561088E+03  0.92069242477E+01 -0.52213769578E+03  0.62105807743E+03  0.25500000920E-02 0. -1.
       -2    1    3    3    0  502 -0.33615561088E+03 -0.92069242477E+01  0.70228699999E+03  0.77864779749E+03  0.25500000920E-02 0.  1.
</event>
<event>
 5   0  0.6895048E-04  0.1404959E+04  0.7818609E-02  0.8950236E-01
        2   -1    0    0  501    0  0.00000000000E+00  0.00000000000E+00  0.41568118126E+03  0.41568118127E+03  0.25500000920E-02 0. -1.
       -2   -1    0    0    0  501  0.00000000000E+00  0.00000000000E+00 -0.11871543914E+04  0.11871543914E+04  0.25500000920E-02 0.  1.
    10030    2    1    2    0    0  0.00000000000E+00  0.00000000000E+00 -0.77147321017E+03  0.16028355727E+04  0.14049594155E+04 0.  0.
        4    1    3    3  502    0 -0.36133441409E+03  0.58995231859E+02  0.29822897391E+03  0.47221301335E+03  0.12699999809E+01 0. -1.
       -4    1    3    3    0  502  0.36133441409E+03 -0.58995231859E+02 -0.10697021841E+04  0.11306225594E+04  0.12699999809E+01 0.  1.
</event>
<event>
 5   0  0.6959748E-04  0.1381263E+04  0.7818609E-02  0.8967494E-01
       -2   -1    0    0    0  501  0.00000000000E+00  0.00000000000E+00  0.41470159447E+03  0.41470159448E+03  0.25500000920E-02 0. -1.
        2   -1    0    0  501    0  0.00000000000E+00  0.00000000000E+00 -0.11501561680E+04  0.11501561680E+04  0.25500000920E-02 0.  1.
    10030    2    1    2    0    0  0.00000000000E+00  0.00000000000E+00 -0.73545457351E+03  0.15648577625E+04  0.13812626061E+04 0.  0.
        5    1    3    3  502    0  0.93728556622E+02 -0.32467627072E+03 -0.10500694295E+04  0.11031172285E+04  0.46999998093E+01 0.  1.
       -5    1    3    3    0  502 -0.93728556622E+02  0.32467627072E+03  0.31461485598E+03  0.46174053395E+03  0.46999998093E+01 0. -1.
</event>
<event>
 5   0  0.7296966E-04  0.1401370E+04  0.7818609E-02  0.8952828E-01
       -2   -1    0    0    0  501  0.00000000000E+00  0.00000000000E+00  0.71144179506E+03  0.71144179506E+03  0.25500000920E-02 0.  1.
        2   -1    0    0  501    0  0.00000000000E+00  0.00000000000E+00 -0.69009055204E+03  0.69009055205E+03  0.25500000920E-02 0. -1.
    10030    2    1    2    0    0  0.00000000000E+00  0.00000000000E+00  0.21351243016E+02  0.14015323471E+04  0.14013697030E+04 0.  0.
        3    1    3    3  502    0  0.68767226176E+03 -0.96946329423E+02  0.10378594615E+03  0.70218463612E+03  0.10100000352E+00 0.  1.
       -3    1    3    3    0  502 -0.68767226176E+03  0.96946329423E+02 -0.82434703137E+02  0.69934771099E+03  0.10100000352E+00 0. -1.
</event>
<event>
 5   0  0.6959748E-04  0.1398786E+04  0.7818609E-02  0.8954698E-01
       -2   -1    0    0    0  501  0.00000000000E+00  0.00000000000E+00  0.12119669084E+04  0.12119669084E+04  0.25500000920E-02 0. -1.
        2   -1    0    0  501    0  0.00000000000E+00  0.00000000000E+00 -0.40360036176E+03  0.40360036177E+03  0.25500000920E-02 0.  1.
    10030    2    1    2    0    0  0.00000000000E+00  0.00000000000E+00  0.80836654665E+03  0.16155672702E+04  0.13987855914E+04 0.  0.
        5    1    3    3  502    0  0.27412837670E+03  0.49604530726E+03  0.87747209307E+03  0.10445988119E+04  0.46999998093E+01 0. -1.
       -5    1    3    3    0  502 -0.27412837670E+03 -0.49604530726E+03 -0.69105546415E+02  0.57096845825E+03  0.46999998093E+01 0.  1.
</event>
<event>
 5   0  0.6870835E-04  0.1466918E+04  0.7818609E-02  0.8906755E-01
       -2   -1    0    0    0  501  0.00000000000E+00  0.00000000000E+00  0.68739864410E+03  0.68739864410E+03  0.25500000920E-02 0.  1.
        2   -1    0    0  501    0  0.00000000000E+00  0.00000000000E+00 -0.78260556211E+03  0.78260556211E+03  0.25500000920E-02 0. -1.
    10030    2    1    2    0    0  0.00000000000E+00  0.00000000000E+00 -0.95206918011E+02  0.14700042062E+04  0.14669178604E+04 0.  0.
        2    1    3    3  502    0  0.55374577516E+03 -0.22159007188E+03  0.38017341965E+03  0.70729652373E+03  0.25500000920E-02 0.  1.
       -2    1    3    3    0  502 -0.55374577516E+03  0.22159007188E+03 -0.47538033766E+03  0.76270768248E+03  0.25500000920E-02 0. -1.
</event>
<event>
 5   0  0.3784219E-04  0.1389843E+04  0.7818609E-02  0.8961203E-01
       -1   -1    0    0    0  501  0.00000000000E+00  0.00000000000E+00  0.38271700386E+03  0.38271700390E+03  0.50400001928E-02 0. -1.
        1   -1    0    0  501    0  0.00000000000E+00  0.00000000000E+00 -0.12618098873E+04  0.12618098873E+04  0.50400001928E-02 0.  1.
    10030    2    1    2    0    0  0.00000000000E+00  0.00000000000E+00 -0.87909288342E+03  0.16445268912E+04  0.13898432999E+04 0.  0.
        1    1    3    3  502    0  0.45923307342E+03 -0.24880356913E+03  0.10283726425E+03  0.53232859652E+03  0.50400001928E-02 0. -1.
       -1    1    3    3    0  502 -0.45923307342E+03  0.24880356913E+03 -0.98193014767E+03  0.11121982947E+04  0.50400001928E-02 0.  1.
</event>
<event>
 5   0  0.3907093E-04  0.1418490E+04  0.7818609E-02  0.8940542E-01
        1   -1    0    0  501    0  0.00000000000E+00  0.00000000000E+00  0.15938791336E+04  0.15938791336E+04  0.50400001928E-02 0.  1.
       -1   -1    0    0    0  501  0.00000000000E+00  0.00000000000E+00 -0.31560016735E+03  0.31560016739E+03  0.50400001928E-02 0. -1.
    10030    2    1    2    0    0  0.00000000000E+00  0.00000000000E+00  0.12782789662E+04  0.19094793010E+04  0.14184900723E+04 0.  0.
        4    1    3    3  502    0 -0.10297259229E+03  0.26283349033E+03  0.15149988710E+04  0.15410736486E+04  0.12699999809E+01 0.  1.
       -4    1    3    3    0  502  0.10297259229E+03 -0.26283349033E+03 -0.23671990484E+03  0.36840565230E+03  0.12699999809E+01 0. -1.
</event>
<event>
 5   0  0.6895048E-04  0.1351522E+04  0.7818609E-02  0.8989677E-01
        2   -1    0    0  501    0  0.00000000000E+00  0.00000000000E+00  0.16932206037E+04  0.16932206037E+04  0.25500000920E-02 0. -1.
       -2   -1    0    0    0  501  0.00000000000E+00  0.00000000000E+00 -0.26969493558E+03  0.26969493560E+03  0.25500000920E-02 0.  1.
    10030    2    1    2    0    0  0.00000000000E+00  0.00000000000E+00  0.14235256681E+04  0.19629155393E+04  0.13515221369E+04 0.  0.
        4    1    3    3  502    0 -0.50626212567E+03 -0.28096398895E+03  0.12178256613E+04  0.13484595126E+04  0.12699999809E+01 0.  1.
       -4    1    3    3    0  502  0.50626212567E+03  0.28096398895E+03  0.20570000678E+03  0.61445602663E+03  0.12699999809E+01 0. -1.
</event>
<event>
 5   0  0.6895048E-04  0.1397152E+04  0.7818609E-02  0.8955883E-01
       -2   -1    0    0    0  501  0.00000000000E+00  0.00000000000E+00  0.78737764150E+03  0.78737764150E+03  0.25500000920E-02 0.  1.
        2   -1    0    0  501    0  0.00000000000E+00  0.00000000000E+00 -0.61978945393E+03  0.61978945394E+03  0.25500000920E-02 0. -1.
    10030    2    1    2    0    0  0.00000000000E+00  0.00000000000E+00  0.16758818757E+03  0.14071670954E+04  0.13971519008E+04 0.  0.
        4    1    3    3  502    0 -0.26470937051E+03  0.18989632128E+03 -0.53859604876E+03  0.62945927613E+03  0.12699999809E+01 0. -1.
       -4    1    3    3    0  502  0.26470937051E+03 -0.18989632128E+03  0.70618423633E+03  0.77770781931E+03  0.12699999809E+01 0.  1.
</event>
<event>
 5   0  0.3756664E-04  0.1405633E+04  0.7818609E-02  0.8949751E-01
        1   -1    0    0  501    0  0.00000000000E+00  0.00000000000E+00  0.17235242086E+04  0.17235242086E+04  0.50400001928E-02 0. -1.
       -1   -1    0    0    0  501  0.00000000000E+00  0.00000000000E+00 -0.28659350091E+03  0.28659350095E+03  0.50400001928E-02 0.  1.
    10030    2    1    2    0    0  0.00000000000E+00  0.00000000000E+00  0.14369307077E+04  0.20101177096E+04  0.14056327214E+04 0.  0.
        2    1    3    3  502    0 -0.11051621669E+03  0.68123623886E+03  0.52845663721E+03  0.86923130679E+03  0.25500000920E-02 0.  1.
       -2    1    3    3    0  502  0.11051621669E+03 -0.68123623886E+03  0.90847407049E+03  0.11408864028E+04  0.25500000920E-02 0. -1.
</event>
<event>
 5   0  0.3756664E-04  0.1399908E+04  0.7818609E-02  0.8953885E-01
       -1   -1    0    0    0  501  0.00000000000E+00  0.00000000000E+00  0.25949022476E+03  0.25949022481E+03  0.50400001928E-02 0. -1.
        1   -1    0    0  501    0  0.00000000000E+00  0.00000000000E+00 -0.18880687071E+04  0.18880687071E+04  0.50400001928E-02 0.  1.
    10030    2    1    2    0    0  0.00000000000E+00  0.00000000000E+00 -0.16285784824E+04  0.21475589319E+04  0.13999076730E+04 0.  0.
        2    1    3    3  502    0  0.22620668818E+02  0.12020807002E+03 -0.18715460167E+04  0.18755389005E+04  0.25500000920E-02 0.  1.
       -2    1    3    3    0  502 -0.22620668818E+02 -0.12020807002E+03  0.24296753432E+03  0.27202003142E+03  0.25500000920E-02 0. -1.
</event>
<event>
 5   0  0.6870835E-04  0.1402660E+04  0.7818609E-02  0.8951895E-01
       -2   -1    0    0    0  501  0.00000000000E+00  0.00000000000E+00  0.78171081644E+03  0.78171081644E+03  0.25500000920E-02 0. -1.
        2   -1    0    0  501    0  0.00000000000E+00  0.00000000000E+00 -0.62921476008E+03  0.62921476008E+03  0.25500000920E-02 0.  1.
    10030    2    1    2    0    0  0.00000000000E+00  0.00000000000E+00  0.15249605636E+03  0.14109255765E+04  0.14026603064E+04 0.  0.
        2    1    3    3  502    0  0.47872164328E+03  0.44933211412E+03  0.32425761472E+03  0.73226823039E+03  0.25500000920E-02 0. -1.
       -2    1    3    3    0  502 -0.47872164328E+03 -0.44933211412E+03 -0.17176155837E+03  0.67865734614E+03  0.25500000920E-02 0.  1.
</event>
<event>
 5   0  0.7296966E-04  0.1284222E+04  0.7818609E-02  0.9042172E-01
       -2   -1    0    0    0  501  0.00000000000E+00  0.00000000000E+00  0.41766039752E+03  0.41766039753E+03  0.25500000920E-02 0.  1.
        2   -1    0    0  501    0  0.00000000000E+00  0.00000000000E+00 -0.98718131035E+03  0.98718131036E+03  0.25500000920E-02 0. -1.
    10030    2    1    2    0    0  0.00000000000E+00  0.00000000000E+00 -0.56952091283E+03  0.14048417079E+04  0.12842220034E+04 0.  0.
        3    1    3    3  502    0  0.17095885019E+03  0.53048066123E+03 -0.63356602955E+03  0.84382615768E+03  0.10100000352E+00 0. -1.
       -3    1    3    3    0  502 -0.17095885019E+03 -0.53048066123E+03  0.64045116716E+02  0.56101555020E+03  0.10100000352E+00 0.  1.
</event>
<event>
 5   0  0.6870835E-04  0.1397990E+04  0.7818609E-02  0.8955275E-01
        2   -1    0    0  501    0  0.00000000000E+00  0.00000000000E+00  0.14910549182E+04  0.14910549182E+04  0.25500000920E-02 0.  1.
       -2   -1    0    0    0  501  0.00000000000E+00  0.00000000000E+00 -0.32768351940E+03  0.32768351941E+03  0.25500000920E-02 0. -1.
    10030    2    1    2    0    0  0.00000000000E+00  0.00000000000E+00  0.11633713988E+04  0.18187384376E+04  0.13979901620E+04 0.  0.
        2    1    3    3  502    0 -0.24980733569E+03  0.19994985646E+03  0.13901822169E+04  0.14265308431E+04  0.25500000920E-02 0.  1.
       -2    1    3    3    0  502  0.24980733569E+03 -0.19994985646E+03 -0.22681081805E+03  0.39220759459E+03  0.25500000920E-02 0. -1.
</event>
<event>
 5   0  0.7065539E-04  0.1392088E+04  0.7818609E-02  0.8959566E-01
        2   -1    0    0  501    0  0.00000000000E+00  0.00000000000E+00  0.14708271202E+04  0.14708271202E+04  0.25500000920E-02 0. -1.
       -2   -1    0    0    0  501  0.00000000000E+00  0.00000000000E+00 -0.32939109711E+03  0.32939109712E+03  0.25500000920E-02 0.  1.
    10030    2    1    2    0    0  0.00000000000E+00  0.00000000000E+00  0.11414360231E+04  0.18002182173E+04  0.13920881564E+04 0.  0.
        1    1    3    3  502    0  0.52528758845E+03  0.45518102238E+03  0.61841762708E+03  0.93035325292E+03  0.50400001928E-02 0. -1.
       -1    1    3    3    0  502 -0.52528758845E+03 -0.45518102238E+03  0.52301839602E+03  0.86986496441E+03  0.50400001928E-02 0.  1.
</event>
<event>
 5   0  0.3907270E-04  0.1397092E+04  0.7818609E-02  0.8955927E-01
       -1   -1    0    0    0  501  0.00000000000E+00  0.00000000000E+00  0.40521390170E+03  0.40521390173E+03  0.50400001928E-02 0.  1.
        1   -1    0    0  501    0  0.00000000000E+00  0.00000000000E+00 -0.12042188335E+04  0.12042188335E+04  0.50400001928E-02 0. -1.
    10030    2    1    2    0    0  0.00000000000E+00  0.00000000000E+00 -0.79900493182E+03  0.16094327353E+04  0.13970915676E+04 0.  0.
        3    1    3    3  502    0  0.21452810640E+03  0.65951293300E+03 -0.49579229622E+03  0.85251957656E+03  0.10100000352E+00 0. -1.
       -3    1    3    3    0  502 -0.21452810640E+03 -0.65951293300E+03 -0.30321263561E+03  0.75691315871E+03  0.10100000352E+00 0.  1.
</event>
<event>
 5   0  0.6959748E-04  0.1387921E+04  0.7818609E-02  0.8962608E-01
        2   -1    0    0  501    0  0.00000000000E+00  0.00000000000E+00  0.53452230345E+03  0.53452230346E+03  0.25500000920E-02 0. -1.
       -2   -1    0    0    0  501  0.00000000000E+00  0.00000000000E+00 -0.90095663491E+03  0.90095663491E+03  0.25500000920E-02 0.  1.
    10030    2    1    2    0    0  0.00000000000E+00  0.00000000000E+00 -0.36643433145E+03  0.14354789384E+04  0.13879213462E+04 0.  0.
        5    1    3    3  502    0  0.67909509217E+03 -0.11406631150E+03 -0.94378299525E+02  0.69506159515E+03  0.46999998093E+01 0.  1.
       -5    1    3    3    0  502 -0.67909509217E+03  0.11406631150E+03 -0.27205603193E+03  0.74041734322E+03  0.46999998093E+01 0. -1.
</event>
<event>
 5   0  0.6895048E-04  0.1396186E+04  0.7818609E-02  0.8956584E-01
       -2   -1    0    0    0  501  0.00000000000E+00  0.00000000000E+00  0.50940033801E+03  0.50940033802E+03  0.25500000920E-02 0. -1.
        2   -1    0    0  501    0  0.00000000000E+00  0.00000000000E+00 -0.95668136795E+03  0.95668136796E+03  0.25500000920E-02 0.  1.
    10030    2    1    2    0    0  0.00000000000E+00  0.00000000000E+00 -0.44728102994E+03  0.14660817060E+04  0.13961859650E+04 0.  0.
        4    1    3    3  502    0  0.11114892412E+03  0.65996760552E+03 -0.43212706364E+03  0.79664718396E+03  0.12699999809E+01 0. -1.
       -4    1    3    3    0  502 -0.11114892412E+03 -0.65996760552E+03 -0.15153966302E+02  0.66943452202E+03  0.12699999809E+01 0.  1.
</event>
<event>
 5   0  0.6870835E-04  0.1408101E+04  0.7818609E-02  0.8947976E-01
        2   -1    0    0  501    0  0.00000000000E+00  0.00000000000E+00  0.14766248318E+04  0.14766248318E+04  0.25500000920E-02 0.  1.
       -2   -1    0    0    0  501  0.00000000000E+00  0.00000000000E+00 -0.33568912574E+03  0.33568912575E+03  0.25500000920E-02 0. -1.
    10030    2    1    2    0    0  0.00000000000E+00  0.00000000000E+00  0.11409357061E+04  0.18123139576E+04  0.14081007050E+04 0.  0.
        2    1    3    3  502    0  0.54053786234E+03 -0.93523504215E+02  0.24675493082E+01  0.54857443913E+03  0.25500000920E-02 0. -1.
       -2    1    3    3    0  502 -0.54053786234E+03  0.93523504215E+02  0.11384681568E+04  0.12637395185E+04  0.25500000920E-02 0.  1.
</event>
<event>
 5   0  0.3907270E-04  0.1403108E+04  0.7818609E-02  0.8951572E-01
        1   -1    0    0  501    0  0.00000000000E+00  0.00000000000E+00  0.60596053381E+03  0.60596053383E+03  0.50400001928E-02 0.  1.
       -1   -1    0    0    0  501  0.00000000000E+00  0.00000000000E+00 -0.81222821010E+03  0.81222821011E+03  0.50400001928E-02 0. -1.
    10030    2    1    2    0    0  0.00000000000E+00  0.00000000000E+00 -0.20626767629E+03  0.14181887439E+04  0.14031083205E+04 0.  0.
        3    1    3    3  502    0 -0.69795912566E+03 -0.69930606421E+02 -0.11513575204E+03  0.71083998369E+03  0.10100000352E+00 0. -1.
       -3    1    3    3    0  502  0.69795912566E+03  0.69930606421E+02 -0.91131924254E+02  0.70734876025E+03  0.10100000352E+00 0.  1.
</event>
<event>
 5   0  0.3977658E-04  0.1394902E+04  0.7818609E-02  0.8957517E-01
        1   -1    0    0  501    0  0.00000000000E+00  0.00000000000E+00  0.17934109803E+04  0.17934109803E+04  0.50400001928E-02 0.  1.
       -1   -1    0    0    0  501  0.00000000000E+00  0.00000000000E+00 -0.27123610631E+03  0.27123610636E+03  0.50400001928E-02 0. -1.
    10030    2    1    2    0    0  0.00000000000E+00  0.00000000000E+00  0.15221748740E+04  0.20646470867E+04  0.13949018767E+04 0.  0.
        5    1    3    3  502    0  0.34074563235E+03  0.59773155036E+03  0.59216272480E+03  0.90778266942E+03  0.46999998093E+01 0. -1.
       -5    1    3    3    0  502 -0.34074563235E+03 -0.59773155036E+03  0.93001214922E+03  0.11568644173E+04  0.46999998093E+01 0.  1.
</event>
<event>
 5   0  0.7065539E-04  0.1317325E+04  0.7818609E-02  0.9015938E-01
        2   -1    0    0  501    0  0.00000000000E+00  0.00000000000E+00  0.12264136230E+04  0.12264136230E+04  0.25500000920E-02 0. -1.
       -2   -1    0    0    0  501  0.00000000000E+00  0.00000000000E+00 -0.35374404180E+03  0.35374404181E+03  0.25500000920E-02 0.  1.
    10030    2    1    2    0    0  0.00000000000E+00  0.00000000000E+00  0.87266958123E+03  0.15801576648E+04  0.13173253386E+04 0.  0.
        1    1    3    3  502    0  0.45906454802E+03  0.21547987838E+03  0.94051086868E+03  0.10685188493E+04  0.50400001928E-02 0. -1.
       -1    1    3    3    0  502 -0.45906454802E+03 -0.21547987838E+03 -0.67841287450E+02  0.51163881551E+03  0.50400001928E-02 0.  1.
</event>
<event>
 5   0  0.6959748E-04  0.1375776E+04  0.7818609E-02  0.8971542E-01
       -2   -1    0    0    0  501  0.00000000000E+00  0.00000000000E+00  0.46478754184E+03  0.46478754185E+03  0.25500000920E-02 0. -1.
        2   -1    0    0  501    0  0.00000000000E+00  0.00000000000E+00 -0.10180783016E+04  0.10180783016E+04  0.25500000920E-02 0.  1.
    10030    2    1    2    0    0  0.00000000000E+00  0.00000000000E+00 -0.55329075980E+03  0.14828658435E+04  0.13757763063E+04 0.  0.
        5    1    3    3  502    0  0.43720250268E+02 -0.10727184505E+03  0.45418161393E+03  0.46874485326E+03  0.46999998093E+01 0. -1.
       -5    1    3    3    0  502 -0.43720250268E+02  0.10727184505E+03 -0.10074723737E+04  0.10141209902E+04  0.46999998093E+01 0.  1.
</event>
<event>
 5   0  0.6959748E-04  0.1339729E+04  0.7818609E-02  0.8998640E-01
        2   -1    0    0  501    0  0.00000000000E+00  0.00000000000E+00  0.11449361971E+04  0.11449361971E+04  0.25500000920E-02 0. -1.
       -2   -1    0    0    0  501  0.00000000000E+00  0.00000000000E+00 -0.39191548166E+03  0.39191548167E+03  0.25500000920E-02 0.  1.
    10030    2    1    2    0    0  0.00000000000E+00  0.00000000000E+00  0.75302071543E+03  0.15368516788E+04  0.13397286608E+04 0.  0.
        5    1    3    3  502    0  0.40694640817E+03 -0.27070094766E+03 -0.14893796435E+03  0.51096867752E+03  0.46999998093E+01 0.  1.
       -5    1    3    3    0  502 -0.40694640817E+03  0.27070094766E+03  0.90195867978E+03  0.10258830012E+04  0.46999998093E+01 0. -1.
</event>
<event>
 5   0  0.3907093E-04  0.1398283E+04  0.7818609E-02  0.8955063E-01
        1   -1    0    0  501    0  0.00000000000E+00  0.00000000000E+00  0.80667659878E+03  0.80667659880E+03  0.50400001928E-02 0. -1.
       -1   -1    0    0    0  501  0.00000000000E+00  0.00000000000E+00 -0.60594125812E+03  0.60594125814E+03  0.50400001928E-02 0.  1.
    10030    2    1    2    0    0  0.00000000000E+00  0.00000000000E+00  0.20073534066E+03  0.14126178569E+04  0.13982827084E+04 0.  0.
        4    1    3    3  502    0 -0.10036841212E+03  0.42545682235E+03  0.65158922709E+03  0.78463842603E+03  0.12699999809E+01 0. -1.
       -4    1    3    3    0  502  0.10036841212E+03 -0.42545682235E+03 -0.45085388643E+03  0.62797943091E+03  0.12699999809E+01 0.  1.
</event>
<event>
 5   0  0.3907093E-04  0.1393716E+04  0.7818609E-02  0.8958380E-01
        1   -1    0    0  501    0  0.00000000000E+00  0.00000000000E+00  0.56437321095E+03  0.56437321097E+03  0.50400001928E-02 0.  1.
       -1   -1    0    0    0  501  0.00000000000E+00  0.00000000000E+00 -0.86044291409E+03  0.86044291410E+03  0.50400001928E-02 0. -1.
    10030    2    1    2    0    0  0.00000000000E+00  0.00000000000E+00 -0.29606970314E+03  0.14248161251E+04  0.13937157964E+04 0.  0.
        4    1    3    3  502    0  0.52488411923E+03 -0.45698230872E+03 -0.11155743325E+03  0.70482823646E+03  0.12699999809E+01 0. -1.
       -4    1    3    3    0  502 -0.52488411923E+03  0.45698230872E+03 -0.18451226989E+03  0.71998788861E+03  0.12699999809E+01 0.  1.
</event>
<event>
 5   0  0.3756664E-04  0.1396202E+04  0.7818609E-02  0.8956573E-01
        1   -1    0    0  501    0  0.00000000000E+00  0.00000000000E+00  0.18643495501E+04  0.18643495501E+04  0.50400001928E-02 0. -1.
       -1   -1    0    0    0  501  0.00000000000E+00  0.00000000000E+00 -0.26140199712E+03  0.26140199717E+03  0.50400001928E-02 0.  1.
    10030    2    1    2    0    0  0.00000000000E+00  0.00000000000E+00  0.16029475530E+04  0.21257515473E+04  0.13962015553E+04 0.  0.
        2    1    3    3  502    0 -0.62678814966E+03 -0.17235553265E+03  0.11889702016E+04  0.13550719370E+04  0.25500000920E-02 0. -1.
       -2    1    3    3    0  502  0.62678814966E+03  0.17235553265E+03  0.41397735135E+03  0.77067961024E+03  0.25500000920E-02 0.  1.
</event>
<event>
 5   0  0.7065539E-04  0.1409833E+04  0.7818609E-02  0.8946731E-01
       -2   -1    0    0    0  501  0.00000000000E+00  0.00000000000E+00  0.22589085005E+03  0.22589085007E+03  0.25500000920E-02 0. -1.
        2   -1    0    0  501    0  0.00000000000E+00  0.00000000000E+00 -0.21997680444E+04  0.21997680444E+04  0.25500000920E-02 0.  1.
    10030    2    1    2    0    0  0.00000000000E+00  0.00000000000E+00 -0.19738771944E+04  0.24256588945E+04  0.14098332859E+04 0.  0.
        1    1    3    3  502    0  0.52334005370E+03 -0.14281777749E+02 -0.17990914598E+04  0.18737179248E+04  0.50400001928E-02 0.  1.
       -1    1    3    3    0  502 -0.52334005370E+03  0.14281777749E+02 -0.17478573456E+03  0.55194096968E+03  0.50400001928E-02 0. -1.
</event>
<event>
 5   0  0.6959748E-04  0.1394360E+04  0.7818609E-02  0.8957911E-01
        2   -1    0    0  501    0  0.00000000000E+00  0.00000000000E+00  0.95637980378E+03  0.95637980378E+03  0.25500000920E-02 0. -1.
       -2   -1    0    0    0  501  0.00000000000E+00  0.00000000000E+00 -0.50822882307E+03  0.50822882308E+03  0.25500000920E-02 0.  1.
    10030    2    1    2    0    0  0.00000000000E+00  0.00000000000E+00  0.44815098070E+03  0.14646086269E+04  0.13943597557E+04 0.  0.
        5    1    3    3  502    0  0.23828797197E+03  0.19894594260E+03  0.87976639694E+03  0.93293710873E+03  0.46999998093E+01 0. -1.
       -5    1    3    3    0  502 -0.23828797197E+03 -0.19894594260E+03 -0.43161541624E+03  0.53167151813E+03  0.46999998093E+01 0.  1.
</event>
<event>
 5   0  0.7296966E-04  0.1403149E+04  0.7818609E-02  0.8951543E-01
       -2   -1    0    0    0  501  0.00000000000E+00  0.00000000000E+00  0.22716768169E+03  0.22716768170E+03  0.25500000920E-02 0.  1.
        2   -1    0    0  501    0  0.00000000000E+00  0.00000000000E+00 -0.21667097921E+04  0.21667097921E+04  0.25500000920E-02 0. -1.
    10030    2    1    2    0    0  0.00000000000E+00  0.00000000000E+00 -0.19395421104E+04  0.23938774738E+04  0.14031485173E+04 0.  0.
        3    1    3    3  502    0  0.47286525198E+03 -0.18231091101E+03 -0.17974685296E+04  0.18675470382E+04  0.10100000352E+00 0. -1.
       -3    1    3    3    0  502 -0.47286525198E+03  0.18231091101E+03 -0.14207358073E+03  0.52633043551E+03  0.10100000352E+00 0.  1.
</event>
<event>
 5   0  0.3907093E-04  0.1374083E+04  0.7818609E-02  0.8972795E-01
       -1   -1    0    0    0  501  0.00000000000E+00  0.00000000000E+00  0.77484512536E+03  0.77484512537E+03  0.50400001928E-02 0. -1.
        1   -1    0    0  501    0  0.00000000000E+00  0.00000000000E+00 -0.60918779088E+03  0.60918779090E+03  0.50400001928E-02 0.  1.
    10030    2    1    2    0    0  0.00000000000E+00  0.00000000000E+00  0.16565733448E+03  0.13840329163E+04  0.13740832438E+04 0.  0.
        4    1    3    3  502    0 -0.46882613229E+03  0.30482342130E+03  0.48485450255E+03  0.74013563759E+03  0.12699999809E+01 0. -1.
       -4    1    3    3    0  502  0.46882613229E+03 -0.30482342130E+03 -0.31919716807E+03  0.64389727868E+03  0.12699999809E+01 0.  1.
</event>
<event>
 5   0  0.7065539E-04  0.1431649E+04  0.7818609E-02  0.8931222E-01
        2   -1    0    0  501    0  0.00000000000E+00  0.00000000000E+00  0.85063296515E+03  0.85063296515E+03  0.25500000920E-02 0. -1.
       -2   -1    0    0    0  501  0.00000000000E+00  0.00000000000E+00 -0.60238079388E+03  0.60238079389E+03  0.25500000920E-02 0.  1.
    10030    2    1    2    0    0  0.00000000000E+00  0.00000000000E+00  0.24825217127E+03  0.14530137590E+04  0.14316493437E+04 0.  0.
        1    1    3    3  502    0  0.32440212066E+03  0.38021743251E+03 -0.39596912091E+03  0.63764690590E+03  0.50400001928E-02 0.  1.
       -1    1    3    3    0  502 -0.32440212066E+03 -0.38021743251E+03  0.64422129217E+03  0.81536685313E+03  0.50400001928E-02 0. -1.
</event>
<event>
 5   0  0.3907093E-04  0.1396048E+04  0.7818609E-02  0.8956684E-01
       -1   -1    0    0    0  501  0.00000000000E+00  0.00000000000E+00  0.96864430032E+03  0.96864430033E+03  0.50400001928E-02 0. -1.
        1   -1    0    0  501    0  0.00000000000E+00  0.00000000000E+00 -0.50300978887E+03  0.50300978890E+03  0.50400001928E-02 0.  1.
    10030    2    1    2    0    0  0.00000000000E+00  0.00000000000E+00  0.46563451144E+03  0.14716540892E+04  0.13960480866E+04 0.  0.
        4    1    3    3  502    0 -0.62793647560E+03 -0.25379638312E+03  0.41083918577E+03  0.79215356525E+03  0.12699999809E+01 0. -1.
       -4    1    3    3    0  502  0.62793647560E+03  0.25379638312E+03  0.54795325678E+02  0.67950052398E+03  0.12699999809E+01 0.  1.
</event>
<event>
 5   0  0.7296966E-04  0.1404702E+04  0.7818609E-02  0.8950422E-01
       -2   -1    0    0    0  501  0.00000000000E+00  0.00000000000E+00  0.19371354022E+03  0.19371354024E+03  0.25500000920E-02 0. -1.
        2   -1    0    0  501    0  0.00000000000E+00  0.00000000000E+00 -0.25465277987E+04  0.25465277987E+04  0.25500000920E-02 0.  1.
    10030    2    1    2    0    0  0.00000000000E+00  0.00000000000E+00 -0.23528142585E+04  0.27402413390E+04  0.14047019829E+04 0.  0.
        3    1    3    3  502    0  0.57273291186E+01 -0.39475970860E+02 -0.25443163024E+04  0.25446289733E+04  0.10100000352E+00 0.  1.
       -3    1    3    3    0  502 -0.57273291186E+01  0.39475970860E+02  0.19150204394E+03  0.19561236569E+03  0.10100000352E+00 0. -1.
</event>
<event>
 5   0  0.6895048E-04  0.1400141E+04  0.7818609E-02  0.8953716E-01
       -2   -1    0    0    0  501  0.00000000000E+00  0.00000000000E+00  0.71748619088E+03  0.71748619089E+03  0.25500000920E-02 0. -1.
        2   -1    0    0  501    0  0.00000000000E+00  0.00000000000E+00 -0.68307771490E+03  0.68307771491E+03  0.25500000920E-02 0.  1.
    10030    2    1    2    0    0  0.00000000000E+00  0.00000000000E+00  0.34408475981E+02  0.14005639058E+04  0.14001411754E+04 0.  0.
        4    1    3    3  502    0 -0.40119678050E+02 -0.56178095010E+03 -0.39872148117E+03  0.69006366149E+03  0.12699999809E+01 0.  1.
       -4    1    3    3    0  502  0.40119678050E+02  0.56178095010E+03  0.43312995715E+03  0.71050024430E+03  0.12699999809E+01 0. -1.
</event>
<event>
 5   0  0.3784219E-04  0.1396136E+04  0.7818609E-02  0.8956620E-01
        1   -1    0    0  501    0  0.00000000000E+00  0.00000000000E+00  0.17131041910E+04  0.17131041910E+04  0.50400001928E-02 0. -1.
       -1   -1    0    0    0  501  0.00000000000E+00  0.00000000000E+00 -0.28445388187E+03  0.28445388191E+03  0.50400001928E-02 0.  1.
    10030    2    1    2    0    0  0.00000000000E+00  0.00000000000E+00  0.14286503091E+04  0.19975580729E+04  0.13961362931E+04 0.  0.
        1    1    3    3  502    0  0.43524905484E+03  0.54541193700E+03  0.74233390062E+03  0.10188108464E+04  0.50400001928E-02 0.  1.
       -1    1    3    3    0  502 -0.43524905484E+03 -0.54541193700E+03  0.68631640852E+03  0.97874722650E+03  0.50400001928E-02 0. -1.
</event>
<event>
 5   0  0.7065539E-04  0.1395159E+04  0.7818609E-02  0.8957330E-01
       -2   -1    0    0    0  501  0.00000000000E+00  0.00000000000E+00  0.59153969349E+03  0.59153969350E+03  0.25500000920E-02 0.  1.
        2   -1    0    0  501    0  0.00000000000E+00  0.00000000000E+00 -0.82262766969E+03  0.82262766970E+03  0.25500000920E-02 0. -1.
    10030    2    1    2    0    0  0.00000000000E+00  0.00000000000E+00 -0.23108797620E+03  0.14141673632E+04  0.13951586571E+04 0.  0.
        1    1    3    3  502    0  0.31064033228E+03  0.40526538334E+03  0.36619921334E+03  0.62836240407E+03  0.50400001928E-02 0. -1.
       -1    1    3    3    0  502 -0.31064033228E+03 -0.40526538334E+03 -0.59728718954E+03  0.78580495912E+03  0.50400001928E-02 0.  1.
</event>
<event>
 5   0  0.3977658E-04  0.1414299E+04  0.7818609E-02  0.8943533E-01
       -1   -1    0    0    0  501  0.00000000000E+00  0.00000000000E+00  0.39041351928E+03  0.39041351931E+03  0.50400001928E-02 0.  1.
        1   -1    0    0  501    0  0.00000000000E+00  0.00000000000E+00 -0.12808473675E+04  0.12808473675E+04  0.50400001928E-02 0. -1.
    10030    2    1    2    0    0  0.00000000000E+00  0.00000000000E+00 -0.89043384820E+03  0.16712608868E+04  0.14142985943E+04 0.  0.
        5    1    3    3  502    0  0.15088063844E+03 -0.31955225242E+03  0.27857056666E+03  0.45000251076E+03  0.46999998093E+01 0.  1.
       -5    1    3    3    0  502 -0.15088063844E+03  0.31955225242E+03 -0.11690044149E+04  0.12212583760E+04  0.46999998093E+01 0. -1.
</event>
<event>
 5   0  0.3977658E-04  0.1393940E+04  0.7818609E-02  0.8958217E-01
       -1   -1    0    0    0  501  0.00000000000E+00  0.00000000000E+00  0.47632148113E+03  0.47632148116E+03  0.50400001928E-02 0. -1.
        1   -1    0    0  501    0  0.00000000000E+00  0.00000000000E+00 -0.10198301206E+04  0.10198301206E+04  0.50400001928E-02 0.  1.
    10030    2    1    2    0    0  0.00000000000E+00  0.00000000000E+00 -0.54350863942E+03  0.14961516017E+04  0.13939397312E+04 0.  0.
        5    1    3    3  502    0  0.60827889544E+03  0.29291818161E+03 -0.86032873777E+02  0.68060856674E+03  0.46999998093E+01 0.  1.
       -5    1    3    3    0  502 -0.60827889544E+03 -0.29291818161E+03 -0.45747576565E+03  0.81554303498E+03  0.46999998093E+01 0. -1.
</event>
<event>
 5   0  0.3907093E-04  0.1403397E+04  0.7818609E-02  0.8951363E-01
       -1   -1    0    0    0  501  0.00000000000E+00  0.00000000000E+00  0.34536023410E+03  0.34536023414E+03  0.50400001928E-02 0. -1.
        1   -1    0    0  501    0  0.00000000000E+00  0.00000000000E+00 -0.14257014995E+04  0.14257014995E+04  0.50400001928E-02 0.  1.
    10030    2    1    2    0    0  0.00000000000E+00  0.00000000000E+00 -0.10803412654E+04  0.17710617336E+04  0.14033967417E+04 0.  0.
        4    1    3    3  502    0  0.41685189582E+03 -0.60182112549E+02 -0.12484469535E+04  0.13175768662E+04  0.12699999809E+01 0.  1.
       -4    1    3    3    0  502 -0.41685189582E+03  0.60182112549E+02  0.16810568812E+03  0.45348486744E+03  0.12699999809E+01 0. -1.
</event>
<event>
 5   0  0.3907270E-04  0.1403644E+04  0.7818609E-02  0.8951185E-01
       -1   -1    0    0    0  501  0.00000000000E+00  0.00000000000E+00  0.90301289487E+03  0.90301289489E+03  0.50400001928E-02 0. -1.
        1   -1    0    0  501    0  0.00000000000E+00  0.00000000000E+00 -0.54545613291E+03  0.54545613293E+03  0.50400001928E-02 0.  1.
    10030    2    1    2    0    0  0.00000000000E+00  0.00000000000E+00  0.35755676197E+03  0.14484690278E+04  0.14036437178E+04 0.  0.
        3    1    3    3  502    0  0.53986316962E+02  0.23609026823E+03  0.85852575660E+03  0.89203117777E+03  0.10100000352E+00 0. -1.
       -3    1    3    3    0  502 -0.53986316962E+02 -0.23609026823E+03 -0.50096899463E+03  0.55643785004E+03  0.10100000352E+00 0.  1.
</event>
<event>
 5   0  0.3907270E-04  0.1382159E+04  0.7818609E-02  0.8966835E-01
       -1   -1    0    0    0  501  0.00000000000E+00  0.00000000000E+00  0.32947927091E+03  0.32947927095E+03  0.50400001928E-02 0.  1.
        1   -1    0    0  501    0  0.00000000000E+00  0.00000000000E+00 -0.14495314123E+04  0.14495314123E+04  0.50400001928E-02 0. -1.
    10030    2    1    2    0    0  0.00000000000E+00  0.00000000000E+00 -0.11200521414E+04  0.17790106832E+04  0.13821585335E+04 0.  0.
        3    1    3    3  502    0  0.60952733784E+03 -0.64732598117E+02 -0.14919995691E+03  0.63085221897E+03  0.10100000352E+00 0.  1.
       -3    1    3    3    0  502 -0.60952733784E+03  0.64732598117E+02 -0.97085218445E+03  0.11481584643E+04  0.10100000352E+00 0. -1.
</event>
<event>
 5   0  0.3907093E-04  0.1399990E+04  0.7818609E-02  0.8953826E-01
        1   -1    0    0  501    0  0.00000000000E+00  0.00000000000E+00  0.53295260141E+03  0.53295260143E+03  0.50400001928E-02 0. -1.
       -1   -1    0    0    0  501  0.00000000000E+00  0.00000000000E+00 -0.91939316623E+03  0.91939316624E+03  0.50400001928E-02 0.  1.
    10030    2    1    2    0    0  0.00000000000E+00  0.00000000000E+00 -0.38644056482E+03  0.14523457677E+04  0.13999899709E+04 0.  0.
        4    1    3    3  502    0 -0.46058970879E+03  0.13430522410E+03 -0.72199846348E+03  0.86687032897E+03  0.12699999809E+01 0.  1.
       -4    1    3    3    0  502  0.46058970879E+03 -0.13430522410E+03  0.33555789866E+03  0.58547543870E+03  0.12699999809E+01 0. -1.
</event>
<event>
 5   0  0.3907270E-04  0.1401443E+04  0.7818609E-02  0.8952775E-01
       -1   -1    0    0    0  501  0.00000000000E+00  0.00000000000E+00  0.74870343692E+03  0.74870343694E+03  0.50400001928E-02 0.  1.
        1   -1    0    0  501    0  0.00000000000E+00  0.00000000000E+00 -0.65581447742E+03  0.65581447744E+03  0.50400001928E-02 0. -1.
    10030    2    1    2    0    0  0.00000000000E+00  0.00000000000E+00  0.92888959498E+02  0.14045179144E+04  0.14014429039E+04 0.  0.
        3    1    3    3  502    0  0.20181126832E+03  0.24867431521E+03 -0.57817567469E+03  0.66094918418E+03  0.10100000352E+00 0. -1.
       -3    1    3    3    0  502 -0.20181126832E+03 -0.24867431521E+03  0.67106463419E+03  0.74356873020E+03  0.10100000352E+00 0.  1.
</event>
<event>
 5   0  0.3784219E-04  0.1399778E+04  0.7818609E-02  0.8953979E-01
        1   -1    0    0  501    0  0.00000000000E+00  0.00000000000E+00  0.11432251806E+04  0.11432251806E+04  0.50400001928E-02 0.  1.
       -1   -1    0    0    0  501  0.00000000000E+00  0.00000000000E+00 -0.42847597179E+03  0.42847597182E+03  0.50400001928E-02 0. -1.
    10030    2    1    2    0    0  0.00000000000E+00  0.00000000000E+00  0.71474920882E+03  0.15717011524E+04  0.13997778685E+04 0.  0.
        1    1    3    3  502    0 -0.34161705634E+03 -0.64315593020E+00  0.10432541546E+04  0.10977622046E+04  0.50400001928E-02 0.  1.
       -1    1    3    3    0  502  0.34161705634E+03  0.64315593020E+00 -0.32850494577E+03  0.47393894781E+03  0.50400001928E-02 0. -1.
</event>
<event>
 5   0  0.3977658E-04  0.1416425E+04  0.7818609E-02  0.8942014E-01
        1   -1    0    0  501    0  0.00000000000E+00  0.00000000000E+00  0.17402799761E+04  0.17402799761E+04  0.50400001928E-02 0. -1.
       -1   -1    0    0    0  501  0.00000000000E+00  0.00000000000E+00 -0.28820948434E+03  0.28820948439E+03  0.50400001928E-02 0.  1.
    10030    2    1    2    0    0  0.00000000000E+00  0.00000000000E+00  0.14520704917E+04  0.20284894605E+04  0.14164253522E+04 0.  0.
        5    1    3    3  502    0 -0.26724935621E+03 -0.62232612919E+03  0.10224218372E+04  0.12264096104E+04  0.46999998093E+01 0. -1.
       -5    1    3    3    0  502  0.26724935621E+03  0.62232612919E+03  0.42964865457E+03  0.80207985004E+03  0.46999998093E+01 0.  1.
</event>
<event>
 5   0  0.7296966E-04  0.1410725E+04  0.7818609E-02  0.8946092E-01
        2   -1    0    0  501    0  0.00000000000E+00  0.00000000000E+00  0.15160197648E+04  0.15160197648E+04  0.25500000920E-02 0.  1.
       -2   -1    0    0    0  501  0.00000000000E+00  0.00000000000E+00 -0.32818571488E+03  0.32818571489E+03  0.25500000920E-02 0. -1.
    10030    2    1    2    0    0  0.00000000000E+00  0.00000000000E+00  0.11878340499E+04  0.18442054797E+04  0.14107246794E+04 0.  0.
        3    1    3    3  502    0  0.33445081630E+03  0.13873023004E+03  0.13852588005E+04  0.14317979535E+04  0.10100000352E+00 0.  1.
       -3    1    3    3    0  502 -0.33445081630E+03 -0.13873023004E+03 -0.19742475059E+03  0.41240752611E+03  0.10100000352E+00 0. -1.
</event>
<event>
 5   0  0.6870835E-04  0.1399057E+04  0.7818609E-02  0.8954501E-01
       -2   -1    0    0    0  501  0.00000000000E+00  0.00000000000E+00  0.35813052529E+03  0.35813052530E+03  0.25500000920E-02 0. -1.
        2   -1    0    0  501    0  0.00000000000E+00  0.00000000000E+00 -0.13663739610E+04  0.13663739610E+04  0.25500000920E-02 0.  1.
    10030    2    1    2    0    0  0.00000000000E+00  0.00000000000E+00 -0.10082434357E+04  0.17245044863E+04  0.13990571460E+04 0.  0.
        2    1    3    3  502    0  0.19306825111E+03 -0.22221410115E+03 -0.12863112775E+04  0.13195647612E+04  0.25500000920E-02 0.  1.
       -2    1    3    3    0  502 -0.19306825111E+03  0.22221410115E+03  0.27806784179E+03  0.40493972512E+03  0.25500000920E-02 0. -1.
</event>
<event>
 5   0  0.3977658E-04  0.1405406E+04  0.7818609E-02  0.8949915E-01
        1   -1    0    0  501    0  0.00000000000E+00  0.00000000000E+00  0.55942203968E+03  0.55942203970E+03  0.50400001928E-02 0.  1.
       -1   -1    0    0    0  501  0.00000000000E+00  0.00000000000E+00 -0.88268158304E+03  0.88268158305E+03  0.50400001928E-02 0. -1.
    10030    2    1    2    0    0  0.00000000000E+00  0.00000000000E+00 -0.32325954336E+03  0.14421036228E+04  0.14054060361E+04 0.  0.
        5    1    3    3  502    0  0.16198447336E+03  0.21240610651E+03  0.50527506290E+03  0.57155953572E+03  0.46999998093E+01 0.  1.
       -5    1    3    3    0  502 -0.16198447336E+03 -0.21240610651E+03 -0.82853460626E+03  0.87054408703E+03  0.46999998093E+01 0. -1.
</event>
<event>
 5   0  0.7296966E-04  0.1402279E+04  0.7818609E-02  0.8952171E-01
        2   -1    0    0  501    0  0.00000000000E+00  0.00000000000E+00  0.12860472360E+04  0.12860472360E+04  0.25500000920E-02 0. -1.
       -2   -1    0    0    0  501  0.00000000000E+00  0.00000000000E+00 -0.38225383904E+03  0.38225383905E+03  0.25500000920E-02 0.  1.
    10030    2    1    2    0    0  0.00000000000E+00  0.00000000000E+00  0.90379339694E+03  0.16683010750E+04  0.14022788498E+04 0.  0.
        3    1    3    3  502    0  0.70912165283E+02 -0.16115848234E+03 -0.35552436668E+03  0.39673439115E+03  0.10100000352E+00 0.  1.
       -3    1    3    3    0  502 -0.70912165283E+02  0.16115848234E+03  0.12593177636E+04  0.12715666839E+04  0.10100000352E+00 0. -1.
</event>
<event>
 5   0  0.7065539E-04  0.1399233E+04  0.7818609E-02  0.8954374E-01
       -2   -1    0    0    0  501  0.00000000000E+00  0.00000000000E+00  0.36877057149E+03  0.36877057150E+03  0.25500000920E-02 0.  1.
        2   -1    0    0  501    0  0.00000000000E+00  0.00000000000E+00 -0.13272837319E+04  0.13272837319E+04  0.25500000920E-02 0. -1.
    10030    2    1    2    0    0  0.00000000000E+00  0.00000000000E+00 -0.95851316044E+03  0.16960543034E+04  0.13992329047E+04 0.  0.
        1    1    3    3  502    0  0.10107239853E+03 -0.66543216159E+03 -0.71066765837E+03  0.97880749491E+03  0.50400001928E-02 0. -1.
       -1    1    3    3    0  502 -0.10107239853E+03  0.66543216159E+03 -0.24784550208E+03  0.71724680853E+03  0.50400001928E-02 0.  1.
</event>
<event>
 5   0  0.6895048E-04  0.1390603E+04  0.7818609E-02  0.8960649E-01
       -2   -1    0    0    0  501  0.00000000000E+00  0.00000000000E+00  0.51271846761E+03  0.51271846762E+03  0.25500000920E-02 0. -1.
        2   -1    0    0  501    0  0.00000000000E+00  0.00000000000E+00 -0.94290316959E+03  0.94290316959E+03  0.25500000920E-02 0.  1.
    10030    2    1    2    0    0  0.00000000000E+00  0.00000000000E+00 -0.43018470198E+03  0.14556216372E+04  0.13906025575E+04 0.  0.
        4    1    3    3  502    0 -0.32571333176E+03  0.52097082098E+03  0.12561425608E+03  0.62712066226E+03  0.12699999809E+01 0. -1.
       -4    1    3    3    0  502  0.32571333176E+03 -0.52097082098E+03 -0.55579895806E+03  0.82850097494E+03  0.12699999809E+01 0.  1.
</event>
<event>
 5   0  0.6870835E-04  0.1411382E+04  0.7818609E-02  0.8945621E-01
        2   -1    0    0  501    0  0.00000000000E+00  0.00000000000E+00  0.15960220210E+04  0.15960220210E+04  0.25500000920E-02 0. -1.
       -2   -1    0    0    0  501  0.00000000000E+00  0.00000000000E+00 -0.31202568792E+03  0.31202568793E+03  0.25500000920E-02 0.  1.
    10030    2    1    2    0    0  0.00000000000E+00  0.00000000000E+00  0.12839963331E+04  0.19080477090E+04  0.14113821156E+04 0.  0.
        2    1    3    3  502    0 -0.64545395171E+03 -0.27871214417E+03  0.55966971143E+03  0.89862197224E+03  0.25500000920E-02 0.  1.
       -2    1    3    3    0  502  0.64545395171E+03  0.27871214417E+03  0.72432662170E+03  0.10094257367E+04  0.25500000920E-02 0. -1.
</event>
<event>
 5   0  0.3977658E-04  0.1384438E+04  0.7818609E-02  0.8965160E-01
       -1   -1    0    0    0  501  0.00000000000E+00  0.00000000000E+00  0.51600503510E+03  0.51600503512E+03  0.50400001928E-02 0. -1.
        1   -1    0    0  501    0  0.00000000000E+00  0.00000000000E+00 -0.92860999196E+03  0.92860999198E+03  0.50400001928E-02 0.  1.
    10030    2    1    2    0    0  0.00000000000E+00  0.00000000000E+00 -0.41260495686E+03  0.14446150271E+04  0.13844384154E+04 0.  0.
        5    1    3    3  502    0  0.68190390110E+03  0.61147033960E+02 -0.31278438884E+03  0.75272043549E+03  0.46999998093E+01 0.  1.
       -5    1    3    3    0  502 -0.68190390110E+03 -0.61147033960E+02 -0.99820568026E+02  0.69189459161E+03  0.46999998093E+01 0. -1.
</event>
<event>
 5   0  0.6870835E-04  0.1402276E+04  0.7818609E-02  0.8952172E-01
        2   -1    0    0  501    0  0.00000000000E+00  0.00000000000E+00  0.26767589287E+04  0.26767589287E+04  0.25500000920E-02 0. -1.
       -2   -1    0    0    0  501  0.00000000000E+00  0.00000000000E+00 -0.18365299865E+03  0.18365299867E+03  0.25500000920E-02 0.  1.
    10030    2    1    2    0    0  0.00000000000E+00  0.00000000000E+00  0.24931059300E+04  0.28604119273E+04  0.14022764406E+04 0.  0.
        2    1    3    3  502    0  0.43289290920E+03 -0.53319660377E+03  0.15343064230E+04  0.16810089497E+04  0.25500000920E-02 0. -1.
       -2    1    3    3    0  502 -0.43289290920E+03  0.53319660377E+03  0.95879950699E+03  0.11794029777E+04  0.25500000920E-02 0.  1.
</event>
<event>
 5   0  0.3977658E-04  0.1383511E+04  0.7818609E-02  0.8965842E-01
       -1   -1    0    0    0  501  0.00000000000E+00  0.00000000000E+00  0.43780622628E+03  0.43780622631E+03  0.50400001928E-02 0. -1.
        1   -1    0    0  501    0  0.00000000000E+00  0.00000000000E+00 -0.10930073074E+04  0.10930073075E+04  0.50400001928E-02 0.  1.
    10030    2    1    2    0    0  0.00000000000E+00  0.00000000000E+00 -0.65520108116E+03  0.15308135338E+04  0.13835106138E+04 0.  0.
        5    1    3    3  502    0  0.57967019313E+03  0.15706934749E+02  0.89700296650E+02  0.58679849507E+03  0.46999998093E+01 0. -1.
       -5    1    3    3    0  502 -0.57967019313E+03 -0.15706934749E+02 -0.74490137781E+03  0.94401503869E+03  0.46999998093E+01 0.  1.
</event>
<event>
 5   0  0.3756664E-04  0.1397432E+04  0.7818609E-02  0.8955680E-01
        1   -1    0    0  501    0  0.00000000000E+00  0.00000000000E+00  0.40947201041E+03  0.40947201044E+03  0.50400001928E-02 0.  1.
       -1   -1    0    0    0  501  0.00000000000E+00  0.00000000000E+00 -0.11922764662E+04  0.11922764662E+04  0.50400001928E-02 0. -1.
    10030    2    1    2    0    0  0.00000000000E+00  0.00000000000E+00 -0.78280445583E+03  0.16017484767E+04  0.13974317037E+04 0.  0.
        2    1    3    3  502    0 -0.12823089750E+02  0.31372634037E+03 -0.11068561517E+04  0.11505299599E+04  0.25500000920E-02 0. -1.
       -2    1    3    3    0  502  0.12823089750E+02 -0.31372634037E+03  0.32405169583E+03  0.45121851674E+03  0.25500000920E-02 0.  1.
</event>
<event>
 5   0  0.3756664E-04  0.1367545E+04  0.7818609E-02  0.8977652E-01
        1   -1    0    0  501    0  0.00000000000E+00  0.00000000000E+00  0.98395162275E+03  0.98395162276E+03  0.50400001928E-02 0.  1.
       -1   -1    0    0    0  501  0.00000000000E+00  0.00000000000E+00 -0.47517031248E+03  0.47517031251E+03  0.50400001928E-02 0. -1.
    10030    2    1    2    0    0  0.00000000000E+00  0.00000000000E+00  0.50878131027E+03  0.14591219353E+04  0.13675446612E+04 0.  0.
        2    1    3    3  502    0 -0.99489876538E+02 -0.43329514177E+03 -0.29991953896E+03  0.53627851465E+03  0.25500000920E-02 0. -1.
       -2    1    3    3    0  502  0.99489876538E+02  0.43329514177E+03  0.80870084924E+03  0.92284342062E+03  0.25500000920E-02 0.  1.
</event>
<event>
 5   0  0.3756664E-04  0.1414130E+04  0.7818609E-02  0.8943654E-01
       -1   -1    0    0    0  501  0.00000000000E+00  0.00000000000E+00  0.19795837787E+03  0.19795837794E+03  0.50400001928E-02 0. -1.
        1   -1    0    0  501    0  0.00000000000E+00  0.00000000000E+00 -0.25254839045E+04  0.25254839046E+04  0.50400001928E-02 0.  1.
    10030    2    1    2    0    0  0.00000000000E+00  0.00000000000E+00 -0.23275255267E+04  0.27234422825E+04  0.14141296930E+04 0.  0.
        2    1    3    3  502    0 -0.10004622753E+02  0.61727986720E+03 -0.18275798586E+04  0.19290367199E+04  0.25500000920E-02 0.  1.
       -2    1    3    3    0  502  0.10004622753E+02 -0.61727986720E+03 -0.49994566806E+03  0.79440556264E+03  0.25500000920E-02 0. -1.
</event>
<event>
 5   0  0.7065539E-04  0.1549452E+04  0.7818609E-02  0.8852218E-01
        2   -1    0    0  501    0  0.00000000000E+00  0.00000000000E+00  0.64270031885E+03  0.64270031885E+03  0.25500000920E-02 0. -1.
       -2   -1    0    0    0  501  0.00000000000E+00  0.00000000000E+00 -0.93387231078E+03  0.93387231079E+03  0.25500000920E-02 0.  1.
    10030    2    1    2    0    0  0.00000000000E+00  0.00000000000E+00 -0.29117199193E+03  0.15765726296E+04  0.15494515570E+04 0.  0.
        1    1    3    3  502    0 -0.22104834128E+03 -0.58581399612E+03 -0.60981709210E+03  0.87402362272E+03  0.50400001928E-02 0.  1.
       -1    1    3    3    0  502  0.22104834128E+03  0.58581399612E+03  0.31864510016E+03  0.70254900692E+03  0.50400001928E-02 0. -1.
</event>
<event>
 5   0  0.6895048E-04  0.1389474E+04  0.7818609E-02  0.8961473E-01
        2   -1    0    0  501    0  0.00000000000E+00  0.00000000000E+00  0.10317067392E+04  0.10317067392E+04  0.25500000920E-02 0.  1.
       -2   -1    0    0    0  501  0.00000000000E+00  0.00000000000E+00 -0.46782611066E+03  0.46782611066E+03  0.25500000920E-02 0. -1.
    10030    2    1    2    0    0  0.00000000000E+00  0.00000000000E+00  0.56388062858E+03  0.14995328499E+04  0.13894737870E+04 0.  0.
        4    1    3    3  502    0  0.29975014910E+03  0.62181859354E+03  0.36656864047E+03  0.78158985167E+03  0.12699999809E+01 0.  1.
       -4    1    3    3    0  502 -0.29975014910E+03 -0.62181859354E+03  0.19731198811E+03  0.71794299823E+03  0.12699999809E+01 0. -1.
</event>
<event>
 5   0  0.3907270E-04  0.1410749E+04  0.7818609E-02  0.8946074E-01
       -1   -1    0    0    0  501  0.00000000000E+00  0.00000000000E+00  0.51460675221E+03  0.51460675223E+03  0.50400001928E-02 0.  1.
        1   -1    0    0  501    0  0.00000000000E+00  0.00000000000E+00 -0.96686117401E+03  0.96686117402E+03  0.50400001928E-02 0. -1.
    10030    2    1    2    0    0  0.00000000000E+00  0.00000000000E+00 -0.45225442180E+03  0.14814679263E+04  0.14107491465E+04 0.  0.
        3    1    3    3  502    0 -0.64267183710E+03  0.28278560595E+03 -0.15522611849E+03  0.71908966561E+03  0.10100000352E+00 0. -1.
       -3    1    3    3    0  502  0.64267183710E+03 -0.28278560595E+03 -0.29702830331E+03  0.76237826064E+03  0.10100000352E+00 0.  1.
</event>
<event>
 5   0  0.7296966E-04  0.1387640E+04  0.7818609E-02  0.8962814E-01
       -2   -1    0    0    0  501  0.00000000000E+00  0.00000000000E+00  0.71566723958E+03  0.71566723959E+03  0.25500000920E-02 0. -1.
        2   -1    0    0  501    0  0.00000000000E+00  0.00000000000E+00 -0.67263972174E+03  0.67263972174E+03  0.25500000920E-02 0.  1.
    10030    2    1    2    0    0  0.00000000000E+00  0.00000000000E+00  0.43027517845E+02  0.13883069613E+04  0.13876400295E+04 0.  0.
        3    1    3    3  502    0 -0.33975342579E+03  0.26439046637E+03 -0.52285389293E+03  0.67728200375E+03  0.10100000352E+00 0.  1.
       -3    1    3    3    0  502  0.33975342579E+03 -0.26439046637E+03  0.56588141078E+03  0.71102495758E+03  0.10100000352E+00 0. -1.
</event>
<event>
 5   0  0.3907270E-04  0.1406962E+04  0.7818609E-02  0.8948794E-01
       -1   -1    0    0    0  501  0.00000000000E+00  0.00000000000E+00  0.55353354842E+03  0.55353354844E+03  0.50400001928E-02 0. -1.
        1   -1    0    0  501    0  0.00000000000E+00  0.00000000000E+00 -0.89404814136E+03  0.89404814137E+03  0.50400001928E-02 0.  1.
    10030    2    1    2    0    0  0.00000000000E+00  0.00000000000E+00 -0.34051459294E+03  0.14475816898E+04  0.14069621746E+04 0.  0.
        3    1    3    3  502    0 -0.64244575316E+03 -0.28543832053E+03 -0.14354528948E+03  0.71750738039E+03  0.10100000352E+00 0.  1.
       -3    1    3    3    0  502  0.64244575316E+03  0.28543832053E+03 -0.19696930346E+03  0.73007430943E+03  0.10100000352E+00 0. -1.
</event>
<event>
 5   0  0.3756664E-04  0.1343957E+04  0.7818609E-02  0.8995415E-01
       -1   -1    0    0    0  501  0.00000000000E+00  0.00000000000E+00  0.49111110234E+03  0.49111110237E+03  0.50400001928E-02 0. -1.
        1   -1    0    0  501    0  0.00000000000E+00  0.00000000000E+00 -0.91945675085E+03  0.91945675086E+03  0.50400001928E-02 0.  1.
    10030    2    1    2    0    0  0.00000000000E+00  0.00000000000E+00 -0.42834564851E+03  0.14105678532E+04  0.13439574673E+04 0.  0.
        2    1    3    3  502    0 -0.11629773682E+03  0.65728885271E+03 -0.29548258223E+03  0.72997517485E+03  0.25500000920E-02 0. -1.
       -2    1    3    3    0  502  0.11629773682E+03 -0.65728885271E+03 -0.13286306627E+03  0.68059267839E+03  0.25500000920E-02 0.  1.
</event>
<event>
 5   0  0.6870835E-04  0.1402738E+04  0.7818609E-02  0.8951839E-01
       -2   -1    0    0    0  501  0.00000000000E+00  0.00000000000E+00  0.40585966276E+03  0.40585966276E+03  0.25500000920E-02 0.  1.
        2   -1    0    0  501    0  0.00000000000E+00  0.00000000000E+00 -0.12120407026E+04  0.12120407026E+04  0.25500000920E-02 0. -1.
    10030    2    1    2    0    0  0.00000000000E+00  0.00000000000E+00 -0.80618103981E+03  0.16179003653E+04  0.14027379382E+04 0.  0.
        2    1    3    3  502    0  0.22247287690E+03  0.15269225588E+03 -0.11497780386E+04  0.11810159372E+04  0.25500000920E-02 0. -1.
       -2    1    3    3    0  502 -0.22247287690E+03 -0.15269225588E+03  0.34359699877E+03  0.43688442812E+03  0.25500000920E-02 0.  1.
</event>
<event>
 5   0  0.3977658E-04  0.1392258E+04  0.7818609E-02  0.8959442E-01
        1   -1    0    0  501    0  0.00000000000E+00  0.00000000000E+00  0.93592256612E+03  0.93592256613E+03  0.50400001928E-02 0.  1.
       -1   -1    0    0    0  501  0.00000000000E+00  0.00000000000E+00 -0.51777336675E+03  0.51777336678E+03  0.50400001928E-02 0. -1.
    10030    2    1    2    0    0  0.00000000000E+00  0.00000000000E+00  0.41814919936E+03  0.14536959329E+04  0.13922582779E+04 0.  0.
        5    1    3    3  502    0 -0.21002462844E+02 -0.68739112392E+03  0.96492475616E+02  0.69446421689E+03  0.46999998093E+01 0.  1.
       -5    1    3    3    0  502  0.21002462844E+02  0.68739112392E+03  0.32165672375E+03  0.75923171602E+03  0.46999998093E+01 0. -1.
</event>
<event>
 5   0  0.3784219E-04  0.1395260E+04  0.7818609E-02  0.8957257E-01
        1   -1    0    0  501    0  0.00000000000E+00  0.00000000000E+00  0.98975899688E+03  0.98975899689E+03  0.50400001928E-02 0.  1.
       -1   -1    0    0    0  501  0.00000000000E+00  0.00000000000E+00 -0.49172326495E+03  0.49172326497E+03  0.50400001928E-02 0. -1.
    10030    2    1    2    0    0  0.00000000000E+00  0.00000000000E+00  0.49803573193E+03  0.14814822619E+04  0.13952598690E+04 0.  0.
        1    1    3    3  502    0 -0.29480665857E+03  0.15247466875E+03  0.90055625808E+03  0.95977136055E+03  0.50400001928E-02 0.  1.
       -1    1    3    3    0  502  0.29480665857E+03 -0.15247466875E+03 -0.40252052615E+03  0.52171090131E+03  0.50400001928E-02 0. -1.
</event>
<event>
 5   0  0.6895048E-04  0.1399466E+04  0.7818609E-02  0.8954205E-01
        2   -1    0    0  501    0  0.00000000000E+00  0.00000000000E+00  0.15553557080E+04  0.15553557080E+04  0.25500000920E-02 0.  1.
       -2   -1    0    0    0  501  0.00000000000E+00  0.00000000000E+00 -0.31480028394E+03  0.31480028396E+03  0.25500000920E-02 0. -1.
    10030    2    1    2    0    0  0.00000000000E+00  0.00000000000E+00  0.12405554240E+04  0.18701559919E+04  0.13994662104E+04 0.  0.
        4    1    3    3  502    0 -0.69722891627E+03  0.16913614916E+02  0.54455838790E+03  0.88485009057E+03  0.12699999809E+01 0. -1.
       -4    1    3    3    0  502  0.69722891627E+03 -0.16913614916E+02  0.69599703612E+03  0.98530590135E+03  0.12699999809E+01 0.  1.
</event>
<event>
 5   0  0.3784219E-04  0.1402269E+04  0.7818609E-02  0.8952178E-01
       -1   -1    0    0    0  501  0.00000000000E+00  0.00000000000E+00  0.60716803525E+03  0.60716803527E+03  0.50400001928E-02 0.  1.
        1   -1    0    0  501    0  0.00000000000E+00  0.00000000000E+00 -0.80964284269E+03  0.80964284271E+03  0.50400001928E-02 0. -1.
    10030    2    1    2    0    0  0.00000000000E+00  0.00000000000E+00 -0.20247480745E+03  0.14168108780E+04  0.14022685250E+04 0.  0.
        1    1    3    3  502    0 -0.29322092681E+03  0.44097633881E+03  0.36303927342E+03  0.64205619488E+03  0.50400001928E-02 0.  1.
       -1    1    3    3    0  502  0.29322092681E+03 -0.44097633881E+03 -0.56551408087E+03  0.77475468310E+03  0.50400001928E-02 0. -1.
</event>
<event>
 5   0  0.6895048E-04  0.1400226E+04  0.7818609E-02  0.8953655E-01
        2   -1    0    0  501    0  0.00000000000E+00  0.00000000000E+00  0.11388529373E+04  0.11388529373E+04  0.25500000920E-02 0. -1.
       -2   -1    0    0    0  501  0.00000000000E+00  0.00000000000E+00 -0.43039622282E+03  0.43039622282E+03  0.25500000920E-02 0.  1.
    10030    2    1    2    0    0  0.00000000000E+00  0.00000000000E+00  0.70845671448E+03  0.15692491601E+04  0.14002256997E+04 0.  0.
        4    1    3    3  502    0 -0.28454674288E+03  0.28719025763E+03 -0.28635542021E+03  0.49542520379E+03  0.12699999809E+01 0.  1.
       -4    1    3    3    0  502  0.28454674288E+03 -0.28719025763E+03  0.99481213469E+03  0.10738239563E+04  0.12699999809E+01 0. -1.
</event>
<event>
 5   0  0.6959748E-04  0.1401036E+04  0.7818609E-02  0.8953069E-01
       -2   -1    0    0    0  501  0.00000000000E+00  0.00000000000E+00  0.39031187143E+03  0.39031187143E+03  0.25500000920E-02 0. -1.
        2   -1    0    0  501    0  0.00000000000E+00  0.00000000000E+00 -0.12572645798E+04  0.12572645798E+04  0.25500000920E-02 0.  1.
    10030    2    1    2    0    0  0.00000000000E+00  0.00000000000E+00 -0.86695270837E+03  0.16475764512E+04  0.14010357469E+04 0.  0.
        5    1    3    3  502    0  0.79304266679E+01  0.11386180059E+03 -0.12462375851E+04  0.12514621887E+04  0.46999998093E+01 0.  1.
       -5    1    3    3    0  502 -0.79304266679E+01 -0.11386180059E+03  0.37928487669E+03  0.39611426254E+03  0.46999998093E+01 0. -1.
</event>
<event>
 5   0  0.3907093E-04  0.1411060E+04  0.7818609E-02  0.8945851E-01
        1   -1    0    0  501    0  0.00000000000E+00  0.00000000000E+00  0.12576593031E+04  0.12576593031E+04  0.50400001928E-02 0.  1.
       -1   -1    0    0    0  501  0.00000000000E+00  0.00000000000E+00 -0.39579311601E+03  0.39579311605E+03  0.50400001928E-02 0. -1.
    10030    2    1    2    0    0  0.00000000000E+00  0.00000000000E+00  0.86186618705E+03  0.16534524191E+04  0.14110604445E+04 0.  0.
        4    1    3    3  502    0  0.34064348401E+03  0.59161855739E+03  0.63963096494E+03  0.93551049425E+03  0.12699999809E+01 0. -1.
       -4    1    3    3    0  502 -0.34064348401E+03 -0.59161855739E+03  0.22223522211E+03  0.71794192487E+03  0.12699999809E+01 0.  1.
</event>
<event>
 5   0  0.6959748E-04  0.1403289E+04  0.7818609E-02  0.8951441E-01
        2   -1    0    0  501    0  0.00000000000E+00  0.00000000000E+00  0.14186383121E+04  0.14186383121E+04  0.25500000920E-02 0.  1.
       -2   -1    0    0    0  501  0.00000000000E+00  0.00000000000E+00 -0.34702638263E+03  0.34702638264E+03  0.25500000920E-02 0. -1.
    10030    2    1    2    0    0  0.00000000000E+00  0.00000000000E+00  0.10716119295E+04  0.17656646947E+04  0.14032888822E+04 0.  0.
        5    1    3    3  502    0 -0.60987070991E+03  0.11146518941E+03  0.12246905316E+03  0.63197114668E+03  0.46999998093E+01 0. -1.
       -5    1    3    3    0  502  0.60987070991E+03 -0.11146518941E+03  0.94914287632E+03  0.11336935481E+04  0.46999998093E+01 0.  1.
</event>
<event>
 5   0  0.2660250E-04  0.1398910E+04  0.7818609E-02  0.8954608E-01
       -4   -1    0    0    0  501  0.00000000000E+00  0.00000000000E+00  0.49075414987E+03  0.49075579316E+03  0.12699999809E+01 0.  1.
        4   -1    0    0  501    0  0.00000000000E+00  0.00000000000E+00 -0.99690585909E+03  0.99690666804E+03  0.12699999809E+01 0. -1.
    10030    2    1    2    0    0  0.00000000000E+00  0.00000000000E+00 -0.50615170922E+03  0.14876624612E+04  0.13989103065E+04 0.  0.
        5    1    3    3  502    0  0.14837938729E+03  0.64492829991E+03 -0.12289856644E+02  0.66190791291E+03  0.46999998093E+01 0.  1.
       -5    1    3    3    0  502 -0.14837938729E+03 -0.64492829991E+03 -0.49386185258E+03  0.82575454829E+03  0.46999998093E+01 0. -1.
</event>
<event>
 5   0  0.6870835E-04  0.1389282E+04  0.7818609E-02  0.8961614E-01
       -2   -1    0    0    0  501  0.00000000000E+00  0.00000000000E+00  0.76223667376E+03  0.76223667376E+03  0.25500000920E-02 0. -1.
        2   -1    0    0  501    0  0.00000000000E+00  0.00000000000E+00 -0.63303951728E+03  0.63303951729E+03  0.25500000920E-02 0.  1.
    10030    2    1    2    0    0  0.00000000000E+00  0.00000000000E+00  0.12919715647E+03  0.13952761911E+04  0.13892817368E+04 0.  0.
        2    1    3    3  502    0  0.12528932888E+03  0.66849294780E+03  0.20643719440E+03  0.71077180052E+03  0.25500000920E-02 0.  1.
       -2    1    3    3    0  502 -0.12528932888E+03 -0.66849294780E+03 -0.77240037923E+02  0.68450439053E+03  0.25500000920E-02 0. -1.
</event>
<event>
 5   0  0.3907270E-04  0.1399838E+04  0.7818609E-02  0.8953936E-01
       -1   -1    0    0    0  501  0.00000000000E+00  0.00000000000E+00  0.39038545777E+03  0.39038545780E+03  0.50400001928E-02 0.  1.
        1   -1    0    0  501    0  0.00000000000E+00  0.00000000000E+00 -0.12548793147E+04  0.12548793147E+04  0.50400001928E-02 0. -1.
    10030    2    1    2    0    0  0.00000000000E+00  0.00000000000E+00 -0.86449385694E+03  0.16452647725E+04  0.13998380417E+04 0.  0.
        3    1    3    3  502    0  0.54779377375E+03  0.22818956547E+03 -0.86844636205E+03  0.10518305901E+04  0.10100000352E+00 0.  1.
       -3    1    3    3    0  502 -0.54779377375E+03 -0.22818956547E+03  0.39525051072E+01  0.59343418241E+03  0.10100000352E+00 0. -1.
</event>
</LesHouchesEvents>
