<LesHouchesEvents version="3.0">
<header>
<!--
#*********************************************************************
#                                                                    *
#                        MadGraph5_aMC@NLO                           *
#                                                                    *
#                           Going Beyond                             *
#                                                                    *
#                   http://madgraph.hep.uiuc.edu                     *
#                   http://madgraph.phys.ucl.ac.be                   *
#                   http://amcatnlo.cern.ch                          *
#                                                                    *
#                     The MadGraph5_aMC@NLO team                     *
#                                                                    *
#....................................................................*
#                                                                    *
# This file contains all the information necessary to reproduce      *
# the events generated:                                              *
#                                                                    *
# 1. software version                                                *
# 2. proc_card          : code generation info including model       *
# 3. param_card         : model primary parameters in the LH format  *
# 4. run_card           : running parameters (collider and cuts)     *
# 5. pythia_card        : present only if pythia has been run        *
# 6. pgs_card           : present only if pgs has been run           *
# 7. delphes_cards      : present only if delphes has been run       *
#                                                                    *
#                                                                    *
#*********************************************************************
-->
<MGVersion>
#5.2.2.3
</MGVersion>
<MG5ProcCard>
#************************************************************
#*                     MadGraph5_aMC@NLO                    *
#*                                                          *
#*                *                       *                 *
#*                  *        * *        *                   *
#*                    * * * * 5 * * * *                     *
#*                  *        * *        *                   *
#*                *                       *                 *
#*                                                          *
#*                                                          *
#*         VERSION 2.2.3                 2015-02-10         *
#*                                                          *
#*    The MadGraph5_aMC@NLO Development Team - Find us at   *
#*    https://server06.fynu.ucl.ac.be/projects/madgraph     *
#*                                                          *
#************************************************************
#*                                                          *
#*               Command File for MadGraph5_aMC@NLO         *
#*                                                          *
#*     run as ./bin/mg5_aMC  filename                       *
#*                                                          *
#************************************************************
set group_subprocesses Auto
set ignore_six_quark_processes False
set loop_optimized_output True
set gauge unitary
set complex_mass_scheme False
import model sm
define p = g u c d s u~ c~ d~ s~
define j = g u c d s u~ c~ d~ s~
define l+ = e+ mu+
define l- = e- mu-
define vl = ve vm vt
define vl~ = ve~ vm~ vt~
import model Zprime_UFO
generate p p > zph, zph > j j
add process p p > zph, zph > b b~
output Dijet_signal
</MG5ProcCard>
<MGProcCard>
#*********************************************************************
#                        MadGraph/MadEvent                           *
#                   http://madgraph.hep.uiuc.edu                     *
#                                                                    *
#                          proc_card.dat                             *
#*********************************************************************
#                                                                    *
#            This Files is generated by MADGRAPH 5                   *
#                                                                    *
# WARNING: This Files is generated for MADEVENT (compatibility issue)*
#          This files is NOT a valid MG4 proc_card.dat               *
#          Running this in MG4 will NEVER reproduce the result of MG5*
#                                                                    *
#*********************************************************************
#*********************************************************************
# Process(es) requested : mg2 input                                  *
#*********************************************************************
# Begin PROCESS # This is TAG. Do not modify this line
p p > zph , zph > j j           #Process
# Be carefull the coupling are here in MG5 convention
          
end_coup           # End the couplings input

done               # this tells MG there are no more procs
# End PROCESS  # This is TAG. Do not modify this line
#*********************************************************************
# Model information                                                  *
#*********************************************************************
# Begin MODEL  # This is TAG. Do not modify this line
Zprime_UFO
# End   MODEL  # This is TAG. Do not modify this line
#*********************************************************************
# Start multiparticle definitions                                    *
#*********************************************************************
# Begin MULTIPARTICLES # This is TAG. Do not modify this line

# End  MULTIPARTICLES # This is TAG. Do not modify this line
</MGProcCard>
<MGRunCard>
#*********************************************************************
#                       MadGraph5_aMC@NLO                            *
#                                                                    *
#                     run_card.dat MadEvent                          *
#                                                                    *
#  This file is used to set the parameters of the run.               *
#                                                                    *
#  Some notation/conventions:                                        *
#                                                                    *
#   Lines starting with a '# ' are info or comments                  *
#                                                                    *
#   mind the format:   value    = variable     ! comment             *
#*********************************************************************
#
#*******************                                                 
# Running parameters
#*******************                                                 
#                                                                    
#*********************************************************************
# Tag name for the run (one word)                                    *
#*********************************************************************
  tag_1     = run_tag ! name of the run 
#*********************************************************************
# Run to generate the grid pack                                      *
#*********************************************************************
  .false.     = gridpack  !True = setting up the grid pack
#*********************************************************************
# Number of events and rnd seed                                      *
# Warning: Do not generate more than 1M events in a single run       *
# If you want to run Pythia, avoid more than 50k events in a run.    *
#*********************************************************************
  2000 = nevents ! Number of unweighted events requested 
 1425 = iseed   ! rnd seed (0=assigned automatically=default))
#*********************************************************************
# Collider type and energy                                           *
# lpp: 0=No PDF, 1=proton, -1=antiproton, 2=photon from proton,      *
#                                         3=photon from electron     *
#*********************************************************************
        1     = lpp1    ! beam 1 type 
        1     = lpp2    ! beam 2 type
     4000     = ebeam1  ! beam 1 total energy in GeV
     4000     = ebeam2  ! beam 2 total energy in GeV
#*********************************************************************
# Beam polarization from -100 (left-handed) to 100 (right-handed)    *
#*********************************************************************
        0     = polbeam1 ! beam polarization for beam 1
        0     = polbeam2 ! beam polarization for beam 2
#*********************************************************************
# PDF CHOICE: this automatically fixes also alpha_s and its evol.    *
#*********************************************************************
 'nn23lo1'    = pdlabel     ! PDF set                                     
 230000    = lhaid     ! if pdlabel=lhapdf, this is the lhapdf number
#*********************************************************************
# Renormalization and factorization scales                           *
#*********************************************************************
 F        = fixed_ren_scale  ! if .true. use fixed ren scale
 F        = fixed_fac_scale  ! if .true. use fixed fac scale
 91.1880  = scale            ! fixed ren scale
 91.1880  = dsqrt_q2fact1    ! fixed fact scale for pdf1
 91.1880  = dsqrt_q2fact2    ! fixed fact scale for pdf2
 1        = scalefact        ! scale factor for event-by-event scales
#*********************************************************************
# Matching - Warning! ickkw > 1 is still beta
#*********************************************************************
 0        = ickkw            ! 0 no matching, 1 MLM, 2 CKKW matching
 1        = highestmult      ! for ickkw=2, highest mult group
 1        = ktscheme         ! for ickkw=1, 1 Durham kT, 2 Pythia pTE
 1        = alpsfact         ! scale factor for QCD emission vx
 F        = chcluster        ! cluster only according to channel diag
 T        = pdfwgt           ! for ickkw=1, perform pdf reweighting
 5        = asrwgtflavor     ! highest quark flavor for a_s reweight
 T        = clusinfo         ! include clustering tag in output
 3.0      = lhe_version       ! Change the way clustering information pass to shower.        
#*********************************************************************
#**********************************************************
#
#**********************************************************
# Automatic ptj and mjj cuts if xqcut > 0
# (turn off for VBF and single top processes)
#**********************************************************
   T  = auto_ptj_mjj  ! Automatic setting of ptj and mjj
#**********************************************************
#                                                                    
#**********************************
# BW cutoff (M+/-bwcutoff*Gamma)
#**********************************
  15  = bwcutoff      ! (M+/-bwcutoff*Gamma)
#**********************************************************
# Apply pt/E/eta/dr/mij cuts on decay products or not
# (note that etmiss/ptll/ptheavy/ht/sorted cuts always apply)
#**********************************************************
   T  = cut_decays    ! Cut decay products 
#*************************************************************
# Number of helicities to sum per event (0 = all helicities)
# 0 gives more stable result, but longer run time (needed for
# long decay chains e.g.).
# Use >=2 if most helicities contribute, e.g. pure QCD.
#*************************************************************
   0  = nhel          ! Number of helicities used per event
#*******************                                                 
# Standard Cuts
#*******************                                                 
#                                                                    
#*********************************************************************
# Minimum and maximum pt's (for max, -1 means no cut)                *
#*********************************************************************
 20  = ptj       ! minimum pt for the jets 
  0  = ptb       ! minimum pt for the b 
 10  = pta       ! minimum pt for the photons 
 10  = ptl       ! minimum pt for the charged leptons 
  0  = misset    ! minimum missing Et (sum of neutrino's momenta)
  0  = ptheavy   ! minimum pt for one heavy final state
 1.0 = ptonium   ! minimum pt for the quarkonium states
 -1  = ptjmax    ! maximum pt for the jets
 -1  = ptbmax    ! maximum pt for the b
 -1  = ptamax    ! maximum pt for the photons
 -1  = ptlmax    ! maximum pt for the charged leptons
 -1  = missetmax ! maximum missing Et (sum of neutrino's momenta)
#*********************************************************************
# Minimum and maximum E's (in the center of mass frame)              *
#*********************************************************************
  0  = ej     ! minimum E for the jets 
  0  = eb     ! minimum E for the b 
  0  = ea     ! minimum E for the photons 
  0  = el     ! minimum E for the charged leptons 
 -1   = ejmax ! maximum E for the jets
 -1   = ebmax ! maximum E for the b
 -1   = eamax ! maximum E for the photons
 -1   = elmax ! maximum E for the charged leptons
#*********************************************************************
# Maximum and minimum absolute rapidity (for max, -1 means no cut)   *
#*********************************************************************
   5  = etaj    ! max rap for the jets 
  -1  = etab    ! max rap for the b
 2.5  = etaa    ! max rap for the photons 
 2.5  = etal    ! max rap for the charged leptons 
 0.6  = etaonium ! max rap for the quarkonium states
   0  = etajmin ! min rap for the jets
   0  = etabmin ! min rap for the b
   0  = etaamin ! min rap for the photons
   0  = etalmin ! main rap for the charged leptons
#*********************************************************************
# Minimum and maximum DeltaR distance                                *
#*********************************************************************
 0.4 = drjj    ! min distance between jets 
 0   = drbb    ! min distance between b's 
 0.4 = drll    ! min distance between leptons 
 0.4 = draa    ! min distance between gammas 
 0   = drbj    ! min distance between b and jet 
 0.4 = draj    ! min distance between gamma and jet 
 0.4 = drjl    ! min distance between jet and lepton 
 0   = drab    ! min distance between gamma and b 
 0   = drbl    ! min distance between b and lepton 
 0.4 = dral    ! min distance between gamma and lepton 
 -1  = drjjmax ! max distance between jets
 -1  = drbbmax ! max distance between b's
 -1  = drllmax ! max distance between leptons
 -1  = draamax ! max distance between gammas
 -1  = drbjmax ! max distance between b and jet
 -1  = drajmax ! max distance between gamma and jet
 -1  = drjlmax ! max distance between jet and lepton
 -1  = drabmax ! max distance between gamma and b
 -1  = drblmax ! max distance between b and lepton
 -1  = dralmax ! maxdistance between gamma and lepton
#*********************************************************************
# Minimum and maximum invariant mass for pairs                       *
# WARNING: for four lepton final state mmll cut require to have      *
#          different lepton masses for each flavor!                  *           
#*********************************************************************
 0   = mmjj    ! min invariant mass of a jet pair 
 0   = mmbb    ! min invariant mass of a b pair 
 0   = mmaa    ! min invariant mass of gamma gamma pair
 0   = mmll    ! min invariant mass of l+l- (same flavour) lepton pair
 -1  = mmjjmax ! max invariant mass of a jet pair
 -1  = mmbbmax ! max invariant mass of a b pair
 -1  = mmaamax ! max invariant mass of gamma gamma pair
 -1  = mmllmax ! max invariant mass of l+l- (same flavour) lepton pair
#*********************************************************************
# Minimum and maximum invariant mass for all letpons                 *
#*********************************************************************
 0   = mmnl    ! min invariant mass for all letpons (l+- and vl) 
 -1  = mmnlmax ! max invariant mass for all letpons (l+- and vl) 
#*********************************************************************
# Minimum and maximum pt for 4-momenta sum of leptons                *
#*********************************************************************
 0   = ptllmin  ! Minimum pt for 4-momenta sum of leptons(l and vl)
 -1  = ptllmax  ! Maximum pt for 4-momenta sum of leptons(l and vl)
#*********************************************************************
# Inclusive cuts                                                     *
#*********************************************************************
 0  = xptj ! minimum pt for at least one jet  
 0  = xptb ! minimum pt for at least one b 
 0  = xpta ! minimum pt for at least one photon 
 0  = xptl ! minimum pt for at least one charged lepton 
#*********************************************************************
# Control the pt's of the jets sorted by pt                          *
#*********************************************************************
 0   = ptj1min ! minimum pt for the leading jet in pt
 0   = ptj2min ! minimum pt for the second jet in pt
 0   = ptj3min ! minimum pt for the third jet in pt
 0   = ptj4min ! minimum pt for the fourth jet in pt
 -1  = ptj1max ! maximum pt for the leading jet in pt 
 -1  = ptj2max ! maximum pt for the second jet in pt
 -1  = ptj3max ! maximum pt for the third jet in pt
 -1  = ptj4max ! maximum pt for the fourth jet in pt
 0   = cutuse  ! reject event if fails any (0) / all (1) jet pt cuts
#*********************************************************************
# Control the pt's of leptons sorted by pt                           *
#*********************************************************************
 0   = ptl1min ! minimum pt for the leading lepton in pt
 0   = ptl2min ! minimum pt for the second lepton in pt
 0   = ptl3min ! minimum pt for the third lepton in pt
 0   = ptl4min ! minimum pt for the fourth lepton in pt
 -1  = ptl1max ! maximum pt for the leading lepton in pt 
 -1  = ptl2max ! maximum pt for the second lepton in pt
 -1  = ptl3max ! maximum pt for the third lepton in pt
 -1  = ptl4max ! maximum pt for the fourth lepton in pt
#*********************************************************************
# Control the Ht(k)=Sum of k leading jets                            *
#*********************************************************************
 0   = htjmin ! minimum jet HT=Sum(jet pt)
 -1  = htjmax ! maximum jet HT=Sum(jet pt)
 0   = ihtmin  !inclusive Ht for all partons (including b)
 -1  = ihtmax  !inclusive Ht for all partons (including b)
 0   = ht2min ! minimum Ht for the two leading jets
 0   = ht3min ! minimum Ht for the three leading jets
 0   = ht4min ! minimum Ht for the four leading jets
 -1  = ht2max ! maximum Ht for the two leading jets
 -1  = ht3max ! maximum Ht for the three leading jets
 -1  = ht4max ! maximum Ht for the four leading jets
#***********************************************************************
# Photon-isolation cuts, according to hep-ph/9801442                   *
# When ptgmin=0, all the other parameters are ignored                  *
# When ptgmin>0, pta and draj are not going to be used                 *
#***********************************************************************
   0 = ptgmin ! Min photon transverse momentum
 0.4 = R0gamma ! Radius of isolation code
 1.0 = xn ! n parameter of eq.(3.4) in hep-ph/9801442
 1.0 = epsgamma ! epsilon_gamma parameter of eq.(3.4) in hep-ph/9801442
 .true. = isoEM ! isolate photons from EM energy (photons and leptons)
#*********************************************************************
# WBF cuts                                                           *
#*********************************************************************
 0   = xetamin ! minimum rapidity for two jets in the WBF case  
 0   = deltaeta ! minimum rapidity for two jets in the WBF case 
#*********************************************************************
# KT DURHAM CUT                                                      *
#*********************************************************************
 -1    =  ktdurham        
 0.4  =  dparameter 
#*********************************************************************
# maximal pdg code for quark to be considered as a light jet         *
# (otherwise b cuts are applied)                                     *
#*********************************************************************
 4 = maxjetflavor    ! Maximum jet pdg code
#*********************************************************************
# Jet measure cuts                                                   *
#*********************************************************************
 0   = xqcut   ! minimum kt jet measure between partons
#*********************************************************************
#
#*********************************************************************
# Store info for systematics studies                                 *
# WARNING: If use_syst is T, matched Pythia output is                *
#          meaningful ONLY if plotted taking matchscale              *
#          reweighting into account!                                 *
#*********************************************************************
   F  = use_syst      ! Enable systematics studies
#
#**************************************
# Parameter of the systematics study
#  will be used by SysCalc (if installed)
#**************************************                                  
#
0.5 1 2 = sys_scalefact  # factorization/renormalization scale factor
0.5 1 2 = sys_alpsfact  # \alpha_s emission scale factors
30 50 = sys_matchscale # variation of merging scale
# PDF sets and number of members (0 or none for all members).
CT10nlo.LHgrid = sys_pdf # matching scales
# MSTW2008nlo68cl.LHgrid 1  = sys_pdf
</MGRunCard>
<slha>
######################################################################
## PARAM_CARD AUTOMATICALY GENERATED BY MG5 FOLLOWING UFO MODEL   ####
######################################################################
##                                                                  ##
##  Width set on Auto will be computed following the information    ##
##        present in the decay.py files of the model.               ##
##        See  arXiv:1402.1178 for more details.                    ##
##                                                                  ##
######################################################################

###################################
## INFORMATION FOR CKMBLOCK
###################################
Block ckmblock 
    1 2.277360e-01 # cabi 

###################################
## INFORMATION FOR FRBLOCK
###################################
Block frblock 
    1 6.000000e-01 # gz 

###################################
## INFORMATION FOR MASS
###################################
Block mass 
    1 5.040000e-03 # MD 
    2 2.550000e-03 # MU 
    3 1.010000e-01 # MS 
    4 1.270000e+00 # MC 
    5 4.700000e+00 # MB 
    6 1.720000e+02 # MT 
   11 5.110000e-04 # Me 
   13 1.056600e-01 # MM 
   15 1.777000e+00 # MTA 
   23 9.118760e+01 # MZ 
   25 1.200000e+02 # MH 
  10030 3.600000e+03 # MZph 
  10031 3.000000e+02 # MZpl 
## Dependent parameters, given by model restrictions.
## Those values should be edited following the 
## analytical expression. MG5 ignores those values 
## but they are important for interfacing the output of MG5
## to external program such as Pythia.
  12 0.000000 # ve : 0.0 
  14 0.000000 # vm : 0.0 
  16 0.000000 # vt : 0.0 
  21 0.000000 # g : 0.0 
  22 0.000000 # a : 0.0 
  24 79.824360 # w+ : cmath.sqrt(MZ__exp__2/2. + cmath.sqrt(MZ__exp__4/4. - (aEW*cmath.pi*MZ__exp__2)/(Gf*sqrt__2))) 

###################################
## INFORMATION FOR SMINPUTS
###################################
Block sminputs 
    1 1.279000e+02 # aEWM1 
    2 1.166370e-05 # Gf 
    3 1.184000e-01 # aS 

###################################
## INFORMATION FOR YUKAWA
###################################
Block yukawa 
    1 5.040000e-03 # ymdo 
    2 2.550000e-03 # ymup 
    3 1.010000e-01 # yms 
    4 1.270000e+00 # ymc 
    5 4.700000e+00 # ymb 
    6 1.720000e+02 # ymt 
   11 5.110000e-04 # yme 
   13 1.056600e-01 # ymm 
   15 1.777000e+00 # ymtau 

###################################
## INFORMATION FOR DECAY
###################################
DECAY   6 1.508336e+00 # WT 
DECAY  23 2.495200e+00 # WZ 
DECAY  24 2.085000e+00 # WW 
DECAY  25 5.753088e-03 # WH 
## Dependent parameters, given by model restrictions.
## Those values should be edited following the 
## analytical expression. MG5 ignores those values 
## but they are important for interfacing the output of MG5
## to external program such as Pythia.
DECAY  1 0.000000 # d : 0.0 
DECAY  2 0.000000 # u : 0.0 
DECAY  3 0.000000 # s : 0.0 
DECAY  4 0.000000 # c : 0.0 
DECAY  5 0.000000 # b : 0.0 
DECAY  11 0.000000 # e- : 0.0 
DECAY  12 0.000000 # ve : 0.0 
DECAY  13 0.000000 # mu- : 0.0 
DECAY  14 0.000000 # vm : 0.0 
DECAY  15 0.000000 # ta- : 0.0 
DECAY  16 0.000000 # vt : 0.0 
DECAY  21 0.000000 # g : 0.0 
DECAY  22 0.000000 # a : 0.0 
DECAY  10030 0.308725 # zph : (gz__exp__2*MZph*(5 + cmath.sqrt(1 - (4*MT__exp__2)/MZph__exp__2)))/(144.*cmath.pi) 
DECAY  10031 0.132629 # zpl : (5*gz__exp__2*MZpl)/(144.*cmath.pi) 
#===========================================================
# QUANTUM NUMBERS OF NEW STATE(S) (NON SM PDG CODE)
#===========================================================

Block QNUMBERS 10030  # zph 
        1 0  # 3 times electric charge
        2 3  # number of spin states (2S+1)
        3 1  # colour rep (1: singlet, 3: triplet, 8: octet)
        4 0  # Particle/Antiparticle distinction (0=own anti)
Block QNUMBERS 10031  # zpl 
        1 0  # 3 times electric charge
        2 3  # number of spin states (2S+1)
        3 1  # colour rep (1: singlet, 3: triplet, 8: octet)
        4 0  # Particle/Antiparticle distinction (0=own anti)
</slha>
## END BANNER##
<MGGenerationInfo>
#  Number of Events        :         3893
#  Integrated weight (pb)  :  0.57891E-04
#  Max wgt                 :  0.23426E-07
#  Average wgt             :  0.14871E-07
</MGGenerationInfo>
</header>
<init>
     2212     2212  0.40000000000E+04  0.40000000000E+04 0 0  247000  247000 2   1
  0.57877906333E-04  0.11152476985E-06  0.23426060000E-07   0
</init>
<event>
 5   0  0.2199902E-07  0.3608701E+04  0.7818609E-02  0.8088502E-01
       -2   -1    0    0    0  501  0.00000000000E+00  0.00000000000E+00  0.21420599324E+04  0.21420599324E+04  0.25500000920E-02 0.  1.
        2   -1    0    0  501    0  0.00000000000E+00  0.00000000000E+00 -0.15198829486E+04  0.15198829486E+04  0.25500000920E-02 0. -1.
    10030    2    1    2    0    0  0.00000000000E+00  0.00000000000E+00  0.62217698380E+03  0.36619428810E+04  0.36087008001E+04 0.  0.
        1    1    3    3  502    0  0.79986210276E+03 -0.70901923213E+03 -0.11640413267E+04  0.15803416926E+04  0.50400001928E-02 0. -1.
       -1    1    3    3    0  502 -0.79986210276E+03  0.70901923213E+03  0.17862183105E+04  0.20816011885E+04  0.50400001928E-02 0.  1.
</event>
<event>
 5   0  0.2199902E-07  0.3593228E+04  0.7818609E-02  0.8092045E-01
       -2   -1    0    0    0  501  0.00000000000E+00  0.00000000000E+00  0.96679500836E+03  0.96679500836E+03  0.25500000920E-02 0.  1.
        2   -1    0    0  501    0  0.00000000000E+00  0.00000000000E+00 -0.33386836939E+04  0.33386836939E+04  0.25500000920E-02 0. -1.
    10030    2    1    2    0    0  0.00000000000E+00  0.00000000000E+00 -0.23718886855E+04  0.43054787022E+04  0.35932284813E+04 0.  0.
        1    1    3    3  502    0 -0.29570019857E+03  0.21197411841E+03  0.92219146667E+03  0.99136710433E+03  0.50400001928E-02 0.  1.
       -1    1    3    3    0  502  0.29570019857E+03 -0.21197411841E+03 -0.32940801522E+04  0.33141115979E+04  0.50400001928E-02 0. -1.
</event>
<event>
 5   0  0.2238968E-07  0.3596012E+04  0.7818609E-02  0.8091406E-01
        2   -1    0    0  501    0  0.00000000000E+00  0.00000000000E+00  0.17547680890E+04  0.17547680890E+04  0.25500000920E-02 0. -1.
       -2   -1    0    0    0  501  0.00000000000E+00  0.00000000000E+00 -0.18423096747E+04  0.18423096747E+04  0.25500000920E-02 0.  1.
    10030    2    1    2    0    0  0.00000000000E+00  0.00000000000E+00 -0.87541585706E+02  0.35970777637E+04  0.35960123622E+04 0.  0.
        3    1    3    3  502    0  0.12885390395E+03  0.27092711736E+03 -0.18170964618E+04  0.18416960642E+04  0.10100000352E+00 0.  1.
       -3    1    3    3    0  502 -0.12885390395E+03 -0.27092711736E+03  0.17295548760E+04  0.17553816995E+04  0.10100000352E+00 0. -1.
</event>
<event>
 5   0  0.2199902E-07  0.3594390E+04  0.7818609E-02  0.8091778E-01
        2   -1    0    0  501    0  0.00000000000E+00  0.00000000000E+00  0.20168666498E+04  0.20168666498E+04  0.25500000920E-02 0. -1.
       -2   -1    0    0    0  501  0.00000000000E+00  0.00000000000E+00 -0.16014491208E+04  0.16014491208E+04  0.25500000920E-02 0.  1.
    10030    2    1    2    0    0  0.00000000000E+00  0.00000000000E+00  0.41541752901E+03  0.36183157705E+04  0.35943896967E+04 0.  0.
        1    1    3    3  502    0  0.73407155302E+03  0.18565278039E+03 -0.14330429317E+04  0.16207837746E+04  0.50400001928E-02 0.  1.
       -1    1    3    3    0  502 -0.73407155302E+03 -0.18565278039E+03  0.18484604607E+04  0.19975319959E+04  0.50400001928E-02 0. -1.
</event>
<event>
 5   0  0.2238968E-07  0.3622441E+04  0.7818609E-02  0.8085371E-01
        2   -1    0    0  501    0  0.00000000000E+00  0.00000000000E+00  0.28744557875E+04  0.28744557875E+04  0.25500000920E-02 0. -1.
       -2   -1    0    0    0  501  0.00000000000E+00  0.00000000000E+00 -0.11412664879E+04  0.11412664879E+04  0.25500000920E-02 0.  1.
    10030    2    1    2    0    0  0.00000000000E+00  0.00000000000E+00  0.17331892996E+04  0.40157222754E+04  0.36224411997E+04 0.  0.
        3    1    3    3  502    0 -0.47648162467E+03  0.17323753094E+04  0.11202632454E+04  0.21173447288E+04  0.10100000352E+00 0. -1.
       -3    1    3    3    0  502  0.47648162467E+03 -0.17323753094E+04  0.61292605421E+03  0.18983775466E+04  0.10100000352E+00 0.  1.
</event>
<event>
 5   0  0.7236375E-08  0.3597298E+04  0.7818609E-02  0.8091111E-01
        1   -1    0    0  501    0  0.00000000000E+00  0.00000000000E+00  0.19634474084E+04  0.19634474084E+04  0.50400001928E-02 0. -1.
       -1   -1    0    0    0  501  0.00000000000E+00  0.00000000000E+00 -0.16476825870E+04  0.16476825870E+04  0.50400001928E-02 0.  1.
    10030    2    1    2    0    0  0.00000000000E+00  0.00000000000E+00  0.31576482139E+03  0.36111299955E+04  0.35972979334E+04 0.  0.
        1    1    3    3  502    0  0.13530836340E+04  0.43898739698E+03  0.12628386164E+04  0.19021846983E+04  0.50400001928E-02 0. -1.
       -1    1    3    3    0  502 -0.13530836340E+04 -0.43898739698E+03 -0.94707379504E+03  0.17089452971E+04  0.50400001928E-02 0.  1.
</event>
<event>
 5   0  0.7261233E-08  0.3556253E+04  0.7818609E-02  0.8100587E-01
       -1   -1    0    0    0  501  0.00000000000E+00  0.00000000000E+00  0.14521833260E+04  0.14521833260E+04  0.50400001928E-02 0. -1.
        1   -1    0    0  501    0  0.00000000000E+00  0.00000000000E+00 -0.21772277419E+04  0.21772277419E+04  0.50400001928E-02 0.  1.
    10030    2    1    2    0    0  0.00000000000E+00  0.00000000000E+00 -0.72504441591E+03  0.36294110680E+04  0.35562529853E+04 0.  0.
        3    1    3    3  502    0 -0.62699895617E+03  0.15911125093E+04 -0.85932902081E+03  0.19139522158E+04  0.10100000352E+00 0.  1.
       -3    1    3    3    0  502  0.62699895617E+03 -0.15911125093E+04  0.13428460490E+03  0.17154588522E+04  0.10100000352E+00 0. -1.
</event>
<event>
 5   0  0.2199902E-07  0.3600025E+04  0.7818609E-02  0.8090486E-01
        2   -1    0    0  501    0  0.00000000000E+00  0.00000000000E+00  0.15210732676E+04  0.15210732676E+04  0.25500000920E-02 0. -1.
       -2   -1    0    0    0  501  0.00000000000E+00  0.00000000000E+00 -0.21301044032E+04  0.21301044032E+04  0.25500000920E-02 0.  1.
    10030    2    1    2    0    0  0.00000000000E+00  0.00000000000E+00 -0.60903113557E+03  0.36511776709E+04  0.36000249249E+04 0.  0.
        1    1    3    3  502    0  0.26599187143E+02  0.35901587907E+03  0.14841894225E+04  0.15272256415E+04  0.50400001928E-02 0. -1.
       -1    1    3    3    0  502 -0.26599187143E+02 -0.35901587907E+03 -0.20932205581E+04  0.21239520293E+04  0.50400001928E-02 0.  1.
</event>
<event>
 5   0  0.7347303E-08  0.3582325E+04  0.7818609E-02  0.8094552E-01
       -1   -1    0    0    0  501  0.00000000000E+00  0.00000000000E+00  0.23201110729E+04  0.23201110729E+04  0.50400001928E-02 0. -1.
        1   -1    0    0  501    0  0.00000000000E+00  0.00000000000E+00 -0.13828058962E+04  0.13828058962E+04  0.50400001928E-02 0.  1.
    10030    2    1    2    0    0  0.00000000000E+00  0.00000000000E+00  0.93730517669E+03  0.37029169692E+04  0.35823250950E+04 0.  0.
        2    1    3    3  502    0  0.14930299763E+04 -0.43198507490E+03  0.13888528573E+04  0.20843852509E+04  0.25500000920E-02 0. -1.
       -2    1    3    3    0  502 -0.14930299763E+04  0.43198507490E+03 -0.45154768062E+03  0.16185317182E+04  0.25500000920E-02 0.  1.
</event>
<event>
 5   0  0.2199902E-07  0.3625113E+04  0.7818609E-02  0.8084763E-01
       -2   -1    0    0    0  501  0.00000000000E+00  0.00000000000E+00  0.12720045151E+04  0.12720045151E+04  0.25500000920E-02 0. -1.
        2   -1    0    0  501    0  0.00000000000E+00  0.00000000000E+00 -0.25828214130E+04  0.25828214130E+04  0.25500000920E-02 0.  1.
    10030    2    1    2    0    0  0.00000000000E+00  0.00000000000E+00 -0.13108168979E+04  0.38548259282E+04  0.36251126874E+04 0.  0.
        1    1    3    3  502    0 -0.56005308993E+03  0.14106592795E+04 -0.17090231464E+04  0.22856900887E+04  0.50400001928E-02 0.  1.
       -1    1    3    3    0  502  0.56005308993E+03 -0.14106592795E+04  0.39820624851E+03  0.15691358395E+04  0.50400001928E-02 0. -1.
</event>
<event>
 5   0  0.2342606E-07  0.3619347E+04  0.7818609E-02  0.8086074E-01
       -2   -1    0    0    0  501  0.00000000000E+00  0.00000000000E+00  0.14550500425E+04  0.14550500425E+04  0.25500000920E-02 0.  1.
        2   -1    0    0  501    0  0.00000000000E+00  0.00000000000E+00 -0.22507259847E+04  0.22507259847E+04  0.25500000920E-02 0. -1.
    10030    2    1    2    0    0  0.00000000000E+00  0.00000000000E+00 -0.79567594221E+03  0.37057760272E+04  0.36193474216E+04 0.  0.
        5    1    3    3  502    0 -0.24032767558E+03  0.70211423518E+03 -0.20877589627E+04  0.22157349497E+04  0.46999998093E+01 0. -1.
       -5    1    3    3    0  502  0.24032767558E+03 -0.70211423518E+03  0.12920830205E+04  0.14900410775E+04  0.46999998093E+01 0.  1.
</event>
<event>
 5   0  0.2342606E-07  0.3583271E+04  0.7818609E-02  0.8094334E-01
        2   -1    0    0  501    0  0.00000000000E+00  0.00000000000E+00  0.24526159718E+04  0.24526159718E+04  0.25500000920E-02 0.  1.
       -2   -1    0    0    0  501  0.00000000000E+00  0.00000000000E+00 -0.13087894048E+04  0.13087894048E+04  0.25500000920E-02 0. -1.
    10030    2    1    2    0    0  0.00000000000E+00  0.00000000000E+00  0.11438265670E+04  0.37614053766E+04  0.35832710185E+04 0.  0.
        5    1    3    3  502    0  0.54677566256E+03  0.13428285045E+04  0.16767496665E+04  0.22166784954E+04  0.46999998093E+01 0.  1.
       -5    1    3    3    0  502 -0.54677566256E+03 -0.13428285045E+04 -0.53292309950E+03  0.15447268812E+04  0.46999998093E+01 0. -1.
</event>
<event>
 5   0  0.7236375E-08  0.3669637E+04  0.7818609E-02  0.8074724E-01
       -1   -1    0    0    0  501  0.00000000000E+00  0.00000000000E+00  0.14498102354E+04  0.14498102354E+04  0.50400001928E-02 0.  1.
        1   -1    0    0  501    0  0.00000000000E+00  0.00000000000E+00 -0.23220689606E+04  0.23220689606E+04  0.50400001928E-02 0. -1.
    10030    2    1    2    0    0  0.00000000000E+00  0.00000000000E+00 -0.87225872520E+03  0.37718791960E+04  0.36696372281E+04 0.  0.
        5    1    3    3  502    0  0.17193798872E+04  0.60892140297E+03 -0.64037346728E+03  0.19331716787E+04  0.46999998093E+01 0. -1.
       -5    1    3    3    0  502 -0.17193798872E+04 -0.60892140297E+03 -0.23188525792E+03  0.18387075174E+04  0.46999998093E+01 0.  1.
</event>
<event>
 5   0  0.7236375E-08  0.3577276E+04  0.7818609E-02  0.8095717E-01
        1   -1    0    0  501    0  0.00000000000E+00  0.00000000000E+00  0.20661667008E+04  0.20661667008E+04  0.50400001928E-02 0.  1.
       -1   -1    0    0    0  501  0.00000000000E+00  0.00000000000E+00 -0.15483868961E+04  0.15483868961E+04  0.50400001928E-02 0. -1.
    10030    2    1    2    0    0  0.00000000000E+00  0.00000000000E+00  0.51777980462E+03  0.36145535969E+04  0.35772757482E+04 0.  0.
        1    1    3    3  502    0 -0.63572974600E+03  0.65000678885E+02  0.19468817550E+04  0.20490792972E+04  0.50400001928E-02 0.  1.
       -1    1    3    3    0  502  0.63572974600E+03 -0.65000678885E+02 -0.14291019504E+04  0.15654742997E+04  0.50400001928E-02 0. -1.
</event>
<event>
 5   0  0.7261233E-08  0.3548615E+04  0.7818609E-02  0.8102365E-01
        1   -1    0    0  501    0  0.00000000000E+00  0.00000000000E+00  0.18239207405E+04  0.18239207405E+04  0.50400001928E-02 0. -1.
       -1   -1    0    0    0  501  0.00000000000E+00  0.00000000000E+00 -0.17260435737E+04  0.17260435737E+04  0.50400001928E-02 0.  1.
    10030    2    1    2    0    0  0.00000000000E+00  0.00000000000E+00  0.97877166855E+02  0.35499643142E+04  0.35486147568E+04 0.  0.
        3    1    3    3  502    0  0.71876138617E+03  0.14929888148E+03  0.16648728594E+04  0.18195355821E+04  0.10100000352E+00 0. -1.
       -3    1    3    3    0  502 -0.71876138617E+03 -0.14929888148E+03 -0.15669956926E+04  0.17304287321E+04  0.10100000352E+00 0.  1.
</event>
<event>
 5   0  0.7261233E-08  0.3598996E+04  0.7818609E-02  0.8090722E-01
        1   -1    0    0  501    0  0.00000000000E+00  0.00000000000E+00  0.16334317963E+04  0.16334317963E+04  0.50400001928E-02 0.  1.
       -1   -1    0    0    0  501  0.00000000000E+00  0.00000000000E+00 -0.19824475332E+04  0.19824475332E+04  0.50400001928E-02 0. -1.
    10030    2    1    2    0    0  0.00000000000E+00  0.00000000000E+00 -0.34901573688E+03  0.36158793295E+04  0.35989958796E+04 0.  0.
        3    1    3    3  502    0  0.10339172622E+04 -0.47596239101E+03 -0.15748425384E+04  0.19431042519E+04  0.10100000352E+00 0. -1.
       -3    1    3    3    0  502 -0.10339172622E+04  0.47596239101E+03  0.12258268015E+04  0.16727750776E+04  0.10100000352E+00 0.  1.
</event>
<event>
 5   0  0.2199902E-07  0.3591747E+04  0.7818609E-02  0.8092385E-01
        2   -1    0    0  501    0  0.00000000000E+00  0.00000000000E+00  0.17793639952E+04  0.17793639952E+04  0.25500000920E-02 0.  1.
       -2   -1    0    0    0  501  0.00000000000E+00  0.00000000000E+00 -0.18125361720E+04  0.18125361720E+04  0.25500000920E-02 0. -1.
    10030    2    1    2    0    0  0.00000000000E+00  0.00000000000E+00 -0.33172176709E+02  0.35919001672E+04  0.35917469869E+04 0.  0.
        1    1    3    3  502    0 -0.72190869012E+03  0.13994375776E+04 -0.88009492470E+03  0.18039248230E+04  0.50400001928E-02 0.  1.
       -1    1    3    3    0  502  0.72190869012E+03 -0.13994375776E+04  0.84692274799E+03  0.17879753442E+04  0.50400001928E-02 0. -1.
</event>
<event>
 5   0  0.7514289E-08  0.3508883E+04  0.7818609E-02  0.8111688E-01
        1   -1    0    0  501    0  0.00000000000E+00  0.00000000000E+00  0.19921758863E+04  0.19921758863E+04  0.50400001928E-02 0.  1.
       -1   -1    0    0    0  501  0.00000000000E+00  0.00000000000E+00 -0.15450768756E+04  0.15450768756E+04  0.50400001928E-02 0. -1.
    10030    2    1    2    0    0  0.00000000000E+00  0.00000000000E+00  0.44709901072E+03  0.35372527620E+04  0.35088829528E+04 0.  0.
        4    1    3    3  502    0 -0.92274691300E+03  0.14308465987E+04  0.65038688033E+03  0.18225774501E+04  0.12699999809E+01 0. -1.
       -4    1    3    3    0  502  0.92274691300E+03 -0.14308465987E+04 -0.20328786961E+03  0.17146753119E+04  0.12699999809E+01 0.  1.
</event>
<event>
 5   0  0.7236375E-08  0.3602563E+04  0.7818609E-02  0.8089905E-01
       -1   -1    0    0    0  501  0.00000000000E+00  0.00000000000E+00  0.14810798188E+04  0.14810798188E+04  0.50400001928E-02 0.  1.
        1   -1    0    0  501    0  0.00000000000E+00  0.00000000000E+00 -0.21907094070E+04  0.21907094070E+04  0.50400001928E-02 0. -1.
    10030    2    1    2    0    0  0.00000000000E+00  0.00000000000E+00 -0.70962958823E+03  0.36717892258E+04  0.36025632494E+04 0.  0.
        1    1    3    3  502    0 -0.14977465866E+04 -0.99824116666E+03 -0.42605226760E+03  0.18496623473E+04  0.50400001928E-02 0. -1.
       -1    1    3    3    0  502  0.14977465866E+04  0.99824116666E+03 -0.28357732063E+03  0.18221268784E+04  0.50400001928E-02 0.  1.
</event>
<event>
 5   0  0.2198900E-07  0.3610834E+04  0.7818609E-02  0.8088015E-01
        2   -1    0    0  501    0  0.00000000000E+00  0.00000000000E+00  0.12887764551E+04  0.12887764551E+04  0.25500000920E-02 0. -1.
       -2   -1    0    0    0  501  0.00000000000E+00  0.00000000000E+00 -0.25291669393E+04  0.25291669393E+04  0.25500000920E-02 0.  1.
    10030    2    1    2    0    0  0.00000000000E+00  0.00000000000E+00 -0.12403904842E+04  0.38179433945E+04  0.36108341432E+04 0.  0.
        2    1    3    3  502    0 -0.15083980248E+04  0.96228380120E+03 -0.36494442714E+03  0.18260446736E+04  0.25500000920E-02 0. -1.
       -2    1    3    3    0  502  0.15083980248E+04 -0.96228380120E+03 -0.87544605708E+03  0.19918987208E+04  0.25500000920E-02 0.  1.
</event>
<event>
 5   0  0.7261233E-08  0.3624330E+04  0.7818609E-02  0.8084941E-01
       -1   -1    0    0    0  501  0.00000000000E+00  0.00000000000E+00  0.17648946829E+04  0.17648946829E+04  0.50400001928E-02 0. -1.
        1   -1    0    0  501    0  0.00000000000E+00  0.00000000000E+00 -0.18607013227E+04  0.18607013227E+04  0.50400001928E-02 0.  1.
    10030    2    1    2    0    0  0.00000000000E+00  0.00000000000E+00 -0.95806639868E+02  0.36255960056E+04  0.36243299358E+04 0.  0.
        3    1    3    3  502    0  0.61025601429E+02 -0.11497475386E+04  0.13519776533E+04  0.17758060456E+04  0.10100000352E+00 0. -1.
       -3    1    3    3    0  502 -0.61025601429E+02  0.11497475386E+04 -0.14477842931E+04  0.18497899600E+04  0.10100000352E+00 0.  1.
</event>
<event>
 5   0  0.2238968E-07  0.3594968E+04  0.7818609E-02  0.8091645E-01
       -2   -1    0    0    0  501  0.00000000000E+00  0.00000000000E+00  0.12889817378E+04  0.12889817378E+04  0.25500000920E-02 0.  1.
        2   -1    0    0  501    0  0.00000000000E+00  0.00000000000E+00 -0.25065898866E+04  0.25065898866E+04  0.25500000920E-02 0. -1.
    10030    2    1    2    0    0  0.00000000000E+00  0.00000000000E+00 -0.12176081488E+04  0.37955716244E+04  0.35949679208E+04 0.  0.
        3    1    3    3  502    0  0.30754131648E+02 -0.49502410589E+03  0.12153057635E+04  0.13126167724E+04  0.10100000352E+00 0.  1.
       -3    1    3    3    0  502 -0.30754131648E+02  0.49502410589E+03 -0.24329139123E+04  0.24829548520E+04  0.10100000352E+00 0. -1.
</event>
<event>
 5   0  0.7236375E-08  0.3604078E+04  0.7818609E-02  0.8089558E-01
        1   -1    0    0  501    0  0.00000000000E+00  0.00000000000E+00  0.23870748282E+04  0.23870748282E+04  0.50400001928E-02 0.  1.
       -1   -1    0    0    0  501  0.00000000000E+00  0.00000000000E+00 -0.13603864948E+04  0.13603864949E+04  0.50400001928E-02 0. -1.
    10030    2    1    2    0    0  0.00000000000E+00  0.00000000000E+00  0.10266883333E+04  0.37474613231E+04  0.36040778896E+04 0.  0.
        1    1    3    3  502    0  0.94969813336E+03 -0.11364281988E+04 -0.55411861140E+03  0.15812789226E+04  0.50400001928E-02 0. -1.
       -1    1    3    3    0  502 -0.94969813336E+03  0.11364281988E+04  0.15808069447E+04  0.21661824005E+04  0.50400001928E-02 0.  1.
</event>
<event>
 5   0  0.2198900E-07  0.3583111E+04  0.7818609E-02  0.8094371E-01
        2   -1    0    0  501    0  0.00000000000E+00  0.00000000000E+00  0.16483174514E+04  0.16483174514E+04  0.25500000920E-02 0. -1.
       -2   -1    0    0    0  501  0.00000000000E+00  0.00000000000E+00 -0.19472404798E+04  0.19472404798E+04  0.25500000920E-02 0.  1.
    10030    2    1    2    0    0  0.00000000000E+00  0.00000000000E+00 -0.29892302847E+03  0.35955579312E+04  0.35831106402E+04 0.  0.
        2    1    3    3  502    0  0.42188309742E+03 -0.73844211097E+03  0.14328447751E+04  0.16662311510E+04  0.25500000920E-02 0. -1.
       -2    1    3    3    0  502 -0.42188309742E+03  0.73844211097E+03 -0.17317678036E+04  0.19293267802E+04  0.25500000920E-02 0.  1.
</event>
<event>
 5   0  0.7347303E-08  0.3615943E+04  0.7818609E-02  0.8086849E-01
        1   -1    0    0  501    0  0.00000000000E+00  0.00000000000E+00  0.15151197348E+04  0.15151197348E+04  0.50400001928E-02 0. -1.
       -1   -1    0    0    0  501  0.00000000000E+00  0.00000000000E+00 -0.21574276788E+04  0.21574276789E+04  0.50400001928E-02 0.  1.
    10030    2    1    2    0    0  0.00000000000E+00  0.00000000000E+00 -0.64230794404E+03  0.36725474137E+04  0.36159431703E+04 0.  0.
        2    1    3    3  502    0  0.11279109349E+04 -0.14056287913E+04 -0.17472399693E+03  0.18106639255E+04  0.25500000920E-02 0. -1.
       -2    1    3    3    0  502 -0.11279109349E+04  0.14056287913E+04 -0.46758394711E+03  0.18618834882E+04  0.25500000920E-02 0.  1.
</event>
<event>
 5   0  0.2238968E-07  0.3605560E+04  0.7818609E-02  0.8089219E-01
       -2   -1    0    0    0  501  0.00000000000E+00  0.00000000000E+00  0.15617810903E+04  0.15617810903E+04  0.25500000920E-02 0.  1.
        2   -1    0    0  501    0  0.00000000000E+00  0.00000000000E+00 -0.20809670946E+04  0.20809670946E+04  0.25500000920E-02 0. -1.
    10030    2    1    2    0    0  0.00000000000E+00  0.00000000000E+00 -0.51918600434E+03  0.36427481849E+04  0.36055596281E+04 0.  0.
        3    1    3    3  502    0 -0.89431268389E+03 -0.12544141615E+03 -0.18359695288E+04  0.20460485933E+04  0.10100000352E+00 0. -1.
       -3    1    3    3    0  502  0.89431268389E+03  0.12544141615E+03  0.13167835244E+04  0.15966995916E+04  0.10100000352E+00 0.  1.
</event>
<event>
 5   0  0.2342606E-07  0.3601381E+04  0.7818609E-02  0.8090175E-01
       -2   -1    0    0    0  501  0.00000000000E+00  0.00000000000E+00  0.12200604023E+04  0.12200604023E+04  0.25500000920E-02 0. -1.
        2   -1    0    0  501    0  0.00000000000E+00  0.00000000000E+00 -0.26576443972E+04  0.26576443972E+04  0.25500000920E-02 0.  1.
    10030    2    1    2    0    0  0.00000000000E+00  0.00000000000E+00 -0.14375839949E+04  0.38777047994E+04  0.36013812308E+04 0.  0.
        5    1    3    3  502    0  0.81032084929E+03  0.54473828864E+03  0.91027331653E+03  0.13349079679E+04  0.46999998093E+01 0. -1.
       -5    1    3    3    0  502 -0.81032084929E+03 -0.54473828864E+03 -0.23478573114E+04  0.25427968316E+04  0.46999998093E+01 0.  1.
</event>
<event>
 5   0  0.7347303E-08  0.3607117E+04  0.7818609E-02  0.8088864E-01
       -1   -1    0    0    0  501  0.00000000000E+00  0.00000000000E+00  0.17697500598E+04  0.17697500598E+04  0.50400001928E-02 0. -1.
        1   -1    0    0  501    0  0.00000000000E+00  0.00000000000E+00 -0.18380123619E+04  0.18380123619E+04  0.50400001928E-02 0.  1.
    10030    2    1    2    0    0  0.00000000000E+00  0.00000000000E+00 -0.68262302082E+02  0.36077624216E+04  0.36071165699E+04 0.  0.
        2    1    3    3  502    0 -0.51377670587E+03  0.15499256288E+04  0.73189535209E+03  0.17893872596E+04  0.25500000920E-02 0. -1.
       -2    1    3    3    0  502  0.51377670587E+03 -0.15499256288E+04 -0.80015765417E+03  0.18183751620E+04  0.25500000920E-02 0.  1.
</event>
<event>
 5   0  0.2238968E-07  0.3558403E+04  0.7818609E-02  0.8100087E-01
       -2   -1    0    0    0  501  0.00000000000E+00  0.00000000000E+00  0.24989798262E+04  0.24989798262E+04  0.25500000920E-02 0. -1.
        2   -1    0    0  501    0  0.00000000000E+00  0.00000000000E+00 -0.12667400975E+04  0.12667400975E+04  0.25500000920E-02 0.  1.
    10030    2    1    2    0    0  0.00000000000E+00  0.00000000000E+00  0.12322397287E+04  0.37657199236E+04  0.35584029837E+04 0.  0.
        3    1    3    3  502    0 -0.15393717049E+03  0.58352552351E+03  0.23873593687E+04  0.24624547619E+04  0.10100000352E+00 0. -1.
       -3    1    3    3    0  502  0.15393717049E+03 -0.58352552351E+03 -0.11551196399E+04  0.13032651617E+04  0.10100000352E+00 0.  1.
</event>
<event>
 5   0  0.2199902E-07  0.3567062E+04  0.7818609E-02  0.8098078E-01
        2   -1    0    0  501    0  0.00000000000E+00  0.00000000000E+00  0.18899821312E+04  0.18899821312E+04  0.25500000920E-02 0.  1.
       -2   -1    0    0    0  501  0.00000000000E+00  0.00000000000E+00 -0.16830760224E+04  0.16830760224E+04  0.25500000920E-02 0. -1.
    10030    2    1    2    0    0  0.00000000000E+00  0.00000000000E+00  0.20690610880E+03  0.35730581536E+04  0.35670624372E+04 0.  0.
        1    1    3    3  502    0  0.14677440462E+03 -0.12665306422E+04  0.13526824230E+04  0.18588685621E+04  0.50400001928E-02 0.  1.
       -1    1    3    3    0  502 -0.14677440462E+03  0.12665306422E+04 -0.11457763142E+04  0.17141895915E+04  0.50400001928E-02 0. -1.
</event>
<event>
 5   0  0.7236375E-08  0.3593696E+04  0.7818609E-02  0.8091937E-01
       -1   -1    0    0    0  501  0.00000000000E+00  0.00000000000E+00  0.13934245024E+04  0.13934245024E+04  0.50400001928E-02 0. -1.
        1   -1    0    0  501    0  0.00000000000E+00  0.00000000000E+00 -0.23170708472E+04  0.23170708472E+04  0.50400001928E-02 0.  1.
    10030    2    1    2    0    0  0.00000000000E+00  0.00000000000E+00 -0.92364634480E+03  0.37104953496E+04  0.35936963101E+04 0.  0.
        5    1    3    3  502    0  0.29914039597E+03 -0.13195279559E+04  0.75897661570E+03  0.15513563730E+04  0.46999998093E+01 0. -1.
       -5    1    3    3    0  502 -0.29914039597E+03  0.13195279559E+04 -0.16826229605E+04  0.21591389766E+04  0.46999998093E+01 0.  1.
</event>
<event>
 5   0  0.2238968E-07  0.3601825E+04  0.7818609E-02  0.8090074E-01
       -2   -1    0    0    0  501  0.00000000000E+00  0.00000000000E+00  0.12291130183E+04  0.12291130183E+04  0.25500000920E-02 0.  1.
        2   -1    0    0  501    0  0.00000000000E+00  0.00000000000E+00 -0.26387204332E+04  0.26387204332E+04  0.25500000920E-02 0. -1.
    10030    2    1    2    0    0  0.00000000000E+00  0.00000000000E+00 -0.14096074149E+04  0.38678334516E+04  0.36018248910E+04 0.  0.
        3    1    3    3  502    0 -0.90159428601E+03  0.78850099613E+03  0.73939178142E+03  0.14075888228E+04  0.10100000352E+00 0.  1.
       -3    1    3    3    0  502  0.90159428601E+03 -0.78850099613E+03 -0.21489991963E+04  0.24602446288E+04  0.10100000352E+00 0. -1.
</event>
<event>
 5   0  0.7514289E-08  0.3598809E+04  0.7818609E-02  0.8090765E-01
       -1   -1    0    0    0  501  0.00000000000E+00  0.00000000000E+00  0.18819449540E+04  0.18819449540E+04  0.50400001928E-02 0. -1.
        1   -1    0    0  501    0  0.00000000000E+00  0.00000000000E+00 -0.17204839092E+04  0.17204839092E+04  0.50400001928E-02 0.  1.
    10030    2    1    2    0    0  0.00000000000E+00  0.00000000000E+00  0.16146104486E+03  0.36024288632E+04  0.35988086981E+04 0.  0.
        4    1    3    3  502    0  0.84492904240E+03  0.85342432931E+02  0.16687266587E+04  0.18723884992E+04  0.12699999809E+01 0. -1.
       -4    1    3    3    0  502 -0.84492904240E+03 -0.85342432931E+02 -0.15072656138E+04  0.17300403640E+04  0.12699999809E+01 0.  1.
</event>
<event>
 5   0  0.7236375E-08  0.3497238E+04  0.7818609E-02  0.8114445E-01
        1   -1    0    0  501    0  0.00000000000E+00  0.00000000000E+00  0.23789191671E+04  0.23789191671E+04  0.50400001928E-02 0. -1.
       -1   -1    0    0    0  501  0.00000000000E+00  0.00000000000E+00 -0.12853186751E+04  0.12853186751E+04  0.50400001928E-02 0.  1.
    10030    2    1    2    0    0  0.00000000000E+00  0.00000000000E+00  0.10936004920E+04  0.36642378422E+04  0.34972384717E+04 0.  0.
        1    1    3    3  502    0 -0.35592046471E+03  0.95803522222E+03 -0.93981087934E+03  0.13884362978E+04  0.50400001928E-02 0.  1.
       -1    1    3    3    0  502  0.35592046471E+03 -0.95803522222E+03  0.20334113714E+04  0.22758015444E+04  0.50400001928E-02 0. -1.
</event>
<event>
 5   0  0.7261233E-08  0.3662728E+04  0.7818609E-02  0.8076272E-01
        1   -1    0    0  501    0  0.00000000000E+00  0.00000000000E+00  0.20713215640E+04  0.20713215640E+04  0.50400001928E-02 0. -1.
       -1   -1    0    0    0  501  0.00000000000E+00  0.00000000000E+00 -0.16192046345E+04  0.16192046345E+04  0.50400001928E-02 0.  1.
    10030    2    1    2    0    0  0.00000000000E+00  0.00000000000E+00  0.45211692952E+03  0.36905261985E+04  0.36627276590E+04 0.  0.
        3    1    3    3  502    0 -0.16939540085E+04 -0.33295138092E+03 -0.38977304594E+03  0.17698191553E+04  0.10100000352E+00 0.  1.
       -3    1    3    3    0  502  0.16939540085E+04  0.33295138092E+03  0.84188997547E+03  0.19207070432E+04  0.10100000352E+00 0. -1.
</event>
<event>
 5   0  0.2309391E-07  0.3596864E+04  0.7818609E-02  0.8091210E-01
        2   -1    0    0  501    0  0.00000000000E+00  0.00000000000E+00  0.19971808855E+04  0.19971808855E+04  0.25500000920E-02 0. -1.
       -2   -1    0    0    0  501  0.00000000000E+00  0.00000000000E+00 -0.16194617075E+04  0.16194617076E+04  0.25500000920E-02 0.  1.
    10030    2    1    2    0    0  0.00000000000E+00  0.00000000000E+00  0.37771917792E+03  0.36166425930E+04  0.35968641715E+04 0.  0.
        4    1    3    3  502    0 -0.10489315071E+03  0.64498058084E+03 -0.14958697209E+04  0.16323695530E+04  0.12699999809E+01 0.  1.
       -4    1    3    3    0  502  0.10489315071E+03 -0.64498058084E+03  0.18735888988E+04  0.19842730400E+04  0.12699999809E+01 0. -1.
</event>
<event>
 5   0  0.2309391E-07  0.3609656E+04  0.7818609E-02  0.8088283E-01
       -2   -1    0    0    0  501  0.00000000000E+00  0.00000000000E+00  0.16437096347E+04  0.16437096347E+04  0.25500000920E-02 0. -1.
        2   -1    0    0  501    0  0.00000000000E+00  0.00000000000E+00 -0.19817395696E+04  0.19817395696E+04  0.25500000920E-02 0.  1.
    10030    2    1    2    0    0  0.00000000000E+00  0.00000000000E+00 -0.33802993493E+03  0.36254492043E+04  0.36096561742E+04 0.  0.
        4    1    3    3  502    0  0.10871047019E+04 -0.11164486752E+04 -0.10835748702E+04  0.18979964145E+04  0.12699999809E+01 0.  1.
       -4    1    3    3    0  502 -0.10871047019E+04  0.11164486752E+04  0.74554493527E+03  0.17274527897E+04  0.12699999809E+01 0. -1.
</event>
<event>
 5   0  0.7347303E-08  0.3616675E+04  0.7818609E-02  0.8086683E-01
        1   -1    0    0  501    0  0.00000000000E+00  0.00000000000E+00  0.14345146005E+04  0.14345146005E+04  0.50400001928E-02 0. -1.
       -1   -1    0    0    0  501  0.00000000000E+00  0.00000000000E+00 -0.22795750084E+04  0.22795750084E+04  0.50400001928E-02 0.  1.
    10030    2    1    2    0    0  0.00000000000E+00  0.00000000000E+00 -0.84506040788E+03  0.37140896088E+04  0.36166745125E+04 0.  0.
        2    1    3    3  502    0  0.73264977805E+03 -0.14944357084E+04 -0.11486610052E+04  0.20222600942E+04  0.25500000920E-02 0.  1.
       -2    1    3    3    0  502 -0.73264977805E+03  0.14944357084E+04  0.30360059729E+03  0.16918295146E+04  0.25500000920E-02 0. -1.
</event>
<event>
 5   0  0.7236375E-08  0.3567899E+04  0.7818609E-02  0.8097885E-01
        1   -1    0    0  501    0  0.00000000000E+00  0.00000000000E+00  0.94420631470E+03  0.94420631471E+03  0.50400001928E-02 0.  1.
       -1   -1    0    0    0  501  0.00000000000E+00  0.00000000000E+00 -0.33705293393E+04  0.33705293393E+04  0.50400001928E-02 0. -1.
    10030    2    1    2    0    0  0.00000000000E+00  0.00000000000E+00 -0.24263230246E+04  0.43147356540E+04  0.35678985894E+04 0.  0.
        5    1    3    3  502    0  0.11185920827E+04 -0.13400791551E+04 -0.76818287058E+03  0.19071411595E+04  0.46999998093E+01 0. -1.
       -5    1    3    3    0  502 -0.11185920827E+04  0.13400791551E+04 -0.16581401540E+04  0.24075944945E+04  0.46999998093E+01 0.  1.
</event>
<event>
 5   0  0.7236375E-08  0.3601061E+04  0.7818609E-02  0.8090249E-01
       -1   -1    0    0    0  501  0.00000000000E+00  0.00000000000E+00  0.35711779075E+04  0.35711779075E+04  0.50400001928E-02 0.  1.
        1   -1    0    0  501    0  0.00000000000E+00  0.00000000000E+00 -0.90779832376E+03  0.90779832377E+03  0.50400001928E-02 0. -1.
    10030    2    1    2    0    0  0.00000000000E+00  0.00000000000E+00  0.26633795838E+04  0.44789762313E+04  0.36010605762E+04 0.  0.
        5    1    3    3  502    0  0.12197415942E+03  0.17701835852E+04  0.17119319861E+04  0.24655954323E+04  0.46999998093E+01 0.  1.
       -5    1    3    3    0  502 -0.12197415942E+03 -0.17701835852E+04  0.95144759767E+03  0.20133807990E+04  0.46999998093E+01 0. -1.
</event>
<event>
 5   0  0.2198900E-07  0.3599292E+04  0.7818609E-02  0.8090654E-01
        2   -1    0    0  501    0  0.00000000000E+00  0.00000000000E+00  0.20987050462E+04  0.20987050462E+04  0.25500000920E-02 0.  1.
       -2   -1    0    0    0  501  0.00000000000E+00  0.00000000000E+00 -0.15432019420E+04  0.15432019420E+04  0.25500000920E-02 0. -1.
    10030    2    1    2    0    0  0.00000000000E+00  0.00000000000E+00  0.55550310420E+03  0.36419069882E+04  0.35992919875E+04 0.  0.
        2    1    3    3  502    0  0.94761083276E+03  0.56382369245E+03 -0.11613615462E+04  0.16014443754E+04  0.25500000920E-02 0. -1.
       -2    1    3    3    0  502 -0.94761083276E+03 -0.56382369245E+03  0.17168646504E+04  0.20404626128E+04  0.25500000920E-02 0.  1.
</event>
<event>
 5   0  0.2238968E-07  0.3596448E+04  0.7818609E-02  0.8091306E-01
       -2   -1    0    0    0  501  0.00000000000E+00  0.00000000000E+00  0.15241995428E+04  0.15241995428E+04  0.25500000920E-02 0.  1.
        2   -1    0    0  501    0  0.00000000000E+00  0.00000000000E+00 -0.21215136896E+04  0.21215136896E+04  0.25500000920E-02 0. -1.
    10030    2    1    2    0    0  0.00000000000E+00  0.00000000000E+00 -0.59731414678E+03  0.36457132324E+04  0.35964483568E+04 0.  0.
        3    1    3    3  502    0  0.16802955919E+04  0.61183108203E+03 -0.49067098375E+03  0.18543162011E+04  0.10100000352E+00 0.  1.
       -3    1    3    3    0  502 -0.16802955919E+04 -0.61183108203E+03 -0.10664316303E+03  0.17913970313E+04  0.10100000352E+00 0. -1.
</event>
<event>
 5   0  0.2199902E-07  0.3601298E+04  0.7818609E-02  0.8090194E-01
       -2   -1    0    0    0  501  0.00000000000E+00  0.00000000000E+00  0.12647336283E+04  0.12647336283E+04  0.25500000920E-02 0.  1.
        2   -1    0    0  501    0  0.00000000000E+00  0.00000000000E+00 -0.25636524338E+04  0.25636524338E+04  0.25500000920E-02 0. -1.
    10030    2    1    2    0    0  0.00000000000E+00  0.00000000000E+00 -0.12989188056E+04  0.38283860621E+04  0.36012983460E+04 0.  0.
        1    1    3    3  502    0  0.58497925991E+03  0.14341395608E+04  0.32680709156E+03  0.15829592192E+04  0.50400001928E-02 0.  1.
       -1    1    3    3    0  502 -0.58497925991E+03 -0.14341395608E+04 -0.16257258971E+04  0.22454268429E+04  0.50400001928E-02 0. -1.
</event>
<event>
 5   0  0.2198900E-07  0.3578051E+04  0.7818609E-02  0.8095538E-01
       -2   -1    0    0    0  501  0.00000000000E+00  0.00000000000E+00  0.14165898776E+04  0.14165898776E+04  0.25500000920E-02 0.  1.
        2   -1    0    0  501    0  0.00000000000E+00  0.00000000000E+00 -0.22593776125E+04  0.22593776125E+04  0.25500000920E-02 0. -1.
    10030    2    1    2    0    0  0.00000000000E+00  0.00000000000E+00 -0.84278773485E+03  0.36759674901E+04  0.35780505618E+04 0.  0.
        2    1    3    3  502    0  0.11790598739E+04 -0.20433522586E+03  0.94491654219E+03  0.15247302524E+04  0.25500000920E-02 0.  1.
       -2    1    3    3    0  502 -0.11790598739E+04  0.20433522586E+03 -0.17877042770E+04  0.21512372377E+04  0.25500000920E-02 0. -1.
</event>
<event>
 5   0  0.2238968E-07  0.3594734E+04  0.7818609E-02  0.8091699E-01
       -2   -1    0    0    0  501  0.00000000000E+00  0.00000000000E+00  0.16117521937E+04  0.16117521937E+04  0.25500000920E-02 0. -1.
        2   -1    0    0  501    0  0.00000000000E+00  0.00000000000E+00 -0.20043578207E+04  0.20043578207E+04  0.25500000920E-02 0.  1.
    10030    2    1    2    0    0  0.00000000000E+00  0.00000000000E+00 -0.39260562701E+03  0.36161100144E+04  0.35947339898E+04 0.  0.
        3    1    3    3  502    0  0.16304237836E+03  0.15508447971E+04  0.70278247508E+03  0.17104401829E+04  0.10100000352E+00 0. -1.
       -3    1    3    3    0  502 -0.16304237836E+03 -0.15508447971E+04 -0.10953881021E+04  0.19056698314E+04  0.10100000352E+00 0.  1.
</event>
<event>
 5   0  0.7236375E-08  0.3598492E+04  0.7818609E-02  0.8090837E-01
       -1   -1    0    0    0  501  0.00000000000E+00  0.00000000000E+00  0.14075969304E+04  0.14075969304E+04  0.50400001928E-02 0.  1.
        1   -1    0    0  501    0  0.00000000000E+00  0.00000000000E+00 -0.22998674165E+04  0.22998674165E+04  0.50400001928E-02 0. -1.
    10030    2    1    2    0    0  0.00000000000E+00  0.00000000000E+00 -0.89227048606E+03  0.37074643469E+04  0.35984920819E+04 0.  0.
        5    1    3    3  502    0 -0.20905685618E+03  0.12571286066E+04 -0.17547108044E+04  0.21686653038E+04  0.46999998093E+01 0. -1.
       -5    1    3    3    0  502  0.20905685618E+03 -0.12571286066E+04  0.86244031837E+03  0.15387990432E+04  0.46999998093E+01 0.  1.
</event>
<event>
 5   0  0.2342606E-07  0.3647759E+04  0.7818609E-02  0.8079639E-01
       -2   -1    0    0    0  501  0.00000000000E+00  0.00000000000E+00  0.14273329626E+04  0.14273329626E+04  0.25500000920E-02 0.  1.
        2   -1    0    0  501    0  0.00000000000E+00  0.00000000000E+00 -0.23305963018E+04  0.23305963018E+04  0.25500000920E-02 0. -1.
    10030    2    1    2    0    0  0.00000000000E+00  0.00000000000E+00 -0.90326333914E+03  0.37579292644E+04  0.36477592706E+04 0.  0.
        5    1    3    3  502    0  0.89509293892E+03  0.12016020167E+04  0.61971712669E+03  0.16214531084E+04  0.46999998093E+01 0.  1.
       -5    1    3    3    0  502 -0.89509293892E+03 -0.12016020167E+04 -0.15229804658E+04  0.21364761560E+04  0.46999998093E+01 0. -1.
</event>
<event>
 5   0  0.7236375E-08  0.3603090E+04  0.7818609E-02  0.8089784E-01
       -1   -1    0    0    0  501  0.00000000000E+00  0.00000000000E+00  0.14248737674E+04  0.14248737674E+04  0.50400001928E-02 0. -1.
        1   -1    0    0  501    0  0.00000000000E+00  0.00000000000E+00 -0.22777912485E+04  0.22777912485E+04  0.50400001928E-02 0.  1.
    10030    2    1    2    0    0  0.00000000000E+00  0.00000000000E+00 -0.85291748109E+03  0.37026650159E+04  0.36030903390E+04 0.  0.
        5    1    3    3  502    0 -0.69214006546E+03 -0.24606070141E+03 -0.21168930012E+04  0.22407279638E+04  0.46999998093E+01 0.  1.
       -5    1    3    3    0  502  0.69214006546E+03  0.24606070141E+03  0.12639755201E+04  0.14619370522E+04  0.46999998093E+01 0. -1.
</event>
<event>
 5   0  0.7261233E-08  0.3603058E+04  0.7818609E-02  0.8089792E-01
        1   -1    0    0  501    0  0.00000000000E+00  0.00000000000E+00  0.16605719302E+04  0.16605719303E+04  0.50400001928E-02 0.  1.
       -1   -1    0    0    0  501  0.00000000000E+00  0.00000000000E+00 -0.19544508222E+04  0.19544508222E+04  0.50400001928E-02 0. -1.
    10030    2    1    2    0    0  0.00000000000E+00  0.00000000000E+00 -0.29387889196E+03  0.36150227525E+04  0.36030576873E+04 0.  0.
        3    1    3    3  502    0 -0.37100185525E+03  0.12863797024E+04  0.10625058599E+04  0.17091909864E+04  0.10100000352E+00 0.  1.
       -3    1    3    3    0  502  0.37100185525E+03 -0.12863797024E+04 -0.13563847518E+04  0.19058317661E+04  0.10100000352E+00 0. -1.
</event>
<event>
 5   0  0.2238968E-07  0.3597957E+04  0.7818609E-02  0.8090960E-01
       -2   -1    0    0    0  501  0.00000000000E+00  0.00000000000E+00  0.10117292978E+04  0.10117292978E+04  0.25500000920E-02 0.  1.
        2   -1    0    0  501    0  0.00000000000E+00  0.00000000000E+00 -0.31988045888E+04  0.31988045888E+04  0.25500000920E-02 0. -1.
    10030    2    1    2    0    0  0.00000000000E+00  0.00000000000E+00 -0.21870752910E+04  0.42105338866E+04  0.35979573763E+04 0.  0.
        3    1    3    3  502    0 -0.12758825508E+04  0.11307745786E+04 -0.42148325338E+03  0.17561821016E+04  0.10100000352E+00 0. -1.
       -3    1    3    3    0  502  0.12758825508E+04 -0.11307745786E+04 -0.17655920376E+04  0.24543517850E+04  0.10100000352E+00 0.  1.
</event>
<event>
 5   0  0.7236375E-08  0.3671535E+04  0.7818609E-02  0.8074299E-01
       -1   -1    0    0    0  501  0.00000000000E+00  0.00000000000E+00  0.20034267137E+04  0.20034267137E+04  0.50400001928E-02 0. -1.
        1   -1    0    0  501    0  0.00000000000E+00  0.00000000000E+00 -0.16821388280E+04  0.16821388280E+04  0.50400001928E-02 0.  1.
    10030    2    1    2    0    0  0.00000000000E+00  0.00000000000E+00  0.32128788565E+03  0.36855655417E+04  0.36715347549E+04 0.  0.
        1    1    3    3  502    0 -0.15288186892E+04  0.68166316395E+03  0.91724213777E+03  0.19087389536E+04  0.50400001928E-02 0.  1.
       -1    1    3    3    0  502  0.15288186892E+04 -0.68166316395E+03 -0.59595425212E+03  0.17768265881E+04  0.50400001928E-02 0. -1.
</event>
<event>
 5   0  0.7261233E-08  0.3594716E+04  0.7818609E-02  0.8091703E-01
       -1   -1    0    0    0  501  0.00000000000E+00  0.00000000000E+00  0.11815011178E+04  0.11815011178E+04  0.50400001928E-02 0. -1.
        1   -1    0    0  501    0  0.00000000000E+00  0.00000000000E+00 -0.27342297635E+04  0.27342297635E+04  0.50400001928E-02 0.  1.
    10030    2    1    2    0    0  0.00000000000E+00  0.00000000000E+00 -0.15527286457E+04  0.39157308814E+04  0.35947158564E+04 0.  0.
        3    1    3    3  502    0  0.50368856432E+03  0.12756957092E+04 -0.20417345855E+04  0.24596304276E+04  0.10100000352E+00 0.  1.
       -3    1    3    3    0  502 -0.50368856432E+03 -0.12756957092E+04  0.48900593980E+03  0.14561004538E+04  0.10100000352E+00 0. -1.
</event>
<event>
 5   0  0.7514289E-08  0.3576993E+04  0.7818609E-02  0.8095782E-01
        1   -1    0    0  501    0  0.00000000000E+00  0.00000000000E+00  0.21114217451E+04  0.21114217451E+04  0.50400001928E-02 0.  1.
       -1   -1    0    0    0  501  0.00000000000E+00  0.00000000000E+00 -0.15149602786E+04  0.15149602786E+04  0.50400001928E-02 0. -1.
    10030    2    1    2    0    0  0.00000000000E+00  0.00000000000E+00  0.59646146651E+03  0.36263820237E+04  0.35769931927E+04 0.  0.
        4    1    3    3  502    0 -0.55973397349E+03  0.12318523840E+04  0.14839763039E+04  0.20082205309E+04  0.12699999809E+01 0.  1.
       -4    1    3    3    0  502  0.55973397349E+03 -0.12318523840E+04 -0.88751483743E+03  0.16181614928E+04  0.12699999809E+01 0. -1.
</event>
<event>
 5   0  0.7236375E-08  0.3605157E+04  0.7818609E-02  0.8089311E-01
        1   -1    0    0  501    0  0.00000000000E+00  0.00000000000E+00  0.13709068005E+04  0.13709068005E+04  0.50400001928E-02 0. -1.
       -1   -1    0    0    0  501  0.00000000000E+00  0.00000000000E+00 -0.23701751782E+04  0.23701751782E+04  0.50400001928E-02 0.  1.
    10030    2    1    2    0    0  0.00000000000E+00  0.00000000000E+00 -0.99926837772E+03  0.37410819787E+04  0.36051570119E+04 0.  0.
        5    1    3    3  502    0  0.14723394855E+04  0.33441832569E+03  0.52219921302E+03  0.15976023551E+04  0.46999998093E+01 0. -1.
       -5    1    3    3    0  502 -0.14723394855E+04 -0.33441832569E+03 -0.15214675907E+04  0.21434796236E+04  0.46999998093E+01 0.  1.
</event>
<event>
 5   0  0.2309391E-07  0.3580070E+04  0.7818609E-02  0.8095072E-01
       -2   -1    0    0    0  501  0.00000000000E+00  0.00000000000E+00  0.12858603212E+04  0.12858603212E+04  0.25500000920E-02 0.  1.
        2   -1    0    0  501    0  0.00000000000E+00  0.00000000000E+00 -0.24918922102E+04  0.24918922102E+04  0.25500000920E-02 0. -1.
    10030    2    1    2    0    0  0.00000000000E+00  0.00000000000E+00 -0.12060318890E+04  0.37777525315E+04  0.35800700093E+04 0.  0.
        4    1    3    3  502    0 -0.22587070759E+03  0.92249250293E+03  0.99807058540E+03  0.13777360055E+04  0.12699999809E+01 0.  1.
       -4    1    3    3    0  502  0.22587070759E+03 -0.92249250293E+03 -0.22041024744E+04  0.24000165260E+04  0.12699999809E+01 0. -1.
</event>
<event>
 5   0  0.2199902E-07  0.3606955E+04  0.7818609E-02  0.8088900E-01
        2   -1    0    0  501    0  0.00000000000E+00  0.00000000000E+00  0.15100124644E+04  0.15100124644E+04  0.25500000920E-02 0. -1.
       -2   -1    0    0    0  501  0.00000000000E+00  0.00000000000E+00 -0.21539760925E+04  0.21539760925E+04  0.25500000920E-02 0.  1.
    10030    2    1    2    0    0  0.00000000000E+00  0.00000000000E+00 -0.64396362809E+03  0.36639885569E+04  0.36069548086E+04 0.  0.
        1    1    3    3  502    0 -0.13499583581E+04 -0.27793615664E+03  0.85954994775E+03  0.16243343832E+04  0.50400001928E-02 0. -1.
       -1    1    3    3    0  502  0.13499583581E+04  0.27793615664E+03 -0.15035135758E+04  0.20396541737E+04  0.50400001928E-02 0.  1.
</event>
<event>
 5   0  0.7514289E-08  0.3558481E+04  0.7818609E-02  0.8100069E-01
        1   -1    0    0  501    0  0.00000000000E+00  0.00000000000E+00  0.20990605493E+04  0.20990605493E+04  0.50400001928E-02 0. -1.
       -1   -1    0    0    0  501  0.00000000000E+00  0.00000000000E+00 -0.15081490115E+04  0.15081490115E+04  0.50400001928E-02 0.  1.
    10030    2    1    2    0    0  0.00000000000E+00  0.00000000000E+00  0.59091153784E+03  0.36072095608E+04  0.35584806266E+04 0.  0.
        4    1    3    3  502    0  0.91125858268E+01 -0.93465346682E+03 -0.12392224431E+04  0.15522029566E+04  0.12699999809E+01 0.  1.
       -4    1    3    3    0  502 -0.91125858268E+01  0.93465346682E+03  0.18301339809E+04  0.20550066042E+04  0.12699999809E+01 0. -1.
</event>
<event>
 5   0  0.2198900E-07  0.3600586E+04  0.7818609E-02  0.8090358E-01
       -2   -1    0    0    0  501  0.00000000000E+00  0.00000000000E+00  0.13430330792E+04  0.13430330792E+04  0.25500000920E-02 0.  1.
        2   -1    0    0  501    0  0.00000000000E+00  0.00000000000E+00 -0.24132346929E+04  0.24132346929E+04  0.25500000920E-02 0. -1.
    10030    2    1    2    0    0  0.00000000000E+00  0.00000000000E+00 -0.10702016138E+04  0.37562677721E+04  0.36005855193E+04 0.  0.
        2    1    3    3  502    0 -0.16454285347E+04 -0.64747847679E+03 -0.18226021336E+03  0.17776057567E+04  0.25500000920E-02 0.  1.
       -2    1    3    3    0  502  0.16454285347E+04  0.64747847679E+03 -0.88794140042E+03  0.19786620154E+04  0.25500000920E-02 0. -1.
</event>
<event>
 5   0  0.7236375E-08  0.3602223E+04  0.7818609E-02  0.8089983E-01
        1   -1    0    0  501    0  0.00000000000E+00  0.00000000000E+00  0.20764823735E+04  0.20764823735E+04  0.50400001928E-02 0.  1.
       -1   -1    0    0    0  501  0.00000000000E+00  0.00000000000E+00 -0.15622588457E+04  0.15622588457E+04  0.50400001928E-02 0. -1.
    10030    2    1    2    0    0  0.00000000000E+00  0.00000000000E+00  0.51422352785E+03  0.36387412192E+04  0.36022231780E+04 0.  0.
        5    1    3    3  502    0  0.28162008666E+03 -0.74452575526E+02 -0.15383003547E+04  0.15656446374E+04  0.46999998093E+01 0. -1.
       -5    1    3    3    0  502 -0.28162008666E+03  0.74452575526E+02  0.20525238826E+04  0.20730965819E+04  0.46999998093E+01 0.  1.
</event>
<event>
 5   0  0.2198900E-07  0.3599523E+04  0.7818609E-02  0.8090601E-01
       -2   -1    0    0    0  501  0.00000000000E+00  0.00000000000E+00  0.29245841965E+04  0.29245841965E+04  0.25500000920E-02 0. -1.
        2   -1    0    0  501    0  0.00000000000E+00  0.00000000000E+00 -0.11075564418E+04  0.11075564418E+04  0.25500000920E-02 0.  1.
    10030    2    1    2    0    0  0.00000000000E+00  0.00000000000E+00  0.18170277547E+04  0.40321406383E+04  0.35995233386E+04 0.  0.
        2    1    3    3  502    0 -0.71212171335E+03  0.13043076561E+03  0.27542796925E+04  0.28478388549E+04  0.25500000920E-02 0. -1.
       -2    1    3    3    0  502  0.71212171335E+03 -0.13043076561E+03 -0.93725193773E+03  0.11843017833E+04  0.25500000920E-02 0.  1.
</event>
<event>
 5   0  0.7514289E-08  0.3591876E+04  0.7818609E-02  0.8092355E-01
       -1   -1    0    0    0  501  0.00000000000E+00  0.00000000000E+00  0.29525870713E+04  0.29525870713E+04  0.50400001928E-02 0.  1.
        1   -1    0    0  501    0  0.00000000000E+00  0.00000000000E+00 -0.10923957336E+04  0.10923957336E+04  0.50400001928E-02 0. -1.
    10030    2    1    2    0    0  0.00000000000E+00  0.00000000000E+00  0.18601913377E+04  0.40449828048E+04  0.35918761224E+04 0.  0.
        4    1    3    3  502    0 -0.79716030880E+02  0.16741145995E+04  0.20342272218E+03  0.16883118061E+04  0.12699999809E+01 0.  1.
       -4    1    3    3    0  502  0.79716030880E+02 -0.16741145995E+04  0.16567686155E+04  0.23566709987E+04  0.12699999809E+01 0. -1.
</event>
<event>
 5   0  0.7514289E-08  0.3587906E+04  0.7818609E-02  0.8093268E-01
        1   -1    0    0  501    0  0.00000000000E+00  0.00000000000E+00  0.23742869084E+04  0.23742869084E+04  0.50400001928E-02 0.  1.
       -1   -1    0    0    0  501  0.00000000000E+00  0.00000000000E+00 -0.13554667934E+04  0.13554667934E+04  0.50400001928E-02 0. -1.
    10030    2    1    2    0    0  0.00000000000E+00  0.00000000000E+00  0.10188201151E+04  0.37297537018E+04  0.35879058306E+04 0.  0.
        4    1    3    3  502    0 -0.99825596545E+02  0.77388113535E+03  0.21886398722E+04  0.23235755345E+04  0.12699999809E+01 0.  1.
       -4    1    3    3    0  502  0.99825596545E+02 -0.77388113535E+03 -0.11698197571E+04  0.14061781674E+04  0.12699999809E+01 0. -1.
</event>
<event>
 5   0  0.7347303E-08  0.3575671E+04  0.7818609E-02  0.8096087E-01
        1   -1    0    0  501    0  0.00000000000E+00  0.00000000000E+00  0.22421526269E+04  0.22421526269E+04  0.50400001928E-02 0.  1.
       -1   -1    0    0    0  501  0.00000000000E+00  0.00000000000E+00 -0.14255745510E+04  0.14255745510E+04  0.50400001928E-02 0. -1.
    10030    2    1    2    0    0  0.00000000000E+00  0.00000000000E+00  0.81657807595E+03  0.36677271779E+04  0.35756709717E+04 0.  0.
        2    1    3    3  502    0 -0.34641948697E+02 -0.12224786784E+04 -0.92939494566E+03  0.15360433421E+04  0.25500000920E-02 0. -1.
       -2    1    3    3    0  502  0.34641948697E+02  0.12224786784E+04  0.17459730216E+04  0.21316838358E+04  0.25500000920E-02 0.  1.
</event>
<event>
 5   0  0.2198900E-07  0.3590181E+04  0.7818609E-02  0.8092745E-01
        2   -1    0    0  501    0  0.00000000000E+00  0.00000000000E+00  0.19500594747E+04  0.19500594747E+04  0.25500000920E-02 0. -1.
       -2   -1    0    0    0  501  0.00000000000E+00  0.00000000000E+00 -0.16524364063E+04  0.16524364063E+04  0.25500000920E-02 0.  1.
    10030    2    1    2    0    0  0.00000000000E+00  0.00000000000E+00  0.29762306843E+03  0.36024958810E+04  0.35901806476E+04 0.  0.
        2    1    3    3  502    0  0.12454457418E+03 -0.61659740536E+02  0.19446534378E+04  0.19496128507E+04  0.25500000920E-02 0. -1.
       -2    1    3    3    0  502 -0.12454457418E+03  0.61659740536E+02 -0.16470303693E+04  0.16528830304E+04  0.25500000920E-02 0.  1.
</event>
<event>
 5   0  0.7236375E-08  0.3608715E+04  0.7818609E-02  0.8088498E-01
        3   -1    0    0  501    0  0.00000000000E+00  0.00000000000E+00  0.21069109919E+04  0.21069109943E+04  0.10100000352E+00 0. -1.
       -3   -1    0    0    0  501  0.00000000000E+00  0.00000000000E+00 -0.15452507210E+04  0.15452507243E+04  0.10100000352E+00 0.  1.
    10030    2    1    2    0    0  0.00000000000E+00  0.00000000000E+00  0.56166027094E+03  0.36521617186E+04  0.36087148625E+04 0.  0.
        1    1    3    3  502    0 -0.16801698463E+03  0.14851875408E+04  0.13037882541E+04  0.19833999975E+04  0.50400001928E-02 0. -1.
       -1    1    3    3    0  502  0.16801698463E+03 -0.14851875408E+04 -0.74212798320E+03  0.16687617211E+04  0.50400001928E-02 0.  1.
</event>
<event>
 5   0  0.2342606E-07  0.3534360E+04  0.7818609E-02  0.8105695E-01
        2   -1    0    0  501    0  0.00000000000E+00  0.00000000000E+00  0.26540220303E+04  0.26540220303E+04  0.25500000920E-02 0. -1.
       -2   -1    0    0    0  501  0.00000000000E+00  0.00000000000E+00 -0.11766761885E+04  0.11766761885E+04  0.25500000920E-02 0.  1.
    10030    2    1    2    0    0  0.00000000000E+00  0.00000000000E+00  0.14773458418E+04  0.38306982188E+04  0.35343596460E+04 0.  0.
        5    1    3    3  502    0  0.12174806644E+04  0.11936478077E+04  0.12422215235E+04  0.21095475014E+04  0.46999998093E+01 0.  1.
       -5    1    3    3    0  502 -0.12174806644E+04 -0.11936478077E+04  0.23512431834E+03  0.17211507174E+04  0.46999998093E+01 0. -1.
</event>
<event>
 5   0  0.2342606E-07  0.3593018E+04  0.7818609E-02  0.8092093E-01
        2   -1    0    0  501    0  0.00000000000E+00  0.00000000000E+00  0.20234180252E+04  0.20234180252E+04  0.25500000920E-02 0. -1.
       -2   -1    0    0    0  501  0.00000000000E+00  0.00000000000E+00 -0.15950461072E+04  0.15950461072E+04  0.25500000920E-02 0.  1.
    10030    2    1    2    0    0  0.00000000000E+00  0.00000000000E+00  0.42837191802E+03  0.36184641324E+04  0.35930182545E+04 0.  0.
        5    1    3    3  502    0 -0.65911846983E+03 -0.16693458076E+04  0.13443948359E+03  0.17997912788E+04  0.46999998093E+01 0. -1.
       -5    1    3    3    0  502  0.65911846983E+03  0.16693458076E+04  0.29393243444E+03  0.18186728536E+04  0.46999998093E+01 0.  1.
</event>
<event>
 5   0  0.2309391E-07  0.3618471E+04  0.7818609E-02  0.8086274E-01
       -2   -1    0    0    0  501  0.00000000000E+00  0.00000000000E+00  0.14377723636E+04  0.14377723636E+04  0.25500000920E-02 0. -1.
        2   -1    0    0  501    0  0.00000000000E+00  0.00000000000E+00 -0.22766695748E+04  0.22766695748E+04  0.25500000920E-02 0.  1.
    10030    2    1    2    0    0  0.00000000000E+00  0.00000000000E+00 -0.83889721118E+03  0.37144419383E+04  0.36184707243E+04 0.  0.
        4    1    3    3  502    0  0.89725688691E+03  0.15600077063E+04 -0.61049496095E+03  0.19003682999E+04  0.12699999809E+01 0.  1.
       -4    1    3    3    0  502 -0.89725688691E+03 -0.15600077063E+04 -0.22840225023E+03  0.18140736385E+04  0.12699999809E+01 0. -1.
</event>
<event>
 5   0  0.7514289E-08  0.3587168E+04  0.7818609E-02  0.8093437E-01
        1   -1    0    0  501    0  0.00000000000E+00  0.00000000000E+00  0.13407650667E+04  0.13407650667E+04  0.50400001928E-02 0.  1.
       -1   -1    0    0    0  501  0.00000000000E+00  0.00000000000E+00 -0.23993339347E+04  0.23993339347E+04  0.50400001928E-02 0. -1.
    10030    2    1    2    0    0  0.00000000000E+00  0.00000000000E+00 -0.10585688680E+04  0.37400990015E+04  0.35871677536E+04 0.  0.
        4    1    3    3  502    0  0.11591211737E+04 -0.70115958696E+03 -0.17548792348E+04  0.22169324309E+04  0.12699999809E+01 0. -1.
       -4    1    3    3    0  502 -0.11591211737E+04  0.70115958696E+03  0.69631036681E+03  0.15231665705E+04  0.12699999809E+01 0.  1.
</event>
<event>
 5   0  0.7347303E-08  0.3627256E+04  0.7818609E-02  0.8084277E-01
        1   -1    0    0  501    0  0.00000000000E+00  0.00000000000E+00  0.24010999003E+04  0.24010999003E+04  0.50400001928E-02 0. -1.
       -1   -1    0    0    0  501  0.00000000000E+00  0.00000000000E+00 -0.13698918675E+04  0.13698918676E+04  0.50400001928E-02 0.  1.
    10030    2    1    2    0    0  0.00000000000E+00  0.00000000000E+00  0.10312080327E+04  0.37709917678E+04  0.36272563883E+04 0.  0.
        2    1    3    3  502    0 -0.97604450274E+03 -0.14856356163E+04  0.14152455197E+03  0.17832008453E+04  0.25500000920E-02 0. -1.
       -2    1    3    3    0  502  0.97604450274E+03  0.14856356163E+04  0.88968348074E+03  0.19877909225E+04  0.25500000920E-02 0.  1.
</event>
<event>
 5   0  0.2198900E-07  0.3582803E+04  0.7818609E-02  0.8094442E-01
       -2   -1    0    0    0  501  0.00000000000E+00  0.00000000000E+00  0.14830992769E+04  0.14830992769E+04  0.25500000920E-02 0.  1.
        2   -1    0    0  501    0  0.00000000000E+00  0.00000000000E+00 -0.21637929860E+04  0.21637929860E+04  0.25500000920E-02 0. -1.
    10030    2    1    2    0    0  0.00000000000E+00  0.00000000000E+00 -0.68069370906E+03  0.36468922629E+04  0.35828032672E+04 0.  0.
        2    1    3    3  502    0 -0.11168697546E+04  0.77688317275E+03 -0.15266009534E+04  0.20448608715E+04  0.25500000920E-02 0. -1.
       -2    1    3    3    0  502  0.11168697546E+04 -0.77688317275E+03  0.84590724433E+03  0.16020313914E+04  0.25500000920E-02 0.  1.
</event>
<event>
 5   0  0.7347303E-08  0.3595093E+04  0.7818609E-02  0.8091617E-01
       -1   -1    0    0    0  501  0.00000000000E+00  0.00000000000E+00  0.22437889190E+04  0.22437889190E+04  0.50400001928E-02 0. -1.
        1   -1    0    0  501    0  0.00000000000E+00  0.00000000000E+00 -0.14400523449E+04  0.14400523449E+04  0.50400001928E-02 0.  1.
    10030    2    1    2    0    0  0.00000000000E+00  0.00000000000E+00  0.80373657408E+03  0.36838412639E+04  0.35950930415E+04 0.  0.
        2    1    3    3  502    0  0.89657797897E+03  0.19757755863E+03  0.19854256742E+04  0.21874195007E+04  0.25500000920E-02 0. -1.
       -2    1    3    3    0  502 -0.89657797897E+03 -0.19757755863E+03 -0.11816891002E+04  0.14964217632E+04  0.25500000920E-02 0.  1.
</event>
<event>
 5   0  0.2238968E-07  0.3609078E+04  0.7818609E-02  0.8088415E-01
       -2   -1    0    0    0  501  0.00000000000E+00  0.00000000000E+00  0.15684865803E+04  0.15684865803E+04  0.25500000920E-02 0. -1.
        2   -1    0    0  501    0  0.00000000000E+00  0.00000000000E+00 -0.20761168191E+04  0.20761168191E+04  0.25500000920E-02 0.  1.
    10030    2    1    2    0    0  0.00000000000E+00  0.00000000000E+00 -0.50763023881E+03  0.36446033994E+04  0.36090782036E+04 0.  0.
        3    1    3    3  502    0  0.79656006153E+03  0.16132145399E+04 -0.39444201156E+03  0.18418885943E+04  0.10100000352E+00 0. -1.
       -3    1    3    3    0  502 -0.79656006153E+03 -0.16132145399E+04 -0.11318822725E+03  0.18027148050E+04  0.10100000352E+00 0.  1.
</event>
<event>
 5   0  0.2342606E-07  0.3580572E+04  0.7818609E-02  0.8094957E-01
        2   -1    0    0  501    0  0.00000000000E+00  0.00000000000E+00  0.24590482968E+04  0.24590482968E+04  0.25500000920E-02 0. -1.
       -2   -1    0    0    0  501  0.00000000000E+00  0.00000000000E+00 -0.13033998172E+04  0.13033998172E+04  0.25500000920E-02 0.  1.
    10030    2    1    2    0    0  0.00000000000E+00  0.00000000000E+00  0.11556484797E+04  0.37624481140E+04  0.35805715189E+04 0.  0.
        5    1    3    3  502    0  0.47557858552E+03 -0.12863383640E+04 -0.63139413257E+03  0.15098086032E+04  0.46999998093E+01 0. -1.
       -5    1    3    3    0  502 -0.47557858552E+03  0.12863383640E+04  0.17870426122E+04  0.22526395108E+04  0.46999998093E+01 0.  1.
</event>
<event>
 5   0  0.7236375E-08  0.3604982E+04  0.7818609E-02  0.8089352E-01
       -1   -1    0    0    0  501  0.00000000000E+00  0.00000000000E+00  0.14172978950E+04  0.14172978950E+04  0.50400001928E-02 0.  1.
        1   -1    0    0  501    0  0.00000000000E+00  0.00000000000E+00 -0.22923713584E+04  0.22923713584E+04  0.50400001928E-02 0. -1.
    10030    2    1    2    0    0  0.00000000000E+00  0.00000000000E+00 -0.87507346339E+03  0.37096692534E+04  0.36049816093E+04 0.  0.
        5    1    3    3  502    0 -0.35124730913E+03 -0.37774586750E+03  0.13397207384E+04  0.14355975618E+04  0.46999998093E+01 0.  1.
       -5    1    3    3    0  502  0.35124730913E+03  0.37774586750E+03 -0.22147942018E+04  0.22740716916E+04  0.46999998093E+01 0. -1.
</event>
<event>
 5   0  0.7261233E-08  0.3656303E+04  0.7818609E-02  0.8077715E-01
       -1   -1    0    0    0  501  0.00000000000E+00  0.00000000000E+00  0.13284575181E+04  0.13284575181E+04  0.50400001928E-02 0.  1.
        1   -1    0    0  501    0  0.00000000000E+00  0.00000000000E+00 -0.25158039123E+04  0.25158039123E+04  0.50400001928E-02 0. -1.
    10030    2    1    2    0    0  0.00000000000E+00  0.00000000000E+00 -0.11873463943E+04  0.38442614304E+04  0.36563033908E+04 0.  0.
        3    1    3    3  502    0 -0.17233143720E+04  0.44489869248E+03 -0.10327425722E+04  0.20577425743E+04  0.10100000352E+00 0. -1.
       -3    1    3    3    0  502  0.17233143720E+04 -0.44489869248E+03 -0.15460382206E+03  0.17865188561E+04  0.10100000352E+00 0.  1.
</event>
<event>
 5   0  0.2238968E-07  0.3683884E+04  0.7818609E-02  0.8071543E-01
        2   -1    0    0  501    0  0.00000000000E+00  0.00000000000E+00  0.20186600819E+04  0.20186600819E+04  0.25500000920E-02 0.  1.
       -2   -1    0    0    0  501  0.00000000000E+00  0.00000000000E+00 -0.16806940066E+04  0.16806940066E+04  0.25500000920E-02 0. -1.
    10030    2    1    2    0    0  0.00000000000E+00  0.00000000000E+00  0.33796607531E+03  0.36993540885E+04  0.36838837664E+04 0.  0.
        3    1    3    3  502    0  0.14817246805E+04 -0.93172135813E+03  0.74509706637E+03  0.19023097452E+04  0.10100000352E+00 0.  1.
       -3    1    3    3    0  502 -0.14817246805E+04  0.93172135813E+03 -0.40713099106E+03  0.17970443434E+04  0.10100000352E+00 0. -1.
</event>
<event>
 5   0  0.2199902E-07  0.3596640E+04  0.7818609E-02  0.8091262E-01
       -2   -1    0    0    0  501  0.00000000000E+00  0.00000000000E+00  0.14769385147E+04  0.14769385147E+04  0.25500000920E-02 0.  1.
        2   -1    0    0  501    0  0.00000000000E+00  0.00000000000E+00 -0.21896341651E+04  0.21896341651E+04  0.25500000920E-02 0. -1.
    10030    2    1    2    0    0  0.00000000000E+00  0.00000000000E+00 -0.71269565038E+03  0.36665726798E+04  0.35966401163E+04 0.  0.
        1    1    3    3  502    0  0.75510688040E+03 -0.27292748169E+03 -0.19967591435E+04  0.21521437889E+04  0.50400001928E-02 0. -1.
       -1    1    3    3    0  502 -0.75510688040E+03  0.27292748169E+03  0.12840634931E+04  0.15144288909E+04  0.50400001928E-02 0.  1.
</event>
<event>
 5   0  0.2199902E-07  0.3601203E+04  0.7818609E-02  0.8090216E-01
        2   -1    0    0  501    0  0.00000000000E+00  0.00000000000E+00  0.19612094612E+04  0.19612094612E+04  0.25500000920E-02 0. -1.
       -2   -1    0    0    0  501  0.00000000000E+00  0.00000000000E+00 -0.16531458678E+04  0.16531458678E+04  0.25500000920E-02 0.  1.
    10030    2    1    2    0    0  0.00000000000E+00  0.00000000000E+00  0.30806359334E+03  0.36143553290E+04  0.36012027528E+04 0.  0.
        1    1    3    3  502    0  0.11935940630E+04  0.13089231418E+04 -0.16997653519E+03  0.17795613507E+04  0.50400001928E-02 0.  1.
       -1    1    3    3    0  502 -0.11935940630E+04 -0.13089231418E+04  0.47804012853E+03  0.18347939783E+04  0.50400001928E-02 0. -1.
</event>
<event>
 5   0  0.2198900E-07  0.3613731E+04  0.7818609E-02  0.8087354E-01
       -2   -1    0    0    0  501  0.00000000000E+00  0.00000000000E+00  0.13394038658E+04  0.13394038658E+04  0.25500000920E-02 0. -1.
        2   -1    0    0  501    0  0.00000000000E+00  0.00000000000E+00 -0.24374743364E+04  0.24374743364E+04  0.25500000920E-02 0.  1.
    10030    2    1    2    0    0  0.00000000000E+00  0.00000000000E+00 -0.10980704706E+04  0.37768782022E+04  0.36137307863E+04 0.  0.
        2    1    3    3  502    0  0.43091632778E+03 -0.54134098761E+03  0.11954591656E+04  0.13812536201E+04  0.25500000920E-02 0. -1.
       -2    1    3    3    0  502 -0.43091632778E+03  0.54134098761E+03 -0.22935296361E+04  0.23956245821E+04  0.25500000920E-02 0.  1.
</event>
<event>
 5   0  0.7236375E-08  0.3607453E+04  0.7818609E-02  0.8088787E-01
        1   -1    0    0  501    0  0.00000000000E+00  0.00000000000E+00  0.20190341486E+04  0.20190341487E+04  0.50400001928E-02 0. -1.
       -1   -1    0    0    0  501  0.00000000000E+00  0.00000000000E+00 -0.16113791994E+04  0.16113791994E+04  0.50400001928E-02 0.  1.
    10030    2    1    2    0    0  0.00000000000E+00  0.00000000000E+00  0.40765494926E+03  0.36304133480E+04  0.36074531903E+04 0.  0.
        1    1    3    3  502    0  0.11657358915E+03 -0.12086456871E+04 -0.11384591953E+04  0.16644828440E+04  0.50400001928E-02 0.  1.
       -1    1    3    3    0  502 -0.11657358915E+03  0.12086456871E+04  0.15461141445E+04  0.19659305040E+04  0.50400001928E-02 0. -1.
</event>
<event>
 5   0  0.2199902E-07  0.3612811E+04  0.7818609E-02  0.8087563E-01
       -2   -1    0    0    0  501  0.00000000000E+00  0.00000000000E+00  0.29726236698E+04  0.29726236698E+04  0.25500000920E-02 0.  1.
        2   -1    0    0  501    0  0.00000000000E+00  0.00000000000E+00 -0.10977175434E+04  0.10977175434E+04  0.25500000920E-02 0. -1.
    10030    2    1    2    0    0  0.00000000000E+00  0.00000000000E+00  0.18749061264E+04  0.40703412132E+04  0.36128111781E+04 0.  0.
        1    1    3    3  502    0  0.18008680416E+03 -0.11088159111E+04 -0.65633471947E+03  0.13010300711E+04  0.50400001928E-02 0. -1.
       -1    1    3    3    0  502 -0.18008680416E+03  0.11088159111E+04  0.25312408459E+04  0.27693111421E+04  0.50400001928E-02 0.  1.
</event>
<event>
 5   0  0.2309391E-07  0.3587494E+04  0.7818609E-02  0.8093362E-01
        2   -1    0    0  501    0  0.00000000000E+00  0.00000000000E+00  0.13279805630E+04  0.13279805630E+04  0.25500000920E-02 0. -1.
       -2   -1    0    0    0  501  0.00000000000E+00  0.00000000000E+00 -0.24228737001E+04  0.24228737001E+04  0.25500000920E-02 0.  1.
    10030    2    1    2    0    0  0.00000000000E+00  0.00000000000E+00 -0.10948931372E+04  0.37508542631E+04  0.35874944908E+04 0.  0.
        4    1    3    3  502    0  0.34307091104E+03  0.51804183420E+03  0.12118714891E+04  0.13618733829E+04  0.12699999809E+01 0. -1.
       -4    1    3    3    0  502 -0.34307091104E+03 -0.51804183420E+03 -0.23067646263E+04  0.23889808802E+04  0.12699999809E+01 0.  1.
</event>
<event>
 5   0  0.2238968E-07  0.3581411E+04  0.7818609E-02  0.8094763E-01
       -2   -1    0    0    0  501  0.00000000000E+00  0.00000000000E+00  0.15648276884E+04  0.15648276884E+04  0.25500000920E-02 0. -1.
        2   -1    0    0  501    0  0.00000000000E+00  0.00000000000E+00 -0.20491878977E+04  0.20491878977E+04  0.25500000920E-02 0.  1.
    10030    2    1    2    0    0  0.00000000000E+00  0.00000000000E+00 -0.48436020936E+03  0.36140155861E+04  0.35814108734E+04 0.  0.
        3    1    3    3  502    0  0.48118493335E+03 -0.13631040658E+04 -0.13087004167E+04  0.19499457493E+04  0.10100000352E+00 0.  1.
       -3    1    3    3    0  502 -0.48118493335E+03  0.13631040658E+04  0.82434020732E+03  0.16640698369E+04  0.10100000352E+00 0. -1.
</event>
<event>
 5   0  0.7236375E-08  0.3585623E+04  0.7818609E-02  0.8093793E-01
        1   -1    0    0  501    0  0.00000000000E+00  0.00000000000E+00  0.13367982512E+04  0.13367982512E+04  0.50400001928E-02 0. -1.
       -1   -1    0    0    0  501  0.00000000000E+00  0.00000000000E+00 -0.24043814134E+04  0.24043814134E+04  0.50400001928E-02 0.  1.
    10030    2    1    2    0    0  0.00000000000E+00  0.00000000000E+00 -0.10675831622E+04  0.37411796646E+04  0.35856228851E+04 0.  0.
        5    1    3    3  502    0  0.15453429465E+04 -0.78883407826E+03 -0.10048266471E+04  0.20050044155E+04  0.46999998093E+01 0. -1.
       -5    1    3    3    0  502 -0.15453429465E+04  0.78883407826E+03 -0.62756515121E+02  0.17361752491E+04  0.46999998093E+01 0.  1.
</event>
<event>
 5   0  0.7347303E-08  0.3600315E+04  0.7818609E-02  0.8090420E-01
       -1   -1    0    0    0  501  0.00000000000E+00  0.00000000000E+00  0.12104071970E+04  0.12104071970E+04  0.50400001928E-02 0. -1.
        1   -1    0    0  501    0  0.00000000000E+00  0.00000000000E+00 -0.26772537404E+04  0.26772537404E+04  0.50400001928E-02 0.  1.
    10030    2    1    2    0    0  0.00000000000E+00  0.00000000000E+00 -0.14668465434E+04  0.38876609373E+04  0.36003150948E+04 0.  0.
        2    1    3    3  502    0 -0.13546602571E+04 -0.11531028341E+04 -0.43609916106E+03  0.18316476289E+04  0.25500000920E-02 0. -1.
       -2    1    3    3    0  502  0.13546602571E+04  0.11531028341E+04 -0.10307473824E+04  0.20560133084E+04  0.25500000920E-02 0.  1.
</event>
<event>
 5   0  0.2199902E-07  0.3618738E+04  0.7818609E-02  0.8086213E-01
       -2   -1    0    0    0  501  0.00000000000E+00  0.00000000000E+00  0.11769726780E+04  0.11769726780E+04  0.25500000920E-02 0. -1.
        2   -1    0    0  501    0  0.00000000000E+00  0.00000000000E+00 -0.27815570126E+04  0.27815570126E+04  0.25500000920E-02 0.  1.
    10030    2    1    2    0    0  0.00000000000E+00  0.00000000000E+00 -0.16045843346E+04  0.39585296906E+04  0.36187382366E+04 0.  0.
        1    1    3    3  502    0 -0.12774032184E+04  0.58002370651E+03 -0.20522254090E+04  0.24859234928E+04  0.50400001928E-02 0.  1.
       -1    1    3    3    0  502  0.12774032184E+04 -0.58002370651E+03  0.44764107437E+03  0.14726061979E+04  0.50400001928E-02 0. -1.
</event>
<event>
 5   0  0.2309391E-07  0.3596917E+04  0.7818609E-02  0.8091198E-01
        2   -1    0    0  501    0  0.00000000000E+00  0.00000000000E+00  0.10712059281E+04  0.10712059281E+04  0.25500000920E-02 0.  1.
       -2   -1    0    0    0  501  0.00000000000E+00  0.00000000000E+00 -0.30194499979E+04  0.30194499979E+04  0.25500000920E-02 0. -1.
    10030    2    1    2    0    0  0.00000000000E+00  0.00000000000E+00 -0.19482440698E+04  0.40906559260E+04  0.35969168672E+04 0.  0.
        4    1    3    3  502    0  0.23016928273E+03  0.54450680181E+03 -0.29057984339E+04  0.29653215184E+04  0.12699999809E+01 0. -1.
       -4    1    3    3    0  502 -0.23016928273E+03 -0.54450680181E+03  0.95755436409E+03  0.11253344076E+04  0.12699999809E+01 0.  1.
</event>
<event>
 5   0  0.2238968E-07  0.3585102E+04  0.7818609E-02  0.8093913E-01
        2   -1    0    0  501    0  0.00000000000E+00  0.00000000000E+00  0.20424795061E+04  0.20424795061E+04  0.25500000920E-02 0. -1.
       -2   -1    0    0    0  501  0.00000000000E+00  0.00000000000E+00 -0.15732048272E+04  0.15732048272E+04  0.25500000920E-02 0.  1.
    10030    2    1    2    0    0  0.00000000000E+00  0.00000000000E+00  0.46927467886E+03  0.36156843333E+04  0.35851017383E+04 0.  0.
        3    1    3    3  502    0  0.51481633405E+03 -0.16848616930E+04  0.56828236685E+03  0.18511454942E+04  0.10100000352E+00 0. -1.
       -3    1    3    3    0  502 -0.51481633405E+03  0.16848616930E+04 -0.99007687985E+02  0.17645388391E+04  0.10100000352E+00 0.  1.
</event>
<event>
 5   0  0.7236375E-08  0.3613976E+04  0.7818609E-02  0.8087298E-01
       -1   -1    0    0    0  501  0.00000000000E+00  0.00000000000E+00  0.19016544551E+04  0.19016544551E+04  0.50400001928E-02 0. -1.
        1   -1    0    0  501    0  0.00000000000E+00  0.00000000000E+00 -0.17170344327E+04  0.17170344327E+04  0.50400001928E-02 0.  1.
    10030    2    1    2    0    0  0.00000000000E+00  0.00000000000E+00  0.18462002245E+03  0.36186888878E+04  0.36139763024E+04 0.  0.
        1    1    3    3  502    0 -0.10079204749E+04  0.22455080539E+03 -0.13924855298E+04  0.17335924258E+04  0.50400001928E-02 0.  1.
       -1    1    3    3    0  502  0.10079204749E+04 -0.22455080539E+03  0.15771055523E+04  0.18850964620E+04  0.50400001928E-02 0. -1.
</event>
<event>
 5   0  0.2198900E-07  0.3613859E+04  0.7818609E-02  0.8087324E-01
       -2   -1    0    0    0  501  0.00000000000E+00  0.00000000000E+00  0.12829272464E+04  0.12829272464E+04  0.25500000920E-02 0. -1.
        2   -1    0    0  501    0  0.00000000000E+00  0.00000000000E+00 -0.25449571668E+04  0.25449571668E+04  0.25500000920E-02 0.  1.
    10030    2    1    2    0    0  0.00000000000E+00  0.00000000000E+00 -0.12620299204E+04  0.38278844131E+04  0.36138593720E+04 0.  0.
        2    1    3    3  502    0  0.16446817999E+03 -0.40596271960E+03  0.12258430501E+04  0.13017475544E+04  0.25500000920E-02 0. -1.
       -2    1    3    3    0  502 -0.16446817999E+03  0.40596271960E+03 -0.24878729705E+04  0.25261368588E+04  0.25500000920E-02 0.  1.
</event>
<event>
 5   0  0.7236375E-08  0.3511370E+04  0.7818609E-02  0.8111101E-01
        1   -1    0    0  501    0  0.00000000000E+00  0.00000000000E+00  0.21989301900E+04  0.21989301900E+04  0.50400001928E-02 0.  1.
       -1   -1    0    0    0  501  0.00000000000E+00  0.00000000000E+00 -0.14017858770E+04  0.14017858770E+04  0.50400001928E-02 0. -1.
    10030    2    1    2    0    0  0.00000000000E+00  0.00000000000E+00  0.79714431302E+03  0.36007160670E+04  0.35113696957E+04 0.  0.
        1    1    3    3  502    0 -0.80026837401E+03 -0.81984945519E+03  0.17627787471E+04  0.21023728287E+04  0.50400001928E-02 0.  1.
       -1    1    3    3    0  502  0.80026837401E+03  0.81984945519E+03 -0.96563443406E+03  0.14983432383E+04  0.50400001928E-02 0. -1.
</event>
<event>
 5   0  0.7347303E-08  0.3596055E+04  0.7818609E-02  0.8091396E-01
       -1   -1    0    0    0  501  0.00000000000E+00  0.00000000000E+00  0.12094158555E+04  0.12094158555E+04  0.50400001928E-02 0.  1.
        1   -1    0    0  501    0  0.00000000000E+00  0.00000000000E+00 -0.26731117673E+04  0.26731117673E+04  0.50400001928E-02 0. -1.
    10030    2    1    2    0    0  0.00000000000E+00  0.00000000000E+00 -0.14636959118E+04  0.38825276229E+04  0.35960554807E+04 0.  0.
        2    1    3    3  502    0 -0.77223502810E+03 -0.11682773519E+04 -0.19493730433E+04  0.24002654377E+04  0.25500000920E-02 0. -1.
       -2    1    3    3    0  502  0.77223502810E+03  0.11682773519E+04  0.48567713143E+03  0.14822621852E+04  0.25500000920E-02 0.  1.
</event>
<event>
 5   0  0.2342606E-07  0.3607808E+04  0.7818609E-02  0.8088705E-01
        2   -1    0    0  501    0  0.00000000000E+00  0.00000000000E+00  0.14540964308E+04  0.14540964308E+04  0.25500000920E-02 0. -1.
       -2   -1    0    0    0  501  0.00000000000E+00  0.00000000000E+00 -0.22378642637E+04  0.22378642637E+04  0.25500000920E-02 0.  1.
    10030    2    1    2    0    0  0.00000000000E+00  0.00000000000E+00 -0.78376783288E+03  0.36919606945E+04  0.36078084419E+04 0.  0.
        5    1    3    3  502    0  0.15762472114E+04 -0.44558153481E+02  0.50462570370E+03  0.16556599564E+04  0.46999998093E+01 0. -1.
       -5    1    3    3    0  502 -0.15762472114E+04  0.44558153481E+02 -0.12883935366E+04  0.20363007380E+04  0.46999998093E+01 0.  1.
</event>
<event>
 5   0  0.7236375E-08  0.3613421E+04  0.7818609E-02  0.8087424E-01
        1   -1    0    0  501    0  0.00000000000E+00  0.00000000000E+00  0.26014424469E+04  0.26014424469E+04  0.50400001928E-02 0. -1.
       -1   -1    0    0    0  501  0.00000000000E+00  0.00000000000E+00 -0.12547662883E+04  0.12547662883E+04  0.50400001928E-02 0.  1.
    10030    2    1    2    0    0  0.00000000000E+00  0.00000000000E+00  0.13466761586E+04  0.38562087353E+04  0.36134206970E+04 0.  0.
        1    1    3    3  502    0  0.30316195320E+03 -0.97339500235E+03 -0.91845726091E+03  0.13722130813E+04  0.50400001928E-02 0.  1.
       -1    1    3    3    0  502 -0.30316195320E+03  0.97339500235E+03  0.22651334195E+04  0.24839956539E+04  0.50400001928E-02 0. -1.
</event>
<event>
 5   0  0.2309391E-07  0.3592958E+04  0.7818609E-02  0.8092107E-01
        2   -1    0    0  501    0  0.00000000000E+00  0.00000000000E+00  0.12739026669E+04  0.12739026669E+04  0.25500000920E-02 0.  1.
       -2   -1    0    0    0  501  0.00000000000E+00  0.00000000000E+00 -0.25334246181E+04  0.25334246181E+04  0.25500000920E-02 0. -1.
    10030    2    1    2    0    0  0.00000000000E+00  0.00000000000E+00 -0.12595219511E+04  0.38073272850E+04  0.35929577662E+04 0.  0.
        4    1    3    3  502    0  0.13626906414E+04 -0.95764449897E+03 -0.13432271865E+04  0.21396891498E+04  0.12699999809E+01 0. -1.
       -4    1    3    3    0  502 -0.13626906414E+04  0.95764449897E+03  0.83705235316E+02  0.16676381352E+04  0.12699999809E+01 0.  1.
</event>
<event>
 5   0  0.7236375E-08  0.3591844E+04  0.7818609E-02  0.8092362E-01
        3   -1    0    0  501    0  0.00000000000E+00  0.00000000000E+00  0.19300365878E+04  0.19300365905E+04  0.10100000352E+00 0. -1.
       -3   -1    0    0    0  501  0.00000000000E+00  0.00000000000E+00 -0.16711268403E+04  0.16711268433E+04  0.10100000352E+00 0.  1.
    10030    2    1    2    0    0  0.00000000000E+00  0.00000000000E+00  0.25890974757E+03  0.36011634338E+04  0.35918440695E+04 0.  0.
        3    1    3    3  502    0  0.12956164876E+04 -0.93160565552E+03  0.95550080378E+03  0.18599712301E+04  0.10100000352E+00 0. -1.
       -3    1    3    3    0  502 -0.12956164876E+04  0.93160565552E+03 -0.69659105622E+03  0.17411922037E+04  0.10100000352E+00 0.  1.
</event>
<event>
 5   0  0.2238968E-07  0.3611394E+04  0.7818609E-02  0.8087887E-01
        2   -1    0    0  501    0  0.00000000000E+00  0.00000000000E+00  0.21929722132E+04  0.21929722132E+04  0.25500000920E-02 0.  1.
       -2   -1    0    0    0  501  0.00000000000E+00  0.00000000000E+00 -0.14868136132E+04  0.14868136132E+04  0.25500000920E-02 0. -1.
    10030    2    1    2    0    0  0.00000000000E+00  0.00000000000E+00  0.70615860003E+03  0.36797858263E+04  0.36113936035E+04 0.  0.
        3    1    3    3  502    0  0.83087284132E+03  0.12387141102E+04  0.13900851007E+04  0.20388964962E+04  0.10100000352E+00 0.  1.
       -3    1    3    3    0  502 -0.83087284132E+03 -0.12387141102E+04 -0.68392650063E+03  0.16408893301E+04  0.10100000352E+00 0. -1.
</event>
<event>
 5   0  0.2238968E-07  0.3581264E+04  0.7818609E-02  0.8094797E-01
        2   -1    0    0  501    0  0.00000000000E+00  0.00000000000E+00  0.13635778764E+04  0.13635778764E+04  0.25500000920E-02 0. -1.
       -2   -1    0    0    0  501  0.00000000000E+00  0.00000000000E+00 -0.23514339011E+04  0.23514339011E+04  0.25500000920E-02 0.  1.
    10030    2    1    2    0    0  0.00000000000E+00  0.00000000000E+00 -0.98785602467E+03  0.37150117775E+04  0.35812641597E+04 0.  0.
        3    1    3    3  502    0 -0.16546014078E+04  0.34714675029E+03  0.11814733322E+03  0.16947493878E+04  0.10100000352E+00 0. -1.
       -3    1    3    3    0  502  0.16546014078E+04 -0.34714675029E+03 -0.11060033579E+04  0.20202623896E+04  0.10100000352E+00 0.  1.
</event>
<event>
 5   0  0.7261233E-08  0.3598476E+04  0.7818609E-02  0.8090841E-01
        1   -1    0    0  501    0  0.00000000000E+00  0.00000000000E+00  0.20684663931E+04  0.20684663931E+04  0.50400001928E-02 0. -1.
       -1   -1    0    0    0  501  0.00000000000E+00  0.00000000000E+00 -0.15650516412E+04  0.15650516412E+04  0.50400001928E-02 0.  1.
    10030    2    1    2    0    0  0.00000000000E+00  0.00000000000E+00  0.50341475186E+03  0.36335180343E+04  0.35984756346E+04 0.  0.
        3    1    3    3  502    0 -0.53065643764E+02  0.75061268885E+03 -0.13985338514E+04  0.15881222607E+04  0.10100000352E+00 0.  1.
       -3    1    3    3    0  502  0.53065643764E+02 -0.75061268885E+03  0.19019486032E+04  0.20453957736E+04  0.10100000352E+00 0. -1.
</event>
<event>
 5   0  0.2198900E-07  0.3587250E+04  0.7818609E-02  0.8093418E-01
        2   -1    0    0  501    0  0.00000000000E+00  0.00000000000E+00  0.21372151979E+04  0.21372151979E+04  0.25500000920E-02 0.  1.
       -2   -1    0    0    0  501  0.00000000000E+00  0.00000000000E+00 -0.15052721825E+04  0.15052721825E+04  0.25500000920E-02 0. -1.
    10030    2    1    2    0    0  0.00000000000E+00  0.00000000000E+00  0.63194301544E+03  0.36424873805E+04  0.35872499693E+04 0.  0.
        2    1    3    3  502    0  0.78304904656E+02  0.11487215945E+03  0.21317362262E+04  0.21362646393E+04  0.25500000920E-02 0.  1.
       -2    1    3    3    0  502 -0.78304904656E+02 -0.11487215945E+03 -0.14997932107E+04  0.15062227412E+04  0.25500000920E-02 0. -1.
</event>
<event>
 5   0  0.2309391E-07  0.3599519E+04  0.7818609E-02  0.8090602E-01
       -2   -1    0    0    0  501  0.00000000000E+00  0.00000000000E+00  0.12702688567E+04  0.12702688567E+04  0.25500000920E-02 0. -1.
        2   -1    0    0  501    0  0.00000000000E+00  0.00000000000E+00 -0.25499599326E+04  0.25499599326E+04  0.25500000920E-02 0.  1.
    10030    2    1    2    0    0  0.00000000000E+00  0.00000000000E+00 -0.12796910759E+04  0.38202287893E+04  0.35995192391E+04 0.  0.
        4    1    3    3  502    0 -0.11248265869E+04 -0.83498390664E+03 -0.18390391880E+04  0.23118174069E+04  0.12699999809E+01 0.  1.
       -4    1    3    3    0  502  0.11248265869E+04  0.83498390664E+03  0.55934811217E+03  0.15084113823E+04  0.12699999809E+01 0. -1.
</event>
<event>
 5   0  0.2309391E-07  0.3616531E+04  0.7818609E-02  0.8086716E-01
       -2   -1    0    0    0  501  0.00000000000E+00  0.00000000000E+00  0.14967063379E+04  0.14967063379E+04  0.25500000920E-02 0. -1.
        2   -1    0    0  501    0  0.00000000000E+00  0.00000000000E+00 -0.21846792732E+04  0.21846792732E+04  0.25500000920E-02 0.  1.
    10030    2    1    2    0    0  0.00000000000E+00  0.00000000000E+00 -0.68797293527E+03  0.36813856112E+04  0.36165305554E+04 0.  0.
        4    1    3    3  502    0 -0.53270892302E+03 -0.75326375294E+02 -0.21013199312E+04  0.21691011792E+04  0.12699999809E+01 0.  1.
       -4    1    3    3    0  502  0.53270892302E+03  0.75326375294E+02  0.14133469959E+04  0.15122844320E+04  0.12699999809E+01 0. -1.
</event>
<event>
 5   0  0.7514289E-08  0.3602093E+04  0.7818609E-02  0.8090013E-01
        1   -1    0    0  501    0  0.00000000000E+00  0.00000000000E+00  0.15641748072E+04  0.15641748072E+04  0.50400001928E-02 0. -1.
       -1   -1    0    0    0  501  0.00000000000E+00  0.00000000000E+00 -0.20737884446E+04  0.20737884446E+04  0.50400001928E-02 0.  1.
    10030    2    1    2    0    0  0.00000000000E+00  0.00000000000E+00 -0.50961363738E+03  0.36379632518E+04  0.36020925255E+04 0.  0.
        4    1    3    3  502    0 -0.15641643253E+04  0.72356711217E+03  0.27347631850E+03  0.17449785994E+04  0.12699999809E+01 0. -1.
       -4    1    3    3    0  502  0.15641643253E+04 -0.72356711217E+03 -0.78308995588E+03  0.18929846524E+04  0.12699999809E+01 0.  1.
</event>
<event>
 5   0  0.7236375E-08  0.3602329E+04  0.7818609E-02  0.8089958E-01
        1   -1    0    0  501    0  0.00000000000E+00  0.00000000000E+00  0.23663259370E+04  0.23663259370E+04  0.50400001928E-02 0.  1.
       -1   -1    0    0    0  501  0.00000000000E+00  0.00000000000E+00 -0.13709835096E+04  0.13709835096E+04  0.50400001928E-02 0. -1.
    10030    2    1    2    0    0  0.00000000000E+00  0.00000000000E+00  0.99534242734E+03  0.37373094466E+04  0.36023291565E+04 0.  0.
        5    1    3    3  502    0 -0.68960879807E+03  0.64579150558E+03  0.20886124527E+04  0.22923636340E+04  0.46999998093E+01 0.  1.
       -5    1    3    3    0  502  0.68960879807E+03 -0.64579150558E+03 -0.10932700253E+04  0.14449458126E+04  0.46999998093E+01 0. -1.
</event>
<event>
 5   0  0.7236375E-08  0.3599621E+04  0.7818609E-02  0.8090579E-01
       -1   -1    0    0    0  501  0.00000000000E+00  0.00000000000E+00  0.14869691963E+04  0.14869691963E+04  0.50400001928E-02 0.  1.
        1   -1    0    0  501    0  0.00000000000E+00  0.00000000000E+00 -0.21784695172E+04  0.21784695173E+04  0.50400001928E-02 0. -1.
    10030    2    1    2    0    0  0.00000000000E+00  0.00000000000E+00 -0.69150032097E+03  0.36654387135E+04  0.35996205729E+04 0.  0.
        1    1    3    3  502    0 -0.13356866171E+04  0.12031592484E+04 -0.43490766968E+03  0.18495392932E+04  0.50400001928E-02 0. -1.
       -1    1    3    3    0  502  0.13356866171E+04 -0.12031592484E+04 -0.25659265129E+03  0.18158994203E+04  0.50400001928E-02 0.  1.
</event>
<event>
 5   0  0.7514289E-08  0.3560302E+04  0.7818609E-02  0.8099646E-01
       -1   -1    0    0    0  501  0.00000000000E+00  0.00000000000E+00  0.13733104961E+04  0.13733104961E+04  0.50400001928E-02 0.  1.
        1   -1    0    0  501    0  0.00000000000E+00  0.00000000000E+00 -0.23075177005E+04  0.23075177005E+04  0.50400001928E-02 0. -1.
    10030    2    1    2    0    0  0.00000000000E+00  0.00000000000E+00 -0.93420720439E+03  0.36808281966E+04  0.35603023905E+04 0.  0.
        4    1    3    3  502    0 -0.63600444353E+03  0.16615159854E+04 -0.53083156922E+03  0.18565884815E+04  0.12699999809E+01 0.  1.
       -4    1    3    3    0  502  0.63600444353E+03 -0.16615159854E+04 -0.40337563517E+03  0.18242397150E+04  0.12699999809E+01 0. -1.
</event>
<event>
 5   0  0.7236375E-08  0.3548744E+04  0.7818609E-02  0.8102334E-01
       -1   -1    0    0    0  501  0.00000000000E+00  0.00000000000E+00  0.22179130039E+04  0.22179130039E+04  0.50400001928E-02 0.  1.
        1   -1    0    0  501    0  0.00000000000E+00  0.00000000000E+00 -0.14195311195E+04  0.14195311196E+04  0.50400001928E-02 0. -1.
    10030    2    1    2    0    0  0.00000000000E+00  0.00000000000E+00  0.79838188434E+03  0.36374441234E+04  0.35487443016E+04 0.  0.
        1    1    3    3  502    0 -0.14675274952E+04  0.75820022813E+03  0.10633780167E+04  0.19645043501E+04  0.50400001928E-02 0. -1.
       -1    1    3    3    0  502  0.14675274952E+04 -0.75820022813E+03 -0.26499613232E+03  0.16729397734E+04  0.50400001928E-02 0.  1.
</event>
<event>
 5   0  0.2198900E-07  0.3691962E+04  0.7818609E-02  0.8069746E-01
       -2   -1    0    0    0  501  0.00000000000E+00  0.00000000000E+00  0.18593753668E+04  0.18593753668E+04  0.25500000920E-02 0.  1.
        2   -1    0    0  501    0  0.00000000000E+00  0.00000000000E+00 -0.18326826591E+04  0.18326826591E+04  0.25500000920E-02 0. -1.
    10030    2    1    2    0    0  0.00000000000E+00  0.00000000000E+00  0.26692707774E+02  0.36920580259E+04  0.36919615337E+04 0.  0.
        2    1    3    3  502    0  0.55464788296E+03 -0.14302444003E+04  0.10402186873E+04  0.18534530575E+04  0.25500000920E-02 0.  1.
       -2    1    3    3    0  502 -0.55464788296E+03  0.14302444003E+04 -0.10135259795E+04  0.18386049684E+04  0.25500000920E-02 0. -1.
</event>
<event>
 5   0  0.7514289E-08  0.3588315E+04  0.7818609E-02  0.8093174E-01
        1   -1    0    0  501    0  0.00000000000E+00  0.00000000000E+00  0.17205943399E+04  0.17205943399E+04  0.50400001928E-02 0.  1.
       -1   -1    0    0    0  501  0.00000000000E+00  0.00000000000E+00 -0.18708657100E+04  0.18708657100E+04  0.50400001928E-02 0. -1.
    10030    2    1    2    0    0  0.00000000000E+00  0.00000000000E+00 -0.15027137010E+03  0.35914600499E+04  0.35883148977E+04 0.  0.
        4    1    3    3  502    0  0.17429012126E+04  0.90917943464E+02  0.34119601050E+03  0.17783101641E+04  0.12699999809E+01 0.  1.
       -4    1    3    3    0  502 -0.17429012126E+04 -0.90917943464E+02 -0.49146738059E+03  0.18131498858E+04  0.12699999809E+01 0. -1.
</event>
<event>
 5   0  0.2198900E-07  0.3611730E+04  0.7818609E-02  0.8087810E-01
        2   -1    0    0  501    0  0.00000000000E+00  0.00000000000E+00  0.30405887045E+04  0.30405887045E+04  0.25500000920E-02 0. -1.
       -2   -1    0    0    0  501  0.00000000000E+00  0.00000000000E+00 -0.10725384462E+04  0.10725384462E+04  0.25500000920E-02 0.  1.
    10030    2    1    2    0    0  0.00000000000E+00  0.00000000000E+00  0.19680502583E+04  0.41131271507E+04  0.36117299370E+04 0.  0.
        2    1    3    3  502    0 -0.19673379706E+03  0.12787906335E+04 -0.45068543141E+03  0.13700828549E+04  0.25500000920E-02 0.  1.
       -2    1    3    3    0  502  0.19673379706E+03 -0.12787906335E+04  0.24187356898E+04  0.27430442957E+04  0.25500000920E-02 0. -1.
</event>
<event>
 5   0  0.7236375E-08  0.3589386E+04  0.7818609E-02  0.8092927E-01
       -1   -1    0    0    0  501  0.00000000000E+00  0.00000000000E+00  0.29434315362E+04  0.29434315362E+04  0.50400001928E-02 0.  1.
        1   -1    0    0  501    0  0.00000000000E+00  0.00000000000E+00 -0.10942749227E+04  0.10942749227E+04  0.50400001928E-02 0. -1.
    10030    2    1    2    0    0  0.00000000000E+00  0.00000000000E+00  0.18491566135E+04  0.40377064589E+04  0.35893861964E+04 0.  0.
        1    1    3    3  502    0 -0.10262161240E+04  0.11802735636E+04  0.19147206115E+04  0.24723107083E+04  0.50400001928E-02 0. -1.
       -1    1    3    3    0  502  0.10262161240E+04 -0.11802735636E+04 -0.65563998032E+02  0.15653957506E+04  0.50400001928E-02 0.  1.
</event>
<event>
 5   0  0.7261233E-08  0.3653358E+04  0.7818609E-02  0.8078378E-01
       -1   -1    0    0    0  501  0.00000000000E+00  0.00000000000E+00  0.20241517583E+04  0.20241517584E+04  0.50400001928E-02 0. -1.
        1   -1    0    0  501    0  0.00000000000E+00  0.00000000000E+00 -0.16484710413E+04  0.16484710413E+04  0.50400001928E-02 0.  1.
    10030    2    1    2    0    0  0.00000000000E+00  0.00000000000E+00  0.37568071704E+03  0.36726227997E+04  0.36533576649E+04 0.  0.
        3    1    3    3  502    0  0.90757774066E+03  0.21632206521E+03 -0.13908749634E+04  0.16748211144E+04  0.10100000352E+00 0.  1.
       -3    1    3    3    0  502 -0.90757774066E+03 -0.21632206521E+03  0.17665556805E+04  0.19978016853E+04  0.10100000352E+00 0. -1.
</event>
<event>
 5   0  0.2198900E-07  0.3727343E+04  0.7818609E-02  0.8061929E-01
       -2   -1    0    0    0  501  0.00000000000E+00  0.00000000000E+00  0.29128878236E+04  0.29128878236E+04  0.25500000920E-02 0. -1.
        2   -1    0    0  501    0  0.00000000000E+00  0.00000000000E+00 -0.11923806893E+04  0.11923806893E+04  0.25500000920E-02 0.  1.
    10030    2    1    2    0    0  0.00000000000E+00  0.00000000000E+00  0.17205071343E+04  0.41052685129E+04  0.37273428557E+04 0.  0.
        2    1    3    3  502    0 -0.16238651047E+04  0.84735334440E+03  0.12391160706E+04  0.22114145258E+04  0.25500000920E-02 0.  1.
       -2    1    3    3    0  502  0.16238651047E+04 -0.84735334440E+03  0.48139106368E+03  0.18938539871E+04  0.25500000920E-02 0. -1.
</event>
<event>
 5   0  0.2199902E-07  0.3606105E+04  0.7818609E-02  0.8089095E-01
       -2   -1    0    0    0  501  0.00000000000E+00  0.00000000000E+00  0.29168439150E+04  0.29168439150E+04  0.25500000920E-02 0.  1.
        2   -1    0    0  501    0  0.00000000000E+00  0.00000000000E+00 -0.11145600779E+04  0.11145600779E+04  0.25500000920E-02 0. -1.
    10030    2    1    2    0    0  0.00000000000E+00  0.00000000000E+00  0.18022838372E+04  0.40314039929E+04  0.36061047024E+04 0.  0.
        1    1    3    3  502    0  0.17149378579E+04  0.18052835348E+03  0.31234212812E+03  0.17524725242E+04  0.50400001928E-02 0. -1.
       -1    1    3    3    0  502 -0.17149378579E+04 -0.18052835348E+03  0.14899417090E+04  0.22789314688E+04  0.50400001928E-02 0.  1.
</event>
<event>
 5   0  0.2342606E-07  0.3600447E+04  0.7818609E-02  0.8090389E-01
       -2   -1    0    0    0  501  0.00000000000E+00  0.00000000000E+00  0.29720104524E+04  0.29720104524E+04  0.25500000920E-02 0.  1.
        2   -1    0    0  501    0  0.00000000000E+00  0.00000000000E+00 -0.10904418255E+04  0.10904418255E+04  0.25500000920E-02 0. -1.
    10030    2    1    2    0    0  0.00000000000E+00  0.00000000000E+00  0.18815686269E+04  0.40624522779E+04  0.36004469185E+04 0.  0.
        5    1    3    3  502    0 -0.62416064005E+03  0.16055256423E+03  0.28373768725E+04  0.29096534565E+04  0.46999998093E+01 0.  1.
       -5    1    3    3    0  502  0.62416064005E+03 -0.16055256423E+03 -0.95580824554E+03  0.11527988214E+04  0.46999998093E+01 0. -1.
</event>
<event>
 5   0  0.7514289E-08  0.3601894E+04  0.7818609E-02  0.8090058E-01
       -1   -1    0    0    0  501  0.00000000000E+00  0.00000000000E+00  0.10991905970E+04  0.10991905970E+04  0.50400001928E-02 0. -1.
        1   -1    0    0  501    0  0.00000000000E+00  0.00000000000E+00 -0.29507252226E+04  0.29507252226E+04  0.50400001928E-02 0.  1.
    10030    2    1    2    0    0  0.00000000000E+00  0.00000000000E+00 -0.18515346255E+04  0.40499158196E+04  0.36018936237E+04 0.  0.
        4    1    3    3  502    0 -0.38540866085E+03  0.59918763016E+03 -0.27855432839E+04  0.28752075840E+04  0.12699999809E+01 0.  1.
       -4    1    3    3    0  502  0.38540866085E+03 -0.59918763016E+03  0.93400865835E+03  0.11747082356E+04  0.12699999809E+01 0. -1.
</event>
<event>
 5   0  0.7236375E-08  0.3601317E+04  0.7818609E-02  0.8090190E-01
       -1   -1    0    0    0  501  0.00000000000E+00  0.00000000000E+00  0.12242828857E+04  0.12242828857E+04  0.50400001928E-02 0.  1.
        1   -1    0    0  501    0  0.00000000000E+00  0.00000000000E+00 -0.26483839164E+04  0.26483839164E+04  0.50400001928E-02 0. -1.
    10030    2    1    2    0    0  0.00000000000E+00  0.00000000000E+00 -0.14241010307E+04  0.38726668021E+04  0.36013170389E+04 0.  0.
        1    1    3    3  502    0  0.13311454692E+03 -0.37398489888E+02 -0.26426668343E+04  0.26462815660E+04  0.50400001928E-02 0. -1.
       -1    1    3    3    0  502 -0.13311454692E+03  0.37398489888E+02  0.12185658036E+04  0.12263852361E+04  0.50400001928E-02 0.  1.
</event>
<event>
 5   0  0.7236375E-08  0.3582995E+04  0.7818609E-02  0.8094398E-01
       -1   -1    0    0    0  501  0.00000000000E+00  0.00000000000E+00  0.13471240503E+04  0.13471240503E+04  0.50400001928E-02 0. -1.
        1   -1    0    0  501    0  0.00000000000E+00  0.00000000000E+00 -0.23824560114E+04  0.23824560114E+04  0.50400001928E-02 0.  1.
    10030    2    1    2    0    0  0.00000000000E+00  0.00000000000E+00 -0.10353319611E+04  0.37295800617E+04  0.35829952787E+04 0.  0.
        5    1    3    3  502    0  0.11100435106E+04 -0.80244513145E+03  0.68427189784E+03  0.15311319031E+04  0.46999998093E+01 0. -1.
       -5    1    3    3    0  502 -0.11100435106E+04  0.80244513145E+03 -0.17196038590E+04  0.21984481586E+04  0.46999998093E+01 0.  1.
</event>
<event>
 5   0  0.2238968E-07  0.3609072E+04  0.7818609E-02  0.8088417E-01
       -2   -1    0    0    0  501  0.00000000000E+00  0.00000000000E+00  0.17335481626E+04  0.17335481626E+04  0.25500000920E-02 0. -1.
        2   -1    0    0  501    0  0.00000000000E+00  0.00000000000E+00 -0.18784312303E+04  0.18784312303E+04  0.25500000920E-02 0.  1.
    10030    2    1    2    0    0  0.00000000000E+00  0.00000000000E+00 -0.14488306766E+03  0.36119793929E+04  0.36090724614E+04 0.  0.
        3    1    3    3  502    0 -0.10384247381E+04  0.11329573748E+04 -0.10189477789E+04  0.18439557847E+04  0.10100000352E+00 0.  1.
       -3    1    3    3    0  502  0.10384247381E+04 -0.11329573748E+04  0.87406471119E+03  0.17680236082E+04  0.10100000352E+00 0. -1.
</event>
<event>
 5   0  0.2198900E-07  0.3598874E+04  0.7818609E-02  0.8090750E-01
       -2   -1    0    0    0  501  0.00000000000E+00  0.00000000000E+00  0.20298906620E+04  0.20298906620E+04  0.25500000920E-02 0.  1.
        2   -1    0    0  501    0  0.00000000000E+00  0.00000000000E+00 -0.15951466407E+04  0.15951466407E+04  0.25500000920E-02 0. -1.
    10030    2    1    2    0    0  0.00000000000E+00  0.00000000000E+00  0.43474402123E+03  0.36250373027E+04  0.35988738630E+04 0.  0.
        2    1    3    3  502    0 -0.64788976337E+03 -0.12061351212E+04  0.13935295416E+04  0.19535730494E+04  0.25500000920E-02 0.  1.
       -2    1    3    3    0  502  0.64788976337E+03  0.12061351212E+04 -0.95878552035E+03  0.16714642533E+04  0.25500000920E-02 0. -1.
</event>
<event>
 5   0  0.7347303E-08  0.3603625E+04  0.7818609E-02  0.8089662E-01
        1   -1    0    0  501    0  0.00000000000E+00  0.00000000000E+00  0.18499451850E+04  0.18499451850E+04  0.50400001928E-02 0. -1.
       -1   -1    0    0    0  501  0.00000000000E+00  0.00000000000E+00 -0.17549319274E+04  0.17549319274E+04  0.50400001928E-02 0.  1.
    10030    2    1    2    0    0  0.00000000000E+00  0.00000000000E+00  0.95013257600E+02  0.36048771124E+04  0.36036247690E+04 0.  0.
        2    1    3    3  502    0  0.55887468372E+03  0.73260464887E+03 -0.15014104229E+04  0.17616139593E+04  0.25500000920E-02 0.  1.
       -2    1    3    3    0  502 -0.55887468372E+03 -0.73260464887E+03  0.15964236805E+04  0.18432631530E+04  0.25500000920E-02 0. -1.
</event>
<event>
 5   0  0.7347303E-08  0.3598636E+04  0.7818609E-02  0.8090804E-01
       -1   -1    0    0    0  501  0.00000000000E+00  0.00000000000E+00  0.15075808588E+04  0.15075808588E+04  0.50400001928E-02 0. -1.
        1   -1    0    0  501    0  0.00000000000E+00  0.00000000000E+00 -0.21475097050E+04  0.21475097050E+04  0.50400001928E-02 0.  1.
    10030    2    1    2    0    0  0.00000000000E+00  0.00000000000E+00 -0.63992884617E+03  0.36550905638E+04  0.35986355889E+04 0.  0.
        2    1    3    3  502    0 -0.11075218468E+04  0.13433159298E+04 -0.78145146149E+03  0.19083418758E+04  0.25500000920E-02 0.  1.
       -2    1    3    3    0  502  0.11075218468E+04 -0.13433159298E+04  0.14152261532E+03  0.17467486880E+04  0.25500000920E-02 0. -1.
</event>
<event>
 5   0  0.2309391E-07  0.3604578E+04  0.7818609E-02  0.8089444E-01
       -2   -1    0    0    0  501  0.00000000000E+00  0.00000000000E+00  0.24413195230E+04  0.24413195230E+04  0.25500000920E-02 0.  1.
        2   -1    0    0  501    0  0.00000000000E+00  0.00000000000E+00 -0.13305289087E+04  0.13305289087E+04  0.25500000920E-02 0. -1.
    10030    2    1    2    0    0  0.00000000000E+00  0.00000000000E+00  0.11107906143E+04  0.37718484317E+04  0.36045783114E+04 0.  0.
        4    1    3    3  502    0  0.89444402744E+03 -0.14102802681E+04 -0.15378938569E+03  0.16770728490E+04  0.12699999809E+01 0. -1.
       -4    1    3    3    0  502 -0.89444402744E+03  0.14102802681E+04  0.12645799999E+04  0.20947755827E+04  0.12699999809E+01 0.  1.
</event>
<event>
 5   0  0.7261233E-08  0.3589210E+04  0.7818609E-02  0.8092968E-01
       -1   -1    0    0    0  501  0.00000000000E+00  0.00000000000E+00  0.13033787249E+04  0.13033787249E+04  0.50400001928E-02 0.  1.
        1   -1    0    0  501    0  0.00000000000E+00  0.00000000000E+00 -0.24709681749E+04  0.24709681749E+04  0.50400001928E-02 0. -1.
    10030    2    1    2    0    0  0.00000000000E+00  0.00000000000E+00 -0.11675894500E+04  0.37743468998E+04  0.35892101354E+04 0.  0.
        3    1    3    3  502    0  0.15046729484E+04 -0.96998933891E+03 -0.45208508030E+03  0.18464292375E+04  0.10100000352E+00 0.  1.
       -3    1    3    3    0  502 -0.15046729484E+04  0.96998933891E+03 -0.71550436970E+03  0.19279176622E+04  0.10100000352E+00 0. -1.
</event>
<event>
 5   0  0.2199902E-07  0.3629016E+04  0.7818609E-02  0.8083877E-01
        2   -1    0    0  501    0  0.00000000000E+00  0.00000000000E+00  0.28736460756E+04  0.28736460756E+04  0.25500000920E-02 0.  1.
       -2   -1    0    0    0  501  0.00000000000E+00  0.00000000000E+00 -0.11457357068E+04  0.11457357068E+04  0.25500000920E-02 0. -1.
    10030    2    1    2    0    0  0.00000000000E+00  0.00000000000E+00  0.17279103688E+04  0.40193817824E+04  0.36290157991E+04 0.  0.
        1    1    3    3  502    0 -0.17455752654E+04  0.30328829496E+03  0.12977800004E+04  0.21961898203E+04  0.50400001928E-02 0.  1.
       -1    1    3    3    0  502  0.17455752654E+04 -0.30328829496E+03  0.43013036833E+03  0.18231919621E+04  0.50400001928E-02 0. -1.
</event>
<event>
 5   0  0.7347303E-08  0.3613590E+04  0.7818609E-02  0.8087386E-01
        1   -1    0    0  501    0  0.00000000000E+00  0.00000000000E+00  0.13575357595E+04  0.13575357595E+04  0.50400001928E-02 0.  1.
       -1   -1    0    0    0  501  0.00000000000E+00  0.00000000000E+00 -0.24047305540E+04  0.24047305540E+04  0.50400001928E-02 0. -1.
    10030    2    1    2    0    0  0.00000000000E+00  0.00000000000E+00 -0.10471947945E+04  0.37622663136E+04  0.36135897494E+04 0.  0.
        2    1    3    3  502    0 -0.15859043675E+04  0.86259600466E+03 -0.44749278750E+03  0.18599500867E+04  0.25500000920E-02 0. -1.
       -2    1    3    3    0  502  0.15859043675E+04 -0.86259600466E+03 -0.59970200697E+03  0.19023162269E+04  0.25500000920E-02 0.  1.
</event>
<event>
 5   0  0.7514289E-08  0.3683072E+04  0.7818609E-02  0.8071724E-01
        1   -1    0    0  501    0  0.00000000000E+00  0.00000000000E+00  0.21692914048E+04  0.21692914048E+04  0.50400001928E-02 0.  1.
       -1   -1    0    0    0  501  0.00000000000E+00  0.00000000000E+00 -0.15633007419E+04  0.15633007419E+04  0.50400001928E-02 0. -1.
    10030    2    1    2    0    0  0.00000000000E+00  0.00000000000E+00  0.60599066281E+03  0.37325921467E+04  0.36830720126E+04 0.  0.
        4    1    3    3  502    0 -0.13008971365E+04 -0.59571643163E+03 -0.87192040080E+03  0.16755471420E+04  0.12699999809E+01 0. -1.
       -4    1    3    3    0  502  0.13008971365E+04  0.59571643163E+03  0.14779110636E+04  0.20570450047E+04  0.12699999809E+01 0.  1.
</event>
<event>
 5   0  0.2309391E-07  0.3491987E+04  0.7818609E-02  0.8115691E-01
        2   -1    0    0  501    0  0.00000000000E+00  0.00000000000E+00  0.14964521936E+04  0.14964521936E+04  0.25500000920E-02 0.  1.
       -2   -1    0    0    0  501  0.00000000000E+00  0.00000000000E+00 -0.20371474757E+04  0.20371474757E+04  0.25500000920E-02 0. -1.
    10030    2    1    2    0    0  0.00000000000E+00  0.00000000000E+00 -0.54069528216E+03  0.35335996693E+04  0.34919872902E+04 0.  0.
        4    1    3    3  502    0  0.32294173678E+03  0.16367130522E+04 -0.79162828341E+03  0.18465638177E+04  0.12699999809E+01 0. -1.
       -4    1    3    3    0  502 -0.32294173678E+03 -0.16367130522E+04  0.25093300125E+03  0.16870358516E+04  0.12699999809E+01 0.  1.
</event>
<event>
 5   0  0.2198900E-07  0.3601927E+04  0.7818609E-02  0.8090051E-01
       -2   -1    0    0    0  501  0.00000000000E+00  0.00000000000E+00  0.12778772135E+04  0.12778772135E+04  0.25500000920E-02 0. -1.
        2   -1    0    0  501    0  0.00000000000E+00  0.00000000000E+00 -0.25381692842E+04  0.25381692842E+04  0.25500000920E-02 0.  1.
    10030    2    1    2    0    0  0.00000000000E+00  0.00000000000E+00 -0.12602920707E+04  0.38160464978E+04  0.36019265358E+04 0.  0.
        2    1    3    3  502    0 -0.12094532665E+04 -0.12269894793E+04 -0.74377706043E+02  0.17244745371E+04  0.25500000920E-02 0. -1.
       -2    1    3    3    0  502  0.12094532665E+04  0.12269894793E+04 -0.11859143647E+04  0.20915719606E+04  0.25500000920E-02 0.  1.
</event>
<event>
 5   0  0.7236375E-08  0.3602728E+04  0.7818609E-02  0.8089867E-01
       -1   -1    0    0    0  501  0.00000000000E+00  0.00000000000E+00  0.11226428487E+04  0.11226428488E+04  0.50400001928E-02 0. -1.
        1   -1    0    0  501    0  0.00000000000E+00  0.00000000000E+00 -0.28904231317E+04  0.28904231317E+04  0.50400001928E-02 0.  1.
    10030    2    1    2    0    0  0.00000000000E+00  0.00000000000E+00 -0.17677802829E+04  0.40130659804E+04  0.36027283320E+04 0.  0.
        5    1    3    3  502    0  0.35482744458E+03  0.34775049925E+03 -0.28125906242E+04  0.28561374327E+04  0.46999998093E+01 0.  1.
       -5    1    3    3    0  502 -0.35482744458E+03 -0.34775049925E+03  0.10448103413E+04  0.11569285477E+04  0.46999998093E+01 0. -1.
</event>
<event>
 5   0  0.2342606E-07  0.3607560E+04  0.7818609E-02  0.8088762E-01
        2   -1    0    0  501    0  0.00000000000E+00  0.00000000000E+00  0.27266774022E+04  0.27266774022E+04  0.25500000920E-02 0.  1.
       -2   -1    0    0    0  501  0.00000000000E+00  0.00000000000E+00 -0.11932555648E+04  0.11932555648E+04  0.25500000920E-02 0. -1.
    10030    2    1    2    0    0  0.00000000000E+00  0.00000000000E+00  0.15334218375E+04  0.39199329670E+04  0.36075603853E+04 0.  0.
        5    1    3    3  502    0 -0.11103330956E+04 -0.75892194199E+03 -0.53936588602E+03  0.14490478758E+04  0.46999998093E+01 0. -1.
       -5    1    3    3    0  502  0.11103330956E+04  0.75892194199E+03  0.20727877235E+04  0.24708850912E+04  0.46999998093E+01 0.  1.
</event>
<event>
 5   0  0.2198900E-07  0.3597923E+04  0.7818609E-02  0.8090968E-01
        2   -1    0    0  501    0  0.00000000000E+00  0.00000000000E+00  0.17427473884E+04  0.17427473884E+04  0.25500000920E-02 0. -1.
       -2   -1    0    0    0  501  0.00000000000E+00  0.00000000000E+00 -0.18569885908E+04  0.18569885908E+04  0.25500000920E-02 0.  1.
    10030    2    1    2    0    0  0.00000000000E+00  0.00000000000E+00 -0.11424120236E+03  0.35997359792E+04  0.35979227435E+04 0.  0.
        2    1    3    3  502    0 -0.67602943043E+03  0.88131534252E+03  0.13587001576E+04  0.17549355094E+04  0.25500000920E-02 0. -1.
       -2    1    3    3    0  502  0.67602943043E+03 -0.88131534252E+03 -0.14729413600E+04  0.18448004699E+04  0.25500000920E-02 0.  1.
</event>
<event>
 5   0  0.2342606E-07  0.3588758E+04  0.7818609E-02  0.8093072E-01
       -2   -1    0    0    0  501  0.00000000000E+00  0.00000000000E+00  0.14114006121E+04  0.14114006121E+04  0.25500000920E-02 0. -1.
        2   -1    0    0  501    0  0.00000000000E+00  0.00000000000E+00 -0.22812765399E+04  0.22812765399E+04  0.25500000920E-02 0.  1.
    10030    2    1    2    0    0  0.00000000000E+00  0.00000000000E+00 -0.86987592786E+03  0.36926771520E+04  0.35887575035E+04 0.  0.
        5    1    3    3  502    0  0.11495968000E+04  0.28180749726E+02  0.98241288153E+03  0.15124563190E+04  0.46999998093E+01 0. -1.
       -5    1    3    3    0  502 -0.11495968000E+04 -0.28180749726E+02 -0.18522888094E+04  0.21802208330E+04  0.46999998093E+01 0.  1.
</event>
<event>
 5   0  0.7261233E-08  0.3576580E+04  0.7818609E-02  0.8095877E-01
        1   -1    0    0  501    0  0.00000000000E+00  0.00000000000E+00  0.29709717403E+04  0.29709717403E+04  0.50400001928E-02 0.  1.
       -1   -1    0    0    0  501  0.00000000000E+00  0.00000000000E+00 -0.10764090855E+04  0.10764090856E+04  0.50400001928E-02 0. -1.
    10030    2    1    2    0    0  0.00000000000E+00  0.00000000000E+00  0.18945626547E+04  0.40473808258E+04  0.35765799161E+04 0.  0.
        3    1    3    3  502    0 -0.80294413706E+03 -0.60801137954E+03 -0.72492965789E+03  0.12409351893E+04  0.10100000352E+00 0. -1.
       -3    1    3    3    0  502  0.80294413706E+03  0.60801137954E+03  0.26194923126E+04  0.28064456365E+04  0.10100000352E+00 0.  1.
</event>
<event>
 5   0  0.2199902E-07  0.3584838E+04  0.7818609E-02  0.8093974E-01
       -2   -1    0    0    0  501  0.00000000000E+00  0.00000000000E+00  0.18644338358E+04  0.18644338358E+04  0.25500000920E-02 0.  1.
        2   -1    0    0  501    0  0.00000000000E+00  0.00000000000E+00 -0.17231858780E+04  0.17231858780E+04  0.25500000920E-02 0. -1.
    10030    2    1    2    0    0  0.00000000000E+00  0.00000000000E+00  0.14124795773E+03  0.35876197138E+04  0.35848381031E+04 0.  0.
        1    1    3    3  502    0  0.38643946969E+03  0.22107678404E+03 -0.16669708178E+04  0.17253991177E+04  0.50400001928E-02 0. -1.
       -1    1    3    3    0  502 -0.38643946969E+03 -0.22107678404E+03  0.18082187755E+04  0.18622205960E+04  0.50400001928E-02 0.  1.
</event>
<event>
 5   0  0.7261233E-08  0.3591656E+04  0.7818609E-02  0.8092406E-01
        1   -1    0    0  501    0  0.00000000000E+00  0.00000000000E+00  0.12800280347E+04  0.12800280348E+04  0.50400001928E-02 0. -1.
       -1   -1    0    0    0  501  0.00000000000E+00  0.00000000000E+00 -0.25194743008E+04  0.25194743008E+04  0.50400001928E-02 0.  1.
    10030    2    1    2    0    0  0.00000000000E+00  0.00000000000E+00 -0.12394462660E+04  0.37995023355E+04  0.35916557395E+04 0.  0.
        3    1    3    3  502    0  0.14725895057E+04 -0.15571281975E+03  0.45505926304E+03  0.15491434013E+04  0.10100000352E+00 0. -1.
       -3    1    3    3    0  502 -0.14725895057E+04  0.15571281975E+03 -0.16945055291E+04  0.22503589342E+04  0.10100000352E+00 0.  1.
</event>
<event>
 5   0  0.2198900E-07  0.3603763E+04  0.7818609E-02  0.8089630E-01
       -2   -1    0    0    0  501  0.00000000000E+00  0.00000000000E+00  0.15037901162E+04  0.15037901162E+04  0.25500000920E-02 0.  1.
        2   -1    0    0  501    0  0.00000000000E+00  0.00000000000E+00 -0.21590631027E+04  0.21590631027E+04  0.25500000920E-02 0. -1.
    10030    2    1    2    0    0  0.00000000000E+00  0.00000000000E+00 -0.65527298650E+03  0.36628532189E+04  0.36037634517E+04 0.  0.
        2    1    3    3  502    0 -0.96908090626E+03 -0.15168832153E+04 -0.41098884346E+03  0.18463380842E+04  0.25500000920E-02 0.  1.
       -2    1    3    3    0  502  0.96908090626E+03  0.15168832153E+04 -0.24428414304E+03  0.18165151346E+04  0.25500000920E-02 0. -1.
</event>
<event>
 5   0  0.2238968E-07  0.3600918E+04  0.7818609E-02  0.8090282E-01
        2   -1    0    0  501    0  0.00000000000E+00  0.00000000000E+00  0.17281088512E+04  0.17281088512E+04  0.25500000920E-02 0.  1.
       -2   -1    0    0    0  501  0.00000000000E+00  0.00000000000E+00 -0.18758379288E+04  0.18758379288E+04  0.25500000920E-02 0. -1.
    10030    2    1    2    0    0  0.00000000000E+00  0.00000000000E+00 -0.14772907763E+03  0.36039467800E+04  0.36009177320E+04 0.  0.
        3    1    3    3  502    0 -0.71059898950E+03  0.55100369928E+02 -0.17286352568E+04  0.18698039565E+04  0.10100000352E+00 0. -1.
       -3    1    3    3    0  502  0.71059898950E+03 -0.55100369928E+02  0.15809061792E+04  0.17341428235E+04  0.10100000352E+00 0.  1.
</event>
<event>
 5   0  0.2199902E-07  0.3601286E+04  0.7818609E-02  0.8090197E-01
        2   -1    0    0  501    0  0.00000000000E+00  0.00000000000E+00  0.25286059997E+04  0.25286059997E+04  0.25500000920E-02 0.  1.
       -2   -1    0    0    0  501  0.00000000000E+00  0.00000000000E+00 -0.12822541008E+04  0.12822541008E+04  0.25500000920E-02 0. -1.
    10030    2    1    2    0    0  0.00000000000E+00  0.00000000000E+00  0.12463518989E+04  0.38108601005E+04  0.36012861105E+04 0.  0.
        1    1    3    3  502    0 -0.42266218962E+03 -0.89935541479E+02  0.24729235428E+04  0.25103949045E+04  0.50400001928E-02 0.  1.
       -1    1    3    3    0  502  0.42266218962E+03  0.89935541479E+02 -0.12265716439E+04  0.13004651960E+04  0.50400001928E-02 0. -1.
</event>
<event>
 5   0  0.2342606E-07  0.3593375E+04  0.7818609E-02  0.8092011E-01
       -2   -1    0    0    0  501  0.00000000000E+00  0.00000000000E+00  0.26542415688E+04  0.26542415688E+04  0.25500000920E-02 0.  1.
        2   -1    0    0  501    0  0.00000000000E+00  0.00000000000E+00 -0.12161989842E+04  0.12161989842E+04  0.25500000920E-02 0. -1.
    10030    2    1    2    0    0  0.00000000000E+00  0.00000000000E+00  0.14380425846E+04  0.38704405530E+04  0.35933749594E+04 0.  0.
        5    1    3    3  502    0  0.11616672029E+04 -0.50665264175E+01 -0.75726728973E+03  0.13867127309E+04  0.46999998093E+01 0. -1.
       -5    1    3    3    0  502 -0.11616672029E+04  0.50665264175E+01  0.21953098743E+04  0.24837278221E+04  0.46999998093E+01 0.  1.
</event>
<event>
 5   0  0.7514289E-08  0.3582805E+04  0.7818609E-02  0.8094442E-01
        1   -1    0    0  501    0  0.00000000000E+00  0.00000000000E+00  0.14425242580E+04  0.14425242580E+04  0.50400001928E-02 0.  1.
       -1   -1    0    0    0  501  0.00000000000E+00  0.00000000000E+00 -0.22246575361E+04  0.22246575361E+04  0.50400001928E-02 0. -1.
    10030    2    1    2    0    0  0.00000000000E+00  0.00000000000E+00 -0.78213327802E+03  0.36671817941E+04  0.35828047458E+04 0.  0.
        4    1    3    3  502    0  0.76206837796E+02 -0.11341808796E+04  0.10260786033E+04  0.15313434176E+04  0.12699999809E+01 0.  1.
       -4    1    3    3    0  502 -0.76206837796E+02  0.11341808796E+04 -0.18082118813E+04  0.21358383765E+04  0.12699999809E+01 0. -1.
</event>
<event>
 5   0  0.7236375E-08  0.3596539E+04  0.7818609E-02  0.8091285E-01
       -1   -1    0    0    0  501  0.00000000000E+00  0.00000000000E+00  0.16170073265E+04  0.16170073265E+04  0.50400001928E-02 0. -1.
        1   -1    0    0  501    0  0.00000000000E+00  0.00000000000E+00 -0.19998503056E+04  0.19998503056E+04  0.50400001928E-02 0.  1.
    10030    2    1    2    0    0  0.00000000000E+00  0.00000000000E+00 -0.38284297913E+03  0.36168576322E+04  0.35965386672E+04 0.  0.
        5    1    3    3  502    0  0.20156406648E+03  0.11714509844E+04 -0.15484244251E+04  0.19520670511E+04  0.46999998093E+01 0.  1.
       -5    1    3    3    0  502 -0.20156406648E+03 -0.11714509844E+04  0.11655814459E+04  0.16647905811E+04  0.46999998093E+01 0. -1.
</event>
<event>
 5   0  0.2309391E-07  0.3608550E+04  0.7818609E-02  0.8088536E-01
       -2   -1    0    0    0  501  0.00000000000E+00  0.00000000000E+00  0.18259699819E+04  0.18259699819E+04  0.25500000920E-02 0. -1.
        2   -1    0    0  501    0  0.00000000000E+00  0.00000000000E+00 -0.17828381660E+04  0.17828381660E+04  0.25500000920E-02 0.  1.
    10030    2    1    2    0    0  0.00000000000E+00  0.00000000000E+00  0.43131815914E+02  0.36088081479E+04  0.36085503869E+04 0.  0.
        4    1    3    3  502    0  0.55807527526E+03 -0.14825731594E+04 -0.84217175130E+03  0.17940808392E+04  0.12699999809E+01 0.  1.
       -4    1    3    3    0  502 -0.55807527526E+03  0.14825731594E+04  0.88530356722E+03  0.18147273087E+04  0.12699999809E+01 0. -1.
</event>
<event>
 5   0  0.7514289E-08  0.3588017E+04  0.7818609E-02  0.8093242E-01
       -1   -1    0    0    0  501  0.00000000000E+00  0.00000000000E+00  0.13395371485E+04  0.13395371485E+04  0.50400001928E-02 0.  1.
        1   -1    0    0  501    0  0.00000000000E+00  0.00000000000E+00 -0.24026704985E+04  0.24026704985E+04  0.50400001928E-02 0. -1.
    10030    2    1    2    0    0  0.00000000000E+00  0.00000000000E+00 -0.10631333500E+04  0.37422076470E+04  0.35880169388E+04 0.  0.
        4    1    3    3  502    0 -0.97456339149E+03 -0.93453996032E+03  0.70043485141E+03  0.15211013561E+04  0.12699999809E+01 0.  1.
       -4    1    3    3    0  502  0.97456339149E+03  0.93453996032E+03 -0.17635682014E+04  0.22211062909E+04  0.12699999809E+01 0. -1.
</event>
<event>
 5   0  0.7236375E-08  0.3580088E+04  0.7818609E-02  0.8095068E-01
       -1   -1    0    0    0  501  0.00000000000E+00  0.00000000000E+00  0.18324206411E+04  0.18324206411E+04  0.50400001928E-02 0.  1.
        1   -1    0    0  501    0  0.00000000000E+00  0.00000000000E+00 -0.17486478373E+04  0.17486478373E+04  0.50400001928E-02 0. -1.
    10030    2    1    2    0    0  0.00000000000E+00  0.00000000000E+00  0.83772803720E+02  0.35810684784E+04  0.35800884855E+04 0.  0.
        1    1    3    3  502    0 -0.14311776672E+04  0.38399648583E+03 -0.96264721717E+03  0.17670349405E+04  0.50400001928E-02 0. -1.
       -1    1    3    3    0  502  0.14311776672E+04 -0.38399648583E+03  0.10464200209E+04  0.18140335379E+04  0.50400001928E-02 0.  1.
</event>
<event>
 5   0  0.2199902E-07  0.3601830E+04  0.7818609E-02  0.8090073E-01
       -2   -1    0    0    0  501  0.00000000000E+00  0.00000000000E+00  0.23736010621E+04  0.23736010621E+04  0.25500000920E-02 0. -1.
        2   -1    0    0  501    0  0.00000000000E+00  0.00000000000E+00 -0.13664030405E+04  0.13664030405E+04  0.25500000920E-02 0.  1.
    10030    2    1    2    0    0  0.00000000000E+00  0.00000000000E+00  0.10071980217E+04  0.37400041026E+04  0.36018304836E+04 0.  0.
        1    1    3    3  502    0 -0.16903389011E+04  0.62116834508E+03  0.51828347333E+03  0.18739566356E+04  0.50400001928E-02 0. -1.
       -1    1    3    3    0  502  0.16903389011E+04 -0.62116834508E+03  0.48891454833E+03  0.18660474670E+04  0.50400001928E-02 0.  1.
</event>
<event>
 5   0  0.7236375E-08  0.3603345E+04  0.7818609E-02  0.8089726E-01
       -1   -1    0    0    0  501  0.00000000000E+00  0.00000000000E+00  0.15568288945E+04  0.15568288945E+04  0.50400001928E-02 0. -1.
        1   -1    0    0  501    0  0.00000000000E+00  0.00000000000E+00 -0.20850225179E+04  0.20850225179E+04  0.50400001928E-02 0.  1.
    10030    2    1    2    0    0  0.00000000000E+00  0.00000000000E+00 -0.52819362344E+03  0.36418514124E+04  0.36033447248E+04 0.  0.
        5    1    3    3  502    0  0.42193594580E+03  0.41815778091E+03  0.14549958417E+04  0.15715981871E+04  0.46999998093E+01 0. -1.
       -5    1    3    3    0  502 -0.42193594580E+03 -0.41815778091E+03 -0.19831894652E+04  0.20702532253E+04  0.46999998093E+01 0.  1.
</event>
<event>
 5   0  0.2309391E-07  0.3594064E+04  0.7818609E-02  0.8091853E-01
        2   -1    0    0  501    0  0.00000000000E+00  0.00000000000E+00  0.26063242955E+04  0.26063242955E+04  0.25500000920E-02 0.  1.
       -2   -1    0    0    0  501  0.00000000000E+00  0.00000000000E+00 -0.12390340451E+04  0.12390340451E+04  0.25500000920E-02 0. -1.
    10030    2    1    2    0    0  0.00000000000E+00  0.00000000000E+00  0.13672902504E+04  0.38453583406E+04  0.35940642925E+04 0.  0.
        4    1    3    3  502    0 -0.22629278220E+03  0.27662730437E+03  0.25679158360E+04  0.25926674377E+04  0.12699999809E+01 0.  1.
       -4    1    3    3    0  502  0.22629278220E+03 -0.27662730437E+03 -0.12006255855E+04  0.12526909029E+04  0.12699999809E+01 0. -1.
</event>
<event>
 5   0  0.2199902E-07  0.3585528E+04  0.7818609E-02  0.8093815E-01
       -2   -1    0    0    0  501  0.00000000000E+00  0.00000000000E+00  0.18441670652E+04  0.18441670652E+04  0.25500000920E-02 0. -1.
        2   -1    0    0  501    0  0.00000000000E+00  0.00000000000E+00 -0.17427938418E+04  0.17427938419E+04  0.25500000920E-02 0.  1.
    10030    2    1    2    0    0  0.00000000000E+00  0.00000000000E+00  0.10137322336E+03  0.35869609071E+04  0.35855281366E+04 0.  0.
        1    1    3    3  502    0  0.67206961546E+03  0.16069391883E+03 -0.16042122798E+04  0.17467103773E+04  0.50400001928E-02 0.  1.
       -1    1    3    3    0  502 -0.67206961546E+03 -0.16069391883E+03  0.17055855032E+04  0.18402505297E+04  0.50400001928E-02 0. -1.
</event>
<event>
 5   0  0.2238968E-07  0.3591049E+04  0.7818609E-02  0.8092545E-01
       -2   -1    0    0    0  501  0.00000000000E+00  0.00000000000E+00  0.15133264236E+04  0.15133264236E+04  0.25500000920E-02 0.  1.
        2   -1    0    0  501    0  0.00000000000E+00  0.00000000000E+00 -0.21303451580E+04  0.21303451580E+04  0.25500000920E-02 0. -1.
    10030    2    1    2    0    0  0.00000000000E+00  0.00000000000E+00 -0.61701873436E+03  0.36436715816E+04  0.35910486596E+04 0.  0.
        3    1    3    3  502    0  0.46892284589E+03  0.10831572379E+04 -0.16814037454E+04  0.20543214945E+04  0.10100000352E+00 0. -1.
       -3    1    3    3    0  502 -0.46892284589E+03 -0.10831572379E+04  0.10643850111E+04  0.15893500871E+04  0.10100000352E+00 0.  1.
</event>
<event>
 5   0  0.2198900E-07  0.3603469E+04  0.7818609E-02  0.8089697E-01
       -2   -1    0    0    0  501  0.00000000000E+00  0.00000000000E+00  0.26804750892E+04  0.26804750892E+04  0.25500000920E-02 0. -1.
        2   -1    0    0  501    0  0.00000000000E+00  0.00000000000E+00 -0.12110718270E+04  0.12110718270E+04  0.25500000920E-02 0.  1.
    10030    2    1    2    0    0  0.00000000000E+00  0.00000000000E+00  0.14694032623E+04  0.38915469162E+04  0.36034693635E+04 0.  0.
        2    1    3    3  502    0 -0.40845779151E+03  0.15900173280E+04  0.15365231446E+04  0.22485320199E+04  0.25500000920E-02 0. -1.
       -2    1    3    3    0  502  0.40845779151E+03 -0.15900173280E+04 -0.67119882312E+02  0.16430148963E+04  0.25500000920E-02 0.  1.
</event>
<event>
 5   0  0.2199902E-07  0.3602658E+04  0.7818609E-02  0.8089883E-01
       -2   -1    0    0    0  501  0.00000000000E+00  0.00000000000E+00  0.15850876712E+04  0.15850876712E+04  0.25500000920E-02 0. -1.
        2   -1    0    0  501    0  0.00000000000E+00  0.00000000000E+00 -0.20470706869E+04  0.20470706869E+04  0.25500000920E-02 0.  1.
    10030    2    1    2    0    0  0.00000000000E+00  0.00000000000E+00 -0.46198301568E+03  0.36321583582E+04  0.36026581897E+04 0.  0.
        1    1    3    3  502    0  0.68910785794E+03 -0.13698744284E+04  0.72192574587E+03  0.16948753264E+04  0.50400001928E-02 0. -1.
       -1    1    3    3    0  502 -0.68910785794E+03  0.13698744284E+04 -0.11839087616E+04  0.19372830318E+04  0.50400001928E-02 0.  1.
</event>
<event>
 5   0  0.2238968E-07  0.3605275E+04  0.7818609E-02  0.8089284E-01
        2   -1    0    0  501    0  0.00000000000E+00  0.00000000000E+00  0.25961710508E+04  0.25961710508E+04  0.25500000920E-02 0.  1.
       -2   -1    0    0    0  501  0.00000000000E+00  0.00000000000E+00 -0.12516519738E+04  0.12516519739E+04  0.25500000920E-02 0. -1.
    10030    2    1    2    0    0  0.00000000000E+00  0.00000000000E+00  0.13445190770E+04  0.38478230247E+04  0.36052753682E+04 0.  0.
        3    1    3    3  502    0  0.15235627803E+04  0.96155562480E+03  0.60760477779E+03  0.19013196315E+04  0.10100000352E+00 0.  1.
       -3    1    3    3    0  502 -0.15235627803E+04 -0.96155562480E+03  0.73691429917E+03  0.19465033931E+04  0.10100000352E+00 0. -1.
</event>
<event>
 5   0  0.2198900E-07  0.3596353E+04  0.7818609E-02  0.8091328E-01
       -2   -1    0    0    0  501  0.00000000000E+00  0.00000000000E+00  0.17493739776E+04  0.17493739776E+04  0.25500000920E-02 0. -1.
        2   -1    0    0  501    0  0.00000000000E+00  0.00000000000E+00 -0.18483403309E+04  0.18483403309E+04  0.25500000920E-02 0.  1.
    10030    2    1    2    0    0  0.00000000000E+00  0.00000000000E+00 -0.98966353300E+02  0.35977143085E+04  0.35963528618E+04 0.  0.
        2    1    3    3  502    0 -0.80958062120E+03 -0.49274217621E+03 -0.15782052689E+04  0.18409094235E+04  0.25500000920E-02 0.  1.
       -2    1    3    3    0  502  0.80958062120E+03  0.49274217621E+03  0.14792389156E+04  0.17568048850E+04  0.25500000920E-02 0. -1.
</event>
<event>
 5   0  0.7261233E-08  0.3594966E+04  0.7818609E-02  0.8091646E-01
       -1   -1    0    0    0  501  0.00000000000E+00  0.00000000000E+00  0.10598539689E+04  0.10598539689E+04  0.50400001928E-02 0.  1.
        1   -1    0    0  501    0  0.00000000000E+00  0.00000000000E+00 -0.30484821109E+04  0.30484821109E+04  0.50400001928E-02 0. -1.
    10030    2    1    2    0    0  0.00000000000E+00  0.00000000000E+00 -0.19886281420E+04  0.41083360797E+04  0.35949664055E+04 0.  0.
        3    1    3    3  502    0  0.13907425017E+03 -0.17689957655E+04 -0.66655048824E+03  0.18955150300E+04  0.10100000352E+00 0.  1.
       -3    1    3    3    0  502 -0.13907425017E+03  0.17689957655E+04 -0.13220776538E+04  0.22128210497E+04  0.10100000352E+00 0. -1.
</event>
<event>
 5   0  0.7236375E-08  0.3729316E+04  0.7818609E-02  0.8061496E-01
       -1   -1    0    0    0  501  0.00000000000E+00  0.00000000000E+00  0.16791133488E+04  0.16791133488E+04  0.50400001928E-02 0. -1.
        1   -1    0    0  501    0  0.00000000000E+00  0.00000000000E+00 -0.20707057761E+04  0.20707057761E+04  0.50400001928E-02 0.  1.
    10030    2    1    2    0    0  0.00000000000E+00  0.00000000000E+00 -0.39159242734E+03  0.37498191249E+04  0.37293161358E+04 0.  0.
        1    1    3    3  502    0 -0.39345651161E+03  0.14375013682E+04  0.93095883794E+03  0.17572428882E+04  0.50400001928E-02 0. -1.
       -1    1    3    3    0  502  0.39345651161E+03 -0.14375013682E+04 -0.13225512653E+04  0.19925762368E+04  0.50400001928E-02 0.  1.
</event>
<event>
 5   0  0.2198900E-07  0.3624548E+04  0.7818609E-02  0.8084892E-01
       -2   -1    0    0    0  501  0.00000000000E+00  0.00000000000E+00  0.16487905568E+04  0.16487905568E+04  0.25500000920E-02 0.  1.
        2   -1    0    0  501    0  0.00000000000E+00  0.00000000000E+00 -0.19919672829E+04  0.19919672829E+04  0.25500000920E-02 0. -1.
    10030    2    1    2    0    0  0.00000000000E+00  0.00000000000E+00 -0.34317672608E+03  0.36407578397E+04  0.36245478865E+04 0.  0.
        2    1    3    3  502    0  0.10615675726E+04 -0.31157686607E+02  0.13034614079E+04  0.16813411773E+04  0.25500000920E-02 0.  1.
       -2    1    3    3    0  502 -0.10615675726E+04  0.31157686607E+02 -0.16466381340E+04  0.19594166624E+04  0.25500000920E-02 0. -1.
</event>
<event>
 5   0  0.2342606E-07  0.3607824E+04  0.7818609E-02  0.8088702E-01
        2   -1    0    0  501    0  0.00000000000E+00  0.00000000000E+00  0.24899898217E+04  0.24899898217E+04  0.25500000920E-02 0.  1.
       -2   -1    0    0    0  501  0.00000000000E+00  0.00000000000E+00 -0.13068719181E+04  0.13068719181E+04  0.25500000920E-02 0. -1.
    10030    2    1    2    0    0  0.00000000000E+00  0.00000000000E+00  0.11831179036E+04  0.37968617398E+04  0.36078235957E+04 0.  0.
        5    1    3    3  502    0 -0.39475884968E+03 -0.16741575731E+04  0.19537469911E+02  0.17201865980E+04  0.46999998093E+01 0. -1.
       -5    1    3    3    0  502  0.39475884968E+03  0.16741575731E+04  0.11635804336E+04  0.20766751418E+04  0.46999998093E+01 0.  1.
</event>
<event>
 5   0  0.2342606E-07  0.3620805E+04  0.7818609E-02  0.8085743E-01
        2   -1    0    0  501    0  0.00000000000E+00  0.00000000000E+00  0.19196224546E+04  0.19196224546E+04  0.25500000920E-02 0.  1.
       -2   -1    0    0    0  501  0.00000000000E+00  0.00000000000E+00 -0.17073971532E+04  0.17073971532E+04  0.25500000920E-02 0. -1.
    10030    2    1    2    0    0  0.00000000000E+00  0.00000000000E+00  0.21222530134E+03  0.36270196078E+04  0.36208053879E+04 0.  0.
        5    1    3    3  502    0  0.59898232247E+03 -0.89550535064E+03 -0.13513160523E+04  0.17282322815E+04  0.46999998093E+01 0. -1.
       -5    1    3    3    0  502 -0.59898232247E+03  0.89550535064E+03  0.15635413537E+04  0.18987873262E+04  0.46999998093E+01 0.  1.
</event>
<event>
 5   0  0.7514289E-08  0.3594923E+04  0.7818609E-02  0.8091656E-01
       -1   -1    0    0    0  501  0.00000000000E+00  0.00000000000E+00  0.16594153882E+04  0.16594153882E+04  0.50400001928E-02 0.  1.
        1   -1    0    0  501    0  0.00000000000E+00  0.00000000000E+00 -0.19469912778E+04  0.19469912778E+04  0.50400001928E-02 0. -1.
    10030    2    1    2    0    0  0.00000000000E+00  0.00000000000E+00 -0.28757588960E+03  0.36064066660E+04  0.35949226901E+04 0.  0.
        4    1    3    3  502    0 -0.21560576712E+03 -0.14107025005E+04  0.95254267988E+03  0.17157816183E+04  0.12699999809E+01 0.  1.
       -4    1    3    3    0  502  0.21560576712E+03  0.14107025005E+04 -0.12401185695E+04  0.18906250477E+04  0.12699999809E+01 0. -1.
</event>
<event>
 5   0  0.7236375E-08  0.3647292E+04  0.7818609E-02  0.8079744E-01
        1   -1    0    0  501    0  0.00000000000E+00  0.00000000000E+00  0.17611679432E+04  0.17611679432E+04  0.50400001928E-02 0. -1.
       -1   -1    0    0    0  501  0.00000000000E+00  0.00000000000E+00 -0.18883406751E+04  0.18883406751E+04  0.50400001928E-02 0.  1.
    10030    2    1    2    0    0  0.00000000000E+00  0.00000000000E+00 -0.12717273187E+03  0.36495086183E+04  0.36472921806E+04 0.  0.
        5    1    3    3  502    0  0.18132016859E+04 -0.10157335189E+03 -0.22995668563E+03  0.18305517384E+04  0.46999998093E+01 0.  1.
       -5    1    3    3    0  502 -0.18132016859E+04  0.10157335189E+03  0.10278395377E+03  0.18189568799E+04  0.46999998093E+01 0. -1.
</event>
<event>
 5   0  0.2199902E-07  0.3576246E+04  0.7818609E-02  0.8095955E-01
       -2   -1    0    0    0  501  0.00000000000E+00  0.00000000000E+00  0.18194180576E+04  0.18194180576E+04  0.25500000920E-02 0.  1.
        2   -1    0    0  501    0  0.00000000000E+00  0.00000000000E+00 -0.17573659731E+04  0.17573659731E+04  0.25500000920E-02 0. -1.
    10030    2    1    2    0    0  0.00000000000E+00  0.00000000000E+00  0.62052084521E+02  0.35767840307E+04  0.35762457327E+04 0.  0.
        1    1    3    3  502    0  0.72658525987E+03 -0.67380333417E+03 -0.14576355385E+04  0.17625658672E+04  0.50400001928E-02 0. -1.
       -1    1    3    3    0  502 -0.72658525987E+03  0.67380333417E+03  0.15196876231E+04  0.18142181635E+04  0.50400001928E-02 0.  1.
</event>
<event>
 5   0  0.2309391E-07  0.3594050E+04  0.7818609E-02  0.8091856E-01
        2   -1    0    0  501    0  0.00000000000E+00  0.00000000000E+00  0.11212139878E+04  0.11212139878E+04  0.25500000920E-02 0.  1.
       -2   -1    0    0    0  501  0.00000000000E+00  0.00000000000E+00 -0.28801802161E+04  0.28801802161E+04  0.25500000920E-02 0. -1.
    10030    2    1    2    0    0  0.00000000000E+00  0.00000000000E+00 -0.17589662283E+04  0.40013942038E+04  0.35940497189E+04 0.  0.
        4    1    3    3  502    0  0.17869257677E+04  0.18297011983E+03 -0.93749402168E+03  0.20261980203E+04  0.12699999809E+01 0. -1.
       -4    1    3    3    0  502 -0.17869257677E+04 -0.18297011983E+03 -0.82147220661E+03  0.19751961835E+04  0.12699999809E+01 0.  1.
</event>
<event>
 5   0  0.2198900E-07  0.3605420E+04  0.7818609E-02  0.8089251E-01
       -2   -1    0    0    0  501  0.00000000000E+00  0.00000000000E+00  0.14189662305E+04  0.14189662305E+04  0.25500000920E-02 0.  1.
        2   -1    0    0  501    0  0.00000000000E+00  0.00000000000E+00 -0.22902331112E+04  0.22902331112E+04  0.25500000920E-02 0. -1.
    10030    2    1    2    0    0  0.00000000000E+00  0.00000000000E+00 -0.87126688071E+03  0.37091993418E+04  0.36054200559E+04 0.  0.
        2    1    3    3  502    0 -0.47322269960E+03 -0.48897736902E+03  0.12817661275E+04  0.14511936454E+04  0.25500000920E-02 0.  1.
       -2    1    3    3    0  502  0.47322269960E+03  0.48897736902E+03 -0.21530330082E+04  0.22580056964E+04  0.25500000920E-02 0. -1.
</event>
<event>
 5   0  0.2198900E-07  0.3597248E+04  0.7818609E-02  0.8091122E-01
        2   -1    0    0  501    0  0.00000000000E+00  0.00000000000E+00  0.27019376639E+04  0.27019376639E+04  0.25500000920E-02 0.  1.
       -2   -1    0    0    0  501  0.00000000000E+00  0.00000000000E+00 -0.11973070773E+04  0.11973070773E+04  0.25500000920E-02 0. -1.
    10030    2    1    2    0    0  0.00000000000E+00  0.00000000000E+00  0.15046305865E+04  0.38992447412E+04  0.35972484415E+04 0.  0.
        2    1    3    3  502    0 -0.13510050829E+03 -0.17224245408E+03  0.26874442673E+04  0.26963449891E+04  0.25500000920E-02 0.  1.
       -2    1    3    3    0  502  0.13510050829E+03  0.17224245408E+03 -0.11828136807E+04  0.12028997521E+04  0.25500000920E-02 0. -1.
</event>
<event>
 5   0  0.7347303E-08  0.3610048E+04  0.7818609E-02  0.8088194E-01
       -1   -1    0    0    0  501  0.00000000000E+00  0.00000000000E+00  0.15213215804E+04  0.15213215805E+04  0.50400001928E-02 0. -1.
        1   -1    0    0  501    0  0.00000000000E+00  0.00000000000E+00 -0.21416327276E+04  0.21416327276E+04  0.50400001928E-02 0.  1.
    10030    2    1    2    0    0  0.00000000000E+00  0.00000000000E+00 -0.62031114712E+03  0.36629543080E+04  0.36100482467E+04 0.  0.
        2    1    3    3  502    0 -0.81814332885E+03  0.12207625889E+04  0.75329424107E+03  0.16513848790E+04  0.25500000920E-02 0. -1.
       -2    1    3    3    0  502  0.81814332885E+03 -0.12207625889E+04 -0.13736053882E+04  0.20115694290E+04  0.25500000920E-02 0.  1.
</event>
<event>
 5   0  0.7261233E-08  0.3594991E+04  0.7818609E-02  0.8091640E-01
       -1   -1    0    0    0  501  0.00000000000E+00  0.00000000000E+00  0.26955135573E+04  0.26955135573E+04  0.50400001928E-02 0. -1.
        1   -1    0    0  501    0  0.00000000000E+00  0.00000000000E+00 -0.11986546501E+04  0.11986546501E+04  0.50400001928E-02 0.  1.
    10030    2    1    2    0    0  0.00000000000E+00  0.00000000000E+00  0.14968589073E+04  0.38941682074E+04  0.35949908817E+04 0.  0.
        3    1    3    3  502    0 -0.58620407779E+02 -0.17790959372E+04  0.47790360574E+03  0.18430980909E+04  0.10100000352E+00 0. -1.
       -3    1    3    3    0  502  0.58620407779E+02  0.17790959372E+04  0.10189553015E+04  0.20510701165E+04  0.10100000352E+00 0.  1.
</event>
<event>
 5   0  0.2342606E-07  0.3590958E+04  0.7818609E-02  0.8092566E-01
       -2   -1    0    0    0  501  0.00000000000E+00  0.00000000000E+00  0.17195912487E+04  0.17195912487E+04  0.25500000920E-02 0.  1.
        2   -1    0    0  501    0  0.00000000000E+00  0.00000000000E+00 -0.18747155014E+04  0.18747155014E+04  0.25500000920E-02 0. -1.
    10030    2    1    2    0    0  0.00000000000E+00  0.00000000000E+00 -0.15512425266E+03  0.35943067501E+04  0.35909577385E+04 0.  0.
        5    1    3    3  502    0 -0.36584701008E+03  0.12000200679E+04  0.12080929041E+04  0.17416666596E+04  0.46999998093E+01 0.  1.
       -5    1    3    3    0  502  0.36584701008E+03 -0.12000200679E+04 -0.13632171568E+04  0.18526400905E+04  0.46999998093E+01 0. -1.
</event>
<event>
 5   0  0.2199902E-07  0.3578950E+04  0.7818609E-02  0.8095331E-01
       -2   -1    0    0    0  501  0.00000000000E+00  0.00000000000E+00  0.25696650186E+04  0.25696650186E+04  0.25500000920E-02 0. -1.
        2   -1    0    0  501    0  0.00000000000E+00  0.00000000000E+00 -0.12461626821E+04  0.12461626821E+04  0.25500000920E-02 0.  1.
    10030    2    1    2    0    0  0.00000000000E+00  0.00000000000E+00  0.13235023365E+04  0.38158277008E+04  0.35789499308E+04 0.  0.
        1    1    3    3  502    0  0.16332714802E+04 -0.72463873537E+03  0.76590850320E+03  0.19440403443E+04  0.50400001928E-02 0. -1.
       -1    1    3    3    0  502 -0.16332714802E+04  0.72463873537E+03  0.55759383331E+03  0.18717873565E+04  0.50400001928E-02 0.  1.
</event>
<event>
 5   0  0.7514289E-08  0.3599896E+04  0.7818609E-02  0.8090516E-01
        1   -1    0    0  501    0  0.00000000000E+00  0.00000000000E+00  0.10247405843E+04  0.10247405843E+04  0.50400001928E-02 0. -1.
       -1   -1    0    0    0  501  0.00000000000E+00  0.00000000000E+00 -0.31615924702E+04  0.31615924702E+04  0.50400001928E-02 0.  1.
    10030    2    1    2    0    0  0.00000000000E+00  0.00000000000E+00 -0.21368518859E+04  0.41863330545E+04  0.35998956180E+04 0.  0.
        4    1    3    3  502    0  0.16792404581E+04  0.28027690797E+03 -0.38894077980E+03  0.17463333600E+04  0.12699999809E+01 0. -1.
       -4    1    3    3    0  502 -0.16792404581E+04 -0.28027690797E+03 -0.17479111061E+04  0.24399996945E+04  0.12699999809E+01 0.  1.
</event>
<event>
 5   0  0.7261233E-08  0.3606617E+04  0.7818609E-02  0.8088978E-01
       -1   -1    0    0    0  501  0.00000000000E+00  0.00000000000E+00  0.20791790550E+04  0.20791790550E+04  0.50400001928E-02 0.  1.
        1   -1    0    0  501    0  0.00000000000E+00  0.00000000000E+00 -0.15640406998E+04  0.15640406998E+04  0.50400001928E-02 0. -1.
    10030    2    1    2    0    0  0.00000000000E+00  0.00000000000E+00  0.51513835526E+03  0.36432197548E+04  0.36066165109E+04 0.  0.
        3    1    3    3  502    0  0.14310004643E+04  0.10094220131E+04 -0.17717704629E+03  0.17601383029E+04  0.10100000352E+00 0. -1.
       -3    1    3    3    0  502 -0.14310004643E+04 -0.10094220131E+04  0.69231540155E+03  0.18830814520E+04  0.10100000352E+00 0.  1.
</event>
<event>
 5   0  0.2342606E-07  0.3596288E+04  0.7818609E-02  0.8091342E-01
       -2   -1    0    0    0  501  0.00000000000E+00  0.00000000000E+00  0.19722794830E+04  0.19722794830E+04  0.25500000920E-02 0.  1.
        2   -1    0    0  501    0  0.00000000000E+00  0.00000000000E+00 -0.16393832493E+04  0.16393832493E+04  0.25500000920E-02 0. -1.
    10030    2    1    2    0    0  0.00000000000E+00  0.00000000000E+00  0.33289623370E+03  0.36116627324E+04  0.35962880572E+04 0.  0.
        5    1    3    3  502    0  0.19021213961E+03 -0.17876735071E+04  0.20324670070E+03  0.18092231862E+04  0.46999998093E+01 0.  1.
       -5    1    3    3    0  502 -0.19021213961E+03  0.17876735071E+04  0.12964953300E+03  0.18024395462E+04  0.46999998093E+01 0. -1.
</event>
<event>
 5   0  0.2342606E-07  0.3596918E+04  0.7818609E-02  0.8091198E-01
        2   -1    0    0  501    0  0.00000000000E+00  0.00000000000E+00  0.24765842934E+04  0.24765842934E+04  0.25500000920E-02 0. -1.
       -2   -1    0    0    0  501  0.00000000000E+00  0.00000000000E+00 -0.13060146664E+04  0.13060146664E+04  0.25500000920E-02 0.  1.
    10030    2    1    2    0    0  0.00000000000E+00  0.00000000000E+00  0.11705696269E+04  0.37825989598E+04  0.35969183531E+04 0.  0.
        5    1    3    3  502    0 -0.16785281380E+04  0.45291896025E+03  0.10693064254E+04  0.20410856464E+04  0.46999998093E+01 0. -1.
       -5    1    3    3    0  502  0.16785281380E+04 -0.45291896025E+03  0.10126320157E+03  0.17415133134E+04  0.46999998093E+01 0.  1.
</event>
<event>
 5   0  0.2198900E-07  0.3594329E+04  0.7818609E-02  0.8091792E-01
       -2   -1    0    0    0  501  0.00000000000E+00  0.00000000000E+00  0.10308959029E+04  0.10308959029E+04  0.25500000920E-02 0. -1.
        2   -1    0    0  501    0  0.00000000000E+00  0.00000000000E+00 -0.31330033643E+04  0.31330033643E+04  0.25500000920E-02 0.  1.
    10030    2    1    2    0    0  0.00000000000E+00  0.00000000000E+00 -0.21021074614E+04  0.41638992672E+04  0.35943290512E+04 0.  0.
        2    1    3    3  502    0  0.16729206352E+04  0.31167710318E+02 -0.29125223110E+03  0.16983706133E+04  0.25500000920E-02 0. -1.
       -2    1    3    3    0  502 -0.16729206352E+04 -0.31167710318E+02 -0.18108552303E+04  0.24655286539E+04  0.25500000920E-02 0.  1.
</event>
<event>
 5   0  0.2309391E-07  0.3609235E+04  0.7818609E-02  0.8088380E-01
        2   -1    0    0  501    0  0.00000000000E+00  0.00000000000E+00  0.21483816826E+04  0.21483816826E+04  0.25500000920E-02 0. -1.
       -2   -1    0    0    0  501  0.00000000000E+00  0.00000000000E+00 -0.15158595764E+04  0.15158595764E+04  0.25500000920E-02 0.  1.
    10030    2    1    2    0    0  0.00000000000E+00  0.00000000000E+00  0.63252210625E+03  0.36642412590E+04  0.36092353469E+04 0.  0.
        4    1    3    3  502    0 -0.52409717136E+03  0.91831351614E+03 -0.11684444503E+04  0.15758304494E+04  0.12699999809E+01 0.  1.
       -4    1    3    3    0  502  0.52409717136E+03 -0.91831351614E+03  0.18009665566E+04  0.20884108096E+04  0.12699999809E+01 0. -1.
</event>
<event>
 5   0  0.7236375E-08  0.3607254E+04  0.7818609E-02  0.8088832E-01
       -1   -1    0    0    0  501  0.00000000000E+00  0.00000000000E+00  0.15945065997E+04  0.15945065997E+04  0.50400001928E-02 0.  1.
        1   -1    0    0  501    0  0.00000000000E+00  0.00000000000E+00 -0.20401735970E+04  0.20401735971E+04  0.50400001928E-02 0. -1.
    10030    2    1    2    0    0  0.00000000000E+00  0.00000000000E+00 -0.44566699732E+03  0.36346801968E+04  0.36072539501E+04 0.  0.
        1    1    3    3  502    0 -0.14770836334E+04 -0.10237080252E+04 -0.37669051061E+03  0.18362053049E+04  0.50400001928E-02 0. -1.
       -1    1    3    3    0  502  0.14770836334E+04  0.10237080252E+04 -0.68976486715E+02  0.17984748919E+04  0.50400001928E-02 0.  1.
</event>
<event>
 5   0  0.7236375E-08  0.3712682E+04  0.7818609E-02  0.8065157E-01
        1   -1    0    0  501    0  0.00000000000E+00  0.00000000000E+00  0.20298161654E+04  0.20298161654E+04  0.50400001928E-02 0. -1.
       -1   -1    0    0    0  501  0.00000000000E+00  0.00000000000E+00 -0.16976912296E+04  0.16976912296E+04  0.50400001928E-02 0.  1.
    10030    2    1    2    0    0  0.00000000000E+00  0.00000000000E+00  0.33212493583E+03  0.37275073950E+04  0.37126815655E+04 0.  0.
        1    1    3    3  502    0 -0.11372044628E+04  0.13786166600E+03 -0.13005106707E+04  0.17330804465E+04  0.50400001928E-02 0.  1.
       -1    1    3    3    0  502  0.11372044628E+04 -0.13786166600E+03  0.16326356066E+04  0.19944269485E+04  0.50400001928E-02 0. -1.
</event>
<event>
 5   0  0.7236375E-08  0.3600449E+04  0.7818609E-02  0.8090389E-01
        1   -1    0    0  501    0  0.00000000000E+00  0.00000000000E+00  0.18115079913E+04  0.18115079913E+04  0.50400001928E-02 0.  1.
       -1   -1    0    0    0  501  0.00000000000E+00  0.00000000000E+00 -0.17890112013E+04  0.17890112013E+04  0.50400001928E-02 0. -1.
    10030    2    1    2    0    0  0.00000000000E+00  0.00000000000E+00  0.22496790008E+02  0.36005191925E+04  0.36004489095E+04 0.  0.
        5    1    3    3  502    0  0.24755884852E+02  0.17859048708E+04  0.23645700107E+03  0.18016667463E+04  0.46999998093E+01 0. -1.
       -5    1    3    3    0  502 -0.24755884852E+02 -0.17859048708E+04 -0.21396021107E+03  0.17988524462E+04  0.46999998093E+01 0.  1.
</event>
<event>
 5   0  0.2199902E-07  0.3615502E+04  0.7818609E-02  0.8086950E-01
       -2   -1    0    0    0  501  0.00000000000E+00  0.00000000000E+00  0.16782218220E+04  0.16782218220E+04  0.25500000920E-02 0.  1.
        2   -1    0    0  501    0  0.00000000000E+00  0.00000000000E+00 -0.19472775747E+04  0.19472775747E+04  0.25500000920E-02 0. -1.
    10030    2    1    2    0    0  0.00000000000E+00  0.00000000000E+00 -0.26905575269E+03  0.36254993966E+04  0.36155020228E+04 0.  0.
        1    1    3    3  502    0 -0.11800730959E+04 -0.12699486085E+04 -0.64841124799E+03  0.18508860382E+04  0.50400001928E-02 0.  1.
       -1    1    3    3    0  502  0.11800730959E+04  0.12699486085E+04  0.37935549530E+03  0.17746133584E+04  0.50400001928E-02 0. -1.
</event>
<event>
 5   0  0.2198900E-07  0.3609058E+04  0.7818609E-02  0.8088420E-01
       -2   -1    0    0    0  501  0.00000000000E+00  0.00000000000E+00  0.14967403738E+04  0.14967403738E+04  0.25500000920E-02 0.  1.
        2   -1    0    0  501    0  0.00000000000E+00  0.00000000000E+00 -0.21756105667E+04  0.21756105667E+04  0.25500000920E-02 0. -1.
    10030    2    1    2    0    0  0.00000000000E+00  0.00000000000E+00 -0.67887019289E+03  0.36723509404E+04  0.36090575904E+04 0.  0.
        2    1    3    3  502    0  0.14237117320E+04 -0.47773353669E+03  0.67868196698E+03  0.16479665168E+04  0.25500000920E-02 0.  1.
       -2    1    3    3    0  502 -0.14237117320E+04  0.47773353669E+03 -0.13575521599E+04  0.20243844237E+04  0.25500000920E-02 0. -1.
</event>
<event>
 5   0  0.7514289E-08  0.3574024E+04  0.7818609E-02  0.8096468E-01
        1   -1    0    0  501    0  0.00000000000E+00  0.00000000000E+00  0.24231893411E+04  0.24231893411E+04  0.50400001928E-02 0. -1.
       -1   -1    0    0    0  501  0.00000000000E+00  0.00000000000E+00 -0.13178550666E+04  0.13178550666E+04  0.50400001928E-02 0.  1.
    10030    2    1    2    0    0  0.00000000000E+00  0.00000000000E+00  0.11053342745E+04  0.37410444078E+04  0.35740242588E+04 0.  0.
        4    1    3    3  502    0 -0.69213304727E+03  0.64163387272E+03  0.21410349683E+04  0.23398236109E+04  0.12699999809E+01 0. -1.
       -4    1    3    3    0  502  0.69213304727E+03 -0.64163387272E+03 -0.10357006938E+04  0.14012207969E+04  0.12699999809E+01 0.  1.
</event>
<event>
 5   0  0.7236375E-08  0.3600493E+04  0.7818609E-02  0.8090379E-01
       -1   -1    0    0    0  501  0.00000000000E+00  0.00000000000E+00  0.15783929958E+04  0.15783929958E+04  0.50400001928E-02 0.  1.
        1   -1    0    0  501    0  0.00000000000E+00  0.00000000000E+00 -0.20532832005E+04  0.20532832005E+04  0.50400001928E-02 0. -1.
    10030    2    1    2    0    0  0.00000000000E+00  0.00000000000E+00 -0.47489020473E+03  0.36316761963E+04  0.36004932007E+04 0.  0.
        5    1    3    3  502    0 -0.15354830155E+04 -0.92869278479E+03 -0.38252177384E+03  0.18348088121E+04  0.46999998093E+01 0. -1.
       -5    1    3    3    0  502  0.15354830155E+04  0.92869278479E+03 -0.92368430886E+02  0.17968673842E+04  0.46999998093E+01 0.  1.
</event>
<event>
 5   0  0.2199902E-07  0.3645261E+04  0.7818609E-02  0.8080202E-01
       -2   -1    0    0    0  501  0.00000000000E+00  0.00000000000E+00  0.18459552787E+04  0.18459552787E+04  0.25500000920E-02 0.  1.
        2   -1    0    0  501    0  0.00000000000E+00  0.00000000000E+00 -0.17996001300E+04  0.17996001300E+04  0.25500000920E-02 0. -1.
    10030    2    1    2    0    0  0.00000000000E+00  0.00000000000E+00  0.46355148763E+02  0.36455554087E+04  0.36452606818E+04 0.  0.
        1    1    3    3  502    0  0.91672907977E+03 -0.15742510826E+04  0.80824950753E+02  0.18235107210E+04  0.50400001928E-02 0.  1.
       -1    1    3    3    0  502 -0.91672907977E+03  0.15742510826E+04 -0.34469801990E+02  0.18220446877E+04  0.50400001928E-02 0. -1.
</event>
<event>
 5   0  0.7261233E-08  0.3596358E+04  0.7818609E-02  0.8091326E-01
        1   -1    0    0  501    0  0.00000000000E+00  0.00000000000E+00  0.19669655839E+04  0.19669655839E+04  0.50400001928E-02 0.  1.
       -1   -1    0    0    0  501  0.00000000000E+00  0.00000000000E+00 -0.16438759142E+04  0.16438759142E+04  0.50400001928E-02 0. -1.
    10030    2    1    2    0    0  0.00000000000E+00  0.00000000000E+00  0.32308966968E+03  0.36108414981E+04  0.35963577950E+04 0.  0.
        3    1    3    3  502    0  0.23189988756E+03  0.93956324733E+03  0.16831980772E+04  0.19415747297E+04  0.10100000352E+00 0.  1.
       -3    1    3    3    0  502 -0.23189988756E+03 -0.93956324733E+03 -0.13601084076E+04  0.16692667684E+04  0.10100000352E+00 0. -1.
</event>
<event>
 5   0  0.2198900E-07  0.3610183E+04  0.7818609E-02  0.8088163E-01
       -2   -1    0    0    0  501  0.00000000000E+00  0.00000000000E+00  0.23773549054E+04  0.23773549054E+04  0.25500000920E-02 0.  1.
        2   -1    0    0  501    0  0.00000000000E+00  0.00000000000E+00 -0.13705798623E+04  0.13705798623E+04  0.25500000920E-02 0. -1.
    10030    2    1    2    0    0  0.00000000000E+00  0.00000000000E+00  0.10067750431E+04  0.37479347677E+04  0.36101826873E+04 0.  0.
        2    1    3    3  502    0 -0.16809022801E+03 -0.66875108117E+03  0.22352344074E+04  0.23391783150E+04  0.25500000920E-02 0.  1.
       -2    1    3    3    0  502  0.16809022801E+03  0.66875108117E+03 -0.12284593643E+04  0.14087564527E+04  0.25500000920E-02 0. -1.
</event>
<event>
 5   0  0.2198900E-07  0.3610734E+04  0.7818609E-02  0.8088037E-01
       -2   -1    0    0    0  501  0.00000000000E+00  0.00000000000E+00  0.10755041380E+04  0.10755041380E+04  0.25500000920E-02 0. -1.
        2   -1    0    0  501    0  0.00000000000E+00  0.00000000000E+00 -0.30305325265E+04  0.30305325265E+04  0.25500000920E-02 0.  1.
    10030    2    1    2    0    0  0.00000000000E+00  0.00000000000E+00 -0.19550283885E+04  0.41060366645E+04  0.36107341484E+04 0.  0.
        2    1    3    3  502    0  0.22926032373E+03 -0.14368186598E+04  0.23790307841E+03  0.14743154452E+04  0.25500000920E-02 0. -1.
       -2    1    3    3    0  502 -0.22926032373E+03  0.14368186598E+04 -0.21929314669E+04  0.26317212193E+04  0.25500000920E-02 0.  1.
</event>
<event>
 5   0  0.2198900E-07  0.3601523E+04  0.7818609E-02  0.8090143E-01
        2   -1    0    0  501    0  0.00000000000E+00  0.00000000000E+00  0.27249582404E+04  0.27249582404E+04  0.25500000920E-02 0. -1.
       -2   -1    0    0    0  501  0.00000000000E+00  0.00000000000E+00 -0.11900150727E+04  0.11900150727E+04  0.25500000920E-02 0.  1.
    10030    2    1    2    0    0  0.00000000000E+00  0.00000000000E+00  0.15349431677E+04  0.39149733131E+04  0.36015226661E+04 0.  0.
        2    1    3    3  502    0 -0.15539122663E+04  0.90528051905E+03  0.86807486496E+03  0.19969301742E+04  0.25500000920E-02 0.  1.
       -2    1    3    3    0  502  0.15539122663E+04 -0.90528051905E+03  0.66686830274E+03  0.19180431389E+04  0.25500000920E-02 0. -1.
</event>
<event>
 5   0  0.2238968E-07  0.3607146E+04  0.7818609E-02  0.8088857E-01
        2   -1    0    0  501    0  0.00000000000E+00  0.00000000000E+00  0.23606239795E+04  0.23606239795E+04  0.25500000920E-02 0.  1.
       -2   -1    0    0    0  501  0.00000000000E+00  0.00000000000E+00 -0.13779730257E+04  0.13779730257E+04  0.25500000920E-02 0. -1.
    10030    2    1    2    0    0  0.00000000000E+00  0.00000000000E+00  0.98265095371E+03  0.37385970052E+04  0.36071463334E+04 0.  0.
        3    1    3    3  502    0  0.56536868849E+03  0.13030169855E+04 -0.66065568189E+03  0.15665123551E+04  0.10100000352E+00 0. -1.
       -3    1    3    3    0  502 -0.56536868849E+03 -0.13030169855E+04  0.16433066356E+04  0.21720846501E+04  0.10100000352E+00 0.  1.
</event>
<event>
 5   0  0.2199902E-07  0.3588660E+04  0.7818609E-02  0.8093094E-01
       -2   -1    0    0    0  501  0.00000000000E+00  0.00000000000E+00  0.12681520243E+04  0.12681520243E+04  0.25500000920E-02 0.  1.
        2   -1    0    0  501    0  0.00000000000E+00  0.00000000000E+00 -0.25388279581E+04  0.25388279581E+04  0.25500000920E-02 0. -1.
    10030    2    1    2    0    0  0.00000000000E+00  0.00000000000E+00 -0.12706759338E+04  0.38069799824E+04  0.35886598136E+04 0.  0.
        1    1    3    3  502    0  0.16251713119E+04 -0.36837459349E+03 -0.13412031969E+04  0.21390903790E+04  0.50400001928E-02 0. -1.
       -1    1    3    3    0  502 -0.16251713119E+04  0.36837459349E+03  0.70527263084E+02  0.16678896034E+04  0.50400001928E-02 0.  1.
</event>
<event>
 5   0  0.2342606E-07  0.3601516E+04  0.7818609E-02  0.8090145E-01
       -2   -1    0    0    0  501  0.00000000000E+00  0.00000000000E+00  0.14755063005E+04  0.14755063005E+04  0.25500000920E-02 0.  1.
        2   -1    0    0  501    0  0.00000000000E+00  0.00000000000E+00 -0.21977058806E+04  0.21977058806E+04  0.25500000920E-02 0. -1.
    10030    2    1    2    0    0  0.00000000000E+00  0.00000000000E+00 -0.72219958007E+03  0.36732121811E+04  0.36015157218E+04 0.  0.
        5    1    3    3  502    0  0.27974863253E+03 -0.17723100343E+04 -0.20520193424E+03  0.18059546170E+04  0.46999998093E+01 0.  1.
       -5    1    3    3    0  502 -0.27974863253E+03  0.17723100343E+04 -0.51699764583E+03  0.18672575641E+04  0.46999998093E+01 0. -1.
</event>
<event>
 5   0  0.7514289E-08  0.3598825E+04  0.7818609E-02  0.8090761E-01
        1   -1    0    0  501    0  0.00000000000E+00  0.00000000000E+00  0.17775574446E+04  0.17775574446E+04  0.50400001928E-02 0. -1.
       -1   -1    0    0    0  501  0.00000000000E+00  0.00000000000E+00 -0.18215360973E+04  0.18215360973E+04  0.50400001928E-02 0.  1.
    10030    2    1    2    0    0  0.00000000000E+00  0.00000000000E+00 -0.43978652702E+02  0.35990935420E+04  0.35988248362E+04 0.  0.
        4    1    3    3  502    0  0.12872309596E+04 -0.23926914515E+03 -0.12564518443E+04  0.18146311242E+04  0.12699999809E+01 0.  1.
       -4    1    3    3    0  502 -0.12872309596E+04  0.23926914515E+03  0.12124731916E+04  0.17844624177E+04  0.12699999809E+01 0. -1.
</event>
<event>
 5   0  0.7236375E-08  0.3600624E+04  0.7818609E-02  0.8090349E-01
       -1   -1    0    0    0  501  0.00000000000E+00  0.00000000000E+00  0.13009974210E+04  0.13009974211E+04  0.50400001928E-02 0. -1.
        1   -1    0    0  501    0  0.00000000000E+00  0.00000000000E+00 -0.24912599554E+04  0.24912599554E+04  0.50400001928E-02 0.  1.
    10030    2    1    2    0    0  0.00000000000E+00  0.00000000000E+00 -0.11902625343E+04  0.37922573764E+04  0.36006237110E+04 0.  0.
        5    1    3    3  502    0 -0.16394169162E+04  0.43238778371E+03 -0.12327038062E+04  0.20962413469E+04  0.46999998093E+01 0.  1.
       -5    1    3    3    0  502  0.16394169162E+04 -0.43238778371E+03  0.42441271859E+02  0.16960160295E+04  0.46999998093E+01 0. -1.
</event>
<event>
 5   0  0.2309391E-07  0.3605176E+04  0.7818609E-02  0.8089307E-01
        2   -1    0    0  501    0  0.00000000000E+00  0.00000000000E+00  0.19006532550E+04  0.19006532550E+04  0.25500000920E-02 0. -1.
       -2   -1    0    0    0  501  0.00000000000E+00  0.00000000000E+00 -0.17095821753E+04  0.17095821753E+04  0.25500000920E-02 0.  1.
    10030    2    1    2    0    0  0.00000000000E+00  0.00000000000E+00  0.19107107968E+03  0.36102354303E+04  0.36051756829E+04 0.  0.
        4    1    3    3  502    0 -0.49674837832E+03  0.81157913707E+03 -0.14375937643E+04  0.17239771145E+04  0.12699999809E+01 0.  1.
       -4    1    3    3    0  502  0.49674837832E+03 -0.81157913707E+03  0.16286648440E+04  0.18862583158E+04  0.12699999809E+01 0. -1.
</event>
<event>
 5   0  0.2198900E-07  0.3606665E+04  0.7818609E-02  0.8088967E-01
       -2   -1    0    0    0  501  0.00000000000E+00  0.00000000000E+00  0.20785138555E+04  0.20785138555E+04  0.25500000920E-02 0. -1.
        2   -1    0    0  501    0  0.00000000000E+00  0.00000000000E+00 -0.15645836075E+04  0.15645836075E+04  0.25500000920E-02 0.  1.
    10030    2    1    2    0    0  0.00000000000E+00  0.00000000000E+00  0.51393024797E+03  0.36430974630E+04  0.36066653331E+04 0.  0.
        2    1    3    3  502    0 -0.18919916447E+03  0.12629923903E+04 -0.10291055588E+04  0.16401232737E+04  0.25500000920E-02 0.  1.
       -2    1    3    3    0  502  0.18919916447E+03 -0.12629923903E+04  0.15430358068E+04  0.20029741893E+04  0.25500000920E-02 0. -1.
</event>
<event>
 5   0  0.7236375E-08  0.3573496E+04  0.7818609E-02  0.8096590E-01
       -1   -1    0    0    0  501  0.00000000000E+00  0.00000000000E+00  0.18510680064E+04  0.18510680064E+04  0.50400001928E-02 0.  1.
        1   -1    0    0  501    0  0.00000000000E+00  0.00000000000E+00 -0.17246627104E+04  0.17246627104E+04  0.50400001928E-02 0. -1.
    10030    2    1    2    0    0  0.00000000000E+00  0.00000000000E+00  0.12640529602E+03  0.35757307168E+04  0.35734957479E+04 0.  0.
        5    1    3    3  502    0 -0.11271304950E+04  0.75544911341E+03  0.12263923133E+04  0.18289851590E+04  0.46999998093E+01 0.  1.
       -5    1    3    3    0  502  0.11271304950E+04 -0.75544911341E+03 -0.10999870172E+04  0.17467455578E+04  0.46999998093E+01 0. -1.
</event>
<event>
 5   0  0.7514289E-08  0.3594103E+04  0.7818609E-02  0.8091844E-01
       -1   -1    0    0    0  501  0.00000000000E+00  0.00000000000E+00  0.16121358386E+04  0.16121358386E+04  0.50400001928E-02 0.  1.
        1   -1    0    0  501    0  0.00000000000E+00  0.00000000000E+00 -0.20031776467E+04  0.20031776467E+04  0.50400001928E-02 0. -1.
    10030    2    1    2    0    0  0.00000000000E+00  0.00000000000E+00 -0.39104180806E+03  0.36153134853E+04  0.35941032124E+04 0.  0.
        4    1    3    3  502    0 -0.67619577319E+03 -0.16505018584E+04 -0.41589311384E+03  0.18314927800E+04  0.12699999809E+01 0. -1.
       -4    1    3    3    0  502  0.67619577319E+03  0.16505018584E+04  0.24851305780E+02  0.17838207053E+04  0.12699999809E+01 0.  1.
</event>
<event>
 5   0  0.2342606E-07  0.3602211E+04  0.7818609E-02  0.8089986E-01
       -2   -1    0    0    0  501  0.00000000000E+00  0.00000000000E+00  0.27622046296E+04  0.27622046296E+04  0.25500000920E-02 0.  1.
        2   -1    0    0  501    0  0.00000000000E+00  0.00000000000E+00 -0.11744170965E+04  0.11744170965E+04  0.25500000920E-02 0. -1.
    10030    2    1    2    0    0  0.00000000000E+00  0.00000000000E+00  0.15877875331E+04  0.39366217261E+04  0.36022106218E+04 0.  0.
        5    1    3    3  502    0 -0.34388673450E+03 -0.73917030513E+03  0.25490178293E+04  0.26762183786E+04  0.46999998093E+01 0.  1.
       -5    1    3    3    0  502  0.34388673450E+03  0.73917030513E+03 -0.96123029611E+03  0.12604033475E+04  0.46999998093E+01 0. -1.
</event>
<event>
 5   0  0.7347303E-08  0.3611966E+04  0.7818609E-02  0.8087756E-01
       -1   -1    0    0    0  501  0.00000000000E+00  0.00000000000E+00  0.24555048383E+04  0.24555048383E+04  0.50400001928E-02 0. -1.
        1   -1    0    0  501    0  0.00000000000E+00  0.00000000000E+00 -0.13282704435E+04  0.13282704435E+04  0.50400001928E-02 0.  1.
    10030    2    1    2    0    0  0.00000000000E+00  0.00000000000E+00  0.11272343949E+04  0.37837752818E+04  0.36119659470E+04 0.  0.
        2    1    3    3  502    0 -0.12713496873E+04 -0.11721711853E+04  0.11092166367E+04  0.20544285975E+04  0.25500000920E-02 0.  1.
       -2    1    3    3    0  502  0.12713496873E+04  0.11721711853E+04  0.18017758150E+02  0.17293466843E+04  0.25500000920E-02 0. -1.
</event>
<event>
 5   0  0.7261233E-08  0.3597813E+04  0.7818609E-02  0.8090993E-01
       -1   -1    0    0    0  501  0.00000000000E+00  0.00000000000E+00  0.18029112199E+04  0.18029112199E+04  0.50400001928E-02 0. -1.
        1   -1    0    0  501    0  0.00000000000E+00  0.00000000000E+00 -0.17949107508E+04  0.17949107508E+04  0.50400001928E-02 0.  1.
    10030    2    1    2    0    0  0.00000000000E+00  0.00000000000E+00  0.80004690982E+01  0.35978219707E+04  0.35978130754E+04 0.  0.
        3    1    3    3  502    0  0.65373926688E+03 -0.58192683204E+03  0.15756436637E+04  0.18024058455E+04  0.10100000352E+00 0. -1.
       -3    1    3    3    0  502 -0.65373926688E+03  0.58192683204E+03 -0.15676431946E+04  0.17954161252E+04  0.10100000352E+00 0.  1.
</event>
<event>
 5   0  0.7236375E-08  0.3496217E+04  0.7818609E-02  0.8114687E-01
        1   -1    0    0  501    0  0.00000000000E+00  0.00000000000E+00  0.13754779321E+04  0.13754779321E+04  0.50400001928E-02 0. -1.
       -1   -1    0    0    0  501  0.00000000000E+00  0.00000000000E+00 -0.22216884104E+04  0.22216884104E+04  0.50400001928E-02 0.  1.
    10030    2    1    2    0    0  0.00000000000E+00  0.00000000000E+00 -0.84621047829E+03  0.35971663426E+04  0.34962170302E+04 0.  0.
        1    1    3    3  502    0 -0.74737005971E+03  0.15365747845E+04 -0.80289672426E+03  0.18879266999E+04  0.50400001928E-02 0. -1.
       -1    1    3    3    0  502  0.74737005971E+03 -0.15365747845E+04 -0.43313754032E+02  0.17092396426E+04  0.50400001928E-02 0.  1.
</event>
<event>
 5   0  0.2199902E-07  0.3609876E+04  0.7818609E-02  0.8088233E-01
        2   -1    0    0  501    0  0.00000000000E+00  0.00000000000E+00  0.16615360763E+04  0.16615360763E+04  0.25500000920E-02 0.  1.
       -2   -1    0    0    0  501  0.00000000000E+00  0.00000000000E+00 -0.19607165496E+04  0.19607165496E+04  0.25500000920E-02 0. -1.
    10030    2    1    2    0    0  0.00000000000E+00  0.00000000000E+00 -0.29918047334E+03  0.36222526259E+04  0.36098760547E+04 0.  0.
        1    1    3    3  502    0  0.10436220940E+04  0.46341581909E+03 -0.15522024305E+04  0.19269752676E+04  0.50400001928E-02 0. -1.
       -1    1    3    3    0  502 -0.10436220940E+04 -0.46341581909E+03  0.12530219572E+04  0.16952773583E+04  0.50400001928E-02 0.  1.
</event>
<event>
 5   0  0.2238968E-07  0.3585352E+04  0.7818609E-02  0.8093855E-01
        2   -1    0    0  501    0  0.00000000000E+00  0.00000000000E+00  0.20759162614E+04  0.20759162614E+04  0.25500000920E-02 0. -1.
       -2   -1    0    0    0  501  0.00000000000E+00  0.00000000000E+00 -0.15480814154E+04  0.15480814154E+04  0.25500000920E-02 0.  1.
    10030    2    1    2    0    0  0.00000000000E+00  0.00000000000E+00  0.52783484603E+03  0.36239976768E+04  0.35853520798E+04 0.  0.
        3    1    3    3  502    0  0.45705221064E+03 -0.17120460553E+04 -0.10465640412E+02  0.17720349767E+04  0.10100000352E+00 0.  1.
       -3    1    3    3    0  502 -0.45705221064E+03  0.17120460553E+04  0.53830048645E+03  0.18519627001E+04  0.10100000352E+00 0. -1.
</event>
<event>
 5   0  0.2342606E-07  0.3575411E+04  0.7818609E-02  0.8096147E-01
        2   -1    0    0  501    0  0.00000000000E+00  0.00000000000E+00  0.13473199559E+04  0.13473199559E+04  0.25500000920E-02 0.  1.
       -2   -1    0    0    0  501  0.00000000000E+00  0.00000000000E+00 -0.23720362107E+04  0.23720362107E+04  0.25500000920E-02 0. -1.
    10030    2    1    2    0    0  0.00000000000E+00  0.00000000000E+00 -0.10247162548E+04  0.37193561666E+04  0.35754114296E+04 0.  0.
        5    1    3    3  502    0 -0.60468288487E+02 -0.17818612224E+04 -0.64872264740E+03  0.18972477416E+04  0.46999998093E+01 0. -1.
       -5    1    3    3    0  502  0.60468288487E+02  0.17818612224E+04 -0.37599360740E+03  0.18221084250E+04  0.46999998093E+01 0.  1.
</event>
<event>
 5   0  0.2309391E-07  0.3597912E+04  0.7818609E-02  0.8090970E-01
        2   -1    0    0  501    0  0.00000000000E+00  0.00000000000E+00  0.25312650314E+04  0.25312650314E+04  0.25500000920E-02 0.  1.
       -2   -1    0    0    0  501  0.00000000000E+00  0.00000000000E+00 -0.12785083443E+04  0.12785083443E+04  0.25500000920E-02 0. -1.
    10030    2    1    2    0    0  0.00000000000E+00  0.00000000000E+00  0.12527566871E+04  0.38097733757E+04  0.35979124305E+04 0.  0.
        4    1    3    3  502    0 -0.97974763305E+03  0.43691592821E+03 -0.90276252921E+03  0.14020637467E+04  0.12699999809E+01 0. -1.
       -4    1    3    3    0  502  0.97974763305E+03 -0.43691592821E+03  0.21555192163E+04  0.24077096290E+04  0.12699999809E+01 0.  1.
</event>
<event>
 5   0  0.2199902E-07  0.3614215E+04  0.7818609E-02  0.8087243E-01
        2   -1    0    0  501    0  0.00000000000E+00  0.00000000000E+00  0.16274038858E+04  0.16274038858E+04  0.25500000920E-02 0.  1.
       -2   -1    0    0    0  501  0.00000000000E+00  0.00000000000E+00 -0.20066546043E+04  0.20066546043E+04  0.25500000920E-02 0. -1.
    10030    2    1    2    0    0  0.00000000000E+00  0.00000000000E+00 -0.37925071854E+03  0.36340584900E+04  0.36142149911E+04 0.  0.
        1    1    3    3  502    0 -0.43509337019E+02 -0.65181532924E+03  0.15045233941E+04  0.16402277065E+04  0.50400001928E-02 0.  1.
       -1    1    3    3    0  502  0.43509337019E+02  0.65181532924E+03 -0.18837741126E+04  0.19938307835E+04  0.50400001928E-02 0. -1.
</event>
<event>
 5   0  0.7347303E-08  0.3588769E+04  0.7818609E-02  0.8093069E-01
       -1   -1    0    0    0  501  0.00000000000E+00  0.00000000000E+00  0.93311443671E+03  0.93311443673E+03  0.50400001928E-02 0. -1.
        1   -1    0    0  501    0  0.00000000000E+00  0.00000000000E+00 -0.34506109135E+04  0.34506109135E+04  0.50400001928E-02 0.  1.
    10030    2    1    2    0    0  0.00000000000E+00  0.00000000000E+00 -0.25174964768E+04  0.43837253502E+04  0.35887685124E+04 0.  0.
        2    1    3    3  502    0  0.17648368935E+04 -0.15415582115E+03 -0.16072574901E+04  0.23920054175E+04  0.25500000920E-02 0.  1.
       -2    1    3    3    0  502 -0.17648368935E+04  0.15415582115E+03 -0.91023898666E+03  0.19917199328E+04  0.25500000920E-02 0. -1.
</event>
<event>
 5   0  0.7261233E-08  0.3577588E+04  0.7818609E-02  0.8095645E-01
        1   -1    0    0  501    0  0.00000000000E+00  0.00000000000E+00  0.17137338871E+04  0.17137338871E+04  0.50400001928E-02 0. -1.
       -1   -1    0    0    0  501  0.00000000000E+00  0.00000000000E+00 -0.18671412919E+04  0.18671412919E+04  0.50400001928E-02 0.  1.
    10030    2    1    2    0    0  0.00000000000E+00  0.00000000000E+00 -0.15340740474E+03  0.35808751790E+04  0.35775876252E+04 0.  0.
        3    1    3    3  502    0  0.13735669952E+04 -0.11273305507E+04 -0.28237447861E+03  0.17992486813E+04  0.10100000352E+00 0. -1.
       -3    1    3    3    0  502 -0.13735669952E+04  0.11273305507E+04  0.12896707387E+03  0.17816264977E+04  0.10100000352E+00 0.  1.
</event>
<event>
 5   0  0.2238968E-07  0.3586434E+04  0.7818609E-02  0.8093606E-01
        2   -1    0    0  501    0  0.00000000000E+00  0.00000000000E+00  0.18999611199E+04  0.18999611199E+04  0.25500000920E-02 0.  1.
       -2   -1    0    0    0  501  0.00000000000E+00  0.00000000000E+00 -0.16924702755E+04  0.16924702755E+04  0.25500000920E-02 0. -1.
    10030    2    1    2    0    0  0.00000000000E+00  0.00000000000E+00  0.20749084435E+03  0.35924313954E+04  0.35864342849E+04 0.  0.
        3    1    3    3  502    0  0.10174233993E+04  0.14720740989E+04  0.22002219046E+03  0.18029315851E+04  0.10100000352E+00 0.  1.
       -3    1    3    3    0  502 -0.10174233993E+04 -0.14720740989E+04 -0.12531346105E+02  0.17894998103E+04  0.10100000352E+00 0. -1.
</event>
<event>
 5   0  0.2238968E-07  0.3601324E+04  0.7818609E-02  0.8090188E-01
       -2   -1    0    0    0  501  0.00000000000E+00  0.00000000000E+00  0.17511298438E+04  0.17511298438E+04  0.25500000920E-02 0.  1.
        2   -1    0    0  501    0  0.00000000000E+00  0.00000000000E+00 -0.18515953998E+04  0.18515953998E+04  0.25500000920E-02 0. -1.
    10030    2    1    2    0    0  0.00000000000E+00  0.00000000000E+00 -0.10046555602E+03  0.36027252436E+04  0.36013241805E+04 0.  0.
        3    1    3    3  502    0  0.58655239226E+02  0.11609742864E+04  0.13254684708E+04  0.17629998321E+04  0.10100000352E+00 0.  1.
       -3    1    3    3    0  502 -0.58655239226E+02 -0.11609742864E+04 -0.14259340269E+04  0.18397254115E+04  0.10100000352E+00 0. -1.
</event>
<event>
 5   0  0.7514289E-08  0.3601440E+04  0.7818609E-02  0.8090162E-01
        1   -1    0    0  501    0  0.00000000000E+00  0.00000000000E+00  0.19681483872E+04  0.19681483872E+04  0.50400001928E-02 0.  1.
       -1   -1    0    0    0  501  0.00000000000E+00  0.00000000000E+00 -0.16475341961E+04  0.16475341961E+04  0.50400001928E-02 0. -1.
    10030    2    1    2    0    0  0.00000000000E+00  0.00000000000E+00  0.32061419112E+03  0.36156825833E+04  0.36014395849E+04 0.  0.
        4    1    3    3  502    0 -0.22282198188E+03 -0.85934794731E+03  0.17331751322E+04  0.19473125537E+04  0.12699999809E+01 0.  1.
       -4    1    3    3    0  502  0.22282198188E+03  0.85934794731E+03 -0.14125609411E+04  0.16683700295E+04  0.12699999809E+01 0. -1.
</event>
<event>
 5   0  0.7236375E-08  0.3648102E+04  0.7818609E-02  0.8079561E-01
       -1   -1    0    0    0  501  0.00000000000E+00  0.00000000000E+00  0.16930995901E+04  0.16930995901E+04  0.50400001928E-02 0. -1.
        1   -1    0    0  501    0  0.00000000000E+00  0.00000000000E+00 -0.19651312629E+04  0.19651312629E+04  0.50400001928E-02 0.  1.
    10030    2    1    2    0    0  0.00000000000E+00  0.00000000000E+00 -0.27203167280E+03  0.36582308529E+04  0.36481024852E+04 0.  0.
        1    1    3    3  502    0 -0.13595944788E+04 -0.14229825359E+03 -0.13470180479E+04  0.19191674135E+04  0.50400001928E-02 0.  1.
       -1    1    3    3    0  502  0.13595944788E+04  0.14229825359E+03  0.10749863750E+04  0.17390634394E+04  0.50400001928E-02 0. -1.
</event>
<event>
 5   0  0.2342606E-07  0.3595946E+04  0.7818609E-02  0.8091421E-01
        2   -1    0    0  501    0  0.00000000000E+00  0.00000000000E+00  0.28500468685E+04  0.28500468685E+04  0.25500000920E-02 0.  1.
       -2   -1    0    0    0  501  0.00000000000E+00  0.00000000000E+00 -0.11342645957E+04  0.11342645957E+04  0.25500000920E-02 0. -1.
    10030    2    1    2    0    0  0.00000000000E+00  0.00000000000E+00  0.17157822728E+04  0.39843114641E+04  0.35959461947E+04 0.  0.
        5    1    3    3  502    0 -0.16556972178E+04  0.38124893130E+03  0.15096378705E+04  0.22728204097E+04  0.46999998093E+01 0.  1.
       -5    1    3    3    0  502  0.16556972178E+04 -0.38124893130E+03  0.20614440231E+03  0.17114910544E+04  0.46999998093E+01 0. -1.
</event>
<event>
 5   0  0.7514289E-08  0.3613823E+04  0.7818609E-02  0.8087333E-01
        1   -1    0    0  501    0  0.00000000000E+00  0.00000000000E+00  0.21111190499E+04  0.21111190499E+04  0.50400001928E-02 0.  1.
       -1   -1    0    0    0  501  0.00000000000E+00  0.00000000000E+00 -0.15465397366E+04  0.15465397366E+04  0.50400001928E-02 0. -1.
    10030    2    1    2    0    0  0.00000000000E+00  0.00000000000E+00  0.56457931332E+03  0.36576587865E+04  0.36138231830E+04 0.  0.
        4    1    3    3  502    0  0.84151289183E+03  0.13261836894E+04 -0.62186637601E+03  0.16892680449E+04  0.12699999809E+01 0.  1.
       -4    1    3    3    0  502 -0.84151289183E+03 -0.13261836894E+04  0.11864456893E+04  0.19683907416E+04  0.12699999809E+01 0. -1.
</event>
<event>
 5   0  0.7236375E-08  0.3591222E+04  0.7818609E-02  0.8092505E-01
       -1   -1    0    0    0  501  0.00000000000E+00  0.00000000000E+00  0.17649512051E+04  0.17649512051E+04  0.50400001928E-02 0.  1.
        1   -1    0    0  501    0  0.00000000000E+00  0.00000000000E+00 -0.18268037406E+04  0.18268037406E+04  0.50400001928E-02 0. -1.
    10030    2    1    2    0    0  0.00000000000E+00  0.00000000000E+00 -0.61852535545E+02  0.35917549457E+04  0.35912223342E+04 0.  0.
        1    1    3    3  502    0 -0.71963577055E+03 -0.12527255808E+04  0.10355444197E+04  0.17775121007E+04  0.50400001928E-02 0.  1.
       -1    1    3    3    0  502  0.71963577055E+03  0.12527255808E+04 -0.10973969552E+04  0.18142428450E+04  0.50400001928E-02 0. -1.
</event>
<event>
 5   0  0.2309391E-07  0.3620807E+04  0.7818609E-02  0.8085742E-01
        2   -1    0    0  501    0  0.00000000000E+00  0.00000000000E+00  0.17486689992E+04  0.17486689992E+04  0.25500000920E-02 0. -1.
       -2   -1    0    0    0  501  0.00000000000E+00  0.00000000000E+00 -0.18743174097E+04  0.18743174097E+04  0.25500000920E-02 0.  1.
    10030    2    1    2    0    0  0.00000000000E+00  0.00000000000E+00 -0.12564841052E+03  0.36229864090E+04  0.36208069538E+04 0.  0.
        4    1    3    3  502    0  0.28625884170E+03 -0.12440945948E+04  0.12216321021E+04  0.17669471104E+04  0.12699999809E+01 0. -1.
       -4    1    3    3    0  502 -0.28625884170E+03  0.12440945948E+04 -0.13472805126E+04  0.18560392986E+04  0.12699999809E+01 0.  1.
</event>
<event>
 5   0  0.7261233E-08  0.3557108E+04  0.7818609E-02  0.8100388E-01
       -1   -1    0    0    0  501  0.00000000000E+00  0.00000000000E+00  0.15428956817E+04  0.15428956817E+04  0.50400001928E-02 0.  1.
        1   -1    0    0  501    0  0.00000000000E+00  0.00000000000E+00 -0.20502058410E+04  0.20502058410E+04  0.50400001928E-02 0. -1.
    10030    2    1    2    0    0  0.00000000000E+00  0.00000000000E+00 -0.50731015928E+03  0.35931015227E+04  0.35571076670E+04 0.  0.
        3    1    3    3  502    0 -0.93552552938E+02 -0.18469633604E+03  0.15306817541E+04  0.15446201667E+04  0.10100000352E+00 0.  1.
       -3    1    3    3    0  502  0.93552552938E+02  0.18469633604E+03 -0.20379919134E+04  0.20484813560E+04  0.10100000352E+00 0. -1.
</event>
<event>
 5   0  0.7261233E-08  0.3596115E+04  0.7818609E-02  0.8091382E-01
       -1   -1    0    0    0  501  0.00000000000E+00  0.00000000000E+00  0.23898458655E+04  0.23898458655E+04  0.50400001928E-02 0. -1.
        1   -1    0    0  501    0  0.00000000000E+00  0.00000000000E+00 -0.13528115577E+04  0.13528115577E+04  0.50400001928E-02 0.  1.
    10030    2    1    2    0    0  0.00000000000E+00  0.00000000000E+00  0.10370343078E+04  0.37426574232E+04  0.35961151862E+04 0.  0.
        3    1    3    3  502    0  0.11907109619E+02  0.10829710748E+04  0.20122902122E+04  0.22852308497E+04  0.10100000352E+00 0. -1.
       -3    1    3    3    0  502 -0.11907109619E+02 -0.10829710748E+04 -0.97525590432E+03  0.14574265736E+04  0.10100000352E+00 0.  1.
</event>
<event>
 5   0  0.7236375E-08  0.3604538E+04  0.7818609E-02  0.8089453E-01
        1   -1    0    0  501    0  0.00000000000E+00  0.00000000000E+00  0.12500420388E+04  0.12500420388E+04  0.50400001928E-02 0.  1.
       -1   -1    0    0    0  501  0.00000000000E+00  0.00000000000E+00 -0.25984507643E+04  0.25984507643E+04  0.50400001928E-02 0. -1.
    10030    2    1    2    0    0  0.00000000000E+00  0.00000000000E+00 -0.13484087255E+04  0.38484928031E+04  0.36045375244E+04 0.  0.
        1    1    3    3  502    0  0.54338680885E+03  0.19171460789E+03 -0.24974533506E+04  0.25630639777E+04  0.50400001928E-02 0. -1.
       -1    1    3    3    0  502 -0.54338680885E+03 -0.19171460789E+03  0.11490446251E+04  0.12854288255E+04  0.50400001928E-02 0.  1.
</event>
<event>
 5   0  0.7236375E-08  0.3506212E+04  0.7818609E-02  0.8112319E-01
        1   -1    0    0  501    0  0.00000000000E+00  0.00000000000E+00  0.21785771367E+04  0.21785771367E+04  0.50400001928E-02 0. -1.
       -1   -1    0    0    0  501  0.00000000000E+00  0.00000000000E+00 -0.14107286112E+04  0.14107286112E+04  0.50400001928E-02 0.  1.
    10030    2    1    2    0    0  0.00000000000E+00  0.00000000000E+00  0.76784852547E+03  0.35893057479E+04  0.35062122574E+04 0.  0.
        5    1    3    3  502    0 -0.15639062819E+04  0.74483303738E+03  0.66009519563E+03  0.18537332250E+04  0.46999998093E+01 0. -1.
       -5    1    3    3    0  502  0.15639062819E+04 -0.74483303738E+03  0.10775332984E+03  0.17355725229E+04  0.46999998093E+01 0.  1.
</event>
<event>
 5   0  0.7236375E-08  0.3598343E+04  0.7818609E-02  0.8090871E-01
        1   -1    0    0  501    0  0.00000000000E+00  0.00000000000E+00  0.12632387156E+04  0.12632387156E+04  0.50400001928E-02 0. -1.
       -1   -1    0    0    0  501  0.00000000000E+00  0.00000000000E+00 -0.25624747400E+04  0.25624747400E+04  0.50400001928E-02 0.  1.
    10030    2    1    2    0    0  0.00000000000E+00  0.00000000000E+00 -0.12992360244E+04  0.38257134557E+04  0.35983425626E+04 0.  0.
        5    1    3    3  502    0  0.17172169455E+04  0.53639591167E+03 -0.67193476291E+03  0.19204356348E+04  0.46999998093E+01 0. -1.
       -5    1    3    3    0  502 -0.17172169455E+04 -0.53639591167E+03 -0.62730126154E+03  0.19052778208E+04  0.46999998093E+01 0.  1.
</event>
<event>
 5   0  0.7347303E-08  0.3593142E+04  0.7818609E-02  0.8092064E-01
       -1   -1    0    0    0  501  0.00000000000E+00  0.00000000000E+00  0.17576198981E+04  0.17576198981E+04  0.50400001928E-02 0.  1.
        1   -1    0    0  501    0  0.00000000000E+00  0.00000000000E+00 -0.18363851239E+04  0.18363851239E+04  0.50400001928E-02 0. -1.
    10030    2    1    2    0    0  0.00000000000E+00  0.00000000000E+00 -0.78765225799E+02  0.35940050220E+04  0.35931418198E+04 0.  0.
        2    1    3    3  502    0  0.83785131320E+03  0.51705968090E+03 -0.15425149053E+04  0.18299447450E+04  0.25500000920E-02 0. -1.
       -2    1    3    3    0  502 -0.83785131320E+03 -0.51705968090E+03  0.14637496795E+04  0.17640602770E+04  0.25500000920E-02 0.  1.
</event>
<event>
 5   0  0.7347303E-08  0.3604074E+04  0.7818609E-02  0.8089559E-01
        1   -1    0    0  501    0  0.00000000000E+00  0.00000000000E+00  0.19971889887E+04  0.19971889887E+04  0.50400001928E-02 0.  1.
       -1   -1    0    0    0  501  0.00000000000E+00  0.00000000000E+00 -0.16259537076E+04  0.16259537076E+04  0.50400001928E-02 0. -1.
    10030    2    1    2    0    0  0.00000000000E+00  0.00000000000E+00  0.37123528101E+03  0.36231426963E+04  0.36040737179E+04 0.  0.
        2    1    3    3  502    0  0.83491638142E+03  0.49692840081E+03  0.17113147144E+04  0.19678976730E+04  0.25500000920E-02 0.  1.
       -2    1    3    3    0  502 -0.83491638142E+03 -0.49692840081E+03 -0.13400794334E+04  0.16552450233E+04  0.25500000920E-02 0. -1.
</event>
<event>
 5   0  0.7347303E-08  0.3606033E+04  0.7818609E-02  0.8089111E-01
        1   -1    0    0  501    0  0.00000000000E+00  0.00000000000E+00  0.15961752219E+04  0.15961752219E+04  0.50400001928E-02 0. -1.
       -1   -1    0    0    0  501  0.00000000000E+00  0.00000000000E+00 -0.20366610057E+04  0.20366610057E+04  0.50400001928E-02 0.  1.
    10030    2    1    2    0    0  0.00000000000E+00  0.00000000000E+00 -0.44048578378E+03  0.36328362276E+04  0.36060326303E+04 0.  0.
        2    1    3    3  502    0 -0.17450785880E+04  0.83169306642E+02 -0.66925908697E+03  0.18708618702E+04  0.25500000920E-02 0.  1.
       -2    1    3    3    0  502  0.17450785880E+04 -0.83169306642E+02  0.22877330319E+03  0.17619743574E+04  0.25500000920E-02 0. -1.
</event>
<event>
 5   0  0.2238968E-07  0.3598353E+04  0.7818609E-02  0.8090869E-01
        2   -1    0    0  501    0  0.00000000000E+00  0.00000000000E+00  0.13340319112E+04  0.13340319112E+04  0.25500000920E-02 0. -1.
       -2   -1    0    0    0  501  0.00000000000E+00  0.00000000000E+00 -0.24265054266E+04  0.24265054266E+04  0.25500000920E-02 0.  1.
    10030    2    1    2    0    0  0.00000000000E+00  0.00000000000E+00 -0.10924735154E+04  0.37605373379E+04  0.35983527742E+04 0.  0.
        3    1    3    3  502    0  0.86617316837E+03  0.11574590324E+04 -0.16655220687E+04  0.22054321891E+04  0.10100000352E+00 0.  1.
       -3    1    3    3    0  502 -0.86617316837E+03 -0.11574590324E+04  0.57304855327E+03  0.15551051488E+04  0.10100000352E+00 0. -1.
</event>
<event>
 5   0  0.7236375E-08  0.3601706E+04  0.7818609E-02  0.8090101E-01
       -1   -1    0    0    0  501  0.00000000000E+00  0.00000000000E+00  0.15260702054E+04  0.15260702054E+04  0.50400001928E-02 0.  1.
        1   -1    0    0  501    0  0.00000000000E+00  0.00000000000E+00 -0.21251126585E+04  0.21251126585E+04  0.50400001928E-02 0. -1.
    10030    2    1    2    0    0  0.00000000000E+00  0.00000000000E+00 -0.59904245308E+03  0.36511828639E+04  0.36017057688E+04 0.  0.
        1    1    3    3  502    0  0.80151928064E+03 -0.12191817753E+04 -0.13695944776E+04  0.20011562637E+04  0.50400001928E-02 0. -1.
       -1    1    3    3    0  502 -0.80151928064E+03  0.12191817753E+04  0.77055202457E+03  0.16500266001E+04  0.50400001928E-02 0.  1.
</event>
<event>
 5   0  0.2238968E-07  0.3604958E+04  0.7818609E-02  0.8089357E-01
       -2   -1    0    0    0  501  0.00000000000E+00  0.00000000000E+00  0.18586706282E+04  0.18586706282E+04  0.25500000920E-02 0.  1.
        2   -1    0    0  501    0  0.00000000000E+00  0.00000000000E+00 -0.17479864063E+04  0.17479864063E+04  0.25500000920E-02 0. -1.
    10030    2    1    2    0    0  0.00000000000E+00  0.00000000000E+00  0.11068422190E+03  0.36066570345E+04  0.36049582477E+04 0.  0.
        3    1    3    3  502    0  0.11391828603E+04 -0.63843667561E+03  0.12983413625E+04  0.18414747573E+04  0.10100000352E+00 0.  1.
       -3    1    3    3    0  502 -0.11391828603E+04  0.63843667561E+03 -0.11876571406E+04  0.17651822772E+04  0.10100000352E+00 0. -1.
</event>
<event>
 5   0  0.7514289E-08  0.3605865E+04  0.7818609E-02  0.8089150E-01
       -1   -1    0    0    0  501  0.00000000000E+00  0.00000000000E+00  0.16203892676E+04  0.16203892676E+04  0.50400001928E-02 0.  1.
        1   -1    0    0  501    0  0.00000000000E+00  0.00000000000E+00 -0.20060400010E+04  0.20060400010E+04  0.50400001928E-02 0. -1.
    10030    2    1    2    0    0  0.00000000000E+00  0.00000000000E+00 -0.38565073347E+03  0.36264292686E+04  0.36058650491E+04 0.  0.
        4    1    3    3  502    0 -0.92677513593E+03 -0.97149542934E+03  0.10173026351E+04  0.16845242017E+04  0.12699999809E+01 0.  1.
       -4    1    3    3    0  502  0.92677513593E+03  0.97149542934E+03 -0.14029533685E+04  0.19419050669E+04  0.12699999809E+01 0. -1.
</event>
<event>
 5   0  0.2309391E-07  0.3592672E+04  0.7818609E-02  0.8092172E-01
       -2   -1    0    0    0  501  0.00000000000E+00  0.00000000000E+00  0.30251887794E+04  0.30251887794E+04  0.25500000920E-02 0.  1.
        2   -1    0    0  501    0  0.00000000000E+00  0.00000000000E+00 -0.10666519325E+04  0.10666519325E+04  0.25500000920E-02 0. -1.
    10030    2    1    2    0    0  0.00000000000E+00  0.00000000000E+00  0.19585368469E+04  0.40918407119E+04  0.35926722409E+04 0.  0.
        4    1    3    3  502    0 -0.31428679855E+03 -0.21276276991E+03  0.29790023837E+04  0.30030819174E+04  0.12699999809E+01 0.  1.
       -4    1    3    3    0  502  0.31428679855E+03  0.21276276991E+03 -0.10204655367E+04  0.10887587945E+04  0.12699999809E+01 0. -1.
</event>
<event>
 5   0  0.2199902E-07  0.3610338E+04  0.7818609E-02  0.8088128E-01
       -2   -1    0    0    0  501  0.00000000000E+00  0.00000000000E+00  0.16086261799E+04  0.16086261799E+04  0.25500000920E-02 0. -1.
        2   -1    0    0  501    0  0.00000000000E+00  0.00000000000E+00 -0.20257252986E+04  0.20257252986E+04  0.25500000920E-02 0.  1.
    10030    2    1    2    0    0  0.00000000000E+00  0.00000000000E+00 -0.41709911871E+03  0.36343514785E+04  0.36103377950E+04 0.  0.
        1    1    3    3  502    0 -0.81348363228E+03 -0.89580595749E+03 -0.15570156407E+04  0.19719334773E+04  0.50400001928E-02 0.  1.
       -1    1    3    3    0  502  0.81348363228E+03  0.89580595749E+03  0.11399165220E+04  0.16624180012E+04  0.50400001928E-02 0. -1.
</event>
<event>
 5   0  0.7261233E-08  0.3594784E+04  0.7818609E-02  0.8091688E-01
       -1   -1    0    0    0  501  0.00000000000E+00  0.00000000000E+00  0.20072072569E+04  0.20072072569E+04  0.50400001928E-02 0.  1.
        1   -1    0    0  501    0  0.00000000000E+00  0.00000000000E+00 -0.16095086052E+04  0.16095086052E+04  0.50400001928E-02 0. -1.
    10030    2    1    2    0    0  0.00000000000E+00  0.00000000000E+00  0.39769865170E+03  0.36167158620E+04  0.35947836387E+04 0.  0.
        3    1    3    3  502    0  0.48662183573E+03 -0.17291199263E+04  0.13553037194E+03  0.18013952987E+04  0.10100000352E+00 0.  1.
       -3    1    3    3    0  502 -0.48662183573E+03  0.17291199263E+04  0.26216827976E+03  0.18153205633E+04  0.10100000352E+00 0. -1.
</event>
<event>
 5   0  0.2238968E-07  0.3610179E+04  0.7818609E-02  0.8088164E-01
        2   -1    0    0  501    0  0.00000000000E+00  0.00000000000E+00  0.23514520817E+04  0.23514520818E+04  0.25500000920E-02 0.  1.
       -2   -1    0    0    0  501  0.00000000000E+00  0.00000000000E+00 -0.13856747006E+04  0.13856747006E+04  0.25500000920E-02 0. -1.
    10030    2    1    2    0    0  0.00000000000E+00  0.00000000000E+00  0.96577738113E+03  0.37371267824E+04  0.36101787542E+04 0.  0.
        3    1    3    3  502    0  0.13547492051E+04  0.74033500945E+03 -0.48536664965E+03  0.16183393123E+04  0.10100000352E+00 0. -1.
       -3    1    3    3    0  502 -0.13547492051E+04 -0.74033500945E+03  0.14511440308E+04  0.21187874701E+04  0.10100000352E+00 0.  1.
</event>
<event>
 5   0  0.7514289E-08  0.3601842E+04  0.7818609E-02  0.8090070E-01
       -1   -1    0    0    0  501  0.00000000000E+00  0.00000000000E+00  0.12666562421E+04  0.12666562422E+04  0.50400001928E-02 0. -1.
        1   -1    0    0  501    0  0.00000000000E+00  0.00000000000E+00 -0.25605343657E+04  0.25605343657E+04  0.50400001928E-02 0.  1.
    10030    2    1    2    0    0  0.00000000000E+00  0.00000000000E+00 -0.12938781235E+04  0.38271906078E+04  0.36018422162E+04 0.  0.
        4    1    3    3  502    0  0.15868173457E+04  0.77226529385E+03 -0.10284756501E+04  0.20425833517E+04  0.12699999809E+01 0. -1.
       -4    1    3    3    0  502 -0.15868173457E+04 -0.77226529385E+03 -0.26540247339E+03  0.17846072561E+04  0.12699999809E+01 0.  1.
</event>
<event>
 5   0  0.2198900E-07  0.3582831E+04  0.7818609E-02  0.8094436E-01
        2   -1    0    0  501    0  0.00000000000E+00  0.00000000000E+00  0.17390325764E+04  0.17390325764E+04  0.25500000920E-02 0.  1.
       -2   -1    0    0    0  501  0.00000000000E+00  0.00000000000E+00 -0.18453764142E+04  0.18453764143E+04  0.25500000920E-02 0. -1.
    10030    2    1    2    0    0  0.00000000000E+00  0.00000000000E+00 -0.10634383781E+03  0.35844089907E+04  0.35828311153E+04 0.  0.
        2    1    3    3  502    0  0.10635437963E+04  0.14236568359E+04 -0.27964631934E+03  0.17989236384E+04  0.25500000920E-02 0.  1.
       -2    1    3    3    0  502 -0.10635437963E+04 -0.14236568359E+04  0.17330248153E+03  0.17854853523E+04  0.25500000920E-02 0. -1.
</event>
<event>
 5   0  0.7514289E-08  0.3621952E+04  0.7818609E-02  0.8085482E-01
       -1   -1    0    0    0  501  0.00000000000E+00  0.00000000000E+00  0.15369848087E+04  0.15369848087E+04  0.50400001928E-02 0.  1.
        1   -1    0    0  501    0  0.00000000000E+00  0.00000000000E+00 -0.21338105406E+04  0.21338105406E+04  0.50400001928E-02 0. -1.
    10030    2    1    2    0    0  0.00000000000E+00  0.00000000000E+00 -0.59682573186E+03  0.36707953493E+04  0.36219521728E+04 0.  0.
        4    1    3    3  502    0  0.30733441729E+03  0.17799835823E+04 -0.16690645650E+03  0.18140163658E+04  0.12699999809E+01 0.  1.
       -4    1    3    3    0  502 -0.30733441729E+03 -0.17799835823E+04 -0.42991927536E+03  0.18567789835E+04  0.12699999809E+01 0. -1.
</event>
<event>
 5   0  0.7514289E-08  0.3373354E+04  0.7818609E-02  0.8144477E-01
        1   -1    0    0  501    0  0.00000000000E+00  0.00000000000E+00  0.20110059983E+04  0.20110059983E+04  0.50400001928E-02 0.  1.
       -1   -1    0    0    0  501  0.00000000000E+00  0.00000000000E+00 -0.14146547868E+04  0.14146547868E+04  0.50400001928E-02 0. -1.
    10030    2    1    2    0    0  0.00000000000E+00  0.00000000000E+00  0.59635121148E+03  0.34256607851E+04  0.33733539760E+04 0.  0.
        4    1    3    3  502    0 -0.61647210414E+03  0.96997207338E+03  0.15518191402E+04  0.19310691171E+04  0.12699999809E+01 0.  1.
       -4    1    3    3    0  502  0.61647210414E+03 -0.96997207338E+03 -0.95546792873E+03  0.14945916680E+04  0.12699999809E+01 0. -1.
</event>
<event>
 5   0  0.7347303E-08  0.3602637E+04  0.7818609E-02  0.8089888E-01
        1   -1    0    0  501    0  0.00000000000E+00  0.00000000000E+00  0.13602901539E+04  0.13602901539E+04  0.50400001928E-02 0. -1.
       -1   -1    0    0    0  501  0.00000000000E+00  0.00000000000E+00 -0.23853349310E+04  0.23853349310E+04  0.50400001928E-02 0.  1.
    10030    2    1    2    0    0  0.00000000000E+00  0.00000000000E+00 -0.10250447771E+04  0.37456250849E+04  0.36026366014E+04 0.  0.
        2    1    3    3  502    0 -0.15258142613E+04 -0.34789271620E+03 -0.14398938434E+04  0.21266012278E+04  0.25500000920E-02 0.  1.
       -2    1    3    3    0  502  0.15258142613E+04  0.34789271620E+03  0.41484906629E+03  0.16190238571E+04  0.25500000920E-02 0. -1.
</event>
<event>
 5   0  0.2198900E-07  0.3606248E+04  0.7818609E-02  0.8089062E-01
        2   -1    0    0  501    0  0.00000000000E+00  0.00000000000E+00  0.22996047097E+04  0.22996047097E+04  0.25500000920E-02 0.  1.
       -2   -1    0    0    0  501  0.00000000000E+00  0.00000000000E+00 -0.14138324270E+04  0.14138324270E+04  0.25500000920E-02 0. -1.
    10030    2    1    2    0    0  0.00000000000E+00  0.00000000000E+00  0.88577228272E+03  0.37134371367E+04  0.36062477496E+04 0.  0.
        2    1    3    3  502    0 -0.12815600761E+04  0.11865403247E+04 -0.18748720227E+02  0.17466040437E+04  0.25500000920E-02 0. -1.
       -2    1    3    3    0  502  0.12815600761E+04 -0.11865403247E+04  0.90452100295E+03  0.19668330930E+04  0.25500000920E-02 0.  1.
</event>
<event>
 5   0  0.2199902E-07  0.3585357E+04  0.7818609E-02  0.8093854E-01
       -2   -1    0    0    0  501  0.00000000000E+00  0.00000000000E+00  0.14084395120E+04  0.14084395120E+04  0.25500000920E-02 0. -1.
        2   -1    0    0  501    0  0.00000000000E+00  0.00000000000E+00 -0.22817423843E+04  0.22817423843E+04  0.25500000920E-02 0.  1.
    10030    2    1    2    0    0  0.00000000000E+00  0.00000000000E+00 -0.87330287232E+03  0.36901818963E+04  0.35853569587E+04 0.  0.
        1    1    3    3  502    0  0.42672238357E+03 -0.54560254179E+03  0.12651482278E+04  0.14423502225E+04  0.50400001928E-02 0. -1.
       -1    1    3    3    0  502 -0.42672238357E+03  0.54560254179E+03 -0.21384511001E+04  0.22478316738E+04  0.50400001928E-02 0.  1.
</event>
<event>
 5   0  0.2342606E-07  0.3593631E+04  0.7818609E-02  0.8091952E-01
       -2   -1    0    0    0  501  0.00000000000E+00  0.00000000000E+00  0.27910753593E+04  0.27910753593E+04  0.25500000920E-02 0.  1.
        2   -1    0    0  501    0  0.00000000000E+00  0.00000000000E+00 -0.11567390362E+04  0.11567390362E+04  0.25500000920E-02 0. -1.
    10030    2    1    2    0    0  0.00000000000E+00  0.00000000000E+00  0.16343363230E+04  0.39478143955E+04  0.35936309332E+04 0.  0.
        5    1    3    3  502    0 -0.75518621434E+03  0.88675275306E+03 -0.68584600972E+03  0.13516817312E+04  0.46999998093E+01 0. -1.
       -5    1    3    3    0  502  0.75518621434E+03 -0.88675275306E+03  0.23201823328E+04  0.25961326643E+04  0.46999998093E+01 0.  1.
</event>
<event>
 5   0  0.2199902E-07  0.3600944E+04  0.7818609E-02  0.8090276E-01
       -2   -1    0    0    0  501  0.00000000000E+00  0.00000000000E+00  0.12062830519E+04  0.12062830519E+04  0.25500000920E-02 0.  1.
        2   -1    0    0  501    0  0.00000000000E+00  0.00000000000E+00 -0.26873453133E+04  0.26873453133E+04  0.25500000920E-02 0. -1.
    10030    2    1    2    0    0  0.00000000000E+00  0.00000000000E+00 -0.14810622614E+04  0.38936283652E+04  0.36009438241E+04 0.  0.
        1    1    3    3  502    0  0.17329834388E+03  0.10509046731E+04 -0.23101631418E+04  0.25438723807E+04  0.50400001928E-02 0. -1.
       -1    1    3    3    0  502 -0.17329834388E+03 -0.10509046731E+04  0.82910088038E+03  0.13497559845E+04  0.50400001928E-02 0.  1.
</event>
<event>
 5   0  0.7236375E-08  0.3596685E+04  0.7818609E-02  0.8091251E-01
       -1   -1    0    0    0  501  0.00000000000E+00  0.00000000000E+00  0.18261305394E+04  0.18261305394E+04  0.50400001928E-02 0. -1.
        1   -1    0    0  501    0  0.00000000000E+00  0.00000000000E+00 -0.17709772163E+04  0.17709772164E+04  0.50400001928E-02 0.  1.
    10030    2    1    2    0    0  0.00000000000E+00  0.00000000000E+00  0.55153323086E+02  0.35971077558E+04  0.35966849066E+04 0.  0.
        1    1    3    3  502    0 -0.79424209092E+03 -0.79198337531E+02 -0.15841160405E+04  0.17738423001E+04  0.50400001928E-02 0.  1.
       -1    1    3    3    0  502  0.79424209092E+03  0.79198337531E+02  0.16392693636E+04  0.18232654557E+04  0.50400001928E-02 0. -1.
</event>
<event>
 5   0  0.2342606E-07  0.3646574E+04  0.7818609E-02  0.8079906E-01
       -2   -1    0    0    0  501  0.00000000000E+00  0.00000000000E+00  0.25915635844E+04  0.25915635844E+04  0.25500000920E-02 0.  1.
        2   -1    0    0  501    0  0.00000000000E+00  0.00000000000E+00 -0.12827679587E+04  0.12827679587E+04  0.25500000920E-02 0. -1.
    10030    2    1    2    0    0  0.00000000000E+00  0.00000000000E+00  0.13087956257E+04  0.38743315431E+04  0.36465735858E+04 0.  0.
        5    1    3    3  502    0 -0.71191519957E+03 -0.13068484434E+04 -0.46480811488E+03  0.15590845965E+04  0.46999998093E+01 0. -1.
       -5    1    3    3    0  502  0.71191519957E+03  0.13068484434E+04  0.17736037406E+04  0.23152469466E+04  0.46999998093E+01 0.  1.
</event>
<event>
 5   0  0.2309391E-07  0.3611149E+04  0.7818609E-02  0.8087943E-01
       -2   -1    0    0    0  501  0.00000000000E+00  0.00000000000E+00  0.14321233154E+04  0.14321233154E+04  0.25500000920E-02 0. -1.
        2   -1    0    0  501    0  0.00000000000E+00  0.00000000000E+00 -0.22764092893E+04  0.22764092893E+04  0.25500000920E-02 0.  1.
    10030    2    1    2    0    0  0.00000000000E+00  0.00000000000E+00 -0.84428597386E+03  0.37085326047E+04  0.36111487472E+04 0.  0.
        4    1    3    3  502    0  0.96696975304E+02  0.16956308874E+04  0.20723212948E+03  0.17109825188E+04  0.12699999809E+01 0. -1.
       -4    1    3    3    0  502 -0.96696975304E+02 -0.16956308874E+04 -0.10515181033E+04  0.19975500859E+04  0.12699999809E+01 0.  1.
</event>
<event>
 5   0  0.2309391E-07  0.3605760E+04  0.7818609E-02  0.8089174E-01
       -2   -1    0    0    0  501  0.00000000000E+00  0.00000000000E+00  0.19303075087E+04  0.19303075087E+04  0.25500000920E-02 0.  1.
        2   -1    0    0  501    0  0.00000000000E+00  0.00000000000E+00 -0.16838646570E+04  0.16838646570E+04  0.25500000920E-02 0. -1.
    10030    2    1    2    0    0  0.00000000000E+00  0.00000000000E+00  0.24644285169E+03  0.36141721656E+04  0.36057601645E+04 0.  0.
        4    1    3    3  502    0  0.67742979255E+02  0.13644488232E+04 -0.10559862212E+04  0.17266783762E+04  0.12699999809E+01 0. -1.
       -4    1    3    3    0  502 -0.67742979255E+02 -0.13644488232E+04  0.13024290729E+04  0.18874937895E+04  0.12699999809E+01 0.  1.
</event>
<event>
 5   0  0.7347303E-08  0.3592202E+04  0.7818609E-02  0.8092280E-01
       -1   -1    0    0    0  501  0.00000000000E+00  0.00000000000E+00  0.19895376277E+04  0.19895376278E+04  0.50400001928E-02 0.  1.
        1   -1    0    0  501    0  0.00000000000E+00  0.00000000000E+00 -0.16214712784E+04  0.16214712784E+04  0.50400001928E-02 0. -1.
    10030    2    1    2    0    0  0.00000000000E+00  0.00000000000E+00  0.36806634938E+03  0.36110089061E+04  0.35922016205E+04 0.  0.
        2    1    3    3  502    0 -0.11189760655E+04 -0.13580925465E+04  0.54571593402E+03  0.18423703973E+04  0.25500000920E-02 0.  1.
       -2    1    3    3    0  502  0.11189760655E+04  0.13580925465E+04 -0.17764958463E+03  0.17686385089E+04  0.25500000920E-02 0. -1.
</event>
<event>
 5   0  0.7261233E-08  0.3593641E+04  0.7818609E-02  0.8091950E-01
       -1   -1    0    0    0  501  0.00000000000E+00  0.00000000000E+00  0.12046458029E+04  0.12046458029E+04  0.50400001928E-02 0. -1.
        1   -1    0    0  501    0  0.00000000000E+00  0.00000000000E+00 -0.26800933730E+04  0.26800933730E+04  0.50400001928E-02 0.  1.
    10030    2    1    2    0    0  0.00000000000E+00  0.00000000000E+00 -0.14754475702E+04  0.38847391759E+04  0.35936406237E+04 0.  0.
        3    1    3    3  502    0  0.15183504238E+04  0.39702297601E+03  0.20810695745E+03  0.15831373184E+04  0.10100000352E+00 0. -1.
       -3    1    3    3    0  502 -0.15183504238E+04 -0.39702297601E+03 -0.16835545276E+04  0.23016018575E+04  0.10100000352E+00 0.  1.
</event>
<event>
 5   0  0.7236375E-08  0.3549300E+04  0.7818609E-02  0.8102205E-01
       -1   -1    0    0    0  501  0.00000000000E+00  0.00000000000E+00  0.18158091751E+04  0.18158091751E+04  0.50400001928E-02 0. -1.
        1   -1    0    0  501    0  0.00000000000E+00  0.00000000000E+00 -0.17344242072E+04  0.17344242073E+04  0.50400001928E-02 0.  1.
    10030    2    1    2    0    0  0.00000000000E+00  0.00000000000E+00  0.81384967823E+02  0.35502333823E+04  0.35493004319E+04 0.  0.
        5    1    3    3  502    0  0.17073011510E+03 -0.15506141150E+04 -0.80558450965E+03  0.17557167761E+04  0.46999998093E+01 0.  1.
       -5    1    3    3    0  502 -0.17073011510E+03  0.15506141150E+04  0.88696947747E+03  0.17945166062E+04  0.46999998093E+01 0. -1.
</event>
<event>
 5   0  0.2309391E-07  0.3616634E+04  0.7818609E-02  0.8086692E-01
        2   -1    0    0  501    0  0.00000000000E+00  0.00000000000E+00  0.23064508572E+04  0.23064508572E+04  0.25500000920E-02 0. -1.
       -2   -1    0    0    0  501  0.00000000000E+00  0.00000000000E+00 -0.14177673174E+04  0.14177673174E+04  0.25500000920E-02 0.  1.
    10030    2    1    2    0    0  0.00000000000E+00  0.00000000000E+00  0.88868353978E+03  0.37242181746E+04  0.36166341505E+04 0.  0.
        4    1    3    3  502    0  0.29895041106E+03  0.10863350797E+04 -0.10121274459E+04  0.15145622580E+04  0.12699999809E+01 0.  1.
       -4    1    3    3    0  502 -0.29895041106E+03 -0.10863350797E+04  0.19008109857E+04  0.22096559166E+04  0.12699999809E+01 0. -1.
</event>
<event>
 5   0  0.2342606E-07  0.3651163E+04  0.7818609E-02  0.8078872E-01
        2   -1    0    0  501    0  0.00000000000E+00  0.00000000000E+00  0.27503056441E+04  0.27503056441E+04  0.25500000920E-02 0.  1.
       -2   -1    0    0    0  501  0.00000000000E+00  0.00000000000E+00 -0.12117739348E+04  0.12117739348E+04  0.25500000920E-02 0. -1.
    10030    2    1    2    0    0  0.00000000000E+00  0.00000000000E+00  0.15385317093E+04  0.39620795789E+04  0.36511634816E+04 0.  0.
        5    1    3    3  502    0  0.97501558416E+03 -0.44986206437E+03  0.23713665636E+04  0.26031582233E+04  0.46999998093E+01 0.  1.
       -5    1    3    3    0  502 -0.97501558416E+03  0.44986206437E+03 -0.83283485430E+03  0.13589213557E+04  0.46999998093E+01 0. -1.
</event>
<event>
 5   0  0.2199902E-07  0.3620310E+04  0.7818609E-02  0.8085855E-01
       -2   -1    0    0    0  501  0.00000000000E+00  0.00000000000E+00  0.28632424875E+04  0.28632424875E+04  0.25500000920E-02 0.  1.
        2   -1    0    0  501    0  0.00000000000E+00  0.00000000000E+00 -0.11443883437E+04  0.11443883437E+04  0.25500000920E-02 0. -1.
    10030    2    1    2    0    0  0.00000000000E+00  0.00000000000E+00  0.17188541438E+04  0.40076308312E+04  0.36203101126E+04 0.  0.
        1    1    3    3  502    0 -0.30981215712E+03 -0.69554589724E+03 -0.95848907358E+03  0.12241196723E+04  0.50400001928E-02 0. -1.
       -1    1    3    3    0  502  0.30981215712E+03  0.69554589724E+03  0.26773432174E+04  0.27835111589E+04  0.50400001928E-02 0.  1.
</event>
<event>
 5   0  0.2199902E-07  0.3581590E+04  0.7818609E-02  0.8094722E-01
        2   -1    0    0  501    0  0.00000000000E+00  0.00000000000E+00  0.24783055499E+04  0.24783055499E+04  0.25500000920E-02 0. -1.
       -2   -1    0    0    0  501  0.00000000000E+00  0.00000000000E+00 -0.12940076186E+04  0.12940076186E+04  0.25500000920E-02 0.  1.
    10030    2    1    2    0    0  0.00000000000E+00  0.00000000000E+00  0.11842979313E+04  0.37723131684E+04  0.35815897379E+04 0.  0.
        1    1    3    3  502    0  0.13560344352E+04  0.32016356611E+03  0.17770503934E+04  0.22581501720E+04  0.50400001928E-02 0. -1.
       -1    1    3    3    0  502 -0.13560344352E+04 -0.32016356611E+03 -0.59275246210E+03  0.15141629964E+04  0.50400001928E-02 0.  1.
</event>
<event>
 5   0  0.7236375E-08  0.3607230E+04  0.7818609E-02  0.8088838E-01
        3   -1    0    0  501    0  0.00000000000E+00  0.00000000000E+00  0.18534553450E+04  0.18534553478E+04  0.10100000352E+00 0. -1.
       -3   -1    0    0    0  501  0.00000000000E+00  0.00000000000E+00 -0.17551149526E+04  0.17551149555E+04  0.10100000352E+00 0.  1.
    10030    2    1    2    0    0  0.00000000000E+00  0.00000000000E+00  0.98340392365E+02  0.36085703033E+04  0.36072300732E+04 0.  0.
        4    1    3    3  502    0 -0.21869681637E+03 -0.17419951058E+04  0.46242214317E+03  0.18155470518E+04  0.12699999809E+01 0.  1.
       -4    1    3    3    0  502  0.21869681637E+03  0.17419951058E+04 -0.36408175080E+03  0.17930232515E+04  0.12699999809E+01 0. -1.
</event>
<event>
 5   0  0.7236375E-08  0.3673115E+04  0.7818609E-02  0.8073946E-01
       -3   -1    0    0    0  501  0.00000000000E+00  0.00000000000E+00  0.10910600499E+04  0.10910600546E+04  0.10100000352E+00 0. -1.
        3   -1    0    0  501    0  0.00000000000E+00  0.00000000000E+00 -0.30914365726E+04  0.30914365743E+04  0.10100000352E+00 0.  1.
    10030    2    1    2    0    0  0.00000000000E+00  0.00000000000E+00 -0.20003765227E+04  0.41824966289E+04  0.36731147298E+04 0.  0.
        1    1    3    3  502    0 -0.32129641718E+03 -0.13140433825E+04  0.41425095116E+03  0.14147597851E+04  0.50400001928E-02 0. -1.
       -1    1    3    3    0  502  0.32129641718E+03  0.13140433825E+04 -0.24146274739E+04  0.27677368438E+04  0.50400001928E-02 0.  1.
</event>
<event>
 5   0  0.2309391E-07  0.3619628E+04  0.7818609E-02  0.8086010E-01
        2   -1    0    0  501    0  0.00000000000E+00  0.00000000000E+00  0.16549060060E+04  0.16549060060E+04  0.25500000920E-02 0. -1.
       -2   -1    0    0    0  501  0.00000000000E+00  0.00000000000E+00 -0.19792223857E+04  0.19792223857E+04  0.25500000920E-02 0.  1.
    10030    2    1    2    0    0  0.00000000000E+00  0.00000000000E+00 -0.32431637971E+03  0.36341283918E+04  0.36196281651E+04 0.  0.
        4    1    3    3  502    0 -0.86632125805E+02 -0.58033098546E+03 -0.18810728238E+04  0.19704633362E+04  0.12699999809E+01 0.  1.
       -4    1    3    3    0  502  0.86632125805E+02  0.58033098546E+03  0.15567564441E+04  0.16636650556E+04  0.12699999809E+01 0. -1.
</event>
<event>
 5   0  0.7514289E-08  0.3600647E+04  0.7818609E-02  0.8090344E-01
       -1   -1    0    0    0  501  0.00000000000E+00  0.00000000000E+00  0.11480098114E+04  0.11480098114E+04  0.50400001928E-02 0. -1.
        1   -1    0    0  501    0  0.00000000000E+00  0.00000000000E+00 -0.28232896236E+04  0.28232896236E+04  0.50400001928E-02 0.  1.
    10030    2    1    2    0    0  0.00000000000E+00  0.00000000000E+00 -0.16752798122E+04  0.39712994351E+04  0.36006467133E+04 0.  0.
        4    1    3    3  502    0 -0.95832935554E+03  0.20218312985E+03  0.82845377899E+03  0.12828134894E+04  0.12699999809E+01 0. -1.
       -4    1    3    3    0  502  0.95832935554E+03 -0.20218312985E+03 -0.25037335912E+04  0.26884859457E+04  0.12699999809E+01 0.  1.
</event>
<event>
 5   0  0.2309391E-07  0.3607945E+04  0.7818609E-02  0.8088674E-01
        2   -1    0    0  501    0  0.00000000000E+00  0.00000000000E+00  0.15505367845E+04  0.15505367846E+04  0.25500000920E-02 0.  1.
       -2   -1    0    0    0  501  0.00000000000E+00  0.00000000000E+00 -0.20988328445E+04  0.20988328445E+04  0.25500000920E-02 0. -1.
    10030    2    1    2    0    0  0.00000000000E+00  0.00000000000E+00 -0.54829605993E+03  0.36493696290E+04  0.36079454153E+04 0.  0.
        4    1    3    3  502    0  0.36543677222E+03 -0.92067196703E+03 -0.17991503716E+04  0.20538073371E+04  0.12699999809E+01 0. -1.
       -4    1    3    3    0  502 -0.36543677222E+03  0.92067196703E+03  0.12508543117E+04  0.15955622919E+04  0.12699999809E+01 0.  1.
</event>
<event>
 5   0  0.7261233E-08  0.3603863E+04  0.7818609E-02  0.8089607E-01
       -1   -1    0    0    0  501  0.00000000000E+00  0.00000000000E+00  0.20646791004E+04  0.20646791004E+04  0.50400001928E-02 0.  1.
        1   -1    0    0  501    0  0.00000000000E+00  0.00000000000E+00 -0.15726208469E+04  0.15726208469E+04  0.50400001928E-02 0. -1.
    10030    2    1    2    0    0  0.00000000000E+00  0.00000000000E+00  0.49205825344E+03  0.36372999473E+04  0.36038631470E+04 0.  0.
        3    1    3    3  502    0  0.60962335498E+03 -0.16187200937E+04  0.75575151973E+03  0.18876058239E+04  0.10100000352E+00 0.  1.
       -3    1    3    3    0  502 -0.60962335498E+03  0.16187200937E+04 -0.26369326629E+03  0.17496941234E+04  0.10100000352E+00 0. -1.
</event>
<event>
 5   0  0.7514289E-08  0.3578020E+04  0.7818609E-02  0.8095545E-01
       -1   -1    0    0    0  501  0.00000000000E+00  0.00000000000E+00  0.20297677601E+04  0.20297677602E+04  0.50400001928E-02 0. -1.
        1   -1    0    0  501    0  0.00000000000E+00  0.00000000000E+00 -0.15768094506E+04  0.15768094506E+04  0.50400001928E-02 0.  1.
    10030    2    1    2    0    0  0.00000000000E+00  0.00000000000E+00  0.45295830956E+03  0.36065772107E+04  0.35780201155E+04 0.  0.
        4    1    3    3  502    0  0.12744742664E+04 -0.42275368932E+03 -0.96513633300E+03  0.16536308813E+04  0.12699999809E+01 0.  1.
       -4    1    3    3    0  502 -0.12744742664E+04  0.42275368932E+03  0.14180946426E+04  0.19529463294E+04  0.12699999809E+01 0. -1.
</event>
<event>
 5   0  0.7347303E-08  0.3578359E+04  0.7818609E-02  0.8095467E-01
       -1   -1    0    0    0  501  0.00000000000E+00  0.00000000000E+00  0.12858918973E+04  0.12858918973E+04  0.50400001928E-02 0. -1.
        1   -1    0    0  501    0  0.00000000000E+00  0.00000000000E+00 -0.24894497654E+04  0.24894497654E+04  0.50400001928E-02 0.  1.
    10030    2    1    2    0    0  0.00000000000E+00  0.00000000000E+00 -0.12035578681E+04  0.37753416627E+04  0.35783589993E+04 0.  0.
        2    1    3    3  502    0 -0.12000419435E+04 -0.11293673771E+04 -0.13369833178E+04  0.21220498889E+04  0.25500000920E-02 0.  1.
       -2    1    3    3    0  502  0.12000419435E+04  0.11293673771E+04  0.13342544971E+03  0.16532917738E+04  0.25500000920E-02 0. -1.
</event>
<event>
 5   0  0.2199902E-07  0.3591854E+04  0.7818609E-02  0.8092360E-01
        2   -1    0    0  501    0  0.00000000000E+00  0.00000000000E+00  0.16373954024E+04  0.16373954024E+04  0.25500000920E-02 0. -1.
       -2   -1    0    0    0  501  0.00000000000E+00  0.00000000000E+00 -0.19698074035E+04  0.19698074035E+04  0.25500000920E-02 0.  1.
    10030    2    1    2    0    0  0.00000000000E+00  0.00000000000E+00 -0.33241200111E+03  0.36072028059E+04  0.35918538868E+04 0.  0.
        1    1    3    3  502    0 -0.14036091897E+04  0.82389242316E+03  0.59627229446E+03  0.17333372816E+04  0.50400001928E-02 0. -1.
       -1    1    3    3    0  502  0.14036091897E+04 -0.82389242316E+03 -0.92868429557E+03  0.18738655243E+04  0.50400001928E-02 0.  1.
</event>
<event>
 5   0  0.7261233E-08  0.3589092E+04  0.7818609E-02  0.8092995E-01
       -1   -1    0    0    0  501  0.00000000000E+00  0.00000000000E+00  0.13530529962E+04  0.13530529962E+04  0.50400001928E-02 0.  1.
        1   -1    0    0  501    0  0.00000000000E+00  0.00000000000E+00 -0.23800960749E+04  0.23800960749E+04  0.50400001928E-02 0. -1.
    10030    2    1    2    0    0  0.00000000000E+00  0.00000000000E+00 -0.10270430786E+04  0.37331490711E+04  0.35890924343E+04 0.  0.
        3    1    3    3  502    0  0.23087282930E+03  0.19228252483E+02 -0.23644763007E+04  0.23757988500E+04  0.10100000352E+00 0. -1.
       -3    1    3    3    0  502 -0.23087282930E+03 -0.19228252483E+02  0.13374332221E+04  0.13573502211E+04  0.10100000352E+00 0.  1.
</event>
<event>
 5   0  0.2199902E-07  0.3513903E+04  0.7818609E-02  0.8110503E-01
       -2   -1    0    0    0  501  0.00000000000E+00  0.00000000000E+00  0.12838526925E+04  0.12838526925E+04  0.25500000920E-02 0.  1.
        2   -1    0    0  501    0  0.00000000000E+00  0.00000000000E+00 -0.24043865587E+04  0.24043865587E+04  0.25500000920E-02 0. -1.
    10030    2    1    2    0    0  0.00000000000E+00  0.00000000000E+00 -0.11205338662E+04  0.36882392511E+04  0.35139027631E+04 0.  0.
        1    1    3    3  502    0 -0.14336324143E+04 -0.97434162387E+03 -0.25927365965E+03  0.17526740513E+04  0.50400001928E-02 0. -1.
       -1    1    3    3    0  502  0.14336324143E+04  0.97434162387E+03 -0.86126020654E+03  0.19355651998E+04  0.50400001928E-02 0.  1.
</event>
<event>
 5   0  0.2198900E-07  0.3583979E+04  0.7818609E-02  0.8094171E-01
       -2   -1    0    0    0  501  0.00000000000E+00  0.00000000000E+00  0.17913321564E+04  0.17913321564E+04  0.25500000920E-02 0.  1.
        2   -1    0    0  501    0  0.00000000000E+00  0.00000000000E+00 -0.17926471855E+04  0.17926471855E+04  0.25500000920E-02 0. -1.
    10030    2    1    2    0    0  0.00000000000E+00  0.00000000000E+00 -0.13150290875E+01  0.35839793419E+04  0.35839791007E+04 0.  0.
        2    1    3    3  502    0 -0.96927498125E+03 -0.10088029097E+04  0.11191859644E+04  0.17915787794E+04  0.25500000920E-02 0.  1.
       -2    1    3    3    0  502  0.96927498125E+03  0.10088029097E+04 -0.11205009935E+04  0.17924005625E+04  0.25500000920E-02 0. -1.
</event>
<event>
 5   0  0.2309391E-07  0.3593670E+04  0.7818609E-02  0.8091943E-01
       -2   -1    0    0    0  501  0.00000000000E+00  0.00000000000E+00  0.16100433933E+04  0.16100433933E+04  0.25500000920E-02 0. -1.
        2   -1    0    0  501    0  0.00000000000E+00  0.00000000000E+00 -0.20052969990E+04  0.20052969990E+04  0.25500000920E-02 0.  1.
    10030    2    1    2    0    0  0.00000000000E+00  0.00000000000E+00 -0.39525360572E+03  0.36153403923E+04  0.35936695368E+04 0.  0.
        4    1    3    3  502    0  0.12364075830E+04  0.18298831828E+03 -0.14963122056E+04  0.19496513189E+04  0.12699999809E+01 0.  1.
       -4    1    3    3    0  502 -0.12364075830E+04 -0.18298831828E+03  0.11010585999E+04  0.16656890734E+04  0.12699999809E+01 0. -1.
</event>
<event>
 5   0  0.7514289E-08  0.3636737E+04  0.7818609E-02  0.8082128E-01
       -1   -1    0    0    0  501  0.00000000000E+00  0.00000000000E+00  0.12360825607E+04  0.12360825607E+04  0.50400001928E-02 0. -1.
        1   -1    0    0  501    0  0.00000000000E+00  0.00000000000E+00 -0.26749538137E+04  0.26749538137E+04  0.50400001928E-02 0.  1.
    10030    2    1    2    0    0  0.00000000000E+00  0.00000000000E+00 -0.14388712530E+04  0.39110363744E+04  0.36367368669E+04 0.  0.
        4    1    3    3  502    0 -0.89332635373E+03  0.78723148300E+03 -0.21973902285E+04  0.24992580521E+04  0.12699999809E+01 0. -1.
       -4    1    3    3    0  502  0.89332635373E+03 -0.78723148300E+03  0.75851897550E+03  0.14117783223E+04  0.12699999809E+01 0.  1.
</event>
<event>
 5   0  0.7236375E-08  0.3681919E+04  0.7818609E-02  0.8071981E-01
       -1   -1    0    0    0  501  0.00000000000E+00  0.00000000000E+00  0.13308155360E+04  0.13308155360E+04  0.50400001928E-02 0.  1.
        1   -1    0    0  501    0  0.00000000000E+00  0.00000000000E+00 -0.25466575620E+04  0.25466575620E+04  0.50400001928E-02 0. -1.
    10030    2    1    2    0    0  0.00000000000E+00  0.00000000000E+00 -0.12158420260E+04  0.38774730981E+04  0.36819187652E+04 0.  0.
        1    1    3    3  502    0 -0.25334199086E+03 -0.88538151931E+03  0.10708099394E+04  0.14123443367E+04  0.50400001928E-02 0.  1.
       -1    1    3    3    0  502  0.25334199086E+03  0.88538151931E+03 -0.22866519654E+04  0.24651287614E+04  0.50400001928E-02 0. -1.
</event>
<event>
 5   0  0.2309391E-07  0.3608885E+04  0.7818609E-02  0.8088460E-01
        2   -1    0    0  501    0  0.00000000000E+00  0.00000000000E+00  0.25568949835E+04  0.25568949835E+04  0.25500000920E-02 0.  1.
       -2   -1    0    0    0  501  0.00000000000E+00  0.00000000000E+00 -0.12734242379E+04  0.12734242379E+04  0.25500000920E-02 0. -1.
    10030    2    1    2    0    0  0.00000000000E+00  0.00000000000E+00  0.12834707456E+04  0.38303192214E+04  0.36088846176E+04 0.  0.
        4    1    3    3  502    0  0.26954110555E+03  0.83820301476E+03  0.23134246242E+04  0.24753124664E+04  0.12699999809E+01 0.  1.
       -4    1    3    3    0  502 -0.26954110555E+03 -0.83820301476E+03 -0.10299538785E+04  0.13550067551E+04  0.12699999809E+01 0. -1.
</event>
<event>
 5   0  0.2238968E-07  0.3598675E+04  0.7818609E-02  0.8090795E-01
        2   -1    0    0  501    0  0.00000000000E+00  0.00000000000E+00  0.12689443338E+04  0.12689443338E+04  0.25500000920E-02 0.  1.
       -2   -1    0    0    0  501  0.00000000000E+00  0.00000000000E+00 -0.25514247310E+04  0.25514247310E+04  0.25500000920E-02 0. -1.
    10030    2    1    2    0    0  0.00000000000E+00  0.00000000000E+00 -0.12824803972E+04  0.38203690649E+04  0.35986752872E+04 0.  0.
        3    1    3    3  502    0 -0.12311541661E+04 -0.22980553664E+03  0.73027067371E+03  0.14497746143E+04  0.10100000352E+00 0.  1.
       -3    1    3    3    0  502  0.12311541661E+04  0.22980553664E+03 -0.20127510709E+04  0.23705944506E+04  0.10100000352E+00 0. -1.
</event>
<event>
 5   0  0.7347303E-08  0.3597252E+04  0.7818609E-02  0.8091121E-01
       -1   -1    0    0    0  501  0.00000000000E+00  0.00000000000E+00  0.14957134477E+04  0.14957134477E+04  0.50400001928E-02 0. -1.
        1   -1    0    0  501    0  0.00000000000E+00  0.00000000000E+00 -0.21628844034E+04  0.21628844034E+04  0.50400001928E-02 0.  1.
    10030    2    1    2    0    0  0.00000000000E+00  0.00000000000E+00 -0.66717095569E+03  0.36585978512E+04  0.35972518889E+04 0.  0.
        2    1    3    3  502    0  0.81441359056E+03 -0.15878947721E+03  0.12894267033E+04  0.15333312811E+04  0.25500000920E-02 0. -1.
       -2    1    3    3    0  502 -0.81441359056E+03  0.15878947721E+03 -0.19565976590E+04  0.21252665700E+04  0.25500000920E-02 0.  1.
</event>
<event>
 5   0  0.7261233E-08  0.3592751E+04  0.7818609E-02  0.8092154E-01
        1   -1    0    0  501    0  0.00000000000E+00  0.00000000000E+00  0.22284571032E+04  0.22284571032E+04  0.50400001928E-02 0. -1.
       -1   -1    0    0    0  501  0.00000000000E+00  0.00000000000E+00 -0.14480716739E+04  0.14480716739E+04  0.50400001928E-02 0.  1.
    10030    2    1    2    0    0  0.00000000000E+00  0.00000000000E+00  0.78038542928E+03  0.36765287771E+04  0.35927513733E+04 0.  0.
        3    1    3    3  502    0 -0.59686701081E+03  0.52884810771E+03  0.20373969465E+04  0.21879023921E+04  0.10100000352E+00 0. -1.
       -3    1    3    3    0  502  0.59686701081E+03 -0.52884810771E+03 -0.12570115172E+04  0.14886263850E+04  0.10100000352E+00 0.  1.
</event>
<event>
 5   0  0.2198900E-07  0.3586342E+04  0.7818609E-02  0.8093627E-01
       -2   -1    0    0    0  501  0.00000000000E+00  0.00000000000E+00  0.14163281414E+04  0.14163281414E+04  0.25500000920E-02 0.  1.
        2   -1    0    0  501    0  0.00000000000E+00  0.00000000000E+00 -0.22702801898E+04  0.22702801898E+04  0.25500000920E-02 0. -1.
    10030    2    1    2    0    0  0.00000000000E+00  0.00000000000E+00 -0.85395204841E+03  0.36866083311E+04  0.35863417135E+04 0.  0.
        2    1    3    3  502    0  0.12375442610E+04 -0.86214498309E+03 -0.14239637533E+04  0.20742426426E+04  0.25500000920E-02 0. -1.
       -2    1    3    3    0  502 -0.12375442610E+04  0.86214498309E+03  0.57001170484E+03  0.16123656885E+04  0.25500000920E-02 0.  1.
</event>
<event>
 5   0  0.2309391E-07  0.3595684E+04  0.7818609E-02  0.8091481E-01
        2   -1    0    0  501    0  0.00000000000E+00  0.00000000000E+00  0.21598875831E+04  0.21598875831E+04  0.25500000920E-02 0.  1.
       -2   -1    0    0    0  501  0.00000000000E+00  0.00000000000E+00 -0.14964830740E+04  0.14964830740E+04  0.25500000920E-02 0. -1.
    10030    2    1    2    0    0  0.00000000000E+00  0.00000000000E+00  0.66340450904E+03  0.36563706571E+04  0.35956836400E+04 0.  0.
        4    1    3    3  502    0 -0.12890400762E+04 -0.65514663263E+03 -0.75468881051E+03  0.16310727273E+04  0.12699999809E+01 0. -1.
       -4    1    3    3    0  502  0.12890400762E+04  0.65514663263E+03  0.14180933196E+04  0.20252979297E+04  0.12699999809E+01 0.  1.
</event>
<event>
 5   0  0.7236375E-08  0.3614143E+04  0.7818609E-02  0.8087260E-01
       -1   -1    0    0    0  501  0.00000000000E+00  0.00000000000E+00  0.15151907891E+04  0.15151907891E+04  0.50400001928E-02 0.  1.
        1   -1    0    0  501    0  0.00000000000E+00  0.00000000000E+00 -0.21551784729E+04  0.21551784729E+04  0.50400001928E-02 0. -1.
    10030    2    1    2    0    0  0.00000000000E+00  0.00000000000E+00 -0.63998768377E+03  0.36703692620E+04  0.36141425379E+04 0.  0.
        1    1    3    3  502    0 -0.52071426751E+03 -0.61126996910E+03  0.13240528654E+04  0.15485187483E+04  0.50400001928E-02 0.  1.
       -1    1    3    3    0  502  0.52071426751E+03  0.61126996910E+03 -0.19640405492E+04  0.21218505137E+04  0.50400001928E-02 0. -1.
</event>
<event>
 5   0  0.7236375E-08  0.3606133E+04  0.7818609E-02  0.8089088E-01
       -1   -1    0    0    0  501  0.00000000000E+00  0.00000000000E+00  0.14534957239E+04  0.14534957239E+04  0.50400001928E-02 0.  1.
        1   -1    0    0  501    0  0.00000000000E+00  0.00000000000E+00 -0.22367103659E+04  0.22367103659E+04  0.50400001928E-02 0. -1.
    10030    2    1    2    0    0  0.00000000000E+00  0.00000000000E+00 -0.78321464204E+03  0.36902060898E+04  0.36061330826E+04 0.  0.
        1    1    3    3  502    0  0.12099202973E+04  0.12909682934E+04 -0.74689431878E+03  0.19205096677E+04  0.50400001928E-02 0. -1.
       -1    1    3    3    0  502 -0.12099202973E+04 -0.12909682934E+04 -0.36320323264E+02  0.17696964221E+04  0.50400001928E-02 0.  1.
</event>
<event>
 5   0  0.2238968E-07  0.3572421E+04  0.7818609E-02  0.8096838E-01
        2   -1    0    0  501    0  0.00000000000E+00  0.00000000000E+00  0.27003129957E+04  0.27003129957E+04  0.25500000920E-02 0.  1.
       -2   -1    0    0    0  501  0.00000000000E+00  0.00000000000E+00 -0.11815473009E+04  0.11815473009E+04  0.25500000920E-02 0. -1.
    10030    2    1    2    0    0  0.00000000000E+00  0.00000000000E+00  0.15187656948E+04  0.38818602965E+04  0.35724207656E+04 0.  0.
        3    1    3    3  502    0  0.15541626417E+04 -0.71470110169E+03  0.13180448843E+04  0.21595049222E+04  0.10100000352E+00 0.  1.
       -3    1    3    3    0  502 -0.15541626417E+04  0.71470110169E+03  0.20072081049E+03  0.17223553744E+04  0.10100000352E+00 0. -1.
</event>
<event>
 5   0  0.7514289E-08  0.3592606E+04  0.7818609E-02  0.8092187E-01
       -1   -1    0    0    0  501  0.00000000000E+00  0.00000000000E+00  0.12615570930E+04  0.12615570930E+04  0.50400001928E-02 0. -1.
        1   -1    0    0  501    0  0.00000000000E+00  0.00000000000E+00 -0.25577156602E+04  0.25577156602E+04  0.50400001928E-02 0.  1.
    10030    2    1    2    0    0  0.00000000000E+00  0.00000000000E+00 -0.12961585672E+04  0.38192727532E+04  0.35926059249E+04 0.  0.
        4    1    3    3  502    0  0.43893059667E+03 -0.90391970017E+01  0.12036439928E+04  0.12812112433E+04  0.12699999809E+01 0. -1.
       -4    1    3    3    0  502 -0.43893059667E+03  0.90391970017E+01 -0.24998025600E+04  0.25380615099E+04  0.12699999809E+01 0.  1.
</event>
<event>
 5   0  0.7261233E-08  0.3605659E+04  0.7818609E-02  0.8089197E-01
       -1   -1    0    0    0  501  0.00000000000E+00  0.00000000000E+00  0.10573704868E+04  0.10573704868E+04  0.50400001928E-02 0.  1.
        1   -1    0    0  501    0  0.00000000000E+00  0.00000000000E+00 -0.30738453137E+04  0.30738453137E+04  0.50400001928E-02 0. -1.
    10030    2    1    2    0    0  0.00000000000E+00  0.00000000000E+00 -0.20164748269E+04  0.41312158006E+04  0.36056585062E+04 0.  0.
        3    1    3    3  502    0  0.63399917429E+03 -0.60379351692E+02 -0.29406654692E+04  0.30088393162E+04  0.10100000352E+00 0. -1.
       -3    1    3    3    0  502 -0.63399917429E+03  0.60379351692E+02  0.92419064226E+03  0.11223764843E+04  0.10100000352E+00 0.  1.
</event>
<event>
 5   0  0.7236375E-08  0.3628576E+04  0.7818609E-02  0.8083977E-01
       -1   -1    0    0    0  501  0.00000000000E+00  0.00000000000E+00  0.25496477670E+04  0.25496477670E+04  0.50400001928E-02 0. -1.
        1   -1    0    0  501    0  0.00000000000E+00  0.00000000000E+00 -0.12910180007E+04  0.12910180007E+04  0.50400001928E-02 0.  1.
    10030    2    1    2    0    0  0.00000000000E+00  0.00000000000E+00  0.12586297663E+04  0.38406657677E+04  0.36285761189E+04 0.  0.
        1    1    3    3  502    0 -0.55717882919E+02 -0.14896665158E+04  0.17238924155E+04  0.22790383654E+04  0.50400001928E-02 0.  1.
       -1    1    3    3    0  502  0.55717882919E+02  0.14896665158E+04 -0.46526264922E+03  0.15616274023E+04  0.50400001928E-02 0. -1.
</event>
<event>
 5   0  0.7261233E-08  0.3579707E+04  0.7818609E-02  0.8095156E-01
        1   -1    0    0  501    0  0.00000000000E+00  0.00000000000E+00  0.23055946303E+04  0.23055946303E+04  0.50400001928E-02 0.  1.
       -1   -1    0    0    0  501  0.00000000000E+00  0.00000000000E+00 -0.13894787944E+04  0.13894787944E+04  0.50400001928E-02 0. -1.
    10030    2    1    2    0    0  0.00000000000E+00  0.00000000000E+00  0.91611583587E+03  0.36950734247E+04  0.35797066066E+04 0.  0.
        3    1    3    3  502    0 -0.35286755348E+03 -0.45094292550E+03  0.22085017046E+04  0.22815224789E+04  0.10100000352E+00 0.  1.
       -3    1    3    3    0  502  0.35286755348E+03  0.45094292550E+03 -0.12923858687E+04  0.14135509458E+04  0.10100000352E+00 0. -1.
</event>
<event>
 5   0  0.2342606E-07  0.3610365E+04  0.7818609E-02  0.8088122E-01
       -2   -1    0    0    0  501  0.00000000000E+00  0.00000000000E+00  0.16133520547E+04  0.16133520547E+04  0.25500000920E-02 0.  1.
        2   -1    0    0  501    0  0.00000000000E+00  0.00000000000E+00 -0.20198220316E+04  0.20198220316E+04  0.25500000920E-02 0. -1.
    10030    2    1    2    0    0  0.00000000000E+00  0.00000000000E+00 -0.40646997690E+03  0.36331740864E+04  0.36103650923E+04 0.  0.
        5    1    3    3  502    0 -0.96241777430E+03 -0.67708178650E+03  0.11743452120E+04  0.16624669876E+04  0.46999998093E+01 0.  1.
       -5    1    3    3    0  502  0.96241777430E+03  0.67708178650E+03 -0.15808151889E+04  0.19707070988E+04  0.46999998093E+01 0. -1.
</event>
<event>
 5   0  0.7514289E-08  0.3611274E+04  0.7818609E-02  0.8087914E-01
       -1   -1    0    0    0  501  0.00000000000E+00  0.00000000000E+00  0.14962622560E+04  0.14962622560E+04  0.50400001928E-02 0.  1.
        1   -1    0    0  501    0  0.00000000000E+00  0.00000000000E+00 -0.21789797030E+04  0.21789797030E+04  0.50400001928E-02 0. -1.
    10030    2    1    2    0    0  0.00000000000E+00  0.00000000000E+00 -0.68271744704E+03  0.36752419590E+04  0.36112740612E+04 0.  0.
        4    1    3    3  502    0 -0.92884765858E+03  0.28724006018E+03 -0.18898418826E+04  0.21252691074E+04  0.12699999809E+01 0. -1.
       -4    1    3    3    0  502  0.92884765858E+03 -0.28724006018E+03  0.12071244355E+04  0.15499728516E+04  0.12699999809E+01 0.  1.
</event>
<event>
 5   0  0.7236375E-08  0.3601844E+04  0.7818609E-02  0.8090069E-01
       -1   -1    0    0    0  501  0.00000000000E+00  0.00000000000E+00  0.10661904925E+04  0.10661904925E+04  0.50400001928E-02 0.  1.
        1   -1    0    0  501    0  0.00000000000E+00  0.00000000000E+00 -0.30419703284E+04  0.30419703284E+04  0.50400001928E-02 0. -1.
    10030    2    1    2    0    0  0.00000000000E+00  0.00000000000E+00 -0.19757798359E+04  0.41081608209E+04  0.36018438848E+04 0.  0.
        1    1    3    3  502    0 -0.14335000412E+04 -0.13906380785E+03  0.24533052752E+03  0.14609750780E+04  0.50400001928E-02 0.  1.
       -1    1    3    3    0  502  0.14335000412E+04  0.13906380785E+03 -0.22211103634E+04  0.26471857429E+04  0.50400001928E-02 0. -1.
</event>
<event>
 5   0  0.7261233E-08  0.3602794E+04  0.7818609E-02  0.8089852E-01
        1   -1    0    0  501    0  0.00000000000E+00  0.00000000000E+00  0.15520165346E+04  0.15520165346E+04  0.50400001928E-02 0. -1.
       -1   -1    0    0    0  501  0.00000000000E+00  0.00000000000E+00 -0.20908479143E+04  0.20908479143E+04  0.50400001928E-02 0.  1.
    10030    2    1    2    0    0  0.00000000000E+00  0.00000000000E+00 -0.53883137966E+03  0.36428644489E+04  0.36027936573E+04 0.  0.
        3    1    3    3  502    0 -0.26644938096E+03  0.58290861749E+02  0.15310170961E+04  0.15551226498E+04  0.10100000352E+00 0. -1.
       -3    1    3    3    0  502  0.26644938096E+03 -0.58290861749E+02 -0.20698484757E+04  0.20877417991E+04  0.10100000352E+00 0.  1.
</event>
<event>
 5   0  0.2342606E-07  0.3602778E+04  0.7818609E-02  0.8089856E-01
        2   -1    0    0  501    0  0.00000000000E+00  0.00000000000E+00  0.17855580980E+04  0.17855580980E+04  0.25500000920E-02 0. -1.
       -2   -1    0    0    0  501  0.00000000000E+00  0.00000000000E+00 -0.18173606477E+04  0.18173606477E+04  0.25500000920E-02 0.  1.
    10030    2    1    2    0    0  0.00000000000E+00  0.00000000000E+00 -0.31802549675E+02  0.36029187457E+04  0.36027783842E+04 0.  0.
        5    1    3    3  502    0 -0.56781166706E+03 -0.14670976388E+04  0.86174066478E+03  0.17937125283E+04  0.46999998093E+01 0.  1.
       -5    1    3    3    0  502  0.56781166706E+03  0.14670976388E+04 -0.89354321446E+03  0.18092062174E+04  0.46999998093E+01 0. -1.
</event>
<event>
 5   0  0.2309391E-07  0.3593712E+04  0.7818609E-02  0.8091933E-01
       -2   -1    0    0    0  501  0.00000000000E+00  0.00000000000E+00  0.12173975646E+04  0.12173975646E+04  0.25500000920E-02 0.  1.
        2   -1    0    0  501    0  0.00000000000E+00  0.00000000000E+00 -0.26521262738E+04  0.26521262738E+04  0.25500000920E-02 0. -1.
    10030    2    1    2    0    0  0.00000000000E+00  0.00000000000E+00 -0.14347287092E+04  0.38695238384E+04  0.35937123239E+04 0.  0.
        4    1    3    3  502    0 -0.77132732622E+03  0.12595992996E+03 -0.24595281240E+04  0.25807153958E+04  0.12699999809E+01 0. -1.
       -4    1    3    3    0  502  0.77132732622E+03 -0.12595992996E+03  0.10247994149E+04  0.12888084426E+04  0.12699999809E+01 0.  1.
</event>
<event>
 5   0  0.7236375E-08  0.3570109E+04  0.7818609E-02  0.8097373E-01
       -1   -1    0    0    0  501  0.00000000000E+00  0.00000000000E+00  0.12318715082E+04  0.12318715082E+04  0.50400001928E-02 0.  1.
        1   -1    0    0  501    0  0.00000000000E+00  0.00000000000E+00 -0.25866490940E+04  0.25866490940E+04  0.50400001928E-02 0. -1.
    10030    2    1    2    0    0  0.00000000000E+00  0.00000000000E+00 -0.13547775858E+04  0.38185206022E+04  0.35701088614E+04 0.  0.
        5    1    3    3  502    0  0.15758293033E+04 -0.86638400732E+02  0.21470397399E+03  0.15927536193E+04  0.46999998093E+01 0.  1.
       -5    1    3    3    0  502 -0.15758293033E+04  0.86638400732E+02 -0.15694815598E+04  0.22257669829E+04  0.46999998093E+01 0. -1.
</event>
<event>
 5   0  0.2309391E-07  0.3594491E+04  0.7818609E-02  0.8091755E-01
        2   -1    0    0  501    0  0.00000000000E+00  0.00000000000E+00  0.16123203670E+04  0.16123203670E+04  0.25500000920E-02 0. -1.
       -2   -1    0    0    0  501  0.00000000000E+00  0.00000000000E+00 -0.20033810308E+04  0.20033810308E+04  0.25500000920E-02 0.  1.
    10030    2    1    2    0    0  0.00000000000E+00  0.00000000000E+00 -0.39106066383E+03  0.36157013978E+04  0.35944913625E+04 0.  0.
        4    1    3    3  502    0 -0.16767877036E+04  0.55764870547E+03  0.13427833227E+03  0.17721798343E+04  0.12699999809E+01 0. -1.
       -4    1    3    3    0  502  0.16767877036E+04 -0.55764870547E+03 -0.52533899610E+03  0.18435215635E+04  0.12699999809E+01 0.  1.
</event>
<event>
 5   0  0.7261233E-08  0.3596888E+04  0.7818609E-02  0.8091205E-01
       -1   -1    0    0    0  501  0.00000000000E+00  0.00000000000E+00  0.17540295871E+04  0.17540295871E+04  0.50400001928E-02 0. -1.
        1   -1    0    0  501    0  0.00000000000E+00  0.00000000000E+00 -0.18439826489E+04  0.18439826489E+04  0.50400001928E-02 0.  1.
    10030    2    1    2    0    0  0.00000000000E+00  0.00000000000E+00 -0.89953061808E+02  0.35980122361E+04  0.35968876126E+04 0.  0.
        3    1    3    3  502    0 -0.15847697513E+04  0.35593159217E+03 -0.81736926976E+03  0.18183165281E+04  0.10100000352E+00 0.  1.
       -3    1    3    3    0  502  0.15847697513E+04 -0.35593159217E+03  0.72741620795E+03  0.17796957079E+04  0.10100000352E+00 0. -1.
</event>
<event>
 5   0  0.2198900E-07  0.3596658E+04  0.7818609E-02  0.8091258E-01
        2   -1    0    0  501    0  0.00000000000E+00  0.00000000000E+00  0.27813495294E+04  0.27813495294E+04  0.25500000920E-02 0. -1.
       -2   -1    0    0    0  501  0.00000000000E+00  0.00000000000E+00 -0.11627401258E+04  0.11627401258E+04  0.25500000920E-02 0.  1.
    10030    2    1    2    0    0  0.00000000000E+00  0.00000000000E+00  0.16186094036E+04  0.39440896552E+04  0.35966577272E+04 0.  0.
        2    1    3    3  502    0  0.15916339515E+04  0.43183843252E+03  0.22955882592E+02  0.16493362422E+04  0.25500000920E-02 0.  1.
       -2    1    3    3    0  502 -0.15916339515E+04 -0.43183843252E+03  0.15956535210E+04  0.22947534130E+04  0.25500000920E-02 0. -1.
</event>
<event>
 5   0  0.2199902E-07  0.3594416E+04  0.7818609E-02  0.8091772E-01
       -2   -1    0    0    0  501  0.00000000000E+00  0.00000000000E+00  0.11019879060E+04  0.11019879060E+04  0.25500000920E-02 0.  1.
        2   -1    0    0  501    0  0.00000000000E+00  0.00000000000E+00 -0.29310279066E+04  0.29310279066E+04  0.25500000920E-02 0. -1.
    10030    2    1    2    0    0  0.00000000000E+00  0.00000000000E+00 -0.18290400006E+04  0.40330158126E+04  0.35944163950E+04 0.  0.
        1    1    3    3  502    0  0.47425806543E+03  0.94107012103E+03  0.71894721851E+03  0.12757032525E+04  0.50400001928E-02 0.  1.
       -1    1    3    3    0  502 -0.47425806543E+03 -0.94107012103E+03 -0.25479872191E+04  0.27573125601E+04  0.50400001928E-02 0. -1.
</event>
<event>
 5   0  0.7514289E-08  0.3599836E+04  0.7818609E-02  0.8090529E-01
       -1   -1    0    0    0  501  0.00000000000E+00  0.00000000000E+00  0.24765878287E+04  0.24765878287E+04  0.50400001928E-02 0.  1.
        1   -1    0    0  501    0  0.00000000000E+00  0.00000000000E+00 -0.13081321326E+04  0.13081321326E+04  0.50400001928E-02 0. -1.
    10030    2    1    2    0    0  0.00000000000E+00  0.00000000000E+00  0.11684556961E+04  0.37847199614E+04  0.35998356174E+04 0.  0.
        4    1    3    3  502    0 -0.17135797549E+04  0.37545660569E+03  0.10078867812E+04  0.20231561026E+04  0.12699999809E+01 0.  1.
       -4    1    3    3    0  502  0.17135797549E+04 -0.37545660569E+03  0.16056891494E+03  0.17615638587E+04  0.12699999809E+01 0. -1.
</event>
<event>
 5   0  0.2199902E-07  0.3599858E+04  0.7818609E-02  0.8090524E-01
        2   -1    0    0  501    0  0.00000000000E+00  0.00000000000E+00  0.19533361275E+04  0.19533361275E+04  0.25500000920E-02 0. -1.
       -2   -1    0    0    0  501  0.00000000000E+00  0.00000000000E+00 -0.16585695754E+04  0.16585695754E+04  0.25500000920E-02 0.  1.
    10030    2    1    2    0    0  0.00000000000E+00  0.00000000000E+00  0.29476655207E+03  0.36119057029E+04  0.35998577036E+04 0.  0.
        1    1    3    3  502    0  0.23912828512E+03 -0.87224177105E+03  0.17087907221E+04  0.19333788495E+04  0.50400001928E-02 0. -1.
       -1    1    3    3    0  502 -0.23912828512E+03  0.87224177105E+03 -0.14140241700E+04  0.16785268533E+04  0.50400001928E-02 0.  1.
</event>
<event>
 5   0  0.7347303E-08  0.3594633E+04  0.7818609E-02  0.8091722E-01
       -1   -1    0    0    0  501  0.00000000000E+00  0.00000000000E+00  0.19309138283E+04  0.19309138283E+04  0.50400001928E-02 0. -1.
        1   -1    0    0  501    0  0.00000000000E+00  0.00000000000E+00 -0.16729623260E+04  0.16729623260E+04  0.50400001928E-02 0.  1.
    10030    2    1    2    0    0  0.00000000000E+00  0.00000000000E+00  0.25795150228E+03  0.36038761543E+04  0.35946327153E+04 0.  0.
        2    1    3    3  502    0  0.38487924539E+03  0.14468778321E+04 -0.86794462218E+03  0.17305823765E+04  0.25500000920E-02 0.  1.
       -2    1    3    3    0  502 -0.38487924539E+03 -0.14468778321E+04  0.11258961245E+04  0.18732937778E+04  0.25500000920E-02 0. -1.
</event>
<event>
 5   0  0.2309391E-07  0.3588530E+04  0.7818609E-02  0.8093124E-01
        2   -1    0    0  501    0  0.00000000000E+00  0.00000000000E+00  0.19895168714E+04  0.19895168714E+04  0.25500000920E-02 0.  1.
       -2   -1    0    0    0  501  0.00000000000E+00  0.00000000000E+00 -0.16181752067E+04  0.16181752067E+04  0.25500000920E-02 0. -1.
    10030    2    1    2    0    0  0.00000000000E+00  0.00000000000E+00  0.37134166472E+03  0.36076920781E+04  0.35885299913E+04 0.  0.
        4    1    3    3  502    0  0.14509879285E+04  0.97466005857E+03 -0.22153158665E+03  0.17619324775E+04  0.12699999809E+01 0.  1.
       -4    1    3    3    0  502 -0.14509879285E+04 -0.97466005857E+03  0.59287325136E+03  0.18457596007E+04  0.12699999809E+01 0. -1.
</event>
<event>
 5   0  0.2238968E-07  0.3601263E+04  0.7818609E-02  0.8090203E-01
       -2   -1    0    0    0  501  0.00000000000E+00  0.00000000000E+00  0.19898035239E+04  0.19898035239E+04  0.25500000920E-02 0. -1.
        2   -1    0    0  501    0  0.00000000000E+00  0.00000000000E+00 -0.16294439133E+04  0.16294439133E+04  0.25500000920E-02 0.  1.
    10030    2    1    2    0    0  0.00000000000E+00  0.00000000000E+00  0.36035961058E+03  0.36192474373E+04  0.36012626901E+04 0.  0.
        3    1    3    3  502    0  0.57439189631E+03  0.14009759214E+03  0.18894733850E+04  0.19798138975E+04  0.10100000352E+00 0. -1.
       -3    1    3    3    0  502 -0.57439189631E+03 -0.14009759214E+03 -0.15291137744E+04  0.16394335398E+04  0.10100000352E+00 0.  1.
</event>
<event>
 5   0  0.7347303E-08  0.3579969E+04  0.7818609E-02  0.8095096E-01
       -1   -1    0    0    0  501  0.00000000000E+00  0.00000000000E+00  0.16264996747E+04  0.16264996747E+04  0.50400001928E-02 0.  1.
        1   -1    0    0  501    0  0.00000000000E+00  0.00000000000E+00 -0.19699015294E+04  0.19699015294E+04  0.50400001928E-02 0. -1.
    10030    2    1    2    0    0  0.00000000000E+00  0.00000000000E+00 -0.34340185473E+03  0.35964012041E+04  0.35799688248E+04 0.  0.
        2    1    3    3  502    0 -0.16699317255E+04 -0.12167656534E+03  0.46410781701E+03  0.17374904950E+04  0.25500000920E-02 0. -1.
       -2    1    3    3    0  502  0.16699317255E+04  0.12167656534E+03 -0.80750967174E+03  0.18589107091E+04  0.25500000920E-02 0.  1.
</event>
<event>
 5   0  0.7514289E-08  0.3597061E+04  0.7818609E-02  0.8091165E-01
       -1   -1    0    0    0  501  0.00000000000E+00  0.00000000000E+00  0.15657956374E+04  0.15657956374E+04  0.50400001928E-02 0. -1.
        1   -1    0    0  501    0  0.00000000000E+00  0.00000000000E+00 -0.20658587551E+04  0.20658587551E+04  0.50400001928E-02 0.  1.
    10030    2    1    2    0    0  0.00000000000E+00  0.00000000000E+00 -0.50006311764E+03  0.36316543925E+04  0.35970613708E+04 0.  0.
        4    1    3    3  502    0  0.49827958543E+03  0.14127436667E+04  0.75482084376E+03  0.16774633623E+04  0.12699999809E+01 0. -1.
       -4    1    3    3    0  502 -0.49827958543E+03 -0.14127436667E+04 -0.12548839614E+04  0.19541910302E+04  0.12699999809E+01 0.  1.
</event>
<event>
 5   0  0.7261233E-08  0.3599275E+04  0.7818609E-02  0.8090658E-01
        1   -1    0    0  501    0  0.00000000000E+00  0.00000000000E+00  0.22534945643E+04  0.22534945643E+04  0.50400001928E-02 0. -1.
       -1   -1    0    0    0  501  0.00000000000E+00  0.00000000000E+00 -0.14371879480E+04  0.14371879480E+04  0.50400001928E-02 0.  1.
    10030    2    1    2    0    0  0.00000000000E+00  0.00000000000E+00  0.81630661634E+03  0.36906825123E+04  0.35992750540E+04 0.  0.
        3    1    3    3  502    0  0.76902529800E+03 -0.84072794825E+03  0.18365384416E+04  0.21612720443E+04  0.10100000352E+00 0. -1.
       -3    1    3    3    0  502 -0.76902529800E+03  0.84072794825E+03 -0.10202318253E+04  0.15294104679E+04  0.10100000352E+00 0.  1.
</event>
<event>
 5   0  0.7261233E-08  0.3541102E+04  0.7818609E-02  0.8104118E-01
        1   -1    0    0  501    0  0.00000000000E+00  0.00000000000E+00  0.23624129435E+04  0.23624129435E+04  0.50400001928E-02 0.  1.
       -1   -1    0    0    0  501  0.00000000000E+00  0.00000000000E+00 -0.13269699497E+04  0.13269699497E+04  0.50400001928E-02 0. -1.
    10030    2    1    2    0    0  0.00000000000E+00  0.00000000000E+00  0.10354429938E+04  0.36893828932E+04  0.35411020798E+04 0.  0.
        3    1    3    3  502    0 -0.77620527247E+03  0.10347005982E+02  0.21756603617E+04  0.23099999362E+04  0.10100000352E+00 0.  1.
       -3    1    3    3    0  502  0.77620527247E+03 -0.10347005982E+02 -0.11402173680E+04  0.13793829570E+04  0.10100000352E+00 0. -1.
</event>
<event>
 5   0  0.2199902E-07  0.3598666E+04  0.7818609E-02  0.8090797E-01
        2   -1    0    0  501    0  0.00000000000E+00  0.00000000000E+00  0.11176501166E+04  0.11176501166E+04  0.25500000920E-02 0. -1.
       -2   -1    0    0    0  501  0.00000000000E+00  0.00000000000E+00 -0.28967914891E+04  0.28967914891E+04  0.25500000920E-02 0.  1.
    10030    2    1    2    0    0  0.00000000000E+00  0.00000000000E+00 -0.17791413725E+04  0.40144416057E+04  0.35986660559E+04 0.  0.
        1    1    3    3  502    0  0.47808277686E+03 -0.15336974969E+04 -0.17936423929E+04  0.24078920630E+04  0.50400001928E-02 0.  1.
       -1    1    3    3    0  502 -0.47808277686E+03  0.15336974969E+04  0.14501020444E+02  0.16065495427E+04  0.50400001928E-02 0. -1.
</event>
<event>
 5   0  0.2238968E-07  0.3602155E+04  0.7818609E-02  0.8089998E-01
       -2   -1    0    0    0  501  0.00000000000E+00  0.00000000000E+00  0.12815768917E+04  0.12815768917E+04  0.25500000920E-02 0. -1.
        2   -1    0    0  501    0  0.00000000000E+00  0.00000000000E+00 -0.25311631327E+04  0.25311631327E+04  0.25500000920E-02 0.  1.
    10030    2    1    2    0    0  0.00000000000E+00  0.00000000000E+00 -0.12495862410E+04  0.38127400243E+04  0.36021550105E+04 0.  0.
        3    1    3    3  502    0 -0.17262661386E+03 -0.47687451413E+03  0.12044375831E+04  0.13068585049E+04  0.10100000352E+00 0. -1.
       -3    1    3    3    0  502  0.17262661386E+03  0.47687451413E+03 -0.24540238241E+04  0.25058815194E+04  0.10100000352E+00 0.  1.
</event>
<event>
 5   0  0.2198900E-07  0.3597807E+04  0.7818609E-02  0.8090994E-01
       -2   -1    0    0    0  501  0.00000000000E+00  0.00000000000E+00  0.12097206229E+04  0.12097206229E+04  0.25500000920E-02 0. -1.
        2   -1    0    0  501    0  0.00000000000E+00  0.00000000000E+00 -0.26750425153E+04  0.26750425153E+04  0.25500000920E-02 0.  1.
    10030    2    1    2    0    0  0.00000000000E+00  0.00000000000E+00 -0.14653218924E+04  0.38847631383E+04  0.35978071644E+04 0.  0.
        2    1    3    3  502    0  0.15381548530E+04  0.23360462921E+03 -0.17077747827E+04  0.23101918066E+04  0.25500000920E-02 0.  1.
       -2    1    3    3    0  502 -0.15381548530E+04 -0.23360462921E+03  0.24245289035E+03  0.15745713317E+04  0.25500000920E-02 0. -1.
</event>
<event>
 5   0  0.7236375E-08  0.3601494E+04  0.7818609E-02  0.8090150E-01
       -1   -1    0    0    0  501  0.00000000000E+00  0.00000000000E+00  0.20244158433E+04  0.20244158433E+04  0.50400001928E-02 0.  1.
        1   -1    0    0  501    0  0.00000000000E+00  0.00000000000E+00 -0.16017904661E+04  0.16017904661E+04  0.50400001928E-02 0. -1.
    10030    2    1    2    0    0  0.00000000000E+00  0.00000000000E+00  0.42262537720E+03  0.36262063095E+04  0.36014941329E+04 0.  0.
        1    1    3    3  502    0 -0.17466395657E+03  0.12758759583E+04 -0.10560230043E+04  0.16653983140E+04  0.50400001928E-02 0. -1.
       -1    1    3    3    0  502  0.17466395657E+03 -0.12758759583E+04  0.14786483815E+04  0.19608079954E+04  0.50400001928E-02 0.  1.
</event>
<event>
 5   0  0.2198900E-07  0.3608263E+04  0.7818609E-02  0.8088602E-01
        2   -1    0    0  501    0  0.00000000000E+00  0.00000000000E+00  0.19160534909E+04  0.19160534909E+04  0.25500000920E-02 0.  1.
       -2   -1    0    0    0  501  0.00000000000E+00  0.00000000000E+00 -0.16987468086E+04  0.16987468086E+04  0.25500000920E-02 0. -1.
    10030    2    1    2    0    0  0.00000000000E+00  0.00000000000E+00  0.21730668234E+03  0.36148002995E+04  0.36082626028E+04 0.  0.
        2    1    3    3  502    0 -0.28286197761E+03  0.14993561991E+04 -0.85580059753E+03  0.17494212109E+04  0.25500000920E-02 0. -1.
       -2    1    3    3    0  502  0.28286197761E+03 -0.14993561991E+04  0.10731072799E+04  0.18653790886E+04  0.25500000920E-02 0.  1.
</event>
<event>
 5   0  0.7236375E-08  0.3593785E+04  0.7818609E-02  0.8091917E-01
        1   -1    0    0  501    0  0.00000000000E+00  0.00000000000E+00  0.14174004610E+04  0.14174004610E+04  0.50400001928E-02 0. -1.
       -1   -1    0    0    0  501  0.00000000000E+00  0.00000000000E+00 -0.22779883919E+04  0.22779883919E+04  0.50400001928E-02 0.  1.
    10030    2    1    2    0    0  0.00000000000E+00  0.00000000000E+00 -0.86058793087E+03  0.36953888529E+04  0.35937845216E+04 0.  0.
        1    1    3    3  502    0 -0.56598739932E+03  0.15606058525E+04  0.27689232052E+03  0.16830037790E+04  0.50400001928E-02 0. -1.
       -1    1    3    3    0  502  0.56598739932E+03 -0.15606058525E+04 -0.11374802514E+04  0.20123850738E+04  0.50400001928E-02 0.  1.
</event>
<event>
 5   0  0.7236375E-08  0.3596105E+04  0.7818609E-02  0.8091384E-01
        1   -1    0    0  501    0  0.00000000000E+00  0.00000000000E+00  0.19592366354E+04  0.19592366354E+04  0.50400001928E-02 0.  1.
       -1   -1    0    0    0  501  0.00000000000E+00  0.00000000000E+00 -0.16501291905E+04  0.16501291905E+04  0.50400001928E-02 0. -1.
    10030    2    1    2    0    0  0.00000000000E+00  0.00000000000E+00  0.30910744484E+03  0.36093658259E+04  0.35961054285E+04 0.  0.
        5    1    3    3  502    0 -0.16211799340E+04  0.37150898432E+03 -0.53114050471E+03  0.17459598018E+04  0.46999998093E+01 0. -1.
       -5    1    3    3    0  502  0.16211799340E+04 -0.37150898432E+03  0.84024794955E+03  0.18634060241E+04  0.46999998093E+01 0.  1.
</event>
<event>
 5   0  0.2309391E-07  0.3606219E+04  0.7818609E-02  0.8089069E-01
       -2   -1    0    0    0  501  0.00000000000E+00  0.00000000000E+00  0.16406918776E+04  0.16406918776E+04  0.25500000920E-02 0.  1.
        2   -1    0    0  501    0  0.00000000000E+00  0.00000000000E+00 -0.19816048698E+04  0.19816048698E+04  0.25500000920E-02 0. -1.
    10030    2    1    2    0    0  0.00000000000E+00  0.00000000000E+00 -0.34091299227E+03  0.36222967474E+04  0.36062185261E+04 0.  0.
        4    1    3    3  502    0 -0.15918865901E+04  0.48735438830E+03 -0.86606424750E+03  0.18766155998E+04  0.12699999809E+01 0. -1.
       -4    1    3    3    0  502  0.15918865901E+04 -0.48735438830E+03  0.52515125523E+03  0.17456811477E+04  0.12699999809E+01 0.  1.
</event>
<event>
 5   0  0.7261233E-08  0.3563293E+04  0.7818609E-02  0.8098952E-01
        1   -1    0    0  501    0  0.00000000000E+00  0.00000000000E+00  0.12621837567E+04  0.12621837568E+04  0.50400001928E-02 0.  1.
       -1   -1    0    0    0  501  0.00000000000E+00  0.00000000000E+00 -0.25148988965E+04  0.25148988965E+04  0.50400001928E-02 0. -1.
    10030    2    1    2    0    0  0.00000000000E+00  0.00000000000E+00 -0.12527151398E+04  0.37770826533E+04  0.35632931606E+04 0.  0.
        3    1    3    3  502    0 -0.31316177385E+02 -0.17902177747E+03  0.12523325440E+04  0.12654510306E+04  0.10100000352E+00 0.  1.
       -3    1    3    3    0  502  0.31316177385E+02  0.17902177747E+03 -0.25050476838E+04  0.25116316227E+04  0.10100000352E+00 0. -1.
</event>
<event>
 5   0  0.7236375E-08  0.3595431E+04  0.7818609E-02  0.8091539E-01
       -1   -1    0    0    0  501  0.00000000000E+00  0.00000000000E+00  0.12371733105E+04  0.12371733105E+04  0.50400001928E-02 0.  1.
        1   -1    0    0  501    0  0.00000000000E+00  0.00000000000E+00 -0.26122295295E+04  0.26122295295E+04  0.50400001928E-02 0. -1.
    10030    2    1    2    0    0  0.00000000000E+00  0.00000000000E+00 -0.13750562190E+04  0.38494028400E+04  0.35954307974E+04 0.  0.
        1    1    3    3  502    0  0.13662176384E+03  0.12727586284E+03  0.12267632587E+04  0.12408919149E+04  0.50400001928E-02 0.  1.
       -1    1    3    3    0  502 -0.13662176384E+03 -0.12727586284E+03 -0.26018194777E+04  0.26085109251E+04  0.50400001928E-02 0. -1.
</event>
<event>
 5   0  0.7347303E-08  0.3580482E+04  0.7818609E-02  0.8094977E-01
       -1   -1    0    0    0  501  0.00000000000E+00  0.00000000000E+00  0.15160027621E+04  0.15160027622E+04  0.50400001928E-02 0.  1.
        1   -1    0    0  501    0  0.00000000000E+00  0.00000000000E+00 -0.21140880044E+04  0.21140880044E+04  0.50400001928E-02 0. -1.
    10030    2    1    2    0    0  0.00000000000E+00  0.00000000000E+00 -0.59808524223E+03  0.36300907665E+04  0.35804822324E+04 0.  0.
        2    1    3    3  502    0  0.55447920079E+03 -0.19895486105E+03  0.14149225219E+04  0.15326565055E+04  0.25500000920E-02 0.  1.
       -2    1    3    3    0  502 -0.55447920079E+03  0.19895486105E+03 -0.20130077642E+04  0.20974342610E+04  0.25500000920E-02 0. -1.
</event>
<event>
 5   0  0.7514289E-08  0.3597406E+04  0.7818609E-02  0.8091086E-01
        1   -1    0    0  501    0  0.00000000000E+00  0.00000000000E+00  0.15929262793E+04  0.15929262793E+04  0.50400001928E-02 0.  1.
       -1   -1    0    0    0  501  0.00000000000E+00  0.00000000000E+00 -0.20310623676E+04  0.20310623676E+04  0.50400001928E-02 0. -1.
    10030    2    1    2    0    0  0.00000000000E+00  0.00000000000E+00 -0.43813608822E+03  0.36239886469E+04  0.35974060768E+04 0.  0.
        4    1    3    3  502    0 -0.41983800067E+03 -0.37525296842E+03  0.15018444219E+04  0.16039379719E+04  0.12699999809E+01 0.  1.
       -4    1    3    3    0  502  0.41983800067E+03  0.37525296842E+03 -0.19399805101E+04  0.20200506750E+04  0.12699999809E+01 0. -1.
</event>
<event>
 5   0  0.7236375E-08  0.3592293E+04  0.7818609E-02  0.8092259E-01
       -3   -1    0    0    0  501  0.00000000000E+00  0.00000000000E+00  0.14829393132E+04  0.14829393167E+04  0.10100000352E+00 0.  1.
        3   -1    0    0  501    0  0.00000000000E+00  0.00000000000E+00 -0.21755058319E+04  0.21755058342E+04  0.10100000352E+00 0. -1.
    10030    2    1    2    0    0  0.00000000000E+00  0.00000000000E+00 -0.69256651869E+03  0.36584451509E+04  0.35922934929E+04 0.  0.
        4    1    3    3  502    0  0.44443353214E+03 -0.75265909335E+03 -0.19442942225E+04  0.21317360324E+04  0.12699999809E+01 0. -1.
       -4    1    3    3    0  502 -0.44443353214E+03  0.75265909335E+03  0.12517277038E+04  0.15267091185E+04  0.12699999809E+01 0.  1.
</event>
<event>
 5   0  0.2199902E-07  0.3607798E+04  0.7818609E-02  0.8088708E-01
        2   -1    0    0  501    0  0.00000000000E+00  0.00000000000E+00  0.26185632870E+04  0.26185632870E+04  0.25500000920E-02 0. -1.
       -2   -1    0    0    0  501  0.00000000000E+00  0.00000000000E+00 -0.12426856028E+04  0.12426856028E+04  0.25500000920E-02 0.  1.
    10030    2    1    2    0    0  0.00000000000E+00  0.00000000000E+00  0.13758776842E+04  0.38612488898E+04  0.36077976090E+04 0.  0.
        1    1    3    3  502    0  0.80131979764E+03  0.13535806940E+04  0.16330115265E+04  0.22673819173E+04  0.50400001928E-02 0. -1.
       -1    1    3    3    0  502 -0.80131979764E+03 -0.13535806940E+04 -0.25713384230E+03  0.15938669725E+04  0.50400001928E-02 0.  1.
</event>
<event>
 5   0  0.7347303E-08  0.3661867E+04  0.7818609E-02  0.8076465E-01
       -1   -1    0    0    0  501  0.00000000000E+00  0.00000000000E+00  0.16955797860E+04  0.16955797860E+04  0.50400001928E-02 0.  1.
        1   -1    0    0  501    0  0.00000000000E+00  0.00000000000E+00 -0.19770921930E+04  0.19770921930E+04  0.50400001928E-02 0. -1.
    10030    2    1    2    0    0  0.00000000000E+00  0.00000000000E+00 -0.28151240701E+03  0.36726719789E+04  0.36618670415E+04 0.  0.
        2    1    3    3  502    0 -0.55555212740E+03  0.16574492399E+04  0.40540675569E+03  0.17944722864E+04  0.25500000920E-02 0.  1.
       -2    1    3    3    0  502  0.55555212740E+03 -0.16574492399E+04 -0.68691916270E+03  0.18781996926E+04  0.25500000920E-02 0. -1.
</event>
<event>
 5   0  0.2238968E-07  0.3602315E+04  0.7818609E-02  0.8089962E-01
        2   -1    0    0  501    0  0.00000000000E+00  0.00000000000E+00  0.21873976329E+04  0.21873976329E+04  0.25500000920E-02 0. -1.
       -2   -1    0    0    0  501  0.00000000000E+00  0.00000000000E+00 -0.14831175531E+04  0.14831175531E+04  0.25500000920E-02 0.  1.
    10030    2    1    2    0    0  0.00000000000E+00  0.00000000000E+00  0.70428007980E+03  0.36705151860E+04  0.36023147141E+04 0.  0.
        3    1    3    3  502    0  0.33254021674E+03 -0.16848714787E+04 -0.20108763470E+03  0.17291070362E+04  0.10100000352E+00 0.  1.
       -3    1    3    3    0  502 -0.33254021674E+03  0.16848714787E+04  0.90536771450E+03  0.19414081498E+04  0.10100000352E+00 0. -1.
</event>
<event>
 5   0  0.7514289E-08  0.3592527E+04  0.7818609E-02  0.8092206E-01
       -1   -1    0    0    0  501  0.00000000000E+00  0.00000000000E+00  0.15480905845E+04  0.15480905846E+04  0.50400001928E-02 0. -1.
        1   -1    0    0  501    0  0.00000000000E+00  0.00000000000E+00 -0.20842210681E+04  0.20842210681E+04  0.50400001928E-02 0.  1.
    10030    2    1    2    0    0  0.00000000000E+00  0.00000000000E+00 -0.53613048360E+03  0.36323116527E+04  0.35925272507E+04 0.  0.
        4    1    3    3  502    0 -0.11741609818E+04 -0.98989409537E+03  0.67392665126E+03  0.16771174900E+04  0.12699999809E+01 0. -1.
       -4    1    3    3    0  502  0.11741609818E+04  0.98989409537E+03 -0.12100571349E+04  0.19551941627E+04  0.12699999809E+01 0.  1.
</event>
<event>
 5   0  0.2199902E-07  0.3550181E+04  0.7818609E-02  0.8102000E-01
       -2   -1    0    0    0  501  0.00000000000E+00  0.00000000000E+00  0.24350681966E+04  0.24350681966E+04  0.25500000920E-02 0. -1.
        2   -1    0    0  501    0  0.00000000000E+00  0.00000000000E+00 -0.12939868583E+04  0.12939868583E+04  0.25500000920E-02 0.  1.
    10030    2    1    2    0    0  0.00000000000E+00  0.00000000000E+00  0.11410813384E+04  0.37290550549E+04  0.35501809787E+04 0.  0.
        1    1    3    3  502    0 -0.57512129485E+03 -0.62394989425E+02  0.23332750760E+04  0.24039197613E+04  0.50400001928E-02 0. -1.
       -1    1    3    3    0  502  0.57512129485E+03  0.62394989425E+02 -0.11921937376E+04  0.13251352936E+04  0.50400001928E-02 0.  1.
</event>
<event>
 5   0  0.7261233E-08  0.3608078E+04  0.7818609E-02  0.8088644E-01
        1   -1    0    0  501    0  0.00000000000E+00  0.00000000000E+00  0.26952249287E+04  0.26952249287E+04  0.50400001928E-02 0. -1.
       -1   -1    0    0    0  501  0.00000000000E+00  0.00000000000E+00 -0.12075272723E+04  0.12075272723E+04  0.50400001928E-02 0.  1.
    10030    2    1    2    0    0  0.00000000000E+00  0.00000000000E+00  0.14876976564E+04  0.39027522010E+04  0.36080784949E+04 0.  0.
        3    1    3    3  502    0  0.13304236155E+03  0.46062240874E+03 -0.11373514218E+04  0.12342777404E+04  0.10100000352E+00 0.  1.
       -3    1    3    3    0  502 -0.13304236155E+03 -0.46062240874E+03  0.26250490783E+04  0.26684744606E+04  0.10100000352E+00 0. -1.
</event>
<event>
 5   0  0.2309391E-07  0.3614071E+04  0.7818609E-02  0.8087276E-01
       -2   -1    0    0    0  501  0.00000000000E+00  0.00000000000E+00  0.15917327681E+04  0.15917327681E+04  0.25500000920E-02 0.  1.
        2   -1    0    0  501    0  0.00000000000E+00  0.00000000000E+00 -0.20514606896E+04  0.20514606896E+04  0.25500000920E-02 0. -1.
    10030    2    1    2    0    0  0.00000000000E+00  0.00000000000E+00 -0.45972792153E+03  0.36431934577E+04  0.36140709468E+04 0.  0.
        4    1    3    3  502    0  0.18741465937E+01 -0.99651966586E+03 -0.17494327520E+04  0.20133483364E+04  0.12699999809E+01 0. -1.
       -4    1    3    3    0  502 -0.18741465937E+01  0.99651966586E+03  0.12897048305E+04  0.16298451213E+04  0.12699999809E+01 0.  1.
</event>
<event>
 5   0  0.2198900E-07  0.3588202E+04  0.7818609E-02  0.8093199E-01
        2   -1    0    0  501    0  0.00000000000E+00  0.00000000000E+00  0.12640609484E+04  0.12640609484E+04  0.25500000920E-02 0.  1.
       -2   -1    0    0    0  501  0.00000000000E+00  0.00000000000E+00 -0.25463953315E+04  0.25463953315E+04  0.25500000920E-02 0. -1.
    10030    2    1    2    0    0  0.00000000000E+00  0.00000000000E+00 -0.12823343830E+04  0.38104562799E+04  0.35882022784E+04 0.  0.
        2    1    3    3  502    0  0.77812451815E+02  0.11177612353E+04 -0.21291549716E+04  0.24059812655E+04  0.25500000920E-02 0. -1.
       -2    1    3    3    0  502 -0.77812451815E+02 -0.11177612353E+04  0.84682058856E+03  0.14044750144E+04  0.25500000920E-02 0.  1.
</event>
<event>
 5   0  0.2342606E-07  0.3630469E+04  0.7818609E-02  0.8083548E-01
        2   -1    0    0  501    0  0.00000000000E+00  0.00000000000E+00  0.16636345268E+04  0.16636345268E+04  0.25500000920E-02 0. -1.
       -2   -1    0    0    0  501  0.00000000000E+00  0.00000000000E+00 -0.19806492214E+04  0.19806492214E+04  0.25500000920E-02 0.  1.
    10030    2    1    2    0    0  0.00000000000E+00  0.00000000000E+00 -0.31701469460E+03  0.36442837482E+04  0.36304690773E+04 0.  0.
        5    1    3    3  502    0 -0.10733874924E+04 -0.12563408163E+04 -0.91269939361E+03  0.18877487197E+04  0.46999998093E+01 0.  1.
       -5    1    3    3    0  502  0.10733874924E+04  0.12563408163E+04  0.59568469901E+03  0.17565350285E+04  0.46999998093E+01 0. -1.
</event>
<event>
 5   0  0.2198900E-07  0.3606661E+04  0.7818609E-02  0.8088968E-01
        2   -1    0    0  501    0  0.00000000000E+00  0.00000000000E+00  0.29274639038E+04  0.29274639038E+04  0.25500000920E-02 0. -1.
       -2   -1    0    0    0  501  0.00000000000E+00  0.00000000000E+00 -0.11108591672E+04  0.11108591672E+04  0.25500000920E-02 0.  1.
    10030    2    1    2    0    0  0.00000000000E+00  0.00000000000E+00  0.18166047367E+04  0.40383230710E+04  0.36066605685E+04 0.  0.
        2    1    3    3  502    0 -0.11707462373E+04 -0.12979255398E+04  0.14049462075E+04  0.22425724748E+04  0.25500000920E-02 0. -1.
       -2    1    3    3    0  502  0.11707462373E+04  0.12979255398E+04  0.41165852919E+03  0.17957505962E+04  0.25500000920E-02 0.  1.
</event>
<event>
 5   0  0.2238968E-07  0.3410028E+04  0.7818609E-02  0.8135450E-01
       -2   -1    0    0    0  501  0.00000000000E+00  0.00000000000E+00  0.23069717869E+04  0.23069717869E+04  0.25500000920E-02 0.  1.
        2   -1    0    0  501    0  0.00000000000E+00  0.00000000000E+00 -0.12601249402E+04  0.12601249402E+04  0.25500000920E-02 0. -1.
    10030    2    1    2    0    0  0.00000000000E+00  0.00000000000E+00  0.10468468468E+04  0.35670967271E+04  0.34100279676E+04 0.  0.
        3    1    3    3  502    0  0.11376952965E+03  0.12540332739E+04 -0.67910517036E+03  0.14306385989E+04  0.10100000352E+00 0. -1.
       -3    1    3    3    0  502 -0.11376952965E+03 -0.12540332739E+04  0.17259520171E+04  0.21364581282E+04  0.10100000352E+00 0.  1.
</event>
<event>
 5   0  0.2238968E-07  0.3610153E+04  0.7818609E-02  0.8088170E-01
       -2   -1    0    0    0  501  0.00000000000E+00  0.00000000000E+00  0.14850470875E+04  0.14850470875E+04  0.25500000920E-02 0.  1.
        2   -1    0    0  501    0  0.00000000000E+00  0.00000000000E+00 -0.21940728914E+04  0.21940728914E+04  0.25500000920E-02 0. -1.
    10030    2    1    2    0    0  0.00000000000E+00  0.00000000000E+00 -0.70902580391E+03  0.36791199789E+04  0.36101532140E+04 0.  0.
        3    1    3    3  502    0 -0.32598830732E+03  0.14918212995E+03  0.14484013602E+04  0.14921093106E+04  0.10100000352E+00 0.  1.
       -3    1    3    3    0  502  0.32598830732E+03 -0.14918212995E+03 -0.21574271641E+04  0.21870106683E+04  0.10100000352E+00 0. -1.
</event>
<event>
 5   0  0.2198900E-07  0.3609968E+04  0.7818609E-02  0.8088212E-01
       -2   -1    0    0    0  501  0.00000000000E+00  0.00000000000E+00  0.15060159998E+04  0.15060159998E+04  0.25500000920E-02 0.  1.
        2   -1    0    0  501    0  0.00000000000E+00  0.00000000000E+00 -0.21633024362E+04  0.21633024362E+04  0.25500000920E-02 0. -1.
    10030    2    1    2    0    0  0.00000000000E+00  0.00000000000E+00 -0.65728643645E+03  0.36693184360E+04  0.36099684660E+04 0.  0.
        2    1    3    3  502    0 -0.16264583648E+04 -0.99816047136E+02  0.46041720385E+03  0.16933145182E+04  0.25500000920E-02 0.  1.
       -2    1    3    3    0  502  0.16264583648E+04  0.99816047136E+02 -0.11177036403E+04  0.19760039178E+04  0.25500000920E-02 0. -1.
</event>
<event>
 5   0  0.2342606E-07  0.3624452E+04  0.7818609E-02  0.8084914E-01
        2   -1    0    0  501    0  0.00000000000E+00  0.00000000000E+00  0.15037287010E+04  0.15037287010E+04  0.25500000920E-02 0. -1.
       -2   -1    0    0    0  501  0.00000000000E+00  0.00000000000E+00 -0.21840127435E+04  0.21840127435E+04  0.25500000920E-02 0.  1.
    10030    2    1    2    0    0  0.00000000000E+00  0.00000000000E+00 -0.68028404255E+03  0.36877414445E+04  0.36244517631E+04 0.  0.
        5    1    3    3  502    0  0.13354643811E+04  0.17943077497E+03 -0.15731110393E+04  0.20713186495E+04  0.46999998093E+01 0.  1.
       -5    1    3    3    0  502 -0.13354643811E+04 -0.17943077497E+03  0.89282699673E+03  0.16164227950E+04  0.46999998093E+01 0. -1.
</event>
<event>
 5   0  0.2238968E-07  0.3590435E+04  0.7818609E-02  0.8092686E-01
        2   -1    0    0  501    0  0.00000000000E+00  0.00000000000E+00  0.18731235362E+04  0.18731235362E+04  0.25500000920E-02 0.  1.
       -2   -1    0    0    0  501  0.00000000000E+00  0.00000000000E+00 -0.17205519627E+04  0.17205519627E+04  0.25500000920E-02 0. -1.
    10030    2    1    2    0    0  0.00000000000E+00  0.00000000000E+00  0.15257157344E+03  0.35936754989E+04  0.35904352809E+04 0.  0.
        3    1    3    3  502    0 -0.32313988935E+03  0.61414165941E+02  0.18427057356E+04  0.18718321308E+04  0.10100000352E+00 0.  1.
       -3    1    3    3    0  502  0.32313988935E+03 -0.61414165941E+02 -0.16901341621E+04  0.17218433681E+04  0.10100000352E+00 0. -1.
</event>
<event>
 5   0  0.7236375E-08  0.3605488E+04  0.7818609E-02  0.8089236E-01
       -1   -1    0    0    0  501  0.00000000000E+00  0.00000000000E+00  0.12229018414E+04  0.12229018414E+04  0.50400001928E-02 0. -1.
        1   -1    0    0  501    0  0.00000000000E+00  0.00000000000E+00 -0.26575191473E+04  0.26575191473E+04  0.50400001928E-02 0.  1.
    10030    2    1    2    0    0  0.00000000000E+00  0.00000000000E+00 -0.14346173059E+04  0.38804209887E+04  0.36054875170E+04 0.  0.
        1    1    3    3  502    0  0.14807284782E+04 -0.10254413879E+04 -0.63535635021E+03  0.19099121860E+04  0.50400001928E-02 0.  1.
       -1    1    3    3    0  502 -0.14807284782E+04  0.10254413879E+04 -0.79926095569E+03  0.19705088027E+04  0.50400001928E-02 0. -1.
</event>
<event>
 5   0  0.2199902E-07  0.3603536E+04  0.7818609E-02  0.8089682E-01
        2   -1    0    0  501    0  0.00000000000E+00  0.00000000000E+00  0.22129739009E+04  0.22129739009E+04  0.25500000920E-02 0.  1.
       -2   -1    0    0    0  501  0.00000000000E+00  0.00000000000E+00 -0.14669709131E+04  0.14669709131E+04  0.25500000920E-02 0. -1.
    10030    2    1    2    0    0  0.00000000000E+00  0.00000000000E+00  0.74600298783E+03  0.36799448140E+04  0.36035362321E+04 0.  0.
        1    1    3    3  502    0  0.12897610618E+04  0.78174736006E+03  0.13796804412E+04  0.20440476147E+04  0.50400001928E-02 0. -1.
       -1    1    3    3    0  502 -0.12897610618E+04 -0.78174736006E+03 -0.63367745332E+03  0.16358971992E+04  0.50400001928E-02 0.  1.
</event>
<event>
 5   0  0.2198900E-07  0.3594246E+04  0.7818609E-02  0.8091811E-01
       -2   -1    0    0    0  501  0.00000000000E+00  0.00000000000E+00  0.12461621933E+04  0.12461621934E+04  0.25500000920E-02 0.  1.
        2   -1    0    0  501    0  0.00000000000E+00  0.00000000000E+00 -0.25916783635E+04  0.25916783635E+04  0.25500000920E-02 0. -1.
    10030    2    1    2    0    0  0.00000000000E+00  0.00000000000E+00 -0.13455161702E+04  0.38378405569E+04  0.35942462876E+04 0.  0.
        2    1    3    3  502    0  0.42182553801E+03 -0.60798740488E+03 -0.24214521484E+04  0.25319984155E+04  0.25500000920E-02 0. -1.
       -2    1    3    3    0  502 -0.42182553801E+03  0.60798740488E+03  0.10759359782E+04  0.13058421414E+04  0.25500000920E-02 0.  1.
</event>
<event>
 5   0  0.7347303E-08  0.3602115E+04  0.7818609E-02  0.8090007E-01
       -1   -1    0    0    0  501  0.00000000000E+00  0.00000000000E+00  0.12831478419E+04  0.12831478419E+04  0.50400001928E-02 0. -1.
        1   -1    0    0  501    0  0.00000000000E+00  0.00000000000E+00 -0.25280084203E+04  0.25280084203E+04  0.50400001928E-02 0.  1.
    10030    2    1    2    0    0  0.00000000000E+00  0.00000000000E+00 -0.12448605785E+04  0.38111562622E+04  0.36021152390E+04 0.  0.
        2    1    3    3  502    0 -0.13152473243E+04  0.72042625722E+03  0.43291122523E+03  0.15608656717E+04  0.25500000920E-02 0. -1.
       -2    1    3    3    0  502  0.13152473243E+04 -0.72042625722E+03 -0.16777718037E+04  0.22502905905E+04  0.25500000920E-02 0.  1.
</event>
<event>
 5   0  0.2342606E-07  0.3603818E+04  0.7818609E-02  0.8089618E-01
       -2   -1    0    0    0  501  0.00000000000E+00  0.00000000000E+00  0.29205961728E+04  0.29205961728E+04  0.25500000920E-02 0. -1.
        2   -1    0    0  501    0  0.00000000000E+00  0.00000000000E+00 -0.11117168082E+04  0.11117168082E+04  0.25500000920E-02 0.  1.
    10030    2    1    2    0    0  0.00000000000E+00  0.00000000000E+00  0.18088793645E+04  0.40323129810E+04  0.36038178952E+04 0.  0.
        5    1    3    3  502    0  0.52754862086E+03  0.14755000117E+04 -0.90970370504E+02  0.15696195495E+04  0.46999998093E+01 0.  1.
       -5    1    3    3    0  502 -0.52754862086E+03 -0.14755000117E+04  0.18998497350E+04  0.24626934315E+04  0.46999998093E+01 0. -1.
</event>
<event>
 5   0  0.7261233E-08  0.3591519E+04  0.7818609E-02  0.8092437E-01
       -1   -1    0    0    0  501  0.00000000000E+00  0.00000000000E+00  0.30859697301E+04  0.30859697301E+04  0.50400001928E-02 0. -1.
        1   -1    0    0  501    0  0.00000000000E+00  0.00000000000E+00 -0.10449719371E+04  0.10449719371E+04  0.50400001928E-02 0.  1.
    10030    2    1    2    0    0  0.00000000000E+00  0.00000000000E+00  0.20409977930E+04  0.41309416672E+04  0.35915187688E+04 0.  0.
        3    1    3    3  502    0 -0.17813843932E+04 -0.21981386155E+03  0.10845726904E+04  0.20971281366E+04  0.10100000352E+00 0. -1.
       -3    1    3    3    0  502  0.17813843932E+04  0.21981386155E+03  0.95642510262E+03  0.20338135306E+04  0.10100000352E+00 0.  1.
</event>
<event>
 5   0  0.7261233E-08  0.3560645E+04  0.7818609E-02  0.8099566E-01
        1   -1    0    0  501    0  0.00000000000E+00  0.00000000000E+00  0.22616066108E+04  0.22616066108E+04  0.50400001928E-02 0. -1.
       -1   -1    0    0    0  501  0.00000000000E+00  0.00000000000E+00 -0.14014586463E+04  0.14014586463E+04  0.50400001928E-02 0.  1.
    10030    2    1    2    0    0  0.00000000000E+00  0.00000000000E+00  0.86014796454E+03  0.36630652571E+04  0.35606449636E+04 0.  0.
        3    1    3    3  502    0  0.37740209708E+03  0.95309427756E+03  0.19275279918E+04  0.21831594568E+04  0.10100000352E+00 0. -1.
       -3    1    3    3    0  502 -0.37740209708E+03 -0.95309427756E+03 -0.10673800272E+04  0.14799058002E+04  0.10100000352E+00 0.  1.
</event>
<event>
 5   0  0.7514289E-08  0.3671694E+04  0.7818609E-02  0.8074264E-01
       -1   -1    0    0    0  501  0.00000000000E+00  0.00000000000E+00  0.16343222745E+04  0.16343222745E+04  0.50400001928E-02 0.  1.
        1   -1    0    0  501    0  0.00000000000E+00  0.00000000000E+00 -0.20622207811E+04  0.20622207811E+04  0.50400001928E-02 0. -1.
    10030    2    1    2    0    0  0.00000000000E+00  0.00000000000E+00 -0.42789850665E+03  0.36965430557E+04  0.36716935371E+04 0.  0.
        4    1    3    3  502    0 -0.67315183728E+03 -0.10093132149E+04  0.11732311661E+04  0.16876965200E+04  0.12699999809E+01 0.  1.
       -4    1    3    3    0  502  0.67315183728E+03  0.10093132149E+04 -0.16011296727E+04  0.20088465356E+04  0.12699999809E+01 0. -1.
</event>
<event>
 5   0  0.2309391E-07  0.3602094E+04  0.7818609E-02  0.8090012E-01
       -2   -1    0    0    0  501  0.00000000000E+00  0.00000000000E+00  0.10411190106E+04  0.10411190106E+04  0.25500000920E-02 0. -1.
        2   -1    0    0  501    0  0.00000000000E+00  0.00000000000E+00 -0.31156573764E+04  0.31156573764E+04  0.25500000920E-02 0.  1.
    10030    2    1    2    0    0  0.00000000000E+00  0.00000000000E+00 -0.20745383658E+04  0.41567763870E+04  0.36020939050E+04 0.  0.
        4    1    3    3  502    0  0.91879956868E+03  0.23964808111E+02  0.75011082668E+03  0.11863535833E+04  0.12699999809E+01 0. -1.
       -4    1    3    3    0  502 -0.91879956868E+03 -0.23964808111E+02 -0.28246491924E+04  0.29704228037E+04  0.12699999809E+01 0.  1.
</event>
<event>
 5   0  0.2198900E-07  0.3570556E+04  0.7818609E-02  0.8097270E-01
       -2   -1    0    0    0  501  0.00000000000E+00  0.00000000000E+00  0.12101060279E+04  0.12101060279E+04  0.25500000920E-02 0. -1.
        2   -1    0    0  501    0  0.00000000000E+00  0.00000000000E+00 -0.26338336824E+04  0.26338336824E+04  0.25500000920E-02 0.  1.
    10030    2    1    2    0    0  0.00000000000E+00  0.00000000000E+00 -0.14237276545E+04  0.38439397104E+04  0.35705562680E+04 0.  0.
        2    1    3    3  502    0 -0.64929465068E+03 -0.11145225818E+04  0.61693180910E+03  0.14298073247E+04  0.25500000920E-02 0. -1.
       -2    1    3    3    0  502  0.64929465068E+03  0.11145225818E+04 -0.20406594636E+04  0.24141323856E+04  0.25500000920E-02 0.  1.
</event>
<event>
 5   0  0.2309391E-07  0.3601157E+04  0.7818609E-02  0.8090227E-01
       -2   -1    0    0    0  501  0.00000000000E+00  0.00000000000E+00  0.22826235278E+04  0.22826235278E+04  0.25500000920E-02 0. -1.
        2   -1    0    0  501    0  0.00000000000E+00  0.00000000000E+00 -0.14203318801E+04  0.14203318801E+04  0.25500000920E-02 0.  1.
    10030    2    1    2    0    0  0.00000000000E+00  0.00000000000E+00  0.86229164768E+03  0.37029554079E+04  0.36011570178E+04 0.  0.
        4    1    3    3  502    0  0.67757434752E+03 -0.14869265007E+04 -0.34655673227E+03  0.16703773815E+04  0.12699999809E+01 0. -1.
       -4    1    3    3    0  502 -0.67757434752E+03  0.14869265007E+04  0.12088483800E+04  0.20325780264E+04  0.12699999809E+01 0.  1.
</event>
<event>
 5   0  0.2199902E-07  0.3589237E+04  0.7818609E-02  0.8092962E-01
        2   -1    0    0  501    0  0.00000000000E+00  0.00000000000E+00  0.23111817325E+04  0.23111817325E+04  0.25500000920E-02 0. -1.
       -2   -1    0    0    0  501  0.00000000000E+00  0.00000000000E+00 -0.13935103219E+04  0.13935103219E+04  0.25500000920E-02 0.  1.
    10030    2    1    2    0    0  0.00000000000E+00  0.00000000000E+00  0.91767141060E+03  0.37046920544E+04  0.35892370220E+04 0.  0.
        1    1    3    3  502    0  0.44526636430E+03  0.15226935233E+04  0.13247481039E+04  0.20668370134E+04  0.50400001928E-02 0. -1.
       -1    1    3    3    0  502 -0.44526636430E+03 -0.15226935233E+04 -0.40707669331E+03  0.16378550410E+04  0.50400001928E-02 0.  1.
</event>
<event>
 5   0  0.2238968E-07  0.3624386E+04  0.7818609E-02  0.8084928E-01
       -2   -1    0    0    0  501  0.00000000000E+00  0.00000000000E+00  0.12385077082E+04  0.12385077082E+04  0.25500000920E-02 0.  1.
        2   -1    0    0  501    0  0.00000000000E+00  0.00000000000E+00 -0.26516139076E+04  0.26516139076E+04  0.25500000920E-02 0. -1.
    10030    2    1    2    0    0  0.00000000000E+00  0.00000000000E+00 -0.14131061994E+04  0.38901216157E+04  0.36243864384E+04 0.  0.
        3    1    3    3  502    0 -0.76969134820E+03  0.37182276669E+03  0.10085306388E+04  0.13220480328E+04  0.10100000352E+00 0.  1.
       -3    1    3    3    0  502  0.76969134820E+03 -0.37182276669E+03 -0.24216368382E+04  0.25680735830E+04  0.10100000352E+00 0. -1.
</event>
<event>
 5   0  0.7236375E-08  0.3663529E+04  0.7818609E-02  0.8076093E-01
       -1   -1    0    0    0  501  0.00000000000E+00  0.00000000000E+00  0.13648327197E+04  0.13648327197E+04  0.50400001928E-02 0. -1.
        1   -1    0    0  501    0  0.00000000000E+00  0.00000000000E+00 -0.24584417430E+04  0.24584417430E+04  0.50400001928E-02 0.  1.
    10030    2    1    2    0    0  0.00000000000E+00  0.00000000000E+00 -0.10936090234E+04  0.38232744627E+04  0.36635292985E+04 0.  0.
        1    1    3    3  502    0  0.79502857068E+03 -0.16498168093E+04 -0.58579395642E+03  0.19227897680E+04  0.50400001928E-02 0.  1.
       -1    1    3    3    0  502 -0.79502857068E+03  0.16498168093E+04 -0.50781506694E+03  0.19004846947E+04  0.50400001928E-02 0. -1.
</event>
<event>
 5   0  0.2198900E-07  0.3380617E+04  0.7818609E-02  0.8142680E-01
        2   -1    0    0  501    0  0.00000000000E+00  0.00000000000E+00  0.33607031887E+04  0.33607031887E+04  0.25500000920E-02 0. -1.
       -2   -1    0    0    0  501  0.00000000000E+00  0.00000000000E+00 -0.85016226747E+03  0.85016226747E+03  0.25500000920E-02 0.  1.
    10030    2    1    2    0    0  0.00000000000E+00  0.00000000000E+00  0.25105409212E+04  0.42108654562E+04  0.33806171290E+04 0.  0.
        2    1    3    3  502    0  0.29508713946E+03 -0.16345676163E+04  0.16457096830E+04  0.23382147192E+04  0.25500000920E-02 0. -1.
       -2    1    3    3    0  502 -0.29508713946E+03  0.16345676163E+04  0.86483123823E+03  0.18726507370E+04  0.25500000920E-02 0.  1.
</event>
<event>
 5   0  0.7347303E-08  0.3596827E+04  0.7818609E-02  0.8091219E-01
       -1   -1    0    0    0  501  0.00000000000E+00  0.00000000000E+00  0.27632305776E+04  0.27632305776E+04  0.50400001928E-02 0.  1.
        1   -1    0    0  501    0  0.00000000000E+00  0.00000000000E+00 -0.11704746106E+04  0.11704746107E+04  0.50400001928E-02 0. -1.
    10030    2    1    2    0    0  0.00000000000E+00  0.00000000000E+00  0.15927559670E+04  0.39337051883E+04  0.35968270653E+04 0.  0.
        2    1    3    3  502    0 -0.12590434259E+04 -0.94245250306E+03 -0.15760696830E+03  0.15805843936E+04  0.25500000920E-02 0. -1.
       -2    1    3    3    0  502  0.12590434259E+04  0.94245250306E+03  0.17503629353E+04  0.23531207946E+04  0.25500000920E-02 0.  1.
</event>
<event>
 5   0  0.2198900E-07  0.3607438E+04  0.7818609E-02  0.8088790E-01
        2   -1    0    0  501    0  0.00000000000E+00  0.00000000000E+00  0.26129738573E+04  0.26129738573E+04  0.25500000920E-02 0.  1.
       -2   -1    0    0    0  501  0.00000000000E+00  0.00000000000E+00 -0.12450953265E+04  0.12450953265E+04  0.25500000920E-02 0. -1.
    10030    2    1    2    0    0  0.00000000000E+00  0.00000000000E+00  0.13678785307E+04  0.38580691838E+04  0.36074376158E+04 0.  0.
        2    1    3    3  502    0  0.72486298207E+03 -0.12643131769E+04  0.18205503164E+04  0.23320200700E+04  0.25500000920E-02 0.  1.
       -2    1    3    3    0  502 -0.72486298207E+03  0.12643131769E+04 -0.45267178572E+03  0.15260491138E+04  0.25500000920E-02 0. -1.
</event>
<event>
 5   0  0.2309391E-07  0.3587356E+04  0.7818609E-02  0.8093394E-01
       -2   -1    0    0    0  501  0.00000000000E+00  0.00000000000E+00  0.15663136719E+04  0.15663136719E+04  0.25500000920E-02 0. -1.
        2   -1    0    0  501    0  0.00000000000E+00  0.00000000000E+00 -0.20540465267E+04  0.20540465267E+04  0.25500000920E-02 0.  1.
    10030    2    1    2    0    0  0.00000000000E+00  0.00000000000E+00 -0.48773285484E+03  0.36203601986E+04  0.35873562173E+04 0.  0.
        4    1    3    3  502    0 -0.89570241681E+03 -0.78507948587E+03  0.11096085722E+04  0.16278407216E+04  0.12699999809E+01 0. -1.
       -4    1    3    3    0  502  0.89570241681E+03  0.78507948587E+03 -0.15973414270E+04  0.19925194770E+04  0.12699999809E+01 0.  1.
</event>
<event>
 5   0  0.7236375E-08  0.3537483E+04  0.7818609E-02  0.8104964E-01
        1   -1    0    0  501    0  0.00000000000E+00  0.00000000000E+00  0.12718729333E+04  0.12718729333E+04  0.50400001928E-02 0. -1.
       -1   -1    0    0    0  501  0.00000000000E+00  0.00000000000E+00 -0.24597169054E+04  0.24597169054E+04  0.50400001928E-02 0.  1.
    10030    2    1    2    0    0  0.00000000000E+00  0.00000000000E+00 -0.11878439721E+04  0.37315898387E+04  0.35374834872E+04 0.  0.
        1    1    3    3  502    0  0.30180200379E+03  0.54342045906E+03  0.11528560741E+04  0.13097585169E+04  0.50400001928E-02 0. -1.
       -1    1    3    3    0  502 -0.30180200379E+03 -0.54342045906E+03 -0.23407000463E+04  0.24218313218E+04  0.50400001928E-02 0.  1.
</event>
<event>
 5   0  0.7261233E-08  0.3596997E+04  0.7818609E-02  0.8091180E-01
       -1   -1    0    0    0  501  0.00000000000E+00  0.00000000000E+00  0.19736901272E+04  0.19736901272E+04  0.50400001928E-02 0. -1.
        1   -1    0    0  501    0  0.00000000000E+00  0.00000000000E+00 -0.16388576485E+04  0.16388576485E+04  0.50400001928E-02 0.  1.
    10030    2    1    2    0    0  0.00000000000E+00  0.00000000000E+00  0.33483247871E+03  0.36125477757E+04  0.35969971702E+04 0.  0.
        3    1    3    3  502    0 -0.11499383433E+04 -0.11932165791E+04  0.86934631744E+03  0.18713329549E+04  0.10100000352E+00 0. -1.
       -3    1    3    3    0  502  0.11499383433E+04  0.11932165791E+04 -0.53451383873E+03  0.17412148208E+04  0.10100000352E+00 0.  1.
</event>
<event>
 5   0  0.2238968E-07  0.3590117E+04  0.7818609E-02  0.8092759E-01
        2   -1    0    0  501    0  0.00000000000E+00  0.00000000000E+00  0.27621076987E+04  0.27621076987E+04  0.25500000920E-02 0. -1.
       -2   -1    0    0    0  501  0.00000000000E+00  0.00000000000E+00 -0.11665856925E+04  0.11665856925E+04  0.25500000920E-02 0.  1.
    10030    2    1    2    0    0  0.00000000000E+00  0.00000000000E+00  0.15955220062E+04  0.39286933913E+04  0.35901171694E+04 0.  0.
        3    1    3    3  502    0 -0.13013251044E+04 -0.63859535278E+03 -0.36085432818E+03  0.14938095288E+04  0.10100000352E+00 0.  1.
       -3    1    3    3    0  502  0.13013251044E+04  0.63859535278E+03  0.19563763344E+04  0.24348838625E+04  0.10100000352E+00 0. -1.
</event>
<event>
 5   0  0.7236375E-08  0.3592810E+04  0.7818609E-02  0.8092141E-01
       -1   -1    0    0    0  501  0.00000000000E+00  0.00000000000E+00  0.29868784803E+04  0.29868784803E+04  0.50400001928E-02 0. -1.
        1   -1    0    0  501    0  0.00000000000E+00  0.00000000000E+00 -0.10804161705E+04  0.10804161706E+04  0.50400001928E-02 0.  1.
    10030    2    1    2    0    0  0.00000000000E+00  0.00000000000E+00  0.19064623098E+04  0.40672946509E+04  0.35928104930E+04 0.  0.
        5    1    3    3  502    0  0.65828346247E+03 -0.50702304698E+03  0.27562520646E+04  0.28787770009E+04  0.46999998093E+01 0. -1.
       -5    1    3    3    0  502 -0.65828346247E+03  0.50702304698E+03 -0.84978975479E+03  0.11885176500E+04  0.46999998093E+01 0.  1.
</event>
<event>
 5   0  0.7514289E-08  0.3604158E+04  0.7818609E-02  0.8089540E-01
       -1   -1    0    0    0  501  0.00000000000E+00  0.00000000000E+00  0.16186763409E+04  0.16186763409E+04  0.50400001928E-02 0.  1.
        1   -1    0    0  501    0  0.00000000000E+00  0.00000000000E+00 -0.20062623251E+04  0.20062623251E+04  0.50400001928E-02 0. -1.
    10030    2    1    2    0    0  0.00000000000E+00  0.00000000000E+00 -0.38758598418E+03  0.36249386660E+04  0.36041583535E+04 0.  0.
        4    1    3    3  502    0  0.11225055910E+03  0.16724522631E+04  0.47167965025E+03  0.17413156135E+04  0.12699999809E+01 0.  1.
       -4    1    3    3    0  502 -0.11225055910E+03 -0.16724522631E+04 -0.85926563443E+03  0.18836230525E+04  0.12699999809E+01 0. -1.
</event>
<event>
 5   0  0.2309391E-07  0.3594552E+04  0.7818609E-02  0.8091741E-01
        2   -1    0    0  501    0  0.00000000000E+00  0.00000000000E+00  0.19564111813E+04  0.19564111813E+04  0.25500000920E-02 0.  1.
       -2   -1    0    0    0  501  0.00000000000E+00  0.00000000000E+00 -0.16510851315E+04  0.16510851315E+04  0.25500000920E-02 0. -1.
    10030    2    1    2    0    0  0.00000000000E+00  0.00000000000E+00  0.30532604978E+03  0.36074963128E+04  0.35945522183E+04 0.  0.
        4    1    3    3  502    0 -0.15414839759E+04  0.58968252231E+03  0.86677397897E+03  0.18641880454E+04  0.12699999809E+01 0.  1.
       -4    1    3    3    0  502  0.15414839759E+04 -0.58968252231E+03 -0.56144792919E+03  0.17433082674E+04  0.12699999809E+01 0. -1.
</event>
<event>
 5   0  0.2199902E-07  0.3601009E+04  0.7818609E-02  0.8090261E-01
       -2   -1    0    0    0  501  0.00000000000E+00  0.00000000000E+00  0.99760972089E+03  0.99760972089E+03  0.25500000920E-02 0.  1.
        2   -1    0    0  501    0  0.00000000000E+00  0.00000000000E+00 -0.32495838811E+04  0.32495838811E+04  0.25500000920E-02 0. -1.
    10030    2    1    2    0    0  0.00000000000E+00  0.00000000000E+00 -0.22519741602E+04  0.42471936020E+04  0.36010090078E+04 0.  0.
        1    1    3    3  502    0  0.97482551286E+03  0.14767753507E+04 -0.15183477347E+04  0.23316367771E+04  0.50400001928E-02 0.  1.
       -1    1    3    3    0  502 -0.97482551286E+03 -0.14767753507E+04 -0.73362642552E+03  0.19155568249E+04  0.50400001928E-02 0. -1.
</event>
<event>
 5   0  0.7347303E-08  0.3512964E+04  0.7818609E-02  0.8110725E-01
        1   -1    0    0  501    0  0.00000000000E+00  0.00000000000E+00  0.24413798981E+04  0.24413798981E+04  0.50400001928E-02 0. -1.
       -1   -1    0    0    0  501  0.00000000000E+00  0.00000000000E+00 -0.12637231625E+04  0.12637231625E+04  0.50400001928E-02 0.  1.
    10030    2    1    2    0    0  0.00000000000E+00  0.00000000000E+00  0.11776567355E+04  0.37051030606E+04  0.35129636068E+04 0.  0.
        2    1    3    3  502    0 -0.12308862037E+04  0.72539596728E+03 -0.48879279269E+03  0.15100326321E+04  0.25500000920E-02 0.  1.
       -2    1    3    3    0  502  0.12308862037E+04 -0.72539596728E+03  0.16664495282E+04  0.21950704285E+04  0.25500000920E-02 0. -1.
</event>
<event>
 5   0  0.2198900E-07  0.3595199E+04  0.7818609E-02  0.8091592E-01
        2   -1    0    0  501    0  0.00000000000E+00  0.00000000000E+00  0.13172424759E+04  0.13172424759E+04  0.25500000920E-02 0. -1.
       -2   -1    0    0    0  501  0.00000000000E+00  0.00000000000E+00 -0.24531276314E+04  0.24531276314E+04  0.25500000920E-02 0.  1.
    10030    2    1    2    0    0  0.00000000000E+00  0.00000000000E+00 -0.11358851555E+04  0.37703701074E+04  0.35951989736E+04 0.  0.
        2    1    3    3  502    0 -0.41694668809E+03  0.16495254302E+04 -0.11763697191E+04  0.20684835995E+04  0.25500000920E-02 0. -1.
       -2    1    3    3    0  502  0.41694668809E+03 -0.16495254302E+04  0.40484563588E+02  0.17018865078E+04  0.25500000920E-02 0.  1.
</event>
<event>
 5   0  0.2199902E-07  0.3584663E+04  0.7818609E-02  0.8094014E-01
        2   -1    0    0  501    0  0.00000000000E+00  0.00000000000E+00  0.23977040178E+04  0.23977040178E+04  0.25500000920E-02 0.  1.
       -2   -1    0    0    0  501  0.00000000000E+00  0.00000000000E+00 -0.13398035594E+04  0.13398035594E+04  0.25500000920E-02 0. -1.
    10030    2    1    2    0    0  0.00000000000E+00  0.00000000000E+00  0.10579004584E+04  0.37375075771E+04  0.35846630957E+04 0.  0.
        1    1    3    3  502    0 -0.16954364555E+04 -0.35481265679E+03  0.48820507826E+02  0.17328532073E+04  0.50400001928E-02 0.  1.
       -1    1    3    3    0  502  0.16954364555E+04  0.35481265679E+03  0.10090799506E+04  0.20046543699E+04  0.50400001928E-02 0. -1.
</event>
<event>
 5   0  0.2238968E-07  0.3601874E+04  0.7818609E-02  0.8090063E-01
       -2   -1    0    0    0  501  0.00000000000E+00  0.00000000000E+00  0.11083692311E+04  0.11083692311E+04  0.25500000920E-02 0. -1.
        2   -1    0    0  501    0  0.00000000000E+00  0.00000000000E+00 -0.29262578597E+04  0.29262578597E+04  0.25500000920E-02 0.  1.
    10030    2    1    2    0    0  0.00000000000E+00  0.00000000000E+00 -0.18178886286E+04  0.40346270907E+04  0.36018740532E+04 0.  0.
        3    1    3    3  502    0  0.63620857789E+03  0.10105044196E+04  0.60117522144E+03  0.13368964783E+04  0.10100000352E+00 0. -1.
       -3    1    3    3    0  502 -0.63620857789E+03 -0.10105044196E+04 -0.24190638501E+04  0.26977306125E+04  0.10100000352E+00 0.  1.
</event>
<event>
 5   0  0.2198900E-07  0.3620800E+04  0.7818609E-02  0.8085744E-01
       -2   -1    0    0    0  501  0.00000000000E+00  0.00000000000E+00  0.17988836275E+04  0.17988836275E+04  0.25500000920E-02 0. -1.
        2   -1    0    0  501    0  0.00000000000E+00  0.00000000000E+00 -0.18219904383E+04  0.18219904383E+04  0.25500000920E-02 0.  1.
    10030    2    1    2    0    0  0.00000000000E+00  0.00000000000E+00 -0.23106810779E+02  0.36208740658E+04  0.36208003363E+04 0.  0.
        2    1    3    3  502    0  0.35710190652E+03  0.17340124001E+04  0.36690904550E+03  0.18080218536E+04  0.25500000920E-02 0. -1.
       -2    1    3    3    0  502 -0.35710190652E+03 -0.17340124001E+04 -0.39001585628E+03  0.18128522122E+04  0.25500000920E-02 0.  1.
</event>
<event>
 5   0  0.7236375E-08  0.3600289E+04  0.7818609E-02  0.8090425E-01
        1   -1    0    0  501    0  0.00000000000E+00  0.00000000000E+00  0.11146512674E+04  0.11146512674E+04  0.50400001928E-02 0.  1.
       -1   -1    0    0    0  501  0.00000000000E+00  0.00000000000E+00 -0.29072054639E+04  0.29072054639E+04  0.50400001928E-02 0. -1.
    10030    2    1    2    0    0  0.00000000000E+00  0.00000000000E+00 -0.17925541965E+04  0.40218567314E+04  0.36002890190E+04 0.  0.
        5    1    3    3  502    0  0.17913860317E+04 -0.16925721327E+03 -0.95524273472E+03  0.20372095353E+04  0.46999998093E+01 0. -1.
       -5    1    3    3    0  502 -0.17913860317E+04  0.16925721327E+03 -0.83731146179E+03  0.19846471960E+04  0.46999998093E+01 0.  1.
</event>
<event>
 5   0  0.2309391E-07  0.3596241E+04  0.7818609E-02  0.8091353E-01
       -2   -1    0    0    0  501  0.00000000000E+00  0.00000000000E+00  0.20314193403E+04  0.20314193403E+04  0.25500000920E-02 0. -1.
        2   -1    0    0  501    0  0.00000000000E+00  0.00000000000E+00 -0.15916150264E+04  0.15916150264E+04  0.25500000920E-02 0.  1.
    10030    2    1    2    0    0  0.00000000000E+00  0.00000000000E+00  0.43980431392E+03  0.36230343666E+04  0.35962411192E+04 0.  0.
        4    1    3    3  502    0 -0.11558592921E+04  0.46268606879E+03  0.15269294401E+04  0.19701787303E+04  0.12699999809E+01 0. -1.
       -4    1    3    3    0  502  0.11558592921E+04 -0.46268606879E+03 -0.10871251262E+04  0.16528556363E+04  0.12699999809E+01 0.  1.
</event>
<event>
 5   0  0.7261233E-08  0.3548624E+04  0.7818609E-02  0.8102362E-01
       -1   -1    0    0    0  501  0.00000000000E+00  0.00000000000E+00  0.14963229886E+04  0.14963229886E+04  0.50400001928E-02 0. -1.
        1   -1    0    0  501    0  0.00000000000E+00  0.00000000000E+00 -0.21039466665E+04  0.21039466665E+04  0.50400001928E-02 0.  1.
    10030    2    1    2    0    0  0.00000000000E+00  0.00000000000E+00 -0.60762367795E+03  0.36002696551E+04  0.35486243892E+04 0.  0.
        3    1    3    3  502    0 -0.13183677672E+03  0.15945472384E+04 -0.10819300866E+04  0.19314591773E+04  0.10100000352E+00 0.  1.
       -3    1    3    3    0  502  0.13183677672E+03 -0.15945472384E+04  0.47430640863E+03  0.16688104778E+04  0.10100000352E+00 0. -1.
</event>
<event>
 5   0  0.7261233E-08  0.3571731E+04  0.7818609E-02  0.8096998E-01
        1   -1    0    0  501    0  0.00000000000E+00  0.00000000000E+00  0.25165655103E+04  0.25165655103E+04  0.50400001928E-02 0. -1.
       -1   -1    0    0    0  501  0.00000000000E+00  0.00000000000E+00 -0.12673284492E+04  0.12673284492E+04  0.50400001928E-02 0.  1.
    10030    2    1    2    0    0  0.00000000000E+00  0.00000000000E+00  0.12492370610E+04  0.37838939595E+04  0.35717307096E+04 0.  0.
        3    1    3    3  502    0  0.54664098888E+03 -0.17788830857E+03  0.24158688080E+04  0.24833209073E+04  0.10100000352E+00 0. -1.
       -3    1    3    3    0  502 -0.54664098888E+03  0.17788830857E+03 -0.11666317469E+04  0.13005730522E+04  0.10100000352E+00 0.  1.
</event>
<event>
 5   0  0.2238968E-07  0.3599528E+04  0.7818609E-02  0.8090600E-01
       -2   -1    0    0    0  501  0.00000000000E+00  0.00000000000E+00  0.23655235658E+04  0.23655235658E+04  0.25500000920E-02 0.  1.
        2   -1    0    0  501    0  0.00000000000E+00  0.00000000000E+00 -0.13693163609E+04  0.13693163609E+04  0.25500000920E-02 0. -1.
    10030    2    1    2    0    0  0.00000000000E+00  0.00000000000E+00  0.99620720487E+03  0.37348399267E+04  0.35995278139E+04 0.  0.
        3    1    3    3  502    0 -0.39243812467E+03  0.29457439957E+03 -0.12985690269E+04  0.13881870502E+04  0.10100000352E+00 0. -1.
       -3    1    3    3    0  502  0.39243812467E+03 -0.29457439957E+03  0.22947762318E+04  0.23466528765E+04  0.10100000352E+00 0.  1.
</event>
<event>
 5   0  0.7261233E-08  0.3577259E+04  0.7818609E-02  0.8095721E-01
       -1   -1    0    0    0  501  0.00000000000E+00  0.00000000000E+00  0.97279622361E+03  0.97279622363E+03  0.50400001928E-02 0. -1.
        1   -1    0    0  501    0  0.00000000000E+00  0.00000000000E+00 -0.32886600090E+04  0.32886600090E+04  0.50400001928E-02 0.  1.
    10030    2    1    2    0    0  0.00000000000E+00  0.00000000000E+00 -0.23158637854E+04  0.42614562326E+04  0.35772593071E+04 0.  0.
        3    1    3    3  502    0  0.16162026207E+04  0.68176995914E+03 -0.74137324024E+03  0.19043517217E+04  0.10100000352E+00 0.  1.
       -3    1    3    3    0  502 -0.16162026207E+04 -0.68176995914E+03 -0.15744905451E+04  0.23571045109E+04  0.10100000352E+00 0. -1.
</event>
<event>
 5   0  0.7514289E-08  0.3603713E+04  0.7818609E-02  0.8089642E-01
        1   -1    0    0  501    0  0.00000000000E+00  0.00000000000E+00  0.19000797269E+04  0.19000797269E+04  0.50400001928E-02 0. -1.
       -1   -1    0    0    0  501  0.00000000000E+00  0.00000000000E+00 -0.17087108871E+04  0.17087108871E+04  0.50400001928E-02 0.  1.
    10030    2    1    2    0    0  0.00000000000E+00  0.00000000000E+00  0.19136883981E+03  0.36087906141E+04  0.36037130384E+04 0.  0.
        4    1    3    3  502    0  0.40428050610E+03  0.14803963232E+04 -0.84992848624E+03  0.17542508503E+04  0.12699999809E+01 0.  1.
       -4    1    3    3    0  502 -0.40428050610E+03 -0.14803963232E+04  0.10412973261E+04  0.18545397638E+04  0.12699999809E+01 0. -1.
</event>
<event>
 5   0  0.7236375E-08  0.3670885E+04  0.7818609E-02  0.8074445E-01
        1   -1    0    0  501    0  0.00000000000E+00  0.00000000000E+00  0.15969120990E+04  0.15969120990E+04  0.50400001928E-02 0.  1.
       -1   -1    0    0    0  501  0.00000000000E+00  0.00000000000E+00 -0.21096026157E+04  0.21096026157E+04  0.50400001928E-02 0. -1.
    10030    2    1    2    0    0  0.00000000000E+00  0.00000000000E+00 -0.51269051671E+03  0.37065147147E+04  0.36708854197E+04 0.  0.
        5    1    3    3  502    0 -0.29690310984E+03 -0.11237475224E+04  0.11779589263E+04  0.16548623124E+04  0.46999998093E+01 0.  1.
       -5    1    3    3    0  502  0.29690310984E+03  0.11237475224E+04 -0.16906494430E+04  0.20516524023E+04  0.46999998093E+01 0. -1.
</event>
<event>
 5   0  0.7514289E-08  0.3598794E+04  0.7818609E-02  0.8090768E-01
       -1   -1    0    0    0  501  0.00000000000E+00  0.00000000000E+00  0.27414975686E+04  0.27414975687E+04  0.50400001928E-02 0.  1.
        1   -1    0    0  501    0  0.00000000000E+00  0.00000000000E+00 -0.11810438714E+04  0.11810438714E+04  0.50400001928E-02 0. -1.
    10030    2    1    2    0    0  0.00000000000E+00  0.00000000000E+00  0.15604536972E+04  0.39225414401E+04  0.35987936323E+04 0.  0.
        4    1    3    3  502    0  0.12535852484E+04  0.74568190436E+03  0.19287313081E+04  0.24181653272E+04  0.12699999809E+01 0.  1.
       -4    1    3    3    0  502 -0.12535852484E+04 -0.74568190436E+03 -0.36827761091E+03  0.15043761129E+04  0.12699999809E+01 0. -1.
</event>
<event>
 5   0  0.2199902E-07  0.3606400E+04  0.7818609E-02  0.8089027E-01
        2   -1    0    0  501    0  0.00000000000E+00  0.00000000000E+00  0.14112397174E+04  0.14112397174E+04  0.25500000920E-02 0. -1.
       -2   -1    0    0    0  501  0.00000000000E+00  0.00000000000E+00 -0.23040237551E+04  0.23040237551E+04  0.25500000920E-02 0.  1.
    10030    2    1    2    0    0  0.00000000000E+00  0.00000000000E+00 -0.89278403775E+03  0.37152634725E+04  0.36063997743E+04 0.  0.
        1    1    3    3  502    0  0.70855819600E+03 -0.37020474203E+03 -0.21114813833E+04  0.22577555006E+04  0.50400001928E-02 0.  1.
       -1    1    3    3    0  502 -0.70855819600E+03  0.37020474203E+03  0.12186973456E+04  0.14575079719E+04  0.50400001928E-02 0. -1.
</event>
<event>
 5   0  0.7236375E-08  0.3596052E+04  0.7818609E-02  0.8091397E-01
       -1   -1    0    0    0  501  0.00000000000E+00  0.00000000000E+00  0.16963834497E+04  0.16963834497E+04  0.50400001928E-02 0.  1.
        1   -1    0    0  501    0  0.00000000000E+00  0.00000000000E+00 -0.19057581642E+04  0.19057581642E+04  0.50400001928E-02 0. -1.
    10030    2    1    2    0    0  0.00000000000E+00  0.00000000000E+00 -0.20937471454E+03  0.36021416139E+04  0.35960515063E+04 0.  0.
        1    1    3    3  502    0  0.42655160950E+03  0.59427529504E+02 -0.18533295102E+04  0.19027107453E+04  0.50400001928E-02 0. -1.
       -1    1    3    3    0  502 -0.42655160950E+03 -0.59427529504E+02  0.16439547957E+04  0.16994308686E+04  0.50400001928E-02 0.  1.
</event>
<event>
 5   0  0.2238968E-07  0.3597515E+04  0.7818609E-02  0.8091061E-01
        2   -1    0    0  501    0  0.00000000000E+00  0.00000000000E+00  0.26874114244E+04  0.26874114244E+04  0.25500000920E-02 0.  1.
       -2   -1    0    0    0  501  0.00000000000E+00  0.00000000000E+00 -0.12039571755E+04  0.12039571755E+04  0.25500000920E-02 0. -1.
    10030    2    1    2    0    0  0.00000000000E+00  0.00000000000E+00  0.14834542490E+04  0.38913685999E+04  0.35975148466E+04 0.  0.
        3    1    3    3  502    0 -0.91873516474E+03  0.11875962423E+04 -0.32966778444E+03  0.15372507915E+04  0.10100000352E+00 0. -1.
       -3    1    3    3    0  502  0.91873516474E+03 -0.11875962423E+04  0.18131220334E+04  0.23541178084E+04  0.10100000352E+00 0.  1.
</event>
<event>
 5   0  0.2309391E-07  0.3601767E+04  0.7818609E-02  0.8090087E-01
        2   -1    0    0  501    0  0.00000000000E+00  0.00000000000E+00  0.16611177272E+04  0.16611177272E+04  0.25500000920E-02 0. -1.
       -2   -1    0    0    0  501  0.00000000000E+00  0.00000000000E+00 -0.19524095306E+04  0.19524095306E+04  0.25500000920E-02 0.  1.
    10030    2    1    2    0    0  0.00000000000E+00  0.00000000000E+00 -0.29129180335E+03  0.36135272578E+04  0.36017673895E+04 0.  0.
        4    1    3    3  502    0  0.35801332658E+03  0.77821116335E+03 -0.17349248403E+04  0.19348777664E+04  0.12699999809E+01 0.  1.
       -4    1    3    3    0  502 -0.35801332658E+03 -0.77821116335E+03  0.14436330369E+04  0.16786494914E+04  0.12699999809E+01 0. -1.
</event>
<event>
 5   0  0.7514289E-08  0.3573063E+04  0.7818609E-02  0.8096690E-01
       -1   -1    0    0    0  501  0.00000000000E+00  0.00000000000E+00  0.21174292649E+04  0.21174292649E+04  0.50400001928E-02 0. -1.
        1   -1    0    0  501    0  0.00000000000E+00  0.00000000000E+00 -0.15073444548E+04  0.15073444548E+04  0.50400001928E-02 0.  1.
    10030    2    1    2    0    0  0.00000000000E+00  0.00000000000E+00  0.61008481012E+03  0.36247737198E+04  0.35730632578E+04 0.  0.
        4    1    3    3  502    0 -0.54921459478E+03  0.11599018795E+04 -0.95579796214E+03  0.16001751150E+04  0.12699999809E+01 0.  1.
       -4    1    3    3    0  502  0.54921459478E+03 -0.11599018795E+04  0.15658827723E+04  0.20245986048E+04  0.12699999809E+01 0. -1.
</event>
<event>
 5   0  0.7236375E-08  0.3582278E+04  0.7818609E-02  0.8094563E-01
        1   -1    0    0  501    0  0.00000000000E+00  0.00000000000E+00  0.26317941865E+04  0.26317941865E+04  0.50400001928E-02 0. -1.
       -1   -1    0    0    0  501  0.00000000000E+00  0.00000000000E+00 -0.12190080293E+04  0.12190080293E+04  0.50400001928E-02 0.  1.
    10030    2    1    2    0    0  0.00000000000E+00  0.00000000000E+00  0.14127861573E+04  0.38508022158E+04  0.35822776245E+04 0.  0.
        1    1    3    3  502    0  0.72325121806E+03 -0.14760663463E+04  0.14712883342E+04  0.22060266421E+04  0.50400001928E-02 0.  1.
       -1    1    3    3    0  502 -0.72325121806E+03  0.14760663463E+04 -0.58502176921E+02  0.16447755737E+04  0.50400001928E-02 0. -1.
</event>
<event>
 5   0  0.2198900E-07  0.3608540E+04  0.7818609E-02  0.8088538E-01
        2   -1    0    0  501    0  0.00000000000E+00  0.00000000000E+00  0.24329850692E+04  0.24329850692E+04  0.25500000920E-02 0. -1.
       -2   -1    0    0    0  501  0.00000000000E+00  0.00000000000E+00 -0.13380228853E+04  0.13380228853E+04  0.25500000920E-02 0.  1.
    10030    2    1    2    0    0  0.00000000000E+00  0.00000000000E+00  0.10949621839E+04  0.37710079546E+04  0.36085397059E+04 0.  0.
        2    1    3    3  502    0 -0.11370138146E+04  0.14009140953E+04  0.55310729345E+03  0.18871376195E+04  0.25500000920E-02 0. -1.
       -2    1    3    3    0  502  0.11370138146E+04 -0.14009140953E+04  0.54185489043E+03  0.18838703350E+04  0.25500000920E-02 0.  1.
</event>
<event>
 5   0  0.2238968E-07  0.3581220E+04  0.7818609E-02  0.8094807E-01
        2   -1    0    0  501    0  0.00000000000E+00  0.00000000000E+00  0.10959732418E+04  0.10959732418E+04  0.25500000920E-02 0. -1.
       -2   -1    0    0    0  501  0.00000000000E+00  0.00000000000E+00 -0.29255128282E+04  0.29255128282E+04  0.25500000920E-02 0.  1.
    10030    2    1    2    0    0  0.00000000000E+00  0.00000000000E+00 -0.18295395864E+04  0.40214860700E+04  0.35812197800E+04 0.  0.
        3    1    3    3  502    0 -0.33361138997E+03 -0.13459789211E+03 -0.28845157209E+04  0.29068615561E+04  0.10100000352E+00 0.  1.
       -3    1    3    3    0  502  0.33361138997E+03  0.13459789211E+03  0.10549761346E+04  0.11146245138E+04  0.10100000352E+00 0. -1.
</event>
<event>
 5   0  0.7514289E-08  0.3620020E+04  0.7818609E-02  0.8085921E-01
       -1   -1    0    0    0  501  0.00000000000E+00  0.00000000000E+00  0.22027487388E+04  0.22027487388E+04  0.50400001928E-02 0. -1.
        1   -1    0    0  501    0  0.00000000000E+00  0.00000000000E+00 -0.14872949557E+04  0.14872949557E+04  0.50400001928E-02 0.  1.
    10030    2    1    2    0    0  0.00000000000E+00  0.00000000000E+00  0.71545378314E+03  0.36900436945E+04  0.36200204905E+04 0.  0.
        4    1    3    3  502    0  0.15195660567E+04  0.49189012055E+03 -0.51027167586E+03  0.16767276724E+04  0.12699999809E+01 0.  1.
       -4    1    3    3    0  502 -0.15195660567E+04 -0.49189012055E+03  0.12257254590E+04  0.20133160221E+04  0.12699999809E+01 0. -1.
</event>
<event>
 5   0  0.7347303E-08  0.3590358E+04  0.7818609E-02  0.8092704E-01
       -1   -1    0    0    0  501  0.00000000000E+00  0.00000000000E+00  0.24065448805E+04  0.24065448805E+04  0.50400001928E-02 0.  1.
        1   -1    0    0  501    0  0.00000000000E+00  0.00000000000E+00 -0.13391261300E+04  0.13391261301E+04  0.50400001928E-02 0. -1.
    10030    2    1    2    0    0  0.00000000000E+00  0.00000000000E+00  0.10674187504E+04  0.37456710105E+04  0.35903577162E+04 0.  0.
        2    1    3    3  502    0  0.58042164366E+02  0.60669002187E+03 -0.12278921969E+04  0.13708249059E+04  0.25500000920E-02 0. -1.
       -2    1    3    3    0  502 -0.58042164366E+02 -0.60669002187E+03  0.22953109474E+04  0.23748461046E+04  0.25500000920E-02 0.  1.
</event>
<event>
 5   0  0.7236375E-08  0.3587717E+04  0.7818609E-02  0.8093311E-01
        1   -1    0    0  501    0  0.00000000000E+00  0.00000000000E+00  0.18974255913E+04  0.18974255913E+04  0.50400001928E-02 0.  1.
       -1   -1    0    0    0  501  0.00000000000E+00  0.00000000000E+00 -0.16959444059E+04  0.16959444059E+04  0.50400001928E-02 0. -1.
    10030    2    1    2    0    0  0.00000000000E+00  0.00000000000E+00  0.20148118541E+03  0.35933699972E+04  0.35877169995E+04 0.  0.
        1    1    3    3  502    0  0.44409346165E+03 -0.10319741680E+04 -0.12999401768E+04  0.17181484655E+04  0.50400001928E-02 0. -1.
       -1    1    3    3    0  502 -0.44409346165E+03  0.10319741680E+04  0.15014213622E+04  0.18752215317E+04  0.50400001928E-02 0.  1.
</event>
<event>
 5   0  0.2198900E-07  0.3556933E+04  0.7818609E-02  0.8100429E-01
        2   -1    0    0  501    0  0.00000000000E+00  0.00000000000E+00  0.20320180641E+04  0.20320180641E+04  0.25500000920E-02 0.  1.
       -2   -1    0    0    0  501  0.00000000000E+00  0.00000000000E+00 -0.15565525029E+04  0.15565525029E+04  0.25500000920E-02 0. -1.
    10030    2    1    2    0    0  0.00000000000E+00  0.00000000000E+00  0.47546556120E+03  0.35885705670E+04  0.35569328380E+04 0.  0.
        2    1    3    3  502    0  0.14454991051E+04 -0.10076002604E+04 -0.56950337332E+01  0.17620324574E+04  0.25500000920E-02 0.  1.
       -2    1    3    3    0  502 -0.14454991051E+04  0.10076002604E+04  0.48116059493E+03  0.18265381096E+04  0.25500000920E-02 0. -1.
</event>
<event>
 5   0  0.7236375E-08  0.3610407E+04  0.7818609E-02  0.8088112E-01
        1   -1    0    0  501    0  0.00000000000E+00  0.00000000000E+00  0.20401228214E+04  0.20401228214E+04  0.50400001928E-02 0.  1.
       -1   -1    0    0    0  501  0.00000000000E+00  0.00000000000E+00 -0.15973346930E+04  0.15973346930E+04  0.50400001928E-02 0. -1.
    10030    2    1    2    0    0  0.00000000000E+00  0.00000000000E+00  0.44278812841E+03  0.36374575144E+04  0.36104066035E+04 0.  0.
        5    1    3    3  502    0  0.10458757957E+04 -0.77074457685E+03 -0.10413254444E+04  0.16650177638E+04  0.46999998093E+01 0. -1.
       -5    1    3    3    0  502 -0.10458757957E+04  0.77074457685E+03  0.14841135728E+04  0.19724397506E+04  0.46999998093E+01 0.  1.
</event>
<event>
 5   0  0.7261233E-08  0.3608116E+04  0.7818609E-02  0.8088635E-01
        1   -1    0    0  501    0  0.00000000000E+00  0.00000000000E+00  0.25481165411E+04  0.25481165411E+04  0.50400001928E-02 0. -1.
       -1   -1    0    0    0  501  0.00000000000E+00  0.00000000000E+00 -0.12772669497E+04  0.12772669497E+04  0.50400001928E-02 0.  1.
    10030    2    1    2    0    0  0.00000000000E+00  0.00000000000E+00  0.12708495913E+04  0.38253834908E+04  0.36081158751E+04 0.  0.
        3    1    3    3  502    0  0.13386157333E+04  0.43917187807E+03 -0.55931298510E+03  0.15157819914E+04  0.10100000352E+00 0.  1.
       -3    1    3    3    0  502 -0.13386157333E+04 -0.43917187807E+03  0.18301625764E+04  0.23096014995E+04  0.10100000352E+00 0. -1.
</event>
<event>
 5   0  0.2238968E-07  0.3593848E+04  0.7818609E-02  0.8091902E-01
        2   -1    0    0  501    0  0.00000000000E+00  0.00000000000E+00  0.20310337882E+04  0.20310337882E+04  0.25500000920E-02 0.  1.
       -2   -1    0    0    0  501  0.00000000000E+00  0.00000000000E+00 -0.15897995938E+04  0.15897995938E+04  0.25500000920E-02 0. -1.
    10030    2    1    2    0    0  0.00000000000E+00  0.00000000000E+00  0.44123419439E+03  0.36208333820E+04  0.35938484617E+04 0.  0.
        3    1    3    3  502    0 -0.16436162068E+04 -0.66896376933E+03  0.50549436787E+03  0.18451317910E+04  0.10100000352E+00 0. -1.
       -3    1    3    3    0  502  0.16436162068E+04  0.66896376933E+03 -0.64260173476E+02  0.17757015910E+04  0.10100000352E+00 0.  1.
</event>
<event>
 5   0  0.2238968E-07  0.3577025E+04  0.7818609E-02  0.8095775E-01
       -2   -1    0    0    0  501  0.00000000000E+00  0.00000000000E+00  0.13354931596E+04  0.13354931596E+04  0.25500000920E-02 0. -1.
        2   -1    0    0  501    0  0.00000000000E+00  0.00000000000E+00 -0.23952021817E+04  0.23952021817E+04  0.25500000920E-02 0.  1.
    10030    2    1    2    0    0  0.00000000000E+00  0.00000000000E+00 -0.10597090221E+04  0.37306953412E+04  0.35770245341E+04 0.  0.
        3    1    3    3  502    0  0.99014845703E+02 -0.17596038972E+04 -0.84751484903E+03  0.19555795162E+04  0.10100000352E+00 0.  1.
       -3    1    3    3    0  502 -0.99014845703E+02  0.17596038972E+04 -0.21219417310E+03  0.17751158250E+04  0.10100000352E+00 0. -1.
</event>
<event>
 5   0  0.7236375E-08  0.3588570E+04  0.7818609E-02  0.8093115E-01
       -1   -1    0    0    0  501  0.00000000000E+00  0.00000000000E+00  0.14552786465E+04  0.14552786465E+04  0.50400001928E-02 0. -1.
        1   -1    0    0  501    0  0.00000000000E+00  0.00000000000E+00 -0.22122621498E+04  0.22122621498E+04  0.50400001928E-02 0.  1.
    10030    2    1    2    0    0  0.00000000000E+00  0.00000000000E+00 -0.75698350333E+03  0.36675407963E+04  0.35885695574E+04 0.  0.
        1    1    3    3  502    0  0.14910259901E+04 -0.57375553113E+03 -0.12132300552E+04  0.20060610857E+04  0.50400001928E-02 0.  1.
       -1    1    3    3    0  502 -0.14910259901E+04  0.57375553113E+03  0.45624655183E+03  0.16614797106E+04  0.50400001928E-02 0. -1.
</event>
<event>
 5   0  0.2199902E-07  0.3608232E+04  0.7818609E-02  0.8088609E-01
        2   -1    0    0  501    0  0.00000000000E+00  0.00000000000E+00  0.35808096265E+04  0.35808096265E+04  0.25500000920E-02 0.  1.
       -2   -1    0    0    0  501  0.00000000000E+00  0.00000000000E+00 -0.90896596310E+03  0.90896596310E+03  0.25500000920E-02 0. -1.
    10030    2    1    2    0    0  0.00000000000E+00  0.00000000000E+00  0.26718436634E+04  0.44897755896E+04  0.36082317391E+04 0.  0.
        1    1    3    3  502    0  0.14086667650E+04  0.10222257897E+04  0.19268683943E+04  0.25965572262E+04  0.50400001928E-02 0.  1.
       -1    1    3    3    0  502 -0.14086667650E+04 -0.10222257897E+04  0.74497526910E+03  0.18932183634E+04  0.50400001928E-02 0. -1.
</event>
<event>
 5   0  0.7347303E-08  0.3372755E+04  0.7818609E-02  0.8144626E-01
        1   -1    0    0  501    0  0.00000000000E+00  0.00000000000E+00  0.21368051832E+04  0.21368051832E+04  0.50400001928E-02 0.  1.
       -1   -1    0    0    0  501  0.00000000000E+00  0.00000000000E+00 -0.13308979738E+04  0.13308979738E+04  0.50400001928E-02 0. -1.
    10030    2    1    2    0    0  0.00000000000E+00  0.00000000000E+00  0.80590720945E+03  0.34677031570E+04  0.33727553654E+04 0.  0.
        2    1    3    3  502    0  0.12421951530E+04 -0.26422655902E+03 -0.73778731002E+03  0.14687391148E+04  0.25500000920E-02 0. -1.
       -2    1    3    3    0  502 -0.12421951530E+04  0.26422655902E+03  0.15436945195E+04  0.19989640422E+04  0.25500000920E-02 0.  1.
</event>
<event>
 5   0  0.7236375E-08  0.3614559E+04  0.7818609E-02  0.8087165E-01
        1   -1    0    0  501    0  0.00000000000E+00  0.00000000000E+00  0.17843295020E+04  0.17843295020E+04  0.50400001928E-02 0. -1.
       -1   -1    0    0    0  501  0.00000000000E+00  0.00000000000E+00 -0.18305246845E+04  0.18305246845E+04  0.50400001928E-02 0.  1.
    10030    2    1    2    0    0  0.00000000000E+00  0.00000000000E+00 -0.46195182559E+02  0.36148541865E+04  0.36145590042E+04 0.  0.
        1    1    3    3  502    0 -0.87391994649E+03 -0.15648614954E+04 -0.25491735359E+03  0.18103895796E+04  0.50400001928E-02 0. -1.
       -1    1    3    3    0  502  0.87391994649E+03  0.15648614954E+04  0.20872217103E+03  0.18044646069E+04  0.50400001928E-02 0.  1.
</event>
<event>
 5   0  0.2342606E-07  0.3605026E+04  0.7818609E-02  0.8089341E-01
        2   -1    0    0  501    0  0.00000000000E+00  0.00000000000E+00  0.20952921527E+04  0.20952921527E+04  0.25500000920E-02 0. -1.
       -2   -1    0    0    0  501  0.00000000000E+00  0.00000000000E+00 -0.15506444614E+04  0.15506444614E+04  0.25500000920E-02 0.  1.
    10030    2    1    2    0    0  0.00000000000E+00  0.00000000000E+00  0.54464769123E+03  0.36459366141E+04  0.36050260313E+04 0.  0.
        5    1    3    3  502    0  0.24476093579E+03 -0.97364480977E+03 -0.12417083163E+04  0.15967948409E+04  0.46999998093E+01 0.  1.
       -5    1    3    3    0  502 -0.24476093579E+03  0.97364480977E+03  0.17863560075E+04  0.20491417732E+04  0.46999998093E+01 0. -1.
</event>
<event>
 5   0  0.2199902E-07  0.3604593E+04  0.7818609E-02  0.8089440E-01
        2   -1    0    0  501    0  0.00000000000E+00  0.00000000000E+00  0.24941145731E+04  0.24941145731E+04  0.25500000920E-02 0.  1.
       -2   -1    0    0    0  501  0.00000000000E+00  0.00000000000E+00 -0.13023753040E+04  0.13023753040E+04  0.25500000920E-02 0. -1.
    10030    2    1    2    0    0  0.00000000000E+00  0.00000000000E+00  0.11917392691E+04  0.37964898771E+04  0.36045933060E+04 0.  0.
        1    1    3    3  502    0  0.11000181217E+03  0.15297442369E+04 -0.40112633857E+03  0.15852823624E+04  0.50400001928E-02 0. -1.
       -1    1    3    3    0  502 -0.11000181217E+03 -0.15297442369E+04  0.15928656076E+04  0.22112075147E+04  0.50400001928E-02 0.  1.
</event>
<event>
 5   0  0.7514289E-08  0.3600713E+04  0.7818609E-02  0.8090328E-01
       -1   -1    0    0    0  501  0.00000000000E+00  0.00000000000E+00  0.20682177499E+04  0.20682177499E+04  0.50400001928E-02 0. -1.
        1   -1    0    0  501    0  0.00000000000E+00  0.00000000000E+00 -0.15671866918E+04  0.15671866918E+04  0.50400001928E-02 0.  1.
    10030    2    1    2    0    0  0.00000000000E+00  0.00000000000E+00  0.50103105810E+03  0.36354044417E+04  0.36007128924E+04 0.  0.
        4    1    3    3  502    0 -0.35230317709E+03 -0.16808975873E+04 -0.29482503896E+03  0.17425434411E+04  0.12699999809E+01 0.  1.
       -4    1    3    3    0  502  0.35230317709E+03  0.16808975873E+04  0.79585609705E+03  0.18928610006E+04  0.12699999809E+01 0. -1.
</event>
<event>
 5   0  0.7347303E-08  0.3607916E+04  0.7818609E-02  0.8088681E-01
       -1   -1    0    0    0  501  0.00000000000E+00  0.00000000000E+00  0.12196994259E+04  0.12196994259E+04  0.50400001928E-02 0. -1.
        1   -1    0    0  501    0  0.00000000000E+00  0.00000000000E+00 -0.26680877843E+04  0.26680877843E+04  0.50400001928E-02 0.  1.
    10030    2    1    2    0    0  0.00000000000E+00  0.00000000000E+00 -0.14483883584E+04  0.38877872103E+04  0.36079163731E+04 0.  0.
        2    1    3    3  502    0  0.32047054164E+03  0.10442774175E+04 -0.22711935043E+04  0.25202255111E+04  0.25500000920E-02 0.  1.
       -2    1    3    3    0  502 -0.32047054164E+03 -0.10442774175E+04  0.82280514590E+03  0.13675616992E+04  0.25500000920E-02 0. -1.
</event>
<event>
 5   0  0.2198900E-07  0.3596221E+04  0.7818609E-02  0.8091358E-01
        2   -1    0    0  501    0  0.00000000000E+00  0.00000000000E+00  0.14047179974E+04  0.14047179974E+04  0.25500000920E-02 0. -1.
       -2   -1    0    0    0  501  0.00000000000E+00  0.00000000000E+00 -0.23016733846E+04  0.23016733846E+04  0.25500000920E-02 0.  1.
    10030    2    1    2    0    0  0.00000000000E+00  0.00000000000E+00 -0.89695538723E+03  0.37063913820E+04  0.35962213655E+04 0.  0.
        2    1    3    3  502    0  0.53072859575E+03  0.11712857703E+03 -0.22149902100E+04  0.22806958535E+04  0.25500000920E-02 0.  1.
       -2    1    3    3    0  502 -0.53072859575E+03 -0.11712857703E+03  0.13180348227E+04  0.14256955285E+04  0.25500000920E-02 0. -1.
</event>
<event>
 5   0  0.7261233E-08  0.3569543E+04  0.7818609E-02  0.8097504E-01
       -1   -1    0    0    0  501  0.00000000000E+00  0.00000000000E+00  0.20147660131E+04  0.20147660131E+04  0.50400001928E-02 0.  1.
        1   -1    0    0  501    0  0.00000000000E+00  0.00000000000E+00 -0.15810316865E+04  0.15810316865E+04  0.50400001928E-02 0. -1.
    10030    2    1    2    0    0  0.00000000000E+00  0.00000000000E+00  0.43373432661E+03  0.35957976996E+04  0.35695427761E+04 0.  0.
        3    1    3    3  502    0  0.15630796458E+04  0.31405112521E+03  0.10249913940E+04  0.18953768640E+04  0.10100000352E+00 0.  1.
       -3    1    3    3    0  502 -0.15630796458E+04 -0.31405112521E+03 -0.59125706738E+03  0.17004208357E+04  0.10100000352E+00 0. -1.
</event>
<event>
 5   0  0.2342606E-07  0.3592282E+04  0.7818609E-02  0.8092262E-01
        2   -1    0    0  501    0  0.00000000000E+00  0.00000000000E+00  0.12532133897E+04  0.12532133897E+04  0.25500000920E-02 0.  1.
       -2   -1    0    0    0  501  0.00000000000E+00  0.00000000000E+00 -0.25742800186E+04  0.25742800186E+04  0.25500000920E-02 0. -1.
    10030    2    1    2    0    0  0.00000000000E+00  0.00000000000E+00 -0.13210666289E+04  0.38274934083E+04  0.35922818309E+04 0.  0.
        5    1    3    3  502    0 -0.71362175059E+03 -0.19049338257E+03  0.10839086345E+04  0.13116492479E+04  0.46999998093E+01 0.  1.
       -5    1    3    3    0  502  0.71362175059E+03  0.19049338257E+03 -0.24049752634E+04  0.25158441603E+04  0.46999998093E+01 0. -1.
</event>
<event>
 5   0  0.7261233E-08  0.3605935E+04  0.7818609E-02  0.8089134E-01
        1   -1    0    0  501    0  0.00000000000E+00  0.00000000000E+00  0.27812722544E+04  0.27812722544E+04  0.50400001928E-02 0. -1.
       -1   -1    0    0    0  501  0.00000000000E+00  0.00000000000E+00 -0.11687786621E+04  0.11687786621E+04  0.50400001928E-02 0.  1.
    10030    2    1    2    0    0  0.00000000000E+00  0.00000000000E+00  0.16124935923E+04  0.39500509165E+04  0.36059349214E+04 0.  0.
        3    1    3    3  502    0 -0.73387178739E+03  0.15106117644E+04  0.15247155297E+04  0.22683194571E+04  0.10100000352E+00 0. -1.
       -3    1    3    3    0  502  0.73387178739E+03 -0.15106117644E+04  0.87778062649E+02  0.16817314594E+04  0.10100000352E+00 0.  1.
</event>
<event>
 5   0  0.2198900E-07  0.3596449E+04  0.7818609E-02  0.8091306E-01
        2   -1    0    0  501    0  0.00000000000E+00  0.00000000000E+00  0.16966790654E+04  0.16966790654E+04  0.25500000920E-02 0.  1.
       -2   -1    0    0    0  501  0.00000000000E+00  0.00000000000E+00 -0.19058476093E+04  0.19058476093E+04  0.25500000920E-02 0. -1.
    10030    2    1    2    0    0  0.00000000000E+00  0.00000000000E+00 -0.20916854390E+03  0.36025266748E+04  0.35964492159E+04 0.  0.
        2    1    3    3  502    0  0.15074588818E+04  0.88610916503E+03 -0.52480481389E+03  0.18256620239E+04  0.25500000920E-02 0.  1.
       -2    1    3    3    0  502 -0.15074588818E+04 -0.88610916503E+03  0.31563626999E+03  0.17768646509E+04  0.25500000920E-02 0. -1.
</event>
<event>
 5   0  0.2198900E-07  0.3599949E+04  0.7818609E-02  0.8090503E-01
       -2   -1    0    0    0  501  0.00000000000E+00  0.00000000000E+00  0.10989289070E+04  0.10989289070E+04  0.25500000920E-02 0.  1.
        2   -1    0    0  501    0  0.00000000000E+00  0.00000000000E+00 -0.29482418745E+04  0.29482418745E+04  0.25500000920E-02 0. -1.
    10030    2    1    2    0    0  0.00000000000E+00  0.00000000000E+00 -0.18493129675E+04  0.40471707816E+04  0.35999490112E+04 0.  0.
        2    1    3    3  502    0  0.12122435532E+04 -0.12069763884E+04 -0.15542070175E+04  0.23112520173E+04  0.25500000920E-02 0. -1.
       -2    1    3    3    0  502 -0.12122435532E+04  0.12069763884E+04 -0.29510594997E+03  0.17359187642E+04  0.25500000920E-02 0.  1.
</event>
<event>
 5   0  0.7236375E-08  0.3595168E+04  0.7818609E-02  0.8091599E-01
       -1   -1    0    0    0  501  0.00000000000E+00  0.00000000000E+00  0.17703067911E+04  0.17703067911E+04  0.50400001928E-02 0. -1.
        1   -1    0    0  501    0  0.00000000000E+00  0.00000000000E+00 -0.18252813391E+04  0.18252813391E+04  0.50400001928E-02 0.  1.
    10030    2    1    2    0    0  0.00000000000E+00  0.00000000000E+00 -0.54974548026E+02  0.35955881302E+04  0.35951678405E+04 0.  0.
        1    1    3    3  502    0  0.10604334038E+04  0.10941747223E+04 -0.98131288744E+03  0.18123775296E+04  0.50400001928E-02 0.  1.
       -1    1    3    3    0  502 -0.10604334038E+04 -0.10941747223E+04  0.92633833942E+03  0.17832106006E+04  0.50400001928E-02 0. -1.
</event>
<event>
 5   0  0.2238968E-07  0.3585990E+04  0.7818609E-02  0.8093708E-01
        2   -1    0    0  501    0  0.00000000000E+00  0.00000000000E+00  0.19899184555E+04  0.19899184555E+04  0.25500000920E-02 0. -1.
       -2   -1    0    0    0  501  0.00000000000E+00  0.00000000000E+00 -0.16155592414E+04  0.16155592414E+04  0.25500000920E-02 0.  1.
    10030    2    1    2    0    0  0.00000000000E+00  0.00000000000E+00  0.37435921414E+03  0.36054776970E+04  0.35859900449E+04 0.  0.
        3    1    3    3  502    0  0.12035972594E+04  0.12795176004E+04 -0.17396521327E+03  0.17652409349E+04  0.10100000352E+00 0. -1.
       -3    1    3    3    0  502 -0.12035972594E+04 -0.12795176004E+04  0.54832442741E+03  0.18402367621E+04  0.10100000352E+00 0.  1.
</event>
<event>
 5   0  0.2198900E-07  0.3614089E+04  0.7818609E-02  0.8087272E-01
        2   -1    0    0  501    0  0.00000000000E+00  0.00000000000E+00  0.24966308984E+04  0.24966308984E+04  0.25500000920E-02 0. -1.
       -2   -1    0    0    0  501  0.00000000000E+00  0.00000000000E+00 -0.13079264213E+04  0.13079264213E+04  0.25500000920E-02 0.  1.
    10030    2    1    2    0    0  0.00000000000E+00  0.00000000000E+00  0.11887044771E+04  0.38045573197E+04  0.36140888292E+04 0.  0.
        2    1    3    3  502    0  0.13584660381E+04  0.24588077153E+03  0.18217871129E+04  0.22857811827E+04  0.25500000920E-02 0. -1.
       -2    1    3    3    0  502 -0.13584660381E+04 -0.24588077153E+03 -0.63308263583E+03  0.15187761370E+04  0.25500000920E-02 0.  1.
</event>
<event>
 5   0  0.7261233E-08  0.3610455E+04  0.7818609E-02  0.8088101E-01
       -1   -1    0    0    0  501  0.00000000000E+00  0.00000000000E+00  0.14408612701E+04  0.14408612701E+04  0.50400001928E-02 0. -1.
        1   -1    0    0  501    0  0.00000000000E+00  0.00000000000E+00 -0.22617344316E+04  0.22617344316E+04  0.50400001928E-02 0.  1.
    10030    2    1    2    0    0  0.00000000000E+00  0.00000000000E+00 -0.82087316151E+03  0.37025957017E+04  0.36104545673E+04 0.  0.
        3    1    3    3  502    0 -0.89151335798E+02  0.10535061811E+04  0.10901290801E+04  0.15186193255E+04  0.10100000352E+00 0. -1.
       -3    1    3    3    0  502  0.89151335798E+02 -0.10535061811E+04 -0.19110022416E+04  0.21839763762E+04  0.10100000352E+00 0.  1.
</event>
<event>
 5   0  0.7261233E-08  0.3598677E+04  0.7818609E-02  0.8090795E-01
       -1   -1    0    0    0  501  0.00000000000E+00  0.00000000000E+00  0.96901471376E+03  0.96901471378E+03  0.50400001928E-02 0.  1.
        1   -1    0    0  501    0  0.00000000000E+00  0.00000000000E+00 -0.33411453202E+04  0.33411453202E+04  0.50400001928E-02 0. -1.
    10030    2    1    2    0    0  0.00000000000E+00  0.00000000000E+00 -0.23721306064E+04  0.43101600340E+04  0.35986769659E+04 0.  0.
        3    1    3    3  502    0  0.52932290797E+03 -0.34341903888E+03 -0.32042989238E+04  0.32658308255E+04  0.10100000352E+00 0. -1.
       -3    1    3    3    0  502 -0.52932290797E+03  0.34341903888E+03  0.83216831737E+03  0.10443292085E+04  0.10100000352E+00 0.  1.
</event>
<event>
 5   0  0.7514289E-08  0.3562536E+04  0.7818609E-02  0.8099128E-01
       -1   -1    0    0    0  501  0.00000000000E+00  0.00000000000E+00  0.20520846702E+04  0.20520846702E+04  0.50400001928E-02 0. -1.
        1   -1    0    0  501    0  0.00000000000E+00  0.00000000000E+00 -0.15461915537E+04  0.15461915537E+04  0.50400001928E-02 0.  1.
    10030    2    1    2    0    0  0.00000000000E+00  0.00000000000E+00  0.50589311650E+03  0.35982762239E+04  0.35625361666E+04 0.  0.
        4    1    3    3  502    0 -0.48952958009E+02  0.63580716382E+03 -0.14269490055E+04  0.15629562434E+04  0.12699999809E+01 0.  1.
       -4    1    3    3    0  502  0.48952958009E+02 -0.63580716382E+03  0.19328421220E+04  0.20353199805E+04  0.12699999809E+01 0. -1.
</event>
<event>
 5   0  0.2238968E-07  0.3595371E+04  0.7818609E-02  0.8091553E-01
        2   -1    0    0  501    0  0.00000000000E+00  0.00000000000E+00  0.23873171565E+04  0.23873171565E+04  0.25500000920E-02 0.  1.
       -2   -1    0    0    0  501  0.00000000000E+00  0.00000000000E+00 -0.13536843625E+04  0.13536843625E+04  0.25500000920E-02 0. -1.
    10030    2    1    2    0    0  0.00000000000E+00  0.00000000000E+00  0.10336327940E+04  0.37410015190E+04  0.35953714150E+04 0.  0.
        3    1    3    3  502    0  0.85257215367E+03 -0.40569781839E+02 -0.11294019929E+04  0.14156532259E+04  0.10100000352E+00 0. -1.
       -3    1    3    3    0  502 -0.85257215367E+03  0.40569781839E+02  0.21630347869E+04  0.23253482930E+04  0.10100000352E+00 0.  1.
</event>
<event>
 5   0  0.2198900E-07  0.3616378E+04  0.7818609E-02  0.8086750E-01
       -2   -1    0    0    0  501  0.00000000000E+00  0.00000000000E+00  0.11977173206E+04  0.11977173206E+04  0.25500000920E-02 0. -1.
        2   -1    0    0  501    0  0.00000000000E+00  0.00000000000E+00 -0.27298155444E+04  0.27298155444E+04  0.25500000920E-02 0.  1.
    10030    2    1    2    0    0  0.00000000000E+00  0.00000000000E+00 -0.15320982238E+04  0.39275328650E+04  0.36163779446E+04 0.  0.
        2    1    3    3  502    0 -0.10883042174E+04  0.97413972951E+03 -0.19236852755E+04  0.24153507658E+04  0.25500000920E-02 0.  1.
       -2    1    3    3    0  502  0.10883042174E+04 -0.97413972951E+03  0.39158705175E+03  0.15121820993E+04  0.25500000920E-02 0. -1.
</event>
<event>
 5   0  0.2309391E-07  0.3582961E+04  0.7818609E-02  0.8094406E-01
       -2   -1    0    0    0  501  0.00000000000E+00  0.00000000000E+00  0.10429612890E+04  0.10429612890E+04  0.25500000920E-02 0.  1.
        2   -1    0    0  501    0  0.00000000000E+00  0.00000000000E+00 -0.30772021322E+04  0.30772021322E+04  0.25500000920E-02 0. -1.
    10030    2    1    2    0    0  0.00000000000E+00  0.00000000000E+00 -0.20342408433E+04  0.41201634212E+04  0.35829611788E+04 0.  0.
        4    1    3    3  502    0 -0.13648951608E+04  0.64514296431E+03  0.91985037535E+02  0.15124850757E+04  0.12699999809E+01 0.  1.
       -4    1    3    3    0  502  0.13648951608E+04 -0.64514296431E+03 -0.21262258808E+04  0.26076783455E+04  0.12699999809E+01 0. -1.
</event>
<event>
 5   0  0.7347303E-08  0.3600148E+04  0.7818609E-02  0.8090458E-01
        1   -1    0    0  501    0  0.00000000000E+00  0.00000000000E+00  0.13318906451E+04  0.13318906451E+04  0.50400001928E-02 0.  1.
       -1   -1    0    0    0  501  0.00000000000E+00  0.00000000000E+00 -0.24328320664E+04  0.24328320664E+04  0.50400001928E-02 0. -1.
    10030    2    1    2    0    0  0.00000000000E+00  0.00000000000E+00 -0.11009414213E+04  0.37647227115E+04  0.36001479249E+04 0.  0.
        2    1    3    3  502    0 -0.11079361822E+04  0.13254899247E+04 -0.10793785690E+04  0.20370331906E+04  0.25500000920E-02 0. -1.
       -2    1    3    3    0  502  0.11079361822E+04 -0.13254899247E+04 -0.21562852234E+02  0.17276895209E+04  0.25500000920E-02 0.  1.
</event>
<event>
 5   0  0.2199902E-07  0.3599164E+04  0.7818609E-02  0.8090683E-01
        2   -1    0    0  501    0  0.00000000000E+00  0.00000000000E+00  0.17253305663E+04  0.17253305663E+04  0.25500000920E-02 0. -1.
       -2   -1    0    0    0  501  0.00000000000E+00  0.00000000000E+00 -0.18770293208E+04  0.18770293208E+04  0.25500000920E-02 0.  1.
    10030    2    1    2    0    0  0.00000000000E+00  0.00000000000E+00 -0.15169875449E+03  0.36023598871E+04  0.35991643814E+04 0.  0.
        1    1    3    3  502    0 -0.15439651330E+04  0.86486029437E+02  0.84539592629E+03  0.17623854396E+04  0.50400001928E-02 0. -1.
       -1    1    3    3    0  502  0.15439651330E+04 -0.86486029437E+02 -0.99709468078E+03  0.18399744476E+04  0.50400001928E-02 0.  1.
</event>
<event>
 5   0  0.2198900E-07  0.3594645E+04  0.7818609E-02  0.8091719E-01
        2   -1    0    0  501    0  0.00000000000E+00  0.00000000000E+00  0.11063261847E+04  0.11063261847E+04  0.25500000920E-02 0.  1.
       -2   -1    0    0    0  501  0.00000000000E+00  0.00000000000E+00 -0.29199065200E+04  0.29199065200E+04  0.25500000920E-02 0. -1.
    10030    2    1    2    0    0  0.00000000000E+00  0.00000000000E+00 -0.18135803353E+04  0.40262327047E+04  0.35946454846E+04 0.  0.
        2    1    3    3  502    0 -0.88611518685E+03 -0.11536263856E+04  0.27556188726E+03  0.14805364959E+04  0.25500000920E-02 0.  1.
       -2    1    3    3    0  502  0.88611518685E+03  0.11536263856E+04 -0.20891422225E+04  0.25456962089E+04  0.25500000920E-02 0. -1.
</event>
<event>
 5   0  0.7236375E-08  0.3609104E+04  0.7818609E-02  0.8088410E-01
        1   -1    0    0  501    0  0.00000000000E+00  0.00000000000E+00  0.28040726682E+04  0.28040726682E+04  0.50400001928E-02 0. -1.
       -1   -1    0    0    0  501  0.00000000000E+00  0.00000000000E+00 -0.11613135091E+04  0.11613135091E+04  0.50400001928E-02 0.  1.
    10030    2    1    2    0    0  0.00000000000E+00  0.00000000000E+00  0.16427591592E+04  0.39653861773E+04  0.36091037502E+04 0.  0.
        1    1    3    3  502    0 -0.13341627087E+04 -0.16257834222E+03 -0.50164517161E+03  0.14345974100E+04  0.50400001928E-02 0.  1.
       -1    1    3    3    0  502  0.13341627087E+04  0.16257834222E+03  0.21444043308E+04  0.25307887673E+04  0.50400001928E-02 0. -1.
</event>
<event>
 5   0  0.7236375E-08  0.3510443E+04  0.7818609E-02  0.8111319E-01
        1   -1    0    0  501    0  0.00000000000E+00  0.00000000000E+00  0.22469398753E+04  0.22469398753E+04  0.50400001928E-02 0.  1.
       -1   -1    0    0    0  501  0.00000000000E+00  0.00000000000E+00 -0.13711106802E+04  0.13711106802E+04  0.50400001928E-02 0. -1.
    10030    2    1    2    0    0  0.00000000000E+00  0.00000000000E+00  0.87582919516E+03  0.36180505555E+04  0.35104434254E+04 0.  0.
        5    1    3    3  502    0 -0.32831085898E+03  0.17157873158E+04  0.61363129828E+03  0.18515613933E+04  0.46999998093E+01 0.  1.
       -5    1    3    3    0  502  0.32831085898E+03 -0.17157873158E+04  0.26219789689E+03  0.17664891622E+04  0.46999998093E+01 0. -1.
</event>
<event>
 5   0  0.7514289E-08  0.3594727E+04  0.7818609E-02  0.8091701E-01
        1   -1    0    0  501    0  0.00000000000E+00  0.00000000000E+00  0.17474081952E+04  0.17474081952E+04  0.50400001928E-02 0. -1.
       -1   -1    0    0    0  501  0.00000000000E+00  0.00000000000E+00 -0.18487464291E+04  0.18487464291E+04  0.50400001928E-02 0.  1.
    10030    2    1    2    0    0  0.00000000000E+00  0.00000000000E+00 -0.10133823385E+03  0.35961546243E+04  0.35947265048E+04 0.  0.
        4    1    3    3  502    0 -0.16433983029E+04 -0.45497616313E+03 -0.61900726879E+03  0.18140928595E+04  0.12699999809E+01 0.  1.
       -4    1    3    3    0  502  0.16433983029E+04  0.45497616313E+03  0.51766903495E+03  0.17820617648E+04  0.12699999809E+01 0. -1.
</event>
<event>
 5   0  0.7261233E-08  0.3589437E+04  0.7818609E-02  0.8092916E-01
       -1   -1    0    0    0  501  0.00000000000E+00  0.00000000000E+00  0.21056512516E+04  0.21056512517E+04  0.50400001928E-02 0.  1.
        1   -1    0    0  501    0  0.00000000000E+00  0.00000000000E+00 -0.15296995769E+04  0.15296995769E+04  0.50400001928E-02 0. -1.
    10030    2    1    2    0    0  0.00000000000E+00  0.00000000000E+00  0.57595167474E+03  0.36353508286E+04  0.35894366292E+04 0.  0.
        3    1    3    3  502    0  0.10132759447E+04  0.11896865753E+04 -0.60588452772E+03  0.16760603684E+04  0.10100000352E+00 0. -1.
       -3    1    3    3    0  502 -0.10132759447E+04 -0.11896865753E+04  0.11818362025E+04  0.19592904601E+04  0.10100000352E+00 0.  1.
</event>
<event>
 5   0  0.2238968E-07  0.3509384E+04  0.7818609E-02  0.8111570E-01
       -2   -1    0    0    0  501  0.00000000000E+00  0.00000000000E+00  0.14100224167E+04  0.14100224167E+04  0.25500000920E-02 0. -1.
        2   -1    0    0  501    0  0.00000000000E+00  0.00000000000E+00 -0.21836137107E+04  0.21836137107E+04  0.25500000920E-02 0.  1.
    10030    2    1    2    0    0  0.00000000000E+00  0.00000000000E+00 -0.77359129400E+03  0.35936361273E+04  0.35093841519E+04 0.  0.
        3    1    3    3  502    0 -0.15785479614E+00  0.80080931948E+03 -0.19855757958E+04  0.21409826814E+04  0.10100000352E+00 0.  1.
       -3    1    3    3    0  502  0.15785479614E+00 -0.80080931948E+03  0.12119845018E+04  0.14526534459E+04  0.10100000352E+00 0. -1.
</event>
<event>
 5   0  0.7347303E-08  0.3610847E+04  0.7818609E-02  0.8088012E-01
       -1   -1    0    0    0  501  0.00000000000E+00  0.00000000000E+00  0.11413004438E+04  0.11413004438E+04  0.50400001928E-02 0. -1.
        1   -1    0    0  501    0  0.00000000000E+00  0.00000000000E+00 -0.28559999763E+04  0.28559999763E+04  0.50400001928E-02 0.  1.
    10030    2    1    2    0    0  0.00000000000E+00  0.00000000000E+00 -0.17146995325E+04  0.39973004201E+04  0.36108470145E+04 0.  0.
        2    1    3    3  502    0  0.97493330149E+03 -0.14986543052E+04 -0.57928048738E+03  0.18793683917E+04  0.25500000920E-02 0. -1.
       -2    1    3    3    0  502 -0.97493330149E+03  0.14986543052E+04 -0.11354190451E+04  0.21179320284E+04  0.25500000920E-02 0.  1.
</event>
<event>
 5   0  0.2199902E-07  0.3595160E+04  0.7818609E-02  0.8091601E-01
        2   -1    0    0  501    0  0.00000000000E+00  0.00000000000E+00  0.27036087985E+04  0.27036087985E+04  0.25500000920E-02 0.  1.
       -2   -1    0    0    0  501  0.00000000000E+00  0.00000000000E+00 -0.11951782326E+04  0.11951782326E+04  0.25500000920E-02 0. -1.
    10030    2    1    2    0    0  0.00000000000E+00  0.00000000000E+00  0.15084305659E+04  0.38987870311E+04  0.35951602943E+04 0.  0.
        1    1    3    3  502    0 -0.16745136215E+04 -0.65350830902E+03  0.77049679503E+03  0.19556927902E+04  0.50400001928E-02 0. -1.
       -1    1    3    3    0  502  0.16745136215E+04  0.65350830902E+03  0.73793377085E+03  0.19430942408E+04  0.50400001928E-02 0.  1.
</event>
<event>
 5   0  0.7347303E-08  0.3620179E+04  0.7818609E-02  0.8085885E-01
        1   -1    0    0  501    0  0.00000000000E+00  0.00000000000E+00  0.15303078682E+04  0.15303078682E+04  0.50400001928E-02 0.  1.
       -1   -1    0    0    0  501  0.00000000000E+00  0.00000000000E+00 -0.21410228970E+04  0.21410228970E+04  0.50400001928E-02 0. -1.
    10030    2    1    2    0    0  0.00000000000E+00  0.00000000000E+00 -0.61071502880E+03  0.36713307652E+04  0.36201791034E+04 0.  0.
        2    1    3    3  502    0  0.97795266833E+03 -0.55890772425E+03  0.11315803539E+04  0.15966350125E+04  0.25500000920E-02 0.  1.
       -2    1    3    3    0  502 -0.97795266833E+03  0.55890772425E+03 -0.17422953827E+04  0.20746957527E+04  0.25500000920E-02 0. -1.
</event>
<event>
 5   0  0.7261233E-08  0.3643197E+04  0.7818609E-02  0.8080668E-01
       -1   -1    0    0    0  501  0.00000000000E+00  0.00000000000E+00  0.19741056484E+04  0.19741056484E+04  0.50400001928E-02 0. -1.
        1   -1    0    0  501    0  0.00000000000E+00  0.00000000000E+00 -0.16808732169E+04  0.16808732169E+04  0.50400001928E-02 0.  1.
    10030    2    1    2    0    0  0.00000000000E+00  0.00000000000E+00  0.29323243154E+03  0.36549788654E+04  0.36431971189E+04 0.  0.
        3    1    3    3  502    0 -0.15760921154E+04 -0.82591641422E+03 -0.24453826583E+03  0.17961078067E+04  0.10100000352E+00 0. -1.
       -3    1    3    3    0  502  0.15760921154E+04  0.82591641422E+03  0.53777069737E+03  0.18588710587E+04  0.10100000352E+00 0.  1.
</event>
<event>
 5   0  0.2309391E-07  0.3596469E+04  0.7818609E-02  0.8091301E-01
       -2   -1    0    0    0  501  0.00000000000E+00  0.00000000000E+00  0.21072819977E+04  0.21072819977E+04  0.25500000920E-02 0. -1.
        2   -1    0    0  501    0  0.00000000000E+00  0.00000000000E+00 -0.15345113715E+04  0.15345113715E+04  0.25500000920E-02 0.  1.
    10030    2    1    2    0    0  0.00000000000E+00  0.00000000000E+00  0.57277062626E+03  0.36417933692E+04  0.35964694846E+04 0.  0.
        4    1    3    3  502    0 -0.13118137648E+04 -0.11177241766E+04 -0.23339036268E+03  0.17391478842E+04  0.12699999809E+01 0.  1.
       -4    1    3    3    0  502  0.13118137648E+04  0.11177241766E+04  0.80616098894E+03  0.19026454850E+04  0.12699999809E+01 0. -1.
</event>
<event>
 5   0  0.7514289E-08  0.3596717E+04  0.7818609E-02  0.8091244E-01
       -1   -1    0    0    0  501  0.00000000000E+00  0.00000000000E+00  0.12649645974E+04  0.12649645974E+04  0.50400001928E-02 0.  1.
        1   -1    0    0  501    0  0.00000000000E+00  0.00000000000E+00 -0.25566664862E+04  0.25566664862E+04  0.50400001928E-02 0. -1.
    10030    2    1    2    0    0  0.00000000000E+00  0.00000000000E+00 -0.12917018888E+04  0.38216310836E+04  0.35967166095E+04 0.  0.
        4    1    3    3  502    0  0.38345810512E+03 -0.82715354645E+03  0.10012017183E+04  0.13541158006E+04  0.12699999809E+01 0.  1.
       -4    1    3    3    0  502 -0.38345810512E+03  0.82715354645E+03 -0.22929036070E+04  0.24675152830E+04  0.12699999809E+01 0. -1.
</event>
<event>
 5   0  0.2198900E-07  0.3611155E+04  0.7818609E-02  0.8087941E-01
       -2   -1    0    0    0  501  0.00000000000E+00  0.00000000000E+00  0.22796768718E+04  0.22796768718E+04  0.25500000920E-02 0.  1.
        2   -1    0    0  501    0  0.00000000000E+00  0.00000000000E+00 -0.14300754841E+04  0.14300754841E+04  0.25500000920E-02 0. -1.
    10030    2    1    2    0    0  0.00000000000E+00  0.00000000000E+00  0.84960138767E+03  0.37097523559E+04  0.36111549433E+04 0.  0.
        2    1    3    3  502    0  0.10151760655E+04 -0.12376768168E+04 -0.43327988384E+03  0.16583599743E+04  0.25500000920E-02 0. -1.
       -2    1    3    3    0  502 -0.10151760655E+04  0.12376768168E+04  0.12828812715E+04  0.20513923816E+04  0.25500000920E-02 0.  1.
</event>
<event>
 5   0  0.7236375E-08  0.3580191E+04  0.7818609E-02  0.8095044E-01
       -1   -1    0    0    0  501  0.00000000000E+00  0.00000000000E+00  0.17215777263E+04  0.17215777263E+04  0.50400001928E-02 0.  1.
        1   -1    0    0  501    0  0.00000000000E+00  0.00000000000E+00 -0.18613407239E+04  0.18613407239E+04  0.50400001928E-02 0. -1.
    10030    2    1    2    0    0  0.00000000000E+00  0.00000000000E+00 -0.13976299758E+03  0.35829184502E+04  0.35801914648E+04 0.  0.
        5    1    3    3  502    0  0.10350286143E+04 -0.34043334072E+03  0.13514966117E+04  0.17360139036E+04  0.46999998093E+01 0.  1.
       -5    1    3    3    0  502 -0.10350286143E+04  0.34043334072E+03 -0.14912596093E+04  0.18469045466E+04  0.46999998093E+01 0. -1.
</event>
<event>
 5   0  0.2238968E-07  0.3777708E+04  0.7818609E-02  0.8050956E-01
        2   -1    0    0  501    0  0.00000000000E+00  0.00000000000E+00  0.26388814775E+04  0.26388814775E+04  0.25500000920E-02 0.  1.
       -2   -1    0    0    0  501  0.00000000000E+00  0.00000000000E+00 -0.13520009906E+04  0.13520009906E+04  0.25500000920E-02 0. -1.
    10030    2    1    2    0    0  0.00000000000E+00  0.00000000000E+00  0.12868804869E+04  0.39908824681E+04  0.37777084967E+04 0.  0.
        3    1    3    3  502    0 -0.89101406371E+03  0.41526050388E+03 -0.10604671366E+04  0.14460075746E+04  0.10100000352E+00 0. -1.
       -3    1    3    3    0  502  0.89101406371E+03 -0.41526050388E+03  0.23473476235E+04  0.25448748935E+04  0.10100000352E+00 0.  1.
</event>
<event>
 5   0  0.7347303E-08  0.3753751E+04  0.7818609E-02  0.8056153E-01
       -1   -1    0    0    0  501  0.00000000000E+00  0.00000000000E+00  0.29747127459E+04  0.29747127460E+04  0.50400001928E-02 0.  1.
        1   -1    0    0  501    0  0.00000000000E+00  0.00000000000E+00 -0.11842020550E+04  0.11842020550E+04  0.50400001928E-02 0. -1.
    10030    2    1    2    0    0  0.00000000000E+00  0.00000000000E+00  0.17905106910E+04  0.41589148010E+04  0.37537506293E+04 0.  0.
        2    1    3    3  502    0 -0.19866588934E+03  0.79831285046E+03 -0.97380625408E+03  0.12747823984E+04  0.25500000920E-02 0. -1.
       -2    1    3    3    0  502  0.19866588934E+03 -0.79831285046E+03  0.27643169450E+04  0.28841324025E+04  0.25500000920E-02 0.  1.
</event>
<event>
 5   0  0.2198900E-07  0.3612465E+04  0.7818609E-02  0.8087642E-01
        2   -1    0    0  501    0  0.00000000000E+00  0.00000000000E+00  0.26816442495E+04  0.26816442495E+04  0.25500000920E-02 0.  1.
       -2   -1    0    0    0  501  0.00000000000E+00  0.00000000000E+00 -0.12165954421E+04  0.12165954421E+04  0.25500000920E-02 0. -1.
    10030    2    1    2    0    0  0.00000000000E+00  0.00000000000E+00  0.14650488074E+04  0.38982396916E+04  0.36124651812E+04 0.  0.
        2    1    3    3  502    0 -0.11625329423E+04  0.86393138996E+03 -0.43202045838E+03  0.15114569014E+04  0.25500000920E-02 0. -1.
       -2    1    3    3    0  502  0.11625329423E+04 -0.86393138996E+03  0.18970692657E+04  0.23867827902E+04  0.25500000920E-02 0.  1.
</event>
<event>
 5   0  0.2199902E-07  0.3620930E+04  0.7818609E-02  0.8085714E-01
        2   -1    0    0  501    0  0.00000000000E+00  0.00000000000E+00  0.24779591676E+04  0.24779591676E+04  0.25500000920E-02 0.  1.
       -2   -1    0    0    0  501  0.00000000000E+00  0.00000000000E+00 -0.13227750920E+04  0.13227750920E+04  0.25500000920E-02 0. -1.
    10030    2    1    2    0    0  0.00000000000E+00  0.00000000000E+00  0.11551840756E+04  0.38007342596E+04  0.36209295303E+04 0.  0.
        1    1    3    3  502    0 -0.84963913295E+03  0.80667433824E+03 -0.87122847878E+03  0.14600168514E+04  0.50400001928E-02 0. -1.
       -1    1    3    3    0  502  0.84963913295E+03 -0.80667433824E+03  0.20264125544E+04  0.23407174081E+04  0.50400001928E-02 0.  1.
</event>
<event>
 5   0  0.7261233E-08  0.3680185E+04  0.7818609E-02  0.8072367E-01
        1   -1    0    0  501    0  0.00000000000E+00  0.00000000000E+00  0.16062350687E+04  0.16062350687E+04  0.50400001928E-02 0. -1.
       -1   -1    0    0    0  501  0.00000000000E+00  0.00000000000E+00 -0.21079979185E+04  0.21079979185E+04  0.50400001928E-02 0.  1.
    10030    2    1    2    0    0  0.00000000000E+00  0.00000000000E+00 -0.50176284982E+03  0.37142329873E+04  0.36801848767E+04 0.  0.
        3    1    3    3  502    0  0.77939479717E+03 -0.56031763206E+03  0.13335242571E+04  0.16430760947E+04  0.10100000352E+00 0. -1.
       -3    1    3    3    0  502 -0.77939479717E+03  0.56031763206E+03 -0.18352871069E+04  0.20711568926E+04  0.10100000352E+00 0.  1.
</event>
<event>
 5   0  0.7514289E-08  0.3615717E+04  0.7818609E-02  0.8086901E-01
       -1   -1    0    0    0  501  0.00000000000E+00  0.00000000000E+00  0.23459437203E+04  0.23459437203E+04  0.50400001928E-02 0.  1.
        1   -1    0    0  501    0  0.00000000000E+00  0.00000000000E+00 -0.13931928822E+04  0.13931928823E+04  0.50400001928E-02 0. -1.
    10030    2    1    2    0    0  0.00000000000E+00  0.00000000000E+00  0.95275083804E+03  0.37391366026E+04  0.36157168547E+04 0.  0.
        4    1    3    3  502    0  0.48796580811E+03  0.10625674505E+04  0.19022775191E+04  0.22328953378E+04  0.12699999809E+01 0.  1.
       -4    1    3    3    0  502 -0.48796580811E+03 -0.10625674505E+04 -0.94952668106E+03  0.15062412648E+04  0.12699999809E+01 0. -1.
</event>
<event>
 5   0  0.2198900E-07  0.3616702E+04  0.7818609E-02  0.8086677E-01
       -2   -1    0    0    0  501  0.00000000000E+00  0.00000000000E+00  0.18969457402E+04  0.18969457402E+04  0.25500000920E-02 0.  1.
        2   -1    0    0  501    0  0.00000000000E+00  0.00000000000E+00 -0.17238940850E+04  0.17238940850E+04  0.25500000920E-02 0. -1.
    10030    2    1    2    0    0  0.00000000000E+00  0.00000000000E+00  0.17305165514E+03  0.36208398252E+04  0.36167021117E+04 0.  0.
        2    1    3    3  502    0  0.48967328010E+03 -0.71424778663E+03 -0.15028053310E+04  0.17344606322E+04  0.25500000920E-02 0. -1.
       -2    1    3    3    0  502 -0.48967328010E+03  0.71424778663E+03  0.16758569861E+04  0.18863791930E+04  0.25500000920E-02 0.  1.
</event>
<event>
 5   0  0.2309391E-07  0.3600204E+04  0.7818609E-02  0.8090445E-01
        2   -1    0    0  501    0  0.00000000000E+00  0.00000000000E+00  0.21859890817E+04  0.21859890817E+04  0.25500000920E-02 0. -1.
       -2   -1    0    0    0  501  0.00000000000E+00  0.00000000000E+00 -0.14823347664E+04  0.14823347664E+04  0.25500000920E-02 0.  1.
    10030    2    1    2    0    0  0.00000000000E+00  0.00000000000E+00  0.70365431526E+03  0.36683238481E+04  0.36002042247E+04 0.  0.
        4    1    3    3  502    0 -0.14890611250E+03 -0.73351394216E+03 -0.13162652444E+04  0.15141900608E+04  0.12699999809E+01 0.  1.
       -4    1    3    3    0  502  0.14890611250E+03  0.73351394216E+03  0.20199195596E+04  0.21541337874E+04  0.12699999809E+01 0. -1.
</event>
<event>
 5   0  0.2238968E-07  0.3612456E+04  0.7818609E-02  0.8087645E-01
        2   -1    0    0  501    0  0.00000000000E+00  0.00000000000E+00  0.22660215776E+04  0.22660215776E+04  0.25500000920E-02 0.  1.
       -2   -1    0    0    0  501  0.00000000000E+00  0.00000000000E+00 -0.14397297629E+04  0.14397297629E+04  0.25500000920E-02 0. -1.
    10030    2    1    2    0    0  0.00000000000E+00  0.00000000000E+00  0.82629181478E+03  0.37057513405E+04  0.36124555132E+04 0.  0.
        3    1    3    3  502    0  0.36436933783E+03 -0.10889522926E+04  0.18433832450E+04  0.21717835776E+04  0.10100000352E+00 0.  1.
       -3    1    3    3    0  502 -0.36436933783E+03  0.10889522926E+04 -0.10170914302E+04  0.15339677629E+04  0.10100000352E+00 0. -1.
</event>
<event>
 5   0  0.2342606E-07  0.3602963E+04  0.7818609E-02  0.8089813E-01
       -2   -1    0    0    0  501  0.00000000000E+00  0.00000000000E+00  0.16951740891E+04  0.16951740891E+04  0.25500000920E-02 0.  1.
        2   -1    0    0  501    0  0.00000000000E+00  0.00000000000E+00 -0.19144553538E+04  0.19144553538E+04  0.25500000920E-02 0. -1.
    10030    2    1    2    0    0  0.00000000000E+00  0.00000000000E+00 -0.21928126467E+03  0.36096294429E+04  0.36029627311E+04 0.  0.
        5    1    3    3  502    0  0.32876159639E+03  0.12998540798E+04  0.10957515446E+04  0.17315883903E+04  0.46999998093E+01 0.  1.
       -5    1    3    3    0  502 -0.32876159639E+03 -0.12998540798E+04 -0.13150328092E+04  0.18780410526E+04  0.46999998093E+01 0. -1.
</event>
<event>
 5   0  0.7514289E-08  0.3591840E+04  0.7818609E-02  0.8092363E-01
       -1   -1    0    0    0  501  0.00000000000E+00  0.00000000000E+00  0.11300212054E+04  0.11300212054E+04  0.50400001928E-02 0.  1.
        1   -1    0    0  501    0  0.00000000000E+00  0.00000000000E+00 -0.28542201571E+04  0.28542201571E+04  0.50400001928E-02 0. -1.
    10030    2    1    2    0    0  0.00000000000E+00  0.00000000000E+00 -0.17241989517E+04  0.39842413625E+04  0.35918403653E+04 0.  0.
        4    1    3    3  502    0  0.76357108758E+03 -0.50618224662E+03 -0.25755433262E+04  0.27336214644E+04  0.12699999809E+01 0. -1.
       -4    1    3    3    0  502 -0.76357108758E+03  0.50618224662E+03  0.85134437452E+03  0.12506198981E+04  0.12699999809E+01 0.  1.
</event>
<event>
 5   0  0.7236375E-08  0.3607557E+04  0.7818609E-02  0.8088763E-01
        1   -1    0    0  501    0  0.00000000000E+00  0.00000000000E+00  0.11434377307E+04  0.11434377307E+04  0.50400001928E-02 0. -1.
       -1   -1    0    0    0  501  0.00000000000E+00  0.00000000000E+00 -0.28454698727E+04  0.28454698727E+04  0.50400001928E-02 0.  1.
    10030    2    1    2    0    0  0.00000000000E+00  0.00000000000E+00 -0.17020321420E+04  0.39889076034E+04  0.36075574086E+04 0.  0.
        5    1    3    3  502    0 -0.52048815575E+03 -0.88013053689E+03 -0.24940477940E+04  0.26955211316E+04  0.46999998093E+01 0.  1.
       -5    1    3    3    0  502  0.52048815575E+03  0.88013053689E+03  0.79201565206E+03  0.12933864718E+04  0.46999998093E+01 0. -1.
</event>
<event>
 5   0  0.7236375E-08  0.3598600E+04  0.7818609E-02  0.8090812E-01
        1   -1    0    0  501    0  0.00000000000E+00  0.00000000000E+00  0.19825094863E+04  0.19825094864E+04  0.50400001928E-02 0.  1.
       -1   -1    0    0    0  501  0.00000000000E+00  0.00000000000E+00 -0.16330217284E+04  0.16330217285E+04  0.50400001928E-02 0. -1.
    10030    2    1    2    0    0  0.00000000000E+00  0.00000000000E+00  0.34948775790E+03  0.36155312148E+04  0.35986003213E+04 0.  0.
        1    1    3    3  502    0  0.33099599925E+03  0.13996614990E+04  0.12609736017E+04  0.19127637302E+04  0.50400001928E-02 0.  1.
       -1    1    3    3    0  502 -0.33099599925E+03 -0.13996614990E+04 -0.91148584377E+03  0.17027674846E+04  0.50400001928E-02 0. -1.
</event>
<event>
 5   0  0.2309391E-07  0.3599795E+04  0.7818609E-02  0.8090539E-01
        2   -1    0    0  501    0  0.00000000000E+00  0.00000000000E+00  0.14179662025E+04  0.14179662025E+04  0.25500000920E-02 0. -1.
       -2   -1    0    0    0  501  0.00000000000E+00  0.00000000000E+00 -0.22847028561E+04  0.22847028561E+04  0.25500000920E-02 0.  1.
    10030    2    1    2    0    0  0.00000000000E+00  0.00000000000E+00 -0.86673665357E+03  0.37026690586E+04  0.35997952345E+04 0.  0.
        4    1    3    3  502    0  0.16980840216E+04 -0.46769512602E+03 -0.81463884302E+03  0.19405839670E+04  0.12699999809E+01 0.  1.
       -4    1    3    3    0  502 -0.16980840216E+04  0.46769512602E+03 -0.52097810548E+02  0.17620850916E+04  0.12699999809E+01 0. -1.
</event>
<event>
 5   0  0.2309391E-07  0.3607562E+04  0.7818609E-02  0.8088762E-01
        2   -1    0    0  501    0  0.00000000000E+00  0.00000000000E+00  0.22345451646E+04  0.22345451646E+04  0.25500000920E-02 0.  1.
       -2   -1    0    0    0  501  0.00000000000E+00  0.00000000000E+00 -0.14560571701E+04  0.14560571701E+04  0.25500000920E-02 0. -1.
    10030    2    1    2    0    0  0.00000000000E+00  0.00000000000E+00  0.77848799449E+03  0.36906023346E+04  0.36075617853E+04 0.  0.
        4    1    3    3  502    0 -0.12710200276E+04  0.65686503538E+03  0.15130102566E+04  0.20823460890E+04  0.12699999809E+01 0.  1.
       -4    1    3    3    0  502  0.12710200276E+04 -0.65686503538E+03 -0.73452226207E+03  0.16082562456E+04  0.12699999809E+01 0. -1.
</event>
<event>
 5   0  0.7236375E-08  0.3583968E+04  0.7818609E-02  0.8094174E-01
       -3   -1    0    0    0  501  0.00000000000E+00  0.00000000000E+00  0.18718672044E+04  0.18718672071E+04  0.10100000352E+00 0. -1.
        3   -1    0    0  501    0  0.00000000000E+00  0.00000000000E+00 -0.17155095079E+04  0.17155095109E+04  0.10100000352E+00 0.  1.
    10030    2    1    2    0    0  0.00000000000E+00  0.00000000000E+00  0.15635769647E+03  0.35873767180E+04  0.35839676321E+04 0.  0.
        3    1    3    3  502    0 -0.88039518258E+03  0.10208570140E+04 -0.11036055703E+04  0.17421796651E+04  0.10100000352E+00 0.  1.
       -3    1    3    3    0  502  0.88039518258E+03 -0.10208570140E+04  0.12599632668E+04  0.18451970530E+04  0.10100000352E+00 0. -1.
</event>
<event>
 5   0  0.2198900E-07  0.3455509E+04  0.7818609E-02  0.8124416E-01
       -2   -1    0    0    0  501  0.00000000000E+00  0.00000000000E+00  0.12857577313E+04  0.12857577313E+04  0.25500000920E-02 0. -1.
        2   -1    0    0  501    0  0.00000000000E+00  0.00000000000E+00 -0.23216930194E+04  0.23216930194E+04  0.25500000920E-02 0.  1.
    10030    2    1    2    0    0  0.00000000000E+00  0.00000000000E+00 -0.10359352881E+04  0.36074507508E+04  0.34555085007E+04 0.  0.
        2    1    3    3  502    0  0.16110615736E+04 -0.17616953870E+03  0.10717807872E+03  0.16242051105E+04  0.25500000920E-02 0.  1.
       -2    1    3    3    0  502 -0.16110615736E+04  0.17616953870E+03 -0.11431133668E+04  0.19832456403E+04  0.25500000920E-02 0. -1.
</event>
<event>
 5   0  0.7347303E-08  0.3592082E+04  0.7818609E-02  0.8092308E-01
        1   -1    0    0  501    0  0.00000000000E+00  0.00000000000E+00  0.27792987575E+04  0.27792987575E+04  0.50400001928E-02 0. -1.
       -1   -1    0    0    0  501  0.00000000000E+00  0.00000000000E+00 -0.11606390242E+04  0.11606390242E+04  0.50400001928E-02 0.  1.
    10030    2    1    2    0    0  0.00000000000E+00  0.00000000000E+00  0.16186597333E+04  0.39399377817E+04  0.35920816237E+04 0.  0.
        2    1    3    3  502    0 -0.30623635175E+03  0.15778821804E+03 -0.11240612475E+04  0.11756664123E+04  0.25500000920E-02 0.  1.
       -2    1    3    3    0  502  0.30623635175E+03 -0.15778821804E+03  0.27427209808E+04  0.27642713694E+04  0.25500000920E-02 0. -1.
</event>
<event>
 5   0  0.7261233E-08  0.3613772E+04  0.7818609E-02  0.8087344E-01
       -1   -1    0    0    0  501  0.00000000000E+00  0.00000000000E+00  0.13366550356E+04  0.13366550356E+04  0.50400001928E-02 0.  1.
        1   -1    0    0  501    0  0.00000000000E+00  0.00000000000E+00 -0.24425433138E+04  0.24425433138E+04  0.50400001928E-02 0. -1.
    10030    2    1    2    0    0  0.00000000000E+00  0.00000000000E+00 -0.11058882782E+04  0.37791983494E+04  0.36137724444E+04 0.  0.
        3    1    3    3  502    0  0.44160807977E+03  0.11372084618E+04 -0.19468418515E+04  0.22974886260E+04  0.10100000352E+00 0. -1.
       -3    1    3    3    0  502 -0.44160807977E+03 -0.11372084618E+04  0.84095357329E+03  0.14817097234E+04  0.10100000352E+00 0.  1.
</event>
<event>
 5   0  0.2238968E-07  0.3604800E+04  0.7818609E-02  0.8089393E-01
       -2   -1    0    0    0  501  0.00000000000E+00  0.00000000000E+00  0.22524330133E+04  0.22524330133E+04  0.25500000920E-02 0.  1.
        2   -1    0    0  501    0  0.00000000000E+00  0.00000000000E+00 -0.14422831829E+04  0.14422831829E+04  0.25500000920E-02 0. -1.
    10030    2    1    2    0    0  0.00000000000E+00  0.00000000000E+00  0.81014983044E+03  0.36947161962E+04  0.36048002751E+04 0.  0.
        3    1    3    3  502    0 -0.62589118358E+03 -0.14513530753E+03 -0.13209255499E+04  0.14688935802E+04  0.10100000352E+00 0. -1.
       -3    1    3    3    0  502  0.62589118358E+03  0.14513530753E+03  0.21310753804E+04  0.22258226161E+04  0.10100000352E+00 0.  1.
</event>
<event>
 5   0  0.2199902E-07  0.3599677E+04  0.7818609E-02  0.8090566E-01
       -2   -1    0    0    0  501  0.00000000000E+00  0.00000000000E+00  0.15984367008E+04  0.15984367008E+04  0.25500000920E-02 0.  1.
        2   -1    0    0  501    0  0.00000000000E+00  0.00000000000E+00 -0.20266165571E+04  0.20266165571E+04  0.25500000920E-02 0. -1.
    10030    2    1    2    0    0  0.00000000000E+00  0.00000000000E+00 -0.42817985625E+03  0.36250532579E+04  0.35996768095E+04 0.  0.
        1    1    3    3  502    0  0.26145261045E+03  0.10527820976E+04  0.12322488785E+04  0.16416896513E+04  0.50400001928E-02 0.  1.
       -1    1    3    3    0  502 -0.26145261045E+03 -0.10527820976E+04 -0.16604287348E+04  0.19833636066E+04  0.50400001928E-02 0. -1.
</event>
<event>
 5   0  0.7514289E-08  0.3609267E+04  0.7818609E-02  0.8088372E-01
        1   -1    0    0  501    0  0.00000000000E+00  0.00000000000E+00  0.14835486261E+04  0.14835486261E+04  0.50400001928E-02 0.  1.
       -1   -1    0    0    0  501  0.00000000000E+00  0.00000000000E+00 -0.21952106849E+04  0.21952106849E+04  0.50400001928E-02 0. -1.
    10030    2    1    2    0    0  0.00000000000E+00  0.00000000000E+00 -0.71166205872E+03  0.36787593110E+04  0.36092668483E+04 0.  0.
        4    1    3    3  502    0  0.71881294923E+03 -0.15500571393E+03 -0.20355853776E+04  0.21643309058E+04  0.12699999809E+01 0. -1.
       -4    1    3    3    0  502 -0.71881294923E+03  0.15500571393E+03  0.13239233189E+04  0.15144284052E+04  0.12699999809E+01 0.  1.
</event>
<event>
 5   0  0.7514289E-08  0.3619236E+04  0.7818609E-02  0.8086100E-01
       -1   -1    0    0    0  501  0.00000000000E+00  0.00000000000E+00  0.14128193187E+04  0.14128193187E+04  0.50400001928E-02 0. -1.
        1   -1    0    0  501    0  0.00000000000E+00  0.00000000000E+00 -0.23178598447E+04  0.23178598447E+04  0.50400001928E-02 0.  1.
    10030    2    1    2    0    0  0.00000000000E+00  0.00000000000E+00 -0.90504052608E+03  0.37306791634E+04  0.36192359230E+04 0.  0.
        4    1    3    3  502    0 -0.77746454692E+03 -0.86978079550E+03  0.97345874708E+03  0.15194055743E+04  0.12699999809E+01 0. -1.
       -4    1    3    3    0  502  0.77746454692E+03  0.86978079550E+03 -0.18784992732E+04  0.22112735892E+04  0.12699999809E+01 0.  1.
</event>
<event>
 5   0  0.7236375E-08  0.3628010E+04  0.7818609E-02  0.8084106E-01
       -1   -1    0    0    0  501  0.00000000000E+00  0.00000000000E+00  0.13649064354E+04  0.13649064354E+04  0.50400001928E-02 0. -1.
        1   -1    0    0  501    0  0.00000000000E+00  0.00000000000E+00 -0.24108711897E+04  0.24108711897E+04  0.50400001928E-02 0.  1.
    10030    2    1    2    0    0  0.00000000000E+00  0.00000000000E+00 -0.10459647544E+04  0.37757776251E+04  0.36280097033E+04 0.  0.
        5    1    3    3  502    0 -0.18148822633E+02 -0.14123660782E+04 -0.17075340974E+04  0.22160329651E+04  0.46999998093E+01 0. -1.
       -5    1    3    3    0  502  0.18148822633E+02  0.14123660782E+04  0.66156934308E+03  0.15597446600E+04  0.46999998093E+01 0.  1.
</event>
<event>
 5   0  0.2309391E-07  0.3388003E+04  0.7818609E-02  0.8140857E-01
       -2   -1    0    0    0  501  0.00000000000E+00  0.00000000000E+00  0.10828451926E+04  0.10828451926E+04  0.25500000920E-02 0.  1.
        2   -1    0    0  501    0  0.00000000000E+00  0.00000000000E+00 -0.26500931116E+04  0.26500931116E+04  0.25500000920E-02 0. -1.
    10030    2    1    2    0    0  0.00000000000E+00  0.00000000000E+00 -0.15672479190E+04  0.37329383043E+04  0.33880027072E+04 0.  0.
        4    1    3    3  502    0  0.15950857248E+04 -0.16792330649E+03 -0.18301849441E+03  0.16143091675E+04  0.12699999809E+01 0.  1.
       -4    1    3    3    0  502 -0.15950857248E+04  0.16792330649E+03 -0.13842294246E+04  0.21186291367E+04  0.12699999809E+01 0. -1.
</event>
<event>
 5   0  0.7236375E-08  0.3615864E+04  0.7818609E-02  0.8086868E-01
       -1   -1    0    0    0  501  0.00000000000E+00  0.00000000000E+00  0.11131796479E+04  0.11131796479E+04  0.50400001928E-02 0. -1.
        1   -1    0    0  501    0  0.00000000000E+00  0.00000000000E+00 -0.29362890523E+04  0.29362890523E+04  0.50400001928E-02 0.  1.
    10030    2    1    2    0    0  0.00000000000E+00  0.00000000000E+00 -0.18231094044E+04  0.40494687003E+04  0.36158635005E+04 0.  0.
        5    1    3    3  502    0 -0.14848031981E+04  0.78969757745E+03 -0.16547043942E+04  0.23593074244E+04  0.46999998093E+01 0.  1.
       -5    1    3    3    0  502  0.14848031981E+04 -0.78969757745E+03 -0.16840501020E+03  0.16901612758E+04  0.46999998093E+01 0. -1.
</event>
<event>
 5   0  0.2238968E-07  0.3405360E+04  0.7818609E-02  0.8136592E-01
       -2   -1    0    0    0  501  0.00000000000E+00  0.00000000000E+00  0.24662055852E+04  0.24662055852E+04  0.25500000920E-02 0.  1.
        2   -1    0    0  501    0  0.00000000000E+00  0.00000000000E+00 -0.11755381351E+04  0.11755381351E+04  0.25500000920E-02 0. -1.
    10030    2    1    2    0    0  0.00000000000E+00  0.00000000000E+00  0.12906674501E+04  0.36417437203E+04  0.34053597251E+04 0.  0.
        3    1    3    3  502    0 -0.68980023483E+03  0.97363569646E+01 -0.10193854191E+04  0.12308800931E+04  0.10100000352E+00 0. -1.
       -3    1    3    3    0  502  0.68980023483E+03 -0.97363569646E+01  0.23100528691E+04  0.24108636272E+04  0.10100000352E+00 0.  1.
</event>
<event>
 5   0  0.2238968E-07  0.3520722E+04  0.7818609E-02  0.8108897E-01
       -2   -1    0    0    0  501  0.00000000000E+00  0.00000000000E+00  0.11983136653E+04  0.11983136653E+04  0.25500000920E-02 0.  1.
        2   -1    0    0  501    0  0.00000000000E+00  0.00000000000E+00 -0.25860259729E+04  0.25860259729E+04  0.25500000920E-02 0. -1.
    10030    2    1    2    0    0  0.00000000000E+00  0.00000000000E+00 -0.13877123076E+04  0.37843396382E+04  0.35207216659E+04 0.  0.
        3    1    3    3  502    0  0.14110895424E+04  0.57581810289E+03  0.25309083671E+03  0.15449256183E+04  0.10100000352E+00 0.  1.
       -3    1    3    3    0  502 -0.14110895424E+04 -0.57581810289E+03 -0.16408031443E+04  0.22394140200E+04  0.10100000352E+00 0. -1.
</event>
<event>
 5   0  0.7236375E-08  0.3607004E+04  0.7818609E-02  0.8088889E-01
       -1   -1    0    0    0  501  0.00000000000E+00  0.00000000000E+00  0.10992372429E+04  0.10992372429E+04  0.50400001928E-02 0. -1.
        1   -1    0    0  501    0  0.00000000000E+00  0.00000000000E+00 -0.29589786882E+04  0.29589786882E+04  0.50400001928E-02 0.  1.
    10030    2    1    2    0    0  0.00000000000E+00  0.00000000000E+00 -0.18597414453E+04  0.40582159311E+04  0.36070040616E+04 0.  0.
        5    1    3    3  502    0 -0.12712955406E+04  0.11951188660E+04 -0.14431106293E+04  0.22643082462E+04  0.46999998093E+01 0.  1.
       -5    1    3    3    0  502  0.12712955406E+04 -0.11951188660E+04 -0.41663081598E+03  0.17939076849E+04  0.46999998093E+01 0. -1.
</event>
<event>
 5   0  0.2238968E-07  0.3602448E+04  0.7818609E-02  0.8089931E-01
        2   -1    0    0  501    0  0.00000000000E+00  0.00000000000E+00  0.24071933825E+04  0.24071933825E+04  0.25500000920E-02 0. -1.
       -2   -1    0    0    0  501  0.00000000000E+00  0.00000000000E+00 -0.13477967948E+04  0.13477967949E+04  0.25500000920E-02 0.  1.
    10030    2    1    2    0    0  0.00000000000E+00  0.00000000000E+00  0.10593965876E+04  0.37549901773E+04  0.36024477931E+04 0.  0.
        3    1    3    3  502    0  0.78439070934E+03  0.40275754670E+02 -0.11599014823E+04  0.14008077599E+04  0.10100000352E+00 0.  1.
       -3    1    3    3    0  502 -0.78439070934E+03 -0.40275754670E+02  0.22192980699E+04  0.23541824174E+04  0.10100000352E+00 0. -1.
</event>
<event>
 5   0  0.2198900E-07  0.3598928E+04  0.7818609E-02  0.8090737E-01
        2   -1    0    0  501    0  0.00000000000E+00  0.00000000000E+00  0.15997834136E+04  0.15997834136E+04  0.25500000920E-02 0.  1.
       -2   -1    0    0    0  501  0.00000000000E+00  0.00000000000E+00 -0.20240681542E+04  0.20240681542E+04  0.25500000920E-02 0. -1.
    10030    2    1    2    0    0  0.00000000000E+00  0.00000000000E+00 -0.42428474059E+03  0.36238515677E+04  0.35989279854E+04 0.  0.
        2    1    3    3  502    0 -0.21530742022E+02 -0.14903085037E+04 -0.12273845652E+04  0.19307915164E+04  0.25500000920E-02 0. -1.
       -2    1    3    3    0  502  0.21530742022E+02  0.14903085037E+04  0.80309982458E+03  0.16930600513E+04  0.25500000920E-02 0.  1.
</event>
<event>
 5   0  0.2199902E-07  0.3604490E+04  0.7818609E-02  0.8089464E-01
        2   -1    0    0  501    0  0.00000000000E+00  0.00000000000E+00  0.27558598150E+04  0.27558598150E+04  0.25500000920E-02 0. -1.
       -2   -1    0    0    0  501  0.00000000000E+00  0.00000000000E+00 -0.11786110025E+04  0.11786110025E+04  0.25500000920E-02 0.  1.
    10030    2    1    2    0    0  0.00000000000E+00  0.00000000000E+00  0.15772488125E+04  0.39344708175E+04  0.36044898109E+04 0.  0.
        1    1    3    3  502    0  0.10695340818E+04 -0.11405838246E+04  0.17669163054E+04  0.23594126056E+04  0.50400001928E-02 0.  1.
       -1    1    3    3    0  502 -0.10695340818E+04  0.11405838246E+04 -0.18966749292E+03  0.15750582119E+04  0.50400001928E-02 0. -1.
</event>
<event>
 5   0  0.7236375E-08  0.3585774E+04  0.7818609E-02  0.8093758E-01
        1   -1    0    0  501    0  0.00000000000E+00  0.00000000000E+00  0.27341013185E+04  0.27341013185E+04  0.50400001928E-02 0.  1.
       -1   -1    0    0    0  501  0.00000000000E+00  0.00000000000E+00 -0.11756855923E+04  0.11756855923E+04  0.50400001928E-02 0. -1.
    10030    2    1    2    0    0  0.00000000000E+00  0.00000000000E+00  0.15584157262E+04  0.39097869108E+04  0.35857738513E+04 0.  0.
        1    1    3    3  502    0 -0.62465225493E+03  0.11415222900E+04  0.21240164971E+04  0.24909254622E+04  0.50400001928E-02 0.  1.
       -1    1    3    3    0  502  0.62465225493E+03 -0.11415222900E+04 -0.56560077092E+03  0.14188614486E+04  0.50400001928E-02 0. -1.
</event>
<event>
 5   0  0.2309391E-07  0.3634124E+04  0.7818609E-02  0.8082720E-01
        2   -1    0    0  501    0  0.00000000000E+00  0.00000000000E+00  0.21755164303E+04  0.21755164303E+04  0.25500000920E-02 0.  1.
       -2   -1    0    0    0  501  0.00000000000E+00  0.00000000000E+00 -0.15176695616E+04  0.15176695616E+04  0.25500000920E-02 0. -1.
    10030    2    1    2    0    0  0.00000000000E+00  0.00000000000E+00  0.65784686869E+03  0.36931859920E+04  0.36341244157E+04 0.  0.
        4    1    3    3  502    0  0.18155513721E+04  0.19090459109E+02  0.25619057353E+03  0.18336374923E+04  0.12699999809E+01 0. -1.
       -4    1    3    3    0  502 -0.18155513721E+04 -0.19090459109E+02  0.40165629516E+03  0.18595484997E+04  0.12699999809E+01 0.  1.
</event>
<event>
 5   0  0.2309391E-07  0.3606818E+04  0.7818609E-02  0.8088932E-01
       -2   -1    0    0    0  501  0.00000000000E+00  0.00000000000E+00  0.17152511208E+04  0.17152511208E+04  0.25500000920E-02 0. -1.
        2   -1    0    0  501    0  0.00000000000E+00  0.00000000000E+00 -0.18960979348E+04  0.18960979348E+04  0.25500000920E-02 0.  1.
    10030    2    1    2    0    0  0.00000000000E+00  0.00000000000E+00 -0.18084681404E+03  0.36113490556E+04  0.36068180480E+04 0.  0.
        4    1    3    3  502    0  0.29141932487E+03 -0.32248082928E+03  0.16620219770E+04  0.17179166956E+04  0.12699999809E+01 0. -1.
       -4    1    3    3    0  502 -0.29141932487E+03  0.32248082928E+03 -0.18428687910E+04  0.18934323600E+04  0.12699999809E+01 0.  1.
</event>
<event>
 5   0  0.2238968E-07  0.3610235E+04  0.7818609E-02  0.8088151E-01
       -2   -1    0    0    0  501  0.00000000000E+00  0.00000000000E+00  0.22148017239E+04  0.22148017239E+04  0.25500000920E-02 0.  1.
        2   -1    0    0  501    0  0.00000000000E+00  0.00000000000E+00 -0.14712148629E+04  0.14712148630E+04  0.25500000920E-02 0. -1.
    10030    2    1    2    0    0  0.00000000000E+00  0.00000000000E+00  0.74358686100E+03  0.36860165869E+04  0.36102350144E+04 0.  0.
        3    1    3    3  502    0 -0.10609965324E+04  0.14503127768E+04  0.54664361205E+03  0.18782811401E+04  0.10100000352E+00 0. -1.
       -3    1    3    3    0  502  0.10609965324E+04 -0.14503127768E+04  0.19694324895E+03  0.18077354468E+04  0.10100000352E+00 0.  1.
</event>
<event>
 5   0  0.7514289E-08  0.3599096E+04  0.7818609E-02  0.8090699E-01
        1   -1    0    0  501    0  0.00000000000E+00  0.00000000000E+00  0.29524533474E+04  0.29524533474E+04  0.50400001928E-02 0. -1.
       -1   -1    0    0    0  501  0.00000000000E+00  0.00000000000E+00 -0.10968413794E+04  0.10968413795E+04  0.50400001928E-02 0.  1.
    10030    2    1    2    0    0  0.00000000000E+00  0.00000000000E+00  0.18556119680E+04  0.40492947269E+04  0.35990959989E+04 0.  0.
        4    1    3    3  502    0 -0.49558990042E+03 -0.98408590094E+03  0.25285701783E+04  0.27582065132E+04  0.12699999809E+01 0. -1.
       -4    1    3    3    0  502  0.49558990042E+03  0.98408590094E+03 -0.67295821032E+03  0.12910882137E+04  0.12699999809E+01 0.  1.
</event>
<event>
 5   0  0.7347303E-08  0.3602536E+04  0.7818609E-02  0.8089911E-01
        1   -1    0    0  501    0  0.00000000000E+00  0.00000000000E+00  0.19286659647E+04  0.19286659647E+04  0.50400001928E-02 0.  1.
       -1   -1    0    0    0  501  0.00000000000E+00  0.00000000000E+00 -0.16822854015E+04  0.16822854015E+04  0.50400001928E-02 0. -1.
    10030    2    1    2    0    0  0.00000000000E+00  0.00000000000E+00  0.24638056320E+03  0.36109513662E+04  0.36025361049E+04 0.  0.
        2    1    3    3  502    0  0.13161130742E+04  0.11271658294E+04  0.61618283210E+03  0.18391132955E+04  0.25500000920E-02 0.  1.
       -2    1    3    3    0  502 -0.13161130742E+04 -0.11271658294E+04 -0.36980226890E+03  0.17718380708E+04  0.25500000920E-02 0. -1.
</event>
<event>
 5   0  0.2238968E-07  0.3586927E+04  0.7818609E-02  0.8093493E-01
        2   -1    0    0  501    0  0.00000000000E+00  0.00000000000E+00  0.21050302400E+04  0.21050302400E+04  0.25500000920E-02 0.  1.
       -2   -1    0    0    0  501  0.00000000000E+00  0.00000000000E+00 -0.15280121764E+04  0.15280121765E+04  0.25500000920E-02 0. -1.
    10030    2    1    2    0    0  0.00000000000E+00  0.00000000000E+00  0.57701806354E+03  0.36330424164E+04  0.35869272859E+04 0.  0.
        3    1    3    3  502    0 -0.11950580714E+03  0.14194521428E+03 -0.15182638427E+04  0.15295604558E+04  0.10100000352E+00 0. -1.
       -3    1    3    3    0  502  0.11950580714E+03 -0.14194521428E+03  0.20952819062E+04  0.21034819606E+04  0.10100000352E+00 0.  1.
</event>
<event>
 5   0  0.2309391E-07  0.3605912E+04  0.7818609E-02  0.8089139E-01
        2   -1    0    0  501    0  0.00000000000E+00  0.00000000000E+00  0.19385755225E+04  0.19385755225E+04  0.25500000920E-02 0. -1.
       -2   -1    0    0    0  501  0.00000000000E+00  0.00000000000E+00 -0.16768245961E+04  0.16768245961E+04  0.25500000920E-02 0.  1.
    10030    2    1    2    0    0  0.00000000000E+00  0.00000000000E+00  0.26175092640E+03  0.36154001186E+04  0.36059124324E+04 0.  0.
        4    1    3    3  502    0 -0.13169813678E+04  0.36381254193E+03 -0.10485912901E+04  0.17223079851E+04  0.12699999809E+01 0.  1.
       -4    1    3    3    0  502  0.13169813678E+04 -0.36381254193E+03  0.13103422165E+04  0.18930921335E+04  0.12699999809E+01 0. -1.
</event>
<event>
 5   0  0.2309391E-07  0.3586624E+04  0.7818609E-02  0.8093562E-01
       -2   -1    0    0    0  501  0.00000000000E+00  0.00000000000E+00  0.10803059630E+04  0.10803059630E+04  0.25500000920E-02 0.  1.
        2   -1    0    0  501    0  0.00000000000E+00  0.00000000000E+00 -0.29769055480E+04  0.29769055480E+04  0.25500000920E-02 0. -1.
    10030    2    1    2    0    0  0.00000000000E+00  0.00000000000E+00 -0.18965995850E+04  0.40572115111E+04  0.35866244938E+04 0.  0.
        4    1    3    3  502    0 -0.17047502117E+04  0.54299765252E+03 -0.10866008626E+04  0.20932565018E+04  0.12699999809E+01 0.  1.
       -4    1    3    3    0  502  0.17047502117E+04 -0.54299765252E+03 -0.80999872239E+03  0.19639550092E+04  0.12699999809E+01 0. -1.
</event>
<event>
 5   0  0.7261233E-08  0.3600651E+04  0.7818609E-02  0.8090343E-01
       -1   -1    0    0    0  501  0.00000000000E+00  0.00000000000E+00  0.12411558577E+04  0.12411558577E+04  0.50400001928E-02 0.  1.
        1   -1    0    0  501    0  0.00000000000E+00  0.00000000000E+00 -0.26114138659E+04  0.26114138660E+04  0.50400001928E-02 0. -1.
    10030    2    1    2    0    0  0.00000000000E+00  0.00000000000E+00 -0.13702580083E+04  0.38525697236E+04  0.36006508392E+04 0.  0.
        3    1    3    3  502    0 -0.42778345928E+02  0.10293846583E+04 -0.22648076280E+04  0.24881351177E+04  0.10100000352E+00 0. -1.
       -3    1    3    3    0  502  0.42778345928E+02 -0.10293846583E+04  0.89454961975E+03  0.13644346060E+04  0.10100000352E+00 0.  1.
</event>
<event>
 5   0  0.7236375E-08  0.3591562E+04  0.7818609E-02  0.8092427E-01
        1   -1    0    0  501    0  0.00000000000E+00  0.00000000000E+00  0.29548865991E+04  0.29548865991E+04  0.50400001928E-02 0.  1.
       -1   -1    0    0    0  501  0.00000000000E+00  0.00000000000E+00 -0.10913545230E+04  0.10913545230E+04  0.50400001928E-02 0. -1.
    10030    2    1    2    0    0  0.00000000000E+00  0.00000000000E+00  0.18635320761E+04  0.40462411221E+04  0.35915616965E+04 0.  0.
        1    1    3    3  502    0 -0.48440576141E+03 -0.38243791656E+03 -0.96811848145E+03  0.11481119701E+04  0.50400001928E-02 0. -1.
       -1    1    3    3    0  502  0.48440576141E+03  0.38243791656E+03  0.28316505576E+04  0.28981291520E+04  0.50400001928E-02 0.  1.
</event>
<event>
 5   0  0.7514289E-08  0.3611367E+04  0.7818609E-02  0.8087893E-01
        1   -1    0    0  501    0  0.00000000000E+00  0.00000000000E+00  0.13130129285E+04  0.13130129285E+04  0.50400001928E-02 0. -1.
       -1   -1    0    0    0  501  0.00000000000E+00  0.00000000000E+00 -0.24832144986E+04  0.24832144986E+04  0.50400001928E-02 0.  1.
    10030    2    1    2    0    0  0.00000000000E+00  0.00000000000E+00 -0.11702015701E+04  0.37962274272E+04  0.36113669107E+04 0.  0.
        4    1    3    3  502    0 -0.13861814742E+04 -0.54156103468E+03 -0.16600425309E+04  0.22294686028E+04  0.12699999809E+01 0.  1.
       -4    1    3    3    0  502  0.13861814742E+04  0.54156103468E+03  0.48984096074E+03  0.15667588243E+04  0.12699999809E+01 0. -1.
</event>
<event>
 5   0  0.2199902E-07  0.3597267E+04  0.7818609E-02  0.8091118E-01
       -2   -1    0    0    0  501  0.00000000000E+00  0.00000000000E+00  0.13080480537E+04  0.13080480537E+04  0.25500000920E-02 0. -1.
        2   -1    0    0  501    0  0.00000000000E+00  0.00000000000E+00 -0.24732138186E+04  0.24732138186E+04  0.25500000920E-02 0.  1.
    10030    2    1    2    0    0  0.00000000000E+00  0.00000000000E+00 -0.11651657650E+04  0.37812618723E+04  0.35972670303E+04 0.  0.
        1    1    3    3  502    0 -0.25454239332E+03 -0.79856898938E+03  0.10902228790E+04  0.13751691484E+04  0.50400001928E-02 0. -1.
       -1    1    3    3    0  502  0.25454239332E+03  0.79856898938E+03 -0.22553886440E+04  0.24060927239E+04  0.50400001928E-02 0.  1.
</event>
<event>
 5   0  0.2309391E-07  0.3594209E+04  0.7818609E-02  0.8091819E-01
        2   -1    0    0  501    0  0.00000000000E+00  0.00000000000E+00  0.21505841788E+04  0.21505841788E+04  0.25500000920E-02 0. -1.
       -2   -1    0    0    0  501  0.00000000000E+00  0.00000000000E+00 -0.15017247054E+04  0.15017247054E+04  0.25500000920E-02 0.  1.
    10030    2    1    2    0    0  0.00000000000E+00  0.00000000000E+00  0.64885947341E+03  0.36523088842E+04  0.35942094498E+04 0.  0.
        4    1    3    3  502    0  0.52450058759E+02 -0.13956549797E+02  0.21497506897E+04  0.21504361033E+04  0.12699999809E+01 0. -1.
       -4    1    3    3    0  502 -0.52450058759E+02  0.13956549797E+02 -0.15008912162E+04  0.15018727808E+04  0.12699999809E+01 0.  1.
</event>
<event>
 5   0  0.7236375E-08  0.3599429E+04  0.7818609E-02  0.8090623E-01
       -1   -1    0    0    0  501  0.00000000000E+00  0.00000000000E+00  0.17637746466E+04  0.17637746466E+04  0.50400001928E-02 0.  1.
        1   -1    0    0  501    0  0.00000000000E+00  0.00000000000E+00 -0.18363861837E+04  0.18363861837E+04  0.50400001928E-02 0. -1.
    10030    2    1    2    0    0  0.00000000000E+00  0.00000000000E+00 -0.72611537051E+02  0.36001608303E+04  0.35994285058E+04 0.  0.
        5    1    3    3  502    0  0.12900584470E+04  0.10145919017E+04 -0.77490152442E+03  0.18149771310E+04  0.46999998093E+01 0. -1.
       -5    1    3    3    0  502 -0.12900584470E+04 -0.10145919017E+04  0.70228998737E+03  0.17851836992E+04  0.46999998093E+01 0.  1.
</event>
<event>
 5   0  0.2199902E-07  0.3602519E+04  0.7818609E-02  0.8089915E-01
       -2   -1    0    0    0  501  0.00000000000E+00  0.00000000000E+00  0.10615614999E+04  0.10615614999E+04  0.25500000920E-02 0.  1.
        2   -1    0    0  501    0  0.00000000000E+00  0.00000000000E+00 -0.30563812593E+04  0.30563812593E+04  0.25500000920E-02 0. -1.
    10030    2    1    2    0    0  0.00000000000E+00  0.00000000000E+00 -0.19948197594E+04  0.41179427592E+04  0.36025194927E+04 0.  0.
        1    1    3    3  502    0 -0.78078854802E+03  0.11130583020E+04 -0.23479820138E+04  0.27132174770E+04  0.50400001928E-02 0. -1.
       -1    1    3    3    0  502  0.78078854802E+03 -0.11130583020E+04  0.35316225437E+03  0.14047252822E+04  0.50400001928E-02 0.  1.
</event>
<event>
 5   0  0.7261233E-08  0.3603427E+04  0.7818609E-02  0.8089707E-01
        1   -1    0    0  501    0  0.00000000000E+00  0.00000000000E+00  0.19396034690E+04  0.19396034690E+04  0.50400001928E-02 0.  1.
       -1   -1    0    0    0  501  0.00000000000E+00  0.00000000000E+00 -0.16736261699E+04  0.16736261699E+04  0.50400001928E-02 0. -1.
    10030    2    1    2    0    0  0.00000000000E+00  0.00000000000E+00  0.26597729909E+03  0.36132296389E+04  0.36034267718E+04 0.  0.
        3    1    3    3  502    0  0.17799604647E+04  0.23278724727E+03 -0.21449686727E+02  0.17952462944E+04  0.10100000352E+00 0. -1.
       -3    1    3    3    0  502 -0.17799604647E+04 -0.23278724727E+03  0.28742698582E+03  0.18179833445E+04  0.10100000352E+00 0.  1.
</event>
<event>
 5   0  0.7236375E-08  0.3601878E+04  0.7818609E-02  0.8090062E-01
        3   -1    0    0  501    0  0.00000000000E+00  0.00000000000E+00  0.10884132887E+04  0.10884132934E+04  0.10100000352E+00 0.  1.
       -3   -1    0    0    0  501  0.00000000000E+00  0.00000000000E+00 -0.29799169246E+04  0.29799169263E+04  0.10100000352E+00 0. -1.
    10030    2    1    2    0    0  0.00000000000E+00  0.00000000000E+00 -0.18915036358E+04  0.40683302197E+04  0.36018779508E+04 0.  0.
        4    1    3    3  502    0 -0.35745490598E+02  0.39447886441E+03  0.10386038639E+04  0.11115713713E+04  0.12699999809E+01 0.  1.
       -4    1    3    3    0  502  0.35745490598E+02 -0.39447886441E+03 -0.29301074997E+04  0.29567588484E+04  0.12699999809E+01 0. -1.
</event>
<event>
 5   0  0.7236375E-08  0.3600192E+04  0.7818609E-02  0.8090448E-01
        1   -1    0    0  501    0  0.00000000000E+00  0.00000000000E+00  0.26941175454E+04  0.26941175454E+04  0.50400001928E-02 0. -1.
       -1   -1    0    0    0  501  0.00000000000E+00  0.00000000000E+00 -0.12027481834E+04  0.12027481834E+04  0.50400001928E-02 0.  1.
    10030    2    1    2    0    0  0.00000000000E+00  0.00000000000E+00  0.14913693620E+04  0.38968657288E+04  0.36001916525E+04 0.  0.
        5    1    3    3  502    0  0.82905296212E+03 -0.15082861061E+04  0.17491009647E+03  0.17299917409E+04  0.46999998093E+01 0.  1.
       -5    1    3    3    0  502 -0.82905296212E+03  0.15082861061E+04  0.13164592655E+04  0.21668739879E+04  0.46999998093E+01 0. -1.
</event>
<event>
 5   0  0.2342606E-07  0.3606149E+04  0.7818609E-02  0.8089085E-01
       -2   -1    0    0    0  501  0.00000000000E+00  0.00000000000E+00  0.15840736073E+04  0.15840736073E+04  0.25500000920E-02 0. -1.
        2   -1    0    0  501    0  0.00000000000E+00  0.00000000000E+00 -0.20523524452E+04  0.20523524452E+04  0.25500000920E-02 0.  1.
    10030    2    1    2    0    0  0.00000000000E+00  0.00000000000E+00 -0.46827883784E+03  0.36364260525E+04  0.36061488274E+04 0.  0.
        5    1    3    3  502    0 -0.20358992022E+03 -0.16793466308E+04  0.39512011865E+03  0.17371804628E+04  0.46999998093E+01 0. -1.
       -5    1    3    3    0  502  0.20358992022E+03  0.16793466308E+04 -0.86339895649E+03  0.18992455897E+04  0.46999998093E+01 0.  1.
</event>
<event>
 5   0  0.2342606E-07  0.3600716E+04  0.7818609E-02  0.8090328E-01
       -2   -1    0    0    0  501  0.00000000000E+00  0.00000000000E+00  0.16436235377E+04  0.16436235377E+04  0.25500000920E-02 0.  1.
        2   -1    0    0  501    0  0.00000000000E+00  0.00000000000E+00 -0.19720385318E+04  0.19720385318E+04  0.25500000920E-02 0. -1.
    10030    2    1    2    0    0  0.00000000000E+00  0.00000000000E+00 -0.32841499412E+03  0.36156620695E+04  0.36007160111E+04 0.  0.
        5    1    3    3  502    0  0.10406724146E+04 -0.79277297078E+03  0.10777687286E+04  0.16950208199E+04  0.46999998093E+01 0.  1.
       -5    1    3    3    0  502 -0.10406724146E+04  0.79277297078E+03 -0.14061837227E+04  0.19206412496E+04  0.46999998093E+01 0. -1.
</event>
<event>
 5   0  0.2198900E-07  0.3679088E+04  0.7818609E-02  0.8072612E-01
        2   -1    0    0  501    0  0.00000000000E+00  0.00000000000E+00  0.15445281884E+04  0.15445281884E+04  0.25500000920E-02 0.  1.
       -2   -1    0    0    0  501  0.00000000000E+00  0.00000000000E+00 -0.21909093904E+04  0.21909093904E+04  0.25500000920E-02 0. -1.
    10030    2    1    2    0    0  0.00000000000E+00  0.00000000000E+00 -0.64638120204E+03  0.37354375788E+04  0.36790875563E+04 0.  0.
        2    1    3    3  502    0 -0.21076615691E+03  0.17136793404E+04  0.32119703635E+03  0.17562137657E+04  0.25500000920E-02 0.  1.
       -2    1    3    3    0  502  0.21076615691E+03 -0.17136793404E+04 -0.96757823839E+03  0.19792238131E+04  0.25500000920E-02 0. -1.
</event>
<event>
 5   0  0.7236375E-08  0.3498846E+04  0.7818609E-02  0.8114063E-01
        1   -1    0    0  501    0  0.00000000000E+00  0.00000000000E+00  0.13610272167E+04  0.13610272167E+04  0.50400001928E-02 0.  1.
       -1   -1    0    0    0  501  0.00000000000E+00  0.00000000000E+00 -0.22486556261E+04  0.22486556261E+04  0.50400001928E-02 0. -1.
    10030    2    1    2    0    0  0.00000000000E+00  0.00000000000E+00 -0.88762840939E+03  0.36096828428E+04  0.34988463859E+04 0.  0.
        1    1    3    3  502    0 -0.48482912230E+03 -0.14730166089E+03 -0.21712894561E+04  0.22296311263E+04  0.50400001928E-02 0. -1.
       -1    1    3    3    0  502  0.48482912230E+03  0.14730166089E+03  0.12836610467E+04  0.13800517165E+04  0.50400001928E-02 0.  1.
</event>
<event>
 5   0  0.2342606E-07  0.3597494E+04  0.7818609E-02  0.8091066E-01
       -2   -1    0    0    0  501  0.00000000000E+00  0.00000000000E+00  0.18461811867E+04  0.18461811867E+04  0.25500000920E-02 0.  1.
        2   -1    0    0  501    0  0.00000000000E+00  0.00000000000E+00 -0.17525319829E+04  0.17525319830E+04  0.25500000920E-02 0. -1.
    10030    2    1    2    0    0  0.00000000000E+00  0.00000000000E+00  0.93649203795E+02  0.35987131697E+04  0.35974944481E+04 0.  0.
        5    1    3    3  502    0  0.20617304400E+03  0.32963383884E+03  0.18036381334E+04  0.18450740902E+04  0.46999998093E+01 0.  1.
       -5    1    3    3    0  502 -0.20617304400E+03 -0.32963383884E+03 -0.17099889296E+04  0.17536390795E+04  0.46999998093E+01 0. -1.
</event>
<event>
 5   0  0.7236375E-08  0.3602407E+04  0.7818609E-02  0.8089940E-01
       -1   -1    0    0    0  501  0.00000000000E+00  0.00000000000E+00  0.15276325265E+04  0.15276325265E+04  0.50400001928E-02 0. -1.
        1   -1    0    0  501    0  0.00000000000E+00  0.00000000000E+00 -0.21237663732E+04  0.21237663733E+04  0.50400001928E-02 0.  1.
    10030    2    1    2    0    0  0.00000000000E+00  0.00000000000E+00 -0.59613384675E+03  0.36513988998E+04  0.36024073009E+04 0.  0.
        5    1    3    3  502    0  0.11459004297E+04  0.13692346367E+04 -0.53882878074E+03  0.18650066568E+04  0.46999998093E+01 0.  1.
       -5    1    3    3    0  502 -0.11459004297E+04 -0.13692346367E+04 -0.57305066008E+02  0.17863922429E+04  0.46999998093E+01 0. -1.
</event>
<event>
 5   0  0.2238968E-07  0.3592378E+04  0.7818609E-02  0.8092240E-01
       -2   -1    0    0    0  501  0.00000000000E+00  0.00000000000E+00  0.17635616475E+04  0.17635616475E+04  0.25500000920E-02 0.  1.
        2   -1    0    0  501    0  0.00000000000E+00  0.00000000000E+00 -0.18294204832E+04  0.18294204832E+04  0.25500000920E-02 0. -1.
    10030    2    1    2    0    0  0.00000000000E+00  0.00000000000E+00 -0.65858835783E+02  0.35929821307E+04  0.35923784886E+04 0.  0.
        3    1    3    3  502    0  0.26784374326E+03  0.85827548859E+03 -0.15881565267E+04  0.18249981503E+04  0.10100000352E+00 0. -1.
       -3    1    3    3    0  502 -0.26784374326E+03 -0.85827548859E+03  0.15222976909E+04  0.17679839804E+04  0.10100000352E+00 0.  1.
</event>
<event>
 5   0  0.2342606E-07  0.3603020E+04  0.7818609E-02  0.8089800E-01
       -2   -1    0    0    0  501  0.00000000000E+00  0.00000000000E+00  0.20371573279E+04  0.20371573279E+04  0.25500000920E-02 0.  1.
        2   -1    0    0  501    0  0.00000000000E+00  0.00000000000E+00 -0.15931207293E+04  0.15931207293E+04  0.25500000920E-02 0. -1.
    10030    2    1    2    0    0  0.00000000000E+00  0.00000000000E+00  0.44403659865E+03  0.36302780572E+04  0.36030196047E+04 0.  0.
        5    1    3    3  502    0 -0.15292050357E+04  0.68286564704E+03  0.89084897418E+03  0.18969468938E+04  0.46999998093E+01 0. -1.
       -5    1    3    3    0  502  0.15292050357E+04 -0.68286564704E+03 -0.44681237552E+03  0.17333311634E+04  0.46999998093E+01 0.  1.
</event>
<event>
 5   0  0.7514289E-08  0.3594675E+04  0.7818609E-02  0.8091713E-01
       -1   -1    0    0    0  501  0.00000000000E+00  0.00000000000E+00  0.26762646573E+04  0.26762646573E+04  0.50400001928E-02 0. -1.
        1   -1    0    0  501    0  0.00000000000E+00  0.00000000000E+00 -0.12070638017E+04  0.12070638017E+04  0.50400001928E-02 0.  1.
    10030    2    1    2    0    0  0.00000000000E+00  0.00000000000E+00  0.14692008556E+04  0.38833284590E+04  0.35946750572E+04 0.  0.
        4    1    3    3  502    0 -0.16545589786E+04  0.68145899358E+03  0.55232458794E+03  0.18727028159E+04  0.12699999809E+01 0. -1.
       -4    1    3    3    0  502  0.16545589786E+04 -0.68145899358E+03  0.91687626768E+03  0.20106256431E+04  0.12699999809E+01 0.  1.
</event>
<event>
 5   0  0.2238968E-07  0.3611510E+04  0.7818609E-02  0.8087860E-01
       -2   -1    0    0    0  501  0.00000000000E+00  0.00000000000E+00  0.14965135605E+04  0.14965135605E+04  0.25500000920E-02 0. -1.
        2   -1    0    0  501    0  0.00000000000E+00  0.00000000000E+00 -0.21788983476E+04  0.21788983476E+04  0.25500000920E-02 0.  1.
    10030    2    1    2    0    0  0.00000000000E+00  0.00000000000E+00 -0.68238478714E+03  0.36754119081E+04  0.36115098915E+04 0.  0.
        3    1    3    3  502    0  0.70031476368E+03 -0.78780680037E+01 -0.20350486041E+04  0.21521908985E+04  0.10100000352E+00 0.  1.
       -3    1    3    3    0  502 -0.70031476368E+03  0.78780680037E+01  0.13526638170E+04  0.15232210096E+04  0.10100000352E+00 0. -1.
</event>
<event>
 5   0  0.2198900E-07  0.3604938E+04  0.7818609E-02  0.8089361E-01
       -2   -1    0    0    0  501  0.00000000000E+00  0.00000000000E+00  0.11818001290E+04  0.11818001290E+04  0.25500000920E-02 0.  1.
        2   -1    0    0  501    0  0.00000000000E+00  0.00000000000E+00 -0.27491072816E+04  0.27491072816E+04  0.25500000920E-02 0. -1.
    10030    2    1    2    0    0  0.00000000000E+00  0.00000000000E+00 -0.15673071526E+04  0.39309074106E+04  0.36049384682E+04 0.  0.
        2    1    3    3  502    0  0.10717867391E+04  0.92044954814E+03  0.43690969032E+03  0.14787982494E+04  0.25500000920E-02 0.  1.
       -2    1    3    3    0  502 -0.10717867391E+04 -0.92044954814E+03 -0.20042168430E+04  0.24521091612E+04  0.25500000920E-02 0. -1.
</event>
<event>
 5   0  0.2309391E-07  0.3586232E+04  0.7818609E-02  0.8093653E-01
       -2   -1    0    0    0  501  0.00000000000E+00  0.00000000000E+00  0.20230823322E+04  0.20230823322E+04  0.25500000920E-02 0. -1.
        2   -1    0    0  501    0  0.00000000000E+00  0.00000000000E+00 -0.15892903001E+04  0.15892903001E+04  0.25500000920E-02 0.  1.
    10030    2    1    2    0    0  0.00000000000E+00  0.00000000000E+00  0.43379203216E+03  0.36123726323E+04  0.35862320767E+04 0.  0.
        4    1    3    3  502    0 -0.97918517588E+03  0.13936352419E+04  0.78155388114E+03  0.18739932973E+04  0.12699999809E+01 0. -1.
       -4    1    3    3    0  502  0.97918517588E+03 -0.13936352419E+04 -0.34776184898E+03  0.17383793351E+04  0.12699999809E+01 0.  1.
</event>
<event>
 5   0  0.2238968E-07  0.3604663E+04  0.7818609E-02  0.8089424E-01
       -2   -1    0    0    0  501  0.00000000000E+00  0.00000000000E+00  0.15115002919E+04  0.15115002919E+04  0.25500000920E-02 0. -1.
        2   -1    0    0  501    0  0.00000000000E+00  0.00000000000E+00 -0.21491219632E+04  0.21491219632E+04  0.25500000920E-02 0.  1.
    10030    2    1    2    0    0  0.00000000000E+00  0.00000000000E+00 -0.63762167132E+03  0.36606222551E+04  0.36046627996E+04 0.  0.
        3    1    3    3  502    0  0.11239050248E+04  0.78007936618E+03  0.87273798864E+03  0.16227624378E+04  0.10100000352E+00 0.  1.
       -3    1    3    3    0  502 -0.11239050248E+04 -0.78007936618E+03 -0.15103596600E+04  0.20378598173E+04  0.10100000352E+00 0. -1.
</event>
<event>
 5   0  0.2199902E-07  0.3601465E+04  0.7818609E-02  0.8090156E-01
        2   -1    0    0  501    0  0.00000000000E+00  0.00000000000E+00  0.18033014725E+04  0.18033014725E+04  0.25500000920E-02 0. -1.
       -2   -1    0    0    0  501  0.00000000000E+00  0.00000000000E+00 -0.17981669133E+04  0.17981669133E+04  0.25500000920E-02 0.  1.
    10030    2    1    2    0    0  0.00000000000E+00  0.00000000000E+00  0.51345592268E+01  0.36014683858E+04  0.36014647256E+04 0.  0.
        1    1    3    3  502    0  0.10000003914E+03 -0.11546227328E+04 -0.13756515856E+04  0.17987692870E+04  0.50400001928E-02 0.  1.
       -1    1    3    3    0  502 -0.10000003914E+03  0.11546227328E+04  0.13807861449E+04  0.18026990988E+04  0.50400001928E-02 0. -1.
</event>
<event>
 5   0  0.2199902E-07  0.3466186E+04  0.7818609E-02  0.8121851E-01
        2   -1    0    0  501    0  0.00000000000E+00  0.00000000000E+00  0.19112991621E+04  0.19112991621E+04  0.25500000920E-02 0. -1.
       -2   -1    0    0    0  501  0.00000000000E+00  0.00000000000E+00 -0.15715021313E+04  0.15715021313E+04  0.25500000920E-02 0.  1.
    10030    2    1    2    0    0  0.00000000000E+00  0.00000000000E+00  0.33979703071E+03  0.34828012934E+04  0.34661856308E+04 0.  0.
        1    1    3    3  502    0  0.16568511401E+04  0.31805635188E+03  0.56840423941E+03  0.17802805742E+04  0.50400001928E-02 0. -1.
       -1    1    3    3    0  502 -0.16568511401E+04 -0.31805635188E+03 -0.22860720870E+03  0.17025207192E+04  0.50400001928E-02 0.  1.
</event>
<event>
 5   0  0.7236375E-08  0.3599491E+04  0.7818609E-02  0.8090608E-01
        1   -1    0    0  501    0  0.00000000000E+00  0.00000000000E+00  0.22106740315E+04  0.22106740315E+04  0.50400001928E-02 0. -1.
       -1   -1    0    0    0  501  0.00000000000E+00  0.00000000000E+00 -0.14652022236E+04  0.14652022237E+04  0.50400001928E-02 0.  1.
    10030    2    1    2    0    0  0.00000000000E+00  0.00000000000E+00  0.74547180784E+03  0.36758762551E+04  0.35994913567E+04 0.  0.
        1    1    3    3  502    0 -0.95422864006E+03  0.14593241653E+04  0.82818810497E+03  0.19303043424E+04  0.50400001928E-02 0.  1.
       -1    1    3    3    0  502  0.95422864006E+03 -0.14593241653E+04 -0.82716297131E+02  0.17455719128E+04  0.50400001928E-02 0. -1.
</event>
<event>
 5   0  0.7347303E-08  0.3607253E+04  0.7818609E-02  0.8088832E-01
       -1   -1    0    0    0  501  0.00000000000E+00  0.00000000000E+00  0.14282630409E+04  0.14282630410E+04  0.50400001928E-02 0. -1.
        1   -1    0    0  501    0  0.00000000000E+00  0.00000000000E+00 -0.22776397216E+04  0.22776397217E+04  0.50400001928E-02 0.  1.
    10030    2    1    2    0    0  0.00000000000E+00  0.00000000000E+00 -0.84937668070E+03  0.37059027626E+04  0.36072530463E+04 0.  0.
        2    1    3    3  502    0  0.35006573361E+03 -0.12049403742E+04 -0.17557444541E+04  0.21580236123E+04  0.25500000920E-02 0.  1.
       -2    1    3    3    0  502 -0.35006573361E+03  0.12049403742E+04  0.90636777339E+03  0.15478791503E+04  0.25500000920E-02 0. -1.
</event>
<event>
 5   0  0.2199902E-07  0.3600708E+04  0.7818609E-02  0.8090330E-01
       -2   -1    0    0    0  501  0.00000000000E+00  0.00000000000E+00  0.27226785593E+04  0.27226785593E+04  0.25500000920E-02 0. -1.
        2   -1    0    0  501    0  0.00000000000E+00  0.00000000000E+00 -0.11904727128E+04  0.11904727128E+04  0.25500000920E-02 0.  1.
    10030    2    1    2    0    0  0.00000000000E+00  0.00000000000E+00  0.15322058465E+04  0.39131512721E+04  0.36007080029E+04 0.  0.
        1    1    3    3  502    0  0.11174539872E+04  0.45302055876E+03  0.22190264104E+04  0.25254720846E+04  0.50400001928E-02 0. -1.
       -1    1    3    3    0  502 -0.11174539872E+04 -0.45302055876E+03 -0.68682056388E+03  0.13876791874E+04  0.50400001928E-02 0.  1.
</event>
<event>
 5   0  0.7236375E-08  0.3583285E+04  0.7818609E-02  0.8094331E-01
       -1   -1    0    0    0  501  0.00000000000E+00  0.00000000000E+00  0.24553715138E+04  0.24553715138E+04  0.50400001928E-02 0. -1.
        1   -1    0    0  501    0  0.00000000000E+00  0.00000000000E+00 -0.13073306143E+04  0.13073306143E+04  0.50400001928E-02 0.  1.
    10030    2    1    2    0    0  0.00000000000E+00  0.00000000000E+00  0.11480408995E+04  0.37627021281E+04  0.35832847219E+04 0.  0.
        5    1    3    3  502    0  0.78116149498E+03  0.21474169447E+03  0.22520428759E+04  0.23933337589E+04  0.46999998093E+01 0. -1.
       -5    1    3    3    0  502 -0.78116149498E+03 -0.21474169447E+03 -0.11040019764E+04  0.13693683692E+04  0.46999998093E+01 0.  1.
</event>
<event>
 5   0  0.2342606E-07  0.3499988E+04  0.7818609E-02  0.8113793E-01
        2   -1    0    0  501    0  0.00000000000E+00  0.00000000000E+00  0.18116100097E+04  0.18116100097E+04  0.25500000920E-02 0. -1.
       -2   -1    0    0    0  501  0.00000000000E+00  0.00000000000E+00 -0.16904739589E+04  0.16904739589E+04  0.25500000920E-02 0.  1.
    10030    2    1    2    0    0  0.00000000000E+00  0.00000000000E+00  0.12113605081E+03  0.35020839687E+04  0.34999883115E+04 0.  0.
        5    1    3    3  502    0  0.13114595923E+04  0.76204984249E+03  0.93390861737E+03  0.17812505776E+04  0.46999998093E+01 0. -1.
       -5    1    3    3    0  502 -0.13114595923E+04 -0.76204984249E+03 -0.81277256656E+03  0.17208333910E+04  0.46999998093E+01 0.  1.
</event>
<event>
 5   0  0.7261233E-08  0.3605135E+04  0.7818609E-02  0.8089316E-01
        1   -1    0    0  501    0  0.00000000000E+00  0.00000000000E+00  0.14438087076E+04  0.14438087076E+04  0.50400001928E-02 0. -1.
       -1   -1    0    0    0  501  0.00000000000E+00  0.00000000000E+00 -0.22504715269E+04  0.22504715269E+04  0.50400001928E-02 0.  1.
    10030    2    1    2    0    0  0.00000000000E+00  0.00000000000E+00 -0.80666281931E+03  0.36942802345E+04  0.36051354409E+04 0.  0.
        3    1    3    3  502    0  0.47835337995E+02 -0.79623983580E+03 -0.20597686564E+04  0.22088306915E+04  0.10100000352E+00 0.  1.
       -3    1    3    3    0  502 -0.47835337995E+02  0.79623983580E+03  0.12531058371E+04  0.14854495430E+04  0.10100000352E+00 0. -1.
</event>
<event>
 5   0  0.2198900E-07  0.3607475E+04  0.7818609E-02  0.8088782E-01
        2   -1    0    0  501    0  0.00000000000E+00  0.00000000000E+00  0.16302801145E+04  0.16302801145E+04  0.25500000920E-02 0. -1.
       -2   -1    0    0    0  501  0.00000000000E+00  0.00000000000E+00 -0.19956507315E+04  0.19956507315E+04  0.25500000920E-02 0.  1.
    10030    2    1    2    0    0  0.00000000000E+00  0.00000000000E+00 -0.36537061703E+03  0.36259308459E+04  0.36074754070E+04 0.  0.
        2    1    3    3  502    0 -0.15635894568E+04 -0.80123488813E+03 -0.59303901714E+03  0.18543151326E+04  0.25500000920E-02 0.  1.
       -2    1    3    3    0  502  0.15635894568E+04  0.80123488813E+03  0.22766840011E+03  0.17716157133E+04  0.25500000920E-02 0. -1.
</event>
<event>
 5   0  0.7514289E-08  0.3592602E+04  0.7818609E-02  0.8092188E-01
        1   -1    0    0  501    0  0.00000000000E+00  0.00000000000E+00  0.24026312819E+04  0.24026312819E+04  0.50400001928E-02 0. -1.
       -1   -1    0    0    0  501  0.00000000000E+00  0.00000000000E+00 -0.13429845291E+04  0.13429845291E+04  0.50400001928E-02 0.  1.
    10030    2    1    2    0    0  0.00000000000E+00  0.00000000000E+00  0.10596467528E+04  0.37456158110E+04  0.35926016426E+04 0.  0.
        4    1    3    3  502    0  0.34999659817E+03  0.16486499766E+04 -0.11805361729E+03  0.16895214214E+04  0.12699999809E+01 0.  1.
       -4    1    3    3    0  502 -0.34999659817E+03 -0.16486499766E+04  0.11777003701E+04  0.20560943895E+04  0.12699999809E+01 0. -1.
</event>
<event>
 5   0  0.7236375E-08  0.3605355E+04  0.7818609E-02  0.8089266E-01
        1   -1    0    0  501    0  0.00000000000E+00  0.00000000000E+00  0.20053910900E+04  0.20053910900E+04  0.50400001928E-02 0.  1.
       -1   -1    0    0    0  501  0.00000000000E+00  0.00000000000E+00 -0.16204548813E+04  0.16204548813E+04  0.50400001928E-02 0. -1.
    10030    2    1    2    0    0  0.00000000000E+00  0.00000000000E+00  0.38493620872E+03  0.36258459713E+04  0.36053547846E+04 0.  0.
        5    1    3    3  502    0 -0.16988102863E+04  0.22680240635E+03  0.75441754878E+03  0.18725820805E+04  0.46999998093E+01 0. -1.
       -5    1    3    3    0  502  0.16988102863E+04 -0.22680240635E+03 -0.36948134006E+03  0.17532638908E+04  0.46999998093E+01 0.  1.
</event>
<event>
 5   0  0.7236375E-08  0.3586353E+04  0.7818609E-02  0.8093625E-01
        1   -1    0    0  501    0  0.00000000000E+00  0.00000000000E+00  0.23573911563E+04  0.23573911563E+04  0.50400001928E-02 0.  1.
       -1   -1    0    0    0  501  0.00000000000E+00  0.00000000000E+00 -0.13640000590E+04  0.13640000590E+04  0.50400001928E-02 0. -1.
    10030    2    1    2    0    0  0.00000000000E+00  0.00000000000E+00  0.99339109730E+03  0.37213912153E+04  0.35863528417E+04 0.  0.
        1    1    3    3  502    0 -0.12344952412E+04  0.99768327125E+03  0.13624562790E+04  0.20918024578E+04  0.50400001928E-02 0.  1.
       -1    1    3    3    0  502  0.12344952412E+04 -0.99768327125E+03 -0.36906518165E+03  0.16295887575E+04  0.50400001928E-02 0. -1.
</event>
<event>
 5   0  0.7347303E-08  0.3615396E+04  0.7818609E-02  0.8086974E-01
       -1   -1    0    0    0  501  0.00000000000E+00  0.00000000000E+00  0.18494763221E+04  0.18494763221E+04  0.50400001928E-02 0.  1.
        1   -1    0    0  501    0  0.00000000000E+00  0.00000000000E+00 -0.17668637056E+04  0.17668637057E+04  0.50400001928E-02 0. -1.
    10030    2    1    2    0    0  0.00000000000E+00  0.00000000000E+00  0.82612616491E+02  0.36163400278E+04  0.36153962926E+04 0.  0.
        2    1    3    3  502    0 -0.14218453363E+03 -0.87757396865E+03 -0.15330867869E+04  0.17722041667E+04  0.25500000920E-02 0. -1.
       -2    1    3    3    0  502  0.14218453363E+03  0.87757396865E+03  0.16156994034E+04  0.18441358611E+04  0.25500000920E-02 0.  1.
</event>
<event>
 5   0  0.2238968E-07  0.3565897E+04  0.7818609E-02  0.8098348E-01
       -2   -1    0    0    0  501  0.00000000000E+00  0.00000000000E+00  0.14241850254E+04  0.14241850254E+04  0.25500000920E-02 0. -1.
        2   -1    0    0  501    0  0.00000000000E+00  0.00000000000E+00 -0.22320867576E+04  0.22320867576E+04  0.25500000920E-02 0.  1.
    10030    2    1    2    0    0  0.00000000000E+00  0.00000000000E+00 -0.80790173222E+03  0.36562717830E+04  0.35658965412E+04 0.  0.
        3    1    3    3  502    0  0.26347450429E+03  0.17326118852E+04 -0.67703946355E+02  0.17538376760E+04  0.10100000352E+00 0. -1.
       -3    1    3    3    0  502 -0.26347450429E+03 -0.17326118852E+04 -0.74019778587E+03  0.19024341070E+04  0.10100000352E+00 0.  1.
</event>
<event>
 5   0  0.2199902E-07  0.3596012E+04  0.7818609E-02  0.8091406E-01
        2   -1    0    0  501    0  0.00000000000E+00  0.00000000000E+00  0.31954450038E+04  0.31954450038E+04  0.25500000920E-02 0. -1.
       -2   -1    0    0    0  501  0.00000000000E+00  0.00000000000E+00 -0.10116983461E+04  0.10116983461E+04  0.25500000920E-02 0.  1.
    10030    2    1    2    0    0  0.00000000000E+00  0.00000000000E+00  0.21837466576E+04  0.42071433499E+04  0.35960124724E+04 0.  0.
        1    1    3    3  502    0  0.17816488793E+04 -0.48448535624E+02  0.13692431100E+04  0.22475423653E+04  0.50400001928E-02 0. -1.
       -1    1    3    3    0  502 -0.17816488793E+04  0.48448535624E+02  0.81450354765E+03  0.19596009846E+04  0.50400001928E-02 0.  1.
</event>
<event>
 5   0  0.7347303E-08  0.3603324E+04  0.7818609E-02  0.8089731E-01
       -1   -1    0    0    0  501  0.00000000000E+00  0.00000000000E+00  0.13475961621E+04  0.13475961621E+04  0.50400001928E-02 0.  1.
        1   -1    0    0  501    0  0.00000000000E+00  0.00000000000E+00 -0.24087230591E+04  0.24087230591E+04  0.50400001928E-02 0. -1.
    10030    2    1    2    0    0  0.00000000000E+00  0.00000000000E+00 -0.10611268970E+04  0.37563192212E+04  0.36033239932E+04 0.  0.
        2    1    3    3  502    0  0.75472557793E+03  0.13459759420E+04  0.43882522119E+03  0.16043159007E+04  0.25500000920E-02 0.  1.
       -2    1    3    3    0  502 -0.75472557793E+03 -0.13459759420E+04 -0.14999521182E+04  0.21520033205E+04  0.25500000920E-02 0. -1.
</event>
<event>
 5   0  0.7514289E-08  0.3609496E+04  0.7818609E-02  0.8088320E-01
        1   -1    0    0  501    0  0.00000000000E+00  0.00000000000E+00  0.16785945571E+04  0.16785945571E+04  0.50400001928E-02 0. -1.
       -1   -1    0    0    0  501  0.00000000000E+00  0.00000000000E+00 -0.19403823401E+04  0.19403823401E+04  0.50400001928E-02 0.  1.
    10030    2    1    2    0    0  0.00000000000E+00  0.00000000000E+00 -0.26178778297E+03  0.36189768972E+04  0.36094959397E+04 0.  0.
        4    1    3    3  502    0 -0.50843061334E+03  0.17314169805E+04 -0.15937930382E+03  0.18115490124E+04  0.12699999809E+01 0.  1.
       -4    1    3    3    0  502  0.50843061334E+03 -0.17314169805E+04 -0.10240847915E+03  0.18074278847E+04  0.12699999809E+01 0. -1.
</event>
<event>
 5   0  0.7261233E-08  0.3608035E+04  0.7818609E-02  0.8088654E-01
        1   -1    0    0  501    0  0.00000000000E+00  0.00000000000E+00  0.30892048857E+04  0.30892048857E+04  0.50400001928E-02 0.  1.
       -1   -1    0    0    0  501  0.00000000000E+00  0.00000000000E+00 -0.10535007407E+04  0.10535007407E+04  0.50400001928E-02 0. -1.
    10030    2    1    2    0    0  0.00000000000E+00  0.00000000000E+00  0.20357041450E+04  0.41427056264E+04  0.36080352743E+04 0.  0.
        3    1    3    3  502    0  0.78642296911E+03 -0.39869901996E+03 -0.78924446909E+03  0.11833549075E+04  0.10100000352E+00 0. -1.
       -3    1    3    3    0  502 -0.78642296911E+03  0.39869901996E+03  0.28249486141E+04  0.29593507189E+04  0.10100000352E+00 0.  1.
</event>
<event>
 5   0  0.7514289E-08  0.3598870E+04  0.7818609E-02  0.8090751E-01
        1   -1    0    0  501    0  0.00000000000E+00  0.00000000000E+00  0.20078298632E+04  0.20078298632E+04  0.50400001928E-02 0. -1.
       -1   -1    0    0    0  501  0.00000000000E+00  0.00000000000E+00 -0.16126695048E+04  0.16126695048E+04  0.50400001928E-02 0.  1.
    10030    2    1    2    0    0  0.00000000000E+00  0.00000000000E+00  0.39516035839E+03  0.36204993679E+04  0.35988698177E+04 0.  0.
        4    1    3    3  502    0  0.12912340396E+04  0.10334254993E+04  0.91086245725E+03  0.18881010663E+04  0.12699999809E+01 0. -1.
       -4    1    3    3    0  502 -0.12912340396E+04 -0.10334254993E+04 -0.51570209887E+03  0.17323983016E+04  0.12699999809E+01 0.  1.
</event>
<event>
 5   0  0.2198900E-07  0.3604066E+04  0.7818609E-02  0.8089561E-01
       -2   -1    0    0    0  501  0.00000000000E+00  0.00000000000E+00  0.19861843016E+04  0.19861843016E+04  0.25500000920E-02 0.  1.
        2   -1    0    0  501    0  0.00000000000E+00  0.00000000000E+00 -0.16349553605E+04  0.16349553605E+04  0.25500000920E-02 0. -1.
    10030    2    1    2    0    0  0.00000000000E+00  0.00000000000E+00  0.35122894111E+03  0.36211396621E+04  0.36040658544E+04 0.  0.
        2    1    3    3  502    0 -0.17560641803E+04  0.23007470096E+03 -0.15856742902E+03  0.17781561807E+04  0.25500000920E-02 0. -1.
       -2    1    3    3    0  502  0.17560641803E+04 -0.23007470096E+03  0.50979637013E+03  0.18429834813E+04  0.25500000920E-02 0.  1.
</event>
<event>
 5   0  0.2199902E-07  0.3607049E+04  0.7818609E-02  0.8088879E-01
       -2   -1    0    0    0  501  0.00000000000E+00  0.00000000000E+00  0.28098794336E+04  0.28098794336E+04  0.25500000920E-02 0. -1.
        2   -1    0    0  501    0  0.00000000000E+00  0.00000000000E+00 -0.11575946542E+04  0.11575946542E+04  0.25500000920E-02 0.  1.
    10030    2    1    2    0    0  0.00000000000E+00  0.00000000000E+00  0.16522847794E+04  0.39674740879E+04  0.36070494376E+04 0.  0.
        1    1    3    3  502    0 -0.17566621112E+04 -0.97081885073E+02  0.12625423583E+04  0.21654791322E+04  0.50400001928E-02 0.  1.
       -1    1    3    3    0  502  0.17566621112E+04  0.97081885073E+02  0.38974242113E+03  0.18019949557E+04  0.50400001928E-02 0. -1.
</event>
<event>
 5   0  0.7236375E-08  0.3603874E+04  0.7818609E-02  0.8089605E-01
        1   -1    0    0  501    0  0.00000000000E+00  0.00000000000E+00  0.22374825692E+04  0.22374825692E+04  0.50400001928E-02 0. -1.
       -1   -1    0    0    0  501  0.00000000000E+00  0.00000000000E+00 -0.14511741339E+04  0.14511741339E+04  0.50400001928E-02 0.  1.
    10030    2    1    2    0    0  0.00000000000E+00  0.00000000000E+00  0.78630843532E+03  0.36886567031E+04  0.36038739320E+04 0.  0.
        1    1    3    3  502    0  0.78138297546E+03 -0.92975227965E+03 -0.96931855353E+03  0.15538909595E+04  0.50400001928E-02 0.  1.
       -1    1    3    3    0  502 -0.78138297546E+03  0.92975227965E+03  0.17556269888E+04  0.21347657436E+04  0.50400001928E-02 0. -1.
</event>
<event>
 5   0  0.2198900E-07  0.3594368E+04  0.7818609E-02  0.8091783E-01
       -2   -1    0    0    0  501  0.00000000000E+00  0.00000000000E+00  0.17322009605E+04  0.17322009605E+04  0.25500000920E-02 0. -1.
        2   -1    0    0  501    0  0.00000000000E+00  0.00000000000E+00 -0.18646046114E+04  0.18646046114E+04  0.25500000920E-02 0.  1.
    10030    2    1    2    0    0  0.00000000000E+00  0.00000000000E+00 -0.13240365084E+03  0.35968055719E+04  0.35943677601E+04 0.  0.
        2    1    3    3  502    0 -0.10888909800E+04  0.94885059242E+03 -0.11364452681E+04  0.18378000056E+04  0.25500000920E-02 0.  1.
       -2    1    3    3    0  502  0.10888909800E+04 -0.94885059242E+03  0.10040416173E+04  0.17590055663E+04  0.25500000920E-02 0. -1.
</event>
<event>
 5   0  0.7261233E-08  0.3709235E+04  0.7818609E-02  0.8065918E-01
        1   -1    0    0  501    0  0.00000000000E+00  0.00000000000E+00  0.23810148913E+04  0.23810148913E+04  0.50400001928E-02 0.  1.
       -1   -1    0    0    0  501  0.00000000000E+00  0.00000000000E+00 -0.14445968238E+04  0.14445968238E+04  0.50400001928E-02 0. -1.
    10030    2    1    2    0    0  0.00000000000E+00  0.00000000000E+00  0.93641806749E+03  0.38256117150E+04  0.37092352577E+04 0.  0.
        3    1    3    3  502    0 -0.16293290802E+04  0.35191523879E+03 -0.37034937853E+03  0.17075468542E+04  0.10100000352E+00 0. -1.
       -3    1    3    3    0  502  0.16293290802E+04 -0.35191523879E+03  0.13067674460E+04  0.21180648609E+04  0.10100000352E+00 0.  1.
</event>
<event>
 5   0  0.2199902E-07  0.3590691E+04  0.7818609E-02  0.8092627E-01
       -2   -1    0    0    0  501  0.00000000000E+00  0.00000000000E+00  0.16899079875E+04  0.16899079875E+04  0.25500000920E-02 0.  1.
        2   -1    0    0  501    0  0.00000000000E+00  0.00000000000E+00 -0.19073613498E+04  0.19073613498E+04  0.25500000920E-02 0. -1.
    10030    2    1    2    0    0  0.00000000000E+00  0.00000000000E+00 -0.21745336229E+03  0.35972693373E+04  0.35906908416E+04 0.  0.
        1    1    3    3  502    0 -0.35873467362E+03  0.64664854634E+03 -0.17477008056E+04  0.18977099395E+04  0.50400001928E-02 0. -1.
       -1    1    3    3    0  502  0.35873467362E+03 -0.64664854634E+03  0.15302474433E+04  0.16995593977E+04  0.50400001928E-02 0.  1.
</event>
<event>
 5   0  0.7261233E-08  0.3497709E+04  0.7818609E-02  0.8114333E-01
       -1   -1    0    0    0  501  0.00000000000E+00  0.00000000000E+00  0.13136520287E+04  0.13136520288E+04  0.50400001928E-02 0.  1.
        1   -1    0    0  501    0  0.00000000000E+00  0.00000000000E+00 -0.23282359085E+04  0.23282359085E+04  0.50400001928E-02 0. -1.
    10030    2    1    2    0    0  0.00000000000E+00  0.00000000000E+00 -0.10145838797E+04  0.36418879372E+04  0.34977088641E+04 0.  0.
        3    1    3    3  502    0  0.89138252040E+02  0.16497548808E+03 -0.23177382297E+04  0.23253113880E+04  0.10100000352E+00 0. -1.
       -3    1    3    3    0  502 -0.89138252040E+02 -0.16497548808E+03  0.13031543500E+04  0.13165765492E+04  0.10100000352E+00 0.  1.
</event>
<event>
 5   0  0.2342606E-07  0.3560844E+04  0.7818609E-02  0.8099520E-01
       -2   -1    0    0    0  501  0.00000000000E+00  0.00000000000E+00  0.15097190831E+04  0.15097190831E+04  0.25500000920E-02 0. -1.
        2   -1    0    0  501    0  0.00000000000E+00  0.00000000000E+00 -0.20996639681E+04  0.20996639681E+04  0.25500000920E-02 0.  1.
    10030    2    1    2    0    0  0.00000000000E+00  0.00000000000E+00 -0.58994488495E+03  0.36093830512E+04  0.35608441475E+04 0.  0.
        5    1    3    3  502    0 -0.60426681379E+03 -0.10012955519E+04  0.10657683914E+04  0.15822817444E+04  0.46999998093E+01 0. -1.
       -5    1    3    3    0  502  0.60426681379E+03  0.10012955519E+04 -0.16557132763E+04  0.20271013068E+04  0.46999998093E+01 0.  1.
</event>
<event>
 5   0  0.2199902E-07  0.3588819E+04  0.7818609E-02  0.8093058E-01
        2   -1    0    0  501    0  0.00000000000E+00  0.00000000000E+00  0.14779107620E+04  0.14779107620E+04  0.25500000920E-02 0.  1.
       -2   -1    0    0    0  501  0.00000000000E+00  0.00000000000E+00 -0.21786878494E+04  0.21786878494E+04  0.25500000920E-02 0. -1.
    10030    2    1    2    0    0  0.00000000000E+00  0.00000000000E+00 -0.70077708741E+03  0.36565986115E+04  0.35888194270E+04 0.  0.
        1    1    3    3  502    0 -0.36258030410E+03 -0.86527562853E+03  0.12081210031E+04  0.15296152288E+04  0.50400001928E-02 0.  1.
       -1    1    3    3    0  502  0.36258030410E+03  0.86527562853E+03 -0.19088980905E+04  0.21269833826E+04  0.50400001928E-02 0. -1.
</event>
<event>
 5   0  0.7347303E-08  0.3589934E+04  0.7818609E-02  0.8092801E-01
       -1   -1    0    0    0  501  0.00000000000E+00  0.00000000000E+00  0.13760271534E+04  0.13760271534E+04  0.50400001928E-02 0. -1.
        1   -1    0    0  501    0  0.00000000000E+00  0.00000000000E+00 -0.23414562327E+04  0.23414562327E+04  0.50400001928E-02 0.  1.
    10030    2    1    2    0    0  0.00000000000E+00  0.00000000000E+00 -0.96542907930E+03  0.37174833862E+04  0.35899344589E+04 0.  0.
        2    1    3    3  502    0  0.50362189377E+03 -0.15457142591E+03 -0.22596000558E+04  0.23201982135E+04  0.25500000920E-02 0.  1.
       -2    1    3    3    0  502 -0.50362189377E+03  0.15457142591E+03  0.12941709765E+04  0.13972851727E+04  0.25500000920E-02 0. -1.
</event>
<event>
 5   0  0.2198900E-07  0.3600875E+04  0.7818609E-02  0.8090291E-01
       -2   -1    0    0    0  501  0.00000000000E+00  0.00000000000E+00  0.12761560862E+04  0.12761560862E+04  0.25500000920E-02 0.  1.
        2   -1    0    0  501    0  0.00000000000E+00  0.00000000000E+00 -0.25401087343E+04  0.25401087343E+04  0.25500000920E-02 0. -1.
    10030    2    1    2    0    0  0.00000000000E+00  0.00000000000E+00 -0.12639526481E+04  0.38162648205E+04  0.36008750163E+04 0.  0.
        2    1    3    3  502    0 -0.12473668538E+04 -0.12453867360E+04 -0.10208912835E+04  0.20369416297E+04  0.25500000920E-02 0. -1.
       -2    1    3    3    0  502  0.12473668538E+04  0.12453867360E+04 -0.24306136462E+03  0.17793231908E+04  0.25500000920E-02 0.  1.
</event>
<event>
 5   0  0.2199902E-07  0.3591922E+04  0.7818609E-02  0.8092345E-01
        2   -1    0    0  501    0  0.00000000000E+00  0.00000000000E+00  0.17120055134E+04  0.17120055134E+04  0.25500000920E-02 0.  1.
       -2   -1    0    0    0  501  0.00000000000E+00  0.00000000000E+00 -0.18840335302E+04  0.18840335302E+04  0.25500000920E-02 0. -1.
    10030    2    1    2    0    0  0.00000000000E+00  0.00000000000E+00 -0.17202801672E+03  0.35960390436E+04  0.35919219319E+04 0.  0.
        1    1    3    3  502    0  0.35707092976E+03 -0.13784166413E+04 -0.11817746935E+04  0.18504387351E+04  0.50400001928E-02 0. -1.
       -1    1    3    3    0  502 -0.35707092976E+03  0.13784166413E+04  0.10097466768E+04  0.17456003086E+04  0.50400001928E-02 0.  1.
</event>
<event>
 5   0  0.7347303E-08  0.3660916E+04  0.7818609E-02  0.8076679E-01
        1   -1    0    0  501    0  0.00000000000E+00  0.00000000000E+00  0.14033014376E+04  0.14033014376E+04  0.50400001928E-02 0. -1.
       -1   -1    0    0    0  501  0.00000000000E+00  0.00000000000E+00 -0.23876391033E+04  0.23876391033E+04  0.50400001928E-02 0.  1.
    10030    2    1    2    0    0  0.00000000000E+00  0.00000000000E+00 -0.98433766577E+03  0.37909405409E+04  0.36609164897E+04 0.  0.
        2    1    3    3  502    0  0.40438643953E+03  0.17837542797E+04 -0.41699813437E+03  0.18759518029E+04  0.25500000920E-02 0. -1.
       -2    1    3    3    0  502 -0.40438643953E+03 -0.17837542797E+04 -0.56733953140E+03  0.19149887380E+04  0.25500000920E-02 0.  1.
</event>
<event>
 5   0  0.7514289E-08  0.3592387E+04  0.7818609E-02  0.8092238E-01
       -1   -1    0    0    0  501  0.00000000000E+00  0.00000000000E+00  0.16832002622E+04  0.16832002622E+04  0.50400001928E-02 0.  1.
        1   -1    0    0  501    0  0.00000000000E+00  0.00000000000E+00 -0.19167723224E+04  0.19167723224E+04  0.50400001928E-02 0. -1.
    10030    2    1    2    0    0  0.00000000000E+00  0.00000000000E+00 -0.23357206016E+03  0.35999725846E+04  0.35923873263E+04 0.  0.
        4    1    3    3  502    0 -0.17391266048E+04 -0.81032282920E+02  0.32594142871E+03  0.17712614167E+04  0.12699999809E+01 0.  1.
       -4    1    3    3    0  502  0.17391266048E+04  0.81032282920E+02 -0.55951348886E+03  0.18287111679E+04  0.12699999809E+01 0. -1.
</event>
<event>
 5   0  0.2342606E-07  0.3578173E+04  0.7818609E-02  0.8095510E-01
       -2   -1    0    0    0  501  0.00000000000E+00  0.00000000000E+00  0.23678549295E+04  0.23678549295E+04  0.25500000920E-02 0.  1.
        2   -1    0    0  501    0  0.00000000000E+00  0.00000000000E+00 -0.13517851092E+04  0.13517851092E+04  0.25500000920E-02 0. -1.
    10030    2    1    2    0    0  0.00000000000E+00  0.00000000000E+00  0.10160698203E+04  0.37196400388E+04  0.35781732963E+04 0.  0.
        5    1    3    3  502    0  0.21070132179E+03  0.11913279053E+04 -0.86208449993E+03  0.14855534322E+04  0.46999998093E+01 0. -1.
       -5    1    3    3    0  502 -0.21070132179E+03 -0.11913279053E+04  0.18781543202E+04  0.22340866065E+04  0.46999998093E+01 0.  1.
</event>
<event>
 5   0  0.7236375E-08  0.3605317E+04  0.7818609E-02  0.8089275E-01
       -1   -1    0    0    0  501  0.00000000000E+00  0.00000000000E+00  0.19423724564E+04  0.19423724565E+04  0.50400001928E-02 0. -1.
        1   -1    0    0  501    0  0.00000000000E+00  0.00000000000E+00 -0.16729941756E+04  0.16729941756E+04  0.50400001928E-02 0.  1.
    10030    2    1    2    0    0  0.00000000000E+00  0.00000000000E+00  0.26937828087E+03  0.36153666320E+04  0.36053170770E+04 0.  0.
        5    1    3    3  502    0 -0.14460091796E+04  0.78684789204E+03 -0.60185365974E+03  0.17528040594E+04  0.46999998093E+01 0.  1.
       -5    1    3    3    0  502  0.14460091796E+04 -0.78684789204E+03  0.87123194061E+03  0.18625625727E+04  0.46999998093E+01 0. -1.
</event>
<event>
 5   0  0.7261233E-08  0.3619346E+04  0.7818609E-02  0.8086075E-01
       -1   -1    0    0    0  501  0.00000000000E+00  0.00000000000E+00  0.11155629648E+04  0.11155629648E+04  0.50400001928E-02 0.  1.
        1   -1    0    0  501    0  0.00000000000E+00  0.00000000000E+00 -0.29356622950E+04  0.29356622950E+04  0.50400001928E-02 0. -1.
    10030    2    1    2    0    0  0.00000000000E+00  0.00000000000E+00 -0.18200993303E+04  0.40512252598E+04  0.36193458710E+04 0.  0.
        3    1    3    3  502    0 -0.94033990698E+03 -0.23973609910E+03 -0.26197997045E+04  0.27937542913E+04  0.10100000352E+00 0. -1.
       -3    1    3    3    0  502  0.94033990698E+03  0.23973609910E+03  0.79970037427E+03  0.12574709685E+04  0.10100000352E+00 0.  1.
</event>
<event>
 5   0  0.2238968E-07  0.3590852E+04  0.7818609E-02  0.8092590E-01
       -2   -1    0    0    0  501  0.00000000000E+00  0.00000000000E+00  0.14291309054E+04  0.14291309054E+04  0.25500000920E-02 0. -1.
        2   -1    0    0  501    0  0.00000000000E+00  0.00000000000E+00 -0.22556042003E+04  0.22556042003E+04  0.25500000920E-02 0.  1.
    10030    2    1    2    0    0  0.00000000000E+00  0.00000000000E+00 -0.82647329490E+03  0.36847351057E+04  0.35908515274E+04 0.  0.
        3    1    3    3  502    0  0.14448777771E+04  0.50510335832E+03 -0.13762576489E+04  0.20583698209E+04  0.10100000352E+00 0.  1.
       -3    1    3    3    0  502 -0.14448777771E+04 -0.50510335832E+03  0.54978435403E+03  0.16263652847E+04  0.10100000352E+00 0. -1.
</event>
<event>
 5   0  0.2342606E-07  0.3607345E+04  0.7818609E-02  0.8088811E-01
       -2   -1    0    0    0  501  0.00000000000E+00  0.00000000000E+00  0.27144690537E+04  0.27144690537E+04  0.25500000920E-02 0. -1.
        2   -1    0    0  501    0  0.00000000000E+00  0.00000000000E+00 -0.11984788628E+04  0.11984788628E+04  0.25500000920E-02 0.  1.
    10030    2    1    2    0    0  0.00000000000E+00  0.00000000000E+00  0.15159901909E+04  0.39129479165E+04  0.36073446104E+04 0.  0.
        5    1    3    3  502    0  0.16095365099E+04  0.14845892395E+03 -0.11016066834E+03  0.16201250852E+04  0.46999998093E+01 0.  1.
       -5    1    3    3    0  502 -0.16095365099E+04 -0.14845892395E+03  0.16261508592E+04  0.22928228313E+04  0.46999998093E+01 0. -1.
</event>
<event>
 5   0  0.7236375E-08  0.3601045E+04  0.7818609E-02  0.8090252E-01
       -1   -1    0    0    0  501  0.00000000000E+00  0.00000000000E+00  0.20791602048E+04  0.20791602048E+04  0.50400001928E-02 0. -1.
        1   -1    0    0  501    0  0.00000000000E+00  0.00000000000E+00 -0.15592263722E+04  0.15592263722E+04  0.50400001928E-02 0.  1.
    10030    2    1    2    0    0  0.00000000000E+00  0.00000000000E+00  0.51993383263E+03  0.36383865769E+04  0.36010450834E+04 0.  0.
        5    1    3    3  502    0 -0.12378007834E+03 -0.12968915287E+04 -0.99574417352E+03  0.16397492778E+04  0.46999998093E+01 0.  1.
       -5    1    3    3    0  502  0.12378007834E+03  0.12968915287E+04  0.15156780061E+04  0.19986372991E+04  0.46999998093E+01 0. -1.
</event>
<event>
 5   0  0.7347303E-08  0.3565130E+04  0.7818609E-02  0.8098526E-01
        1   -1    0    0  501    0  0.00000000000E+00  0.00000000000E+00  0.16664399848E+04  0.16664399848E+04  0.50400001928E-02 0.  1.
       -1   -1    0    0    0  501  0.00000000000E+00  0.00000000000E+00 -0.19067823575E+04  0.19067823575E+04  0.50400001928E-02 0. -1.
    10030    2    1    2    0    0  0.00000000000E+00  0.00000000000E+00 -0.24034237266E+03  0.35732223423E+04  0.35651302152E+04 0.  0.
        2    1    3    3  502    0  0.20701921557E+03  0.82661528531E+03  0.14490737030E+04  0.16810604934E+04  0.25500000920E-02 0.  1.
       -2    1    3    3    0  502 -0.20701921557E+03 -0.82661528531E+03 -0.16894160757E+04  0.18921618489E+04  0.25500000920E-02 0. -1.
</event>
<event>
 5   0  0.2309391E-07  0.3605161E+04  0.7818609E-02  0.8089311E-01
       -2   -1    0    0    0  501  0.00000000000E+00  0.00000000000E+00  0.11467619036E+04  0.11467619036E+04  0.25500000920E-02 0. -1.
        2   -1    0    0  501    0  0.00000000000E+00  0.00000000000E+00 -0.28334533549E+04  0.28334533549E+04  0.25500000920E-02 0.  1.
    10030    2    1    2    0    0  0.00000000000E+00  0.00000000000E+00 -0.16866914513E+04  0.39802152586E+04  0.36051609468E+04 0.  0.
        4    1    3    3  502    0 -0.13274706414E+04  0.11089035955E+03  0.49741530424E+03  0.14219347993E+04  0.12699999809E+01 0. -1.
       -4    1    3    3    0  502  0.13274706414E+04 -0.11089035955E+03 -0.21841067555E+04  0.25582804592E+04  0.12699999809E+01 0.  1.
</event>
<event>
 5   0  0.2342606E-07  0.3590186E+04  0.7818609E-02  0.8092743E-01
        2   -1    0    0  501    0  0.00000000000E+00  0.00000000000E+00  0.14464693869E+04  0.14464693869E+04  0.25500000920E-02 0. -1.
       -2   -1    0    0    0  501  0.00000000000E+00  0.00000000000E+00 -0.22277404252E+04  0.22277404252E+04  0.25500000920E-02 0.  1.
    10030    2    1    2    0    0  0.00000000000E+00  0.00000000000E+00 -0.78127103829E+03  0.36742098121E+04  0.35901856927E+04 0.  0.
        5    1    3    3  502    0  0.17875019146E+04  0.12060615841E+03 -0.27563435607E+03  0.18126514636E+04  0.46999998093E+01 0.  1.
       -5    1    3    3    0  502 -0.17875019146E+04 -0.12060615841E+03 -0.50563668222E+03  0.18615583484E+04  0.46999998093E+01 0. -1.
</event>
<event>
 5   0  0.7236375E-08  0.3602496E+04  0.7818609E-02  0.8089920E-01
        1   -1    0    0  501    0  0.00000000000E+00  0.00000000000E+00  0.23544181999E+04  0.23544181999E+04  0.50400001928E-02 0.  1.
       -1   -1    0    0    0  501  0.00000000000E+00  0.00000000000E+00 -0.13780452249E+04  0.13780452249E+04  0.50400001928E-02 0. -1.
    10030    2    1    2    0    0  0.00000000000E+00  0.00000000000E+00  0.97637297498E+03  0.37324634248E+04  0.36024962222E+04 0.  0.
        1    1    3    3  502    0  0.52616709324E+03  0.11279775019E+03 -0.12928173782E+04  0.14003399286E+04  0.50400001928E-02 0. -1.
       -1    1    3    3    0  502 -0.52616709324E+03 -0.11279775019E+03  0.22691903531E+04  0.23321234961E+04  0.50400001928E-02 0.  1.
</event>
<event>
 5   0  0.2198900E-07  0.3622289E+04  0.7818609E-02  0.8085405E-01
        2   -1    0    0  501    0  0.00000000000E+00  0.00000000000E+00  0.20400843509E+04  0.20400843509E+04  0.25500000920E-02 0.  1.
       -2   -1    0    0    0  501  0.00000000000E+00  0.00000000000E+00 -0.16078968158E+04  0.16078968158E+04  0.25500000920E-02 0. -1.
    10030    2    1    2    0    0  0.00000000000E+00  0.00000000000E+00  0.43218753503E+03  0.36479811667E+04  0.36222894041E+04 0.  0.
        2    1    3    3  502    0 -0.17645031022E+04 -0.40717944092E+03  0.24760204312E+03  0.18277234656E+04  0.25500000920E-02 0. -1.
       -2    1    3    3    0  502  0.17645031022E+04  0.40717944092E+03  0.18458549191E+03  0.18202577012E+04  0.25500000920E-02 0.  1.
</event>
<event>
 5   0  0.7347303E-08  0.3587390E+04  0.7818609E-02  0.8093386E-01
        1   -1    0    0  501    0  0.00000000000E+00  0.00000000000E+00  0.19641869761E+04  0.19641869761E+04  0.50400001928E-02 0. -1.
       -1   -1    0    0    0  501  0.00000000000E+00  0.00000000000E+00 -0.16380014733E+04  0.16380014733E+04  0.50400001928E-02 0.  1.
    10030    2    1    2    0    0  0.00000000000E+00  0.00000000000E+00  0.32618550281E+03  0.36021884495E+04  0.35873896699E+04 0.  0.
        2    1    3    3  502    0 -0.43093072321E+03  0.47265491648E+03 -0.15195997923E+04  0.16487229868E+04  0.25500000920E-02 0.  1.
       -2    1    3    3    0  502  0.43093072321E+03 -0.47265491648E+03  0.18457852951E+04  0.19534654627E+04  0.25500000920E-02 0. -1.
</event>
<event>
 5   0  0.2199902E-07  0.3611396E+04  0.7818609E-02  0.8087886E-01
       -2   -1    0    0    0  501  0.00000000000E+00  0.00000000000E+00  0.14876798345E+04  0.14876798345E+04  0.25500000920E-02 0. -1.
        2   -1    0    0  501    0  0.00000000000E+00  0.00000000000E+00 -0.21916982938E+04  0.21916982938E+04  0.25500000920E-02 0.  1.
    10030    2    1    2    0    0  0.00000000000E+00  0.00000000000E+00 -0.70401845928E+03  0.36793781283E+04  0.36113960486E+04 0.  0.
        1    1    3    3  502    0 -0.13011576199E+04  0.78114013308E+03 -0.13488726248E+04  0.20304305990E+04  0.50400001928E-02 0.  1.
       -1    1    3    3    0  502  0.13011576199E+04 -0.78114013308E+03  0.64485416550E+03  0.16489475293E+04  0.50400001928E-02 0. -1.
</event>
<event>
 5   0  0.7261233E-08  0.3601365E+04  0.7818609E-02  0.8090179E-01
       -1   -1    0    0    0  501  0.00000000000E+00  0.00000000000E+00  0.14677149931E+04  0.14677149931E+04  0.50400001928E-02 0. -1.
        1   -1    0    0  501    0  0.00000000000E+00  0.00000000000E+00 -0.22091872323E+04  0.22091872323E+04  0.50400001928E-02 0.  1.
    10030    2    1    2    0    0  0.00000000000E+00  0.00000000000E+00 -0.74147223925E+03  0.36769022254E+04  0.36013648654E+04 0.  0.
        3    1    3    3  502    0  0.78667967976E+03 -0.37418551021E+02 -0.20240191738E+04  0.21718468391E+04  0.10100000352E+00 0.  1.
       -3    1    3    3    0  502 -0.78667967976E+03  0.37418551021E+02  0.12825469345E+04  0.15050553863E+04  0.10100000352E+00 0. -1.
</event>
<event>
 5   0  0.7261233E-08  0.3598600E+04  0.7818609E-02  0.8090812E-01
        1   -1    0    0  501    0  0.00000000000E+00  0.00000000000E+00  0.27819593075E+04  0.27819593075E+04  0.50400001928E-02 0.  1.
       -1   -1    0    0    0  501  0.00000000000E+00  0.00000000000E+00 -0.11637412067E+04  0.11637412067E+04  0.50400001928E-02 0. -1.
    10030    2    1    2    0    0  0.00000000000E+00  0.00000000000E+00  0.16182181009E+04  0.39457005142E+04  0.35986001064E+04 0.  0.
        3    1    3    3  502    0  0.92408611408E+03  0.15427029806E+04  0.87501533445E+03  0.19998798660E+04  0.10100000352E+00 0. -1.
       -3    1    3    3    0  502 -0.92408611408E+03 -0.15427029806E+04  0.74320276642E+03  0.19458206482E+04  0.10100000352E+00 0.  1.
</event>
<event>
 5   0  0.2309391E-07  0.3594003E+04  0.7818609E-02  0.8091867E-01
        2   -1    0    0  501    0  0.00000000000E+00  0.00000000000E+00  0.17792527624E+04  0.17792527624E+04  0.25500000920E-02 0. -1.
       -2   -1    0    0    0  501  0.00000000000E+00  0.00000000000E+00 -0.18149277898E+04  0.18149277898E+04  0.25500000920E-02 0.  1.
    10030    2    1    2    0    0  0.00000000000E+00  0.00000000000E+00 -0.35675027387E+02  0.35941805522E+04  0.35940034967E+04 0.  0.
        4    1    3    3  502    0 -0.49260771437E+03  0.17151506124E+04 -0.22953092948E+03  0.17991914973E+04  0.12699999809E+01 0. -1.
       -4    1    3    3    0  502  0.49260771437E+03 -0.17151506124E+04  0.19385590209E+03  0.17949890549E+04  0.12699999809E+01 0.  1.
</event>
<event>
 5   0  0.2199902E-07  0.3635533E+04  0.7818609E-02  0.8082401E-01
        2   -1    0    0  501    0  0.00000000000E+00  0.00000000000E+00  0.12598905386E+04  0.12598905386E+04  0.25500000920E-02 0. -1.
       -2   -1    0    0    0  501  0.00000000000E+00  0.00000000000E+00 -0.26226684770E+04  0.26226684770E+04  0.25500000920E-02 0.  1.
    10030    2    1    2    0    0  0.00000000000E+00  0.00000000000E+00 -0.13627779384E+04  0.38825590156E+04  0.36355330834E+04 0.  0.
        1    1    3    3  502    0 -0.13794858578E+04 -0.33413517959E+03 -0.18941786702E+04  0.23669686066E+04  0.50400001928E-02 0.  1.
       -1    1    3    3    0  502  0.13794858578E+04  0.33413517959E+03  0.53140073180E+03  0.15155904090E+04  0.50400001928E-02 0. -1.
</event>
<event>
 5   0  0.2342606E-07  0.3562758E+04  0.7818609E-02  0.8099076E-01
       -2   -1    0    0    0  501  0.00000000000E+00  0.00000000000E+00  0.16033995098E+04  0.16033995098E+04  0.25500000920E-02 0.  1.
        2   -1    0    0  501    0  0.00000000000E+00  0.00000000000E+00 -0.19791144874E+04  0.19791144874E+04  0.25500000920E-02 0. -1.
    10030    2    1    2    0    0  0.00000000000E+00  0.00000000000E+00 -0.37571497758E+03  0.35825139972E+04  0.35627580322E+04 0.  0.
        5    1    3    3  502    0 -0.13226717956E+03  0.78925087532E+03  0.14124692663E+04  0.16234232563E+04  0.46999998093E+01 0.  1.
       -5    1    3    3    0  502  0.13226717956E+03 -0.78925087532E+03 -0.17881842439E+04  0.19590907409E+04  0.46999998093E+01 0. -1.
</event>
<event>
 5   0  0.7514289E-08  0.3562447E+04  0.7818609E-02  0.8099148E-01
       -1   -1    0    0    0  501  0.00000000000E+00  0.00000000000E+00  0.15495200910E+04  0.15495200910E+04  0.50400001928E-02 0.  1.
        1   -1    0    0  501    0  0.00000000000E+00  0.00000000000E+00 -0.20475736397E+04  0.20475736397E+04  0.50400001928E-02 0. -1.
    10030    2    1    2    0    0  0.00000000000E+00  0.00000000000E+00 -0.49805354867E+03  0.35970937307E+04  0.35624466270E+04 0.  0.
        4    1    3    3  502    0  0.45389895377E+03 -0.14439723778E+04  0.69908054984E+03  0.16672719382E+04  0.12699999809E+01 0.  1.
       -4    1    3    3    0  502 -0.45389895377E+03  0.14439723778E+04 -0.11971340985E+04  0.19298217925E+04  0.12699999809E+01 0. -1.
</event>
<event>
 5   0  0.7236375E-08  0.3595777E+04  0.7818609E-02  0.8091460E-01
       -1   -1    0    0    0  501  0.00000000000E+00  0.00000000000E+00  0.19481063329E+04  0.19481063329E+04  0.50400001928E-02 0.  1.
        1   -1    0    0  501    0  0.00000000000E+00  0.00000000000E+00 -0.16592541672E+04  0.16592541673E+04  0.50400001928E-02 0. -1.
    10030    2    1    2    0    0  0.00000000000E+00  0.00000000000E+00  0.28885216564E+03  0.36073605001E+04  0.35957772740E+04 0.  0.
        5    1    3    3  502    0 -0.15094976675E+04  0.95623782242E+03  0.34357873440E+03  0.18196269997E+04  0.46999998093E+01 0.  1.
       -5    1    3    3    0  502  0.15094976675E+04 -0.95623782242E+03 -0.54726568758E+02  0.17877335004E+04  0.46999998093E+01 0. -1.
</event>
<event>
 5   0  0.2198900E-07  0.3440586E+04  0.7818609E-02  0.8128017E-01
       -2   -1    0    0    0  501  0.00000000000E+00  0.00000000000E+00  0.11866979902E+04  0.11866979902E+04  0.25500000920E-02 0.  1.
        2   -1    0    0  501    0  0.00000000000E+00  0.00000000000E+00 -0.24938167027E+04  0.24938167027E+04  0.25500000920E-02 0. -1.
    10030    2    1    2    0    0  0.00000000000E+00  0.00000000000E+00 -0.13071187125E+04  0.36805146928E+04  0.34405855716E+04 0.  0.
        2    1    3    3  502    0  0.15984305655E+04  0.63550840349E+03 -0.67878481790E+03  0.18492160589E+04  0.25500000920E-02 0.  1.
       -2    1    3    3    0  502 -0.15984305655E+04 -0.63550840349E+03 -0.62833389461E+03  0.18312986339E+04  0.25500000920E-02 0. -1.
</event>
<event>
 5   0  0.7514289E-08  0.3608894E+04  0.7818609E-02  0.8088458E-01
        1   -1    0    0  501    0  0.00000000000E+00  0.00000000000E+00  0.20440291032E+04  0.20440291032E+04  0.50400001928E-02 0.  1.
       -1   -1    0    0    0  501  0.00000000000E+00  0.00000000000E+00 -0.15929462311E+04  0.15929462311E+04  0.50400001928E-02 0. -1.
    10030    2    1    2    0    0  0.00000000000E+00  0.00000000000E+00  0.45108287209E+03  0.36369753343E+04  0.36088937121E+04 0.  0.
        4    1    3    3  502    0  0.15043083684E+04 -0.90872040087E+03  0.63776018861E+03  0.18696138920E+04  0.12699999809E+01 0.  1.
       -4    1    3    3    0  502 -0.15043083684E+04  0.90872040087E+03 -0.18667731652E+03  0.17673614423E+04  0.12699999809E+01 0. -1.
</event>
<event>
 5   0  0.2342606E-07  0.3602628E+04  0.7818609E-02  0.8089890E-01
        2   -1    0    0  501    0  0.00000000000E+00  0.00000000000E+00  0.11316825557E+04  0.11316825557E+04  0.25500000920E-02 0. -1.
       -2   -1    0    0    0  501  0.00000000000E+00  0.00000000000E+00 -0.28671743890E+04  0.28671743890E+04  0.25500000920E-02 0.  1.
    10030    2    1    2    0    0  0.00000000000E+00  0.00000000000E+00 -0.17354918333E+04  0.39988569447E+04  0.36026275079E+04 0.  0.
        5    1    3    3  502    0 -0.83869279776E+03  0.13400589453E+04 -0.18261609174E+04  0.24153776872E+04  0.46999998093E+01 0.  1.
       -5    1    3    3    0  502  0.83869279776E+03 -0.13400589453E+04  0.90669084071E+02  0.15834792574E+04  0.46999998093E+01 0. -1.
</event>
<event>
 5   0  0.7236375E-08  0.3613467E+04  0.7818609E-02  0.8087414E-01
        1   -1    0    0  501    0  0.00000000000E+00  0.00000000000E+00  0.13765410376E+04  0.13765410376E+04  0.50400001928E-02 0.  1.
       -1   -1    0    0    0  501  0.00000000000E+00  0.00000000000E+00 -0.23713687844E+04  0.23713687844E+04  0.50400001928E-02 0. -1.
    10030    2    1    2    0    0  0.00000000000E+00  0.00000000000E+00 -0.99482774684E+03  0.37479098220E+04  0.36134672806E+04 0.  0.
        5    1    3    3  502    0  0.65840169692E+03  0.39351323383E+02  0.12471970967E+04  0.14108734915E+04  0.46999998093E+01 0.  1.
       -5    1    3    3    0  502 -0.65840169692E+03 -0.39351323383E+02 -0.22420248435E+04  0.23370363305E+04  0.46999998093E+01 0. -1.
</event>
<event>
 5   0  0.7236375E-08  0.3526315E+04  0.7818609E-02  0.8107582E-01
       -1   -1    0    0    0  501  0.00000000000E+00  0.00000000000E+00  0.29989657140E+04  0.29989657140E+04  0.50400001928E-02 0. -1.
        1   -1    0    0  501    0  0.00000000000E+00  0.00000000000E+00 -0.10365989550E+04  0.10365989550E+04  0.50400001928E-02 0.  1.
    10030    2    1    2    0    0  0.00000000000E+00  0.00000000000E+00  0.19623667590E+04  0.40355646690E+04  0.35263152016E+04 0.  0.
        1    1    3    3  502    0 -0.14008276934E+04  0.56502713703E+03 -0.59636401553E+02  0.15116647752E+04  0.50400001928E-02 0.  1.
       -1    1    3    3    0  502  0.14008276934E+04 -0.56502713703E+03  0.20220031605E+04  0.25238998937E+04  0.50400001928E-02 0. -1.
</event>
<event>
 5   0  0.2198900E-07  0.3592239E+04  0.7818609E-02  0.8092272E-01
       -2   -1    0    0    0  501  0.00000000000E+00  0.00000000000E+00  0.14019589574E+04  0.14019589574E+04  0.25500000920E-02 0. -1.
        2   -1    0    0  501    0  0.00000000000E+00  0.00000000000E+00 -0.23010987126E+04  0.23010987126E+04  0.25500000920E-02 0.  1.
    10030    2    1    2    0    0  0.00000000000E+00  0.00000000000E+00 -0.89913975526E+03  0.37030576700E+04  0.35922393862E+04 0.  0.
        2    1    3    3  502    0  0.42017078249E+03 -0.16546248361E+04  0.12597199335E+03  0.17117814632E+04  0.25500000920E-02 0.  1.
       -2    1    3    3    0  502 -0.42017078249E+03  0.16546248361E+04 -0.10251117486E+04  0.19912762068E+04  0.25500000920E-02 0. -1.
</event>
<event>
 5   0  0.7236375E-08  0.3576597E+04  0.7818609E-02  0.8095873E-01
        1   -1    0    0  501    0  0.00000000000E+00  0.00000000000E+00  0.11487476909E+04  0.11487476909E+04  0.50400001928E-02 0.  1.
       -1   -1    0    0    0  501  0.00000000000E+00  0.00000000000E+00 -0.27839116736E+04  0.27839116736E+04  0.50400001928E-02 0. -1.
    10030    2    1    2    0    0  0.00000000000E+00  0.00000000000E+00 -0.16351639827E+04  0.39326593646E+04  0.35765973253E+04 0.  0.
        5    1    3    3  502    0 -0.13864667720E+04 -0.45029730497E+03 -0.19565261507E+04  0.24398923011E+04  0.46999998093E+01 0. -1.
       -5    1    3    3    0  502  0.13864667720E+04  0.45029730497E+03  0.32136216801E+03  0.14927670634E+04  0.46999998093E+01 0.  1.
</event>
<event>
 5   0  0.2199902E-07  0.3581859E+04  0.7818609E-02  0.8094660E-01
       -2   -1    0    0    0  501  0.00000000000E+00  0.00000000000E+00  0.17914493141E+04  0.17914493141E+04  0.25500000920E-02 0. -1.
        2   -1    0    0  501    0  0.00000000000E+00  0.00000000000E+00 -0.17904101209E+04  0.17904101209E+04  0.25500000920E-02 0.  1.
    10030    2    1    2    0    0  0.00000000000E+00  0.00000000000E+00  0.10391931910E+01  0.35818594350E+04  0.35818592842E+04 0.  0.
        1    1    3    3  502    0  0.24647404126E+03  0.51515234696E+03  0.16979582058E+04  0.17914221898E+04  0.50400001928E-02 0. -1.
       -1    1    3    3    0  502 -0.24647404126E+03 -0.51515234696E+03 -0.16969190126E+04  0.17904372452E+04  0.50400001928E-02 0.  1.
</event>
<event>
 5   0  0.7236375E-08  0.3545492E+04  0.7818609E-02  0.8103093E-01
       -1   -1    0    0    0  501  0.00000000000E+00  0.00000000000E+00  0.14919118226E+04  0.14919118226E+04  0.50400001928E-02 0. -1.
        1   -1    0    0  501    0  0.00000000000E+00  0.00000000000E+00 -0.21064439583E+04  0.21064439583E+04  0.50400001928E-02 0.  1.
    10030    2    1    2    0    0  0.00000000000E+00  0.00000000000E+00 -0.61453213570E+03  0.35983557810E+04  0.35454921493E+04 0.  0.
        1    1    3    3  502    0  0.15469516613E+02  0.17726675047E+04 -0.30090709710E+03  0.17980918968E+04  0.50400001928E-02 0. -1.
       -1    1    3    3    0  502 -0.15469516613E+02 -0.17726675047E+04 -0.31362503860E+03  0.18002638842E+04  0.50400001928E-02 0.  1.
</event>
<event>
 5   0  0.7347303E-08  0.3610506E+04  0.7818609E-02  0.8088089E-01
       -1   -1    0    0    0  501  0.00000000000E+00  0.00000000000E+00  0.12189864676E+04  0.12189864676E+04  0.50400001928E-02 0. -1.
        1   -1    0    0  501    0  0.00000000000E+00  0.00000000000E+00 -0.26734823137E+04  0.26734823137E+04  0.50400001928E-02 0.  1.
    10030    2    1    2    0    0  0.00000000000E+00  0.00000000000E+00 -0.14544958462E+04  0.38924687813E+04  0.36105062037E+04 0.  0.
        2    1    3    3  502    0  0.39890068322E+03  0.12957739958E+04  0.55780641780E+03  0.14660491134E+04  0.25500000920E-02 0.  1.
       -2    1    3    3    0  502 -0.39890068322E+03 -0.12957739958E+04 -0.20123022640E+04  0.24264196679E+04  0.25500000920E-02 0. -1.
</event>
<event>
 5   0  0.2309391E-07  0.3599193E+04  0.7818609E-02  0.8090677E-01
        2   -1    0    0  501    0  0.00000000000E+00  0.00000000000E+00  0.23807598710E+04  0.23807598710E+04  0.25500000920E-02 0. -1.
       -2   -1    0    0    0  501  0.00000000000E+00  0.00000000000E+00 -0.13603001355E+04  0.13603001355E+04  0.25500000920E-02 0.  1.
    10030    2    1    2    0    0  0.00000000000E+00  0.00000000000E+00  0.10204597355E+04  0.37410600066E+04  0.35991932292E+04 0.  0.
        4    1    3    3  502    0  0.11066214731E+04  0.13868212672E+04  0.19726017774E+03  0.17851603576E+04  0.12699999809E+01 0.  1.
       -4    1    3    3    0  502 -0.11066214731E+04 -0.13868212672E+04  0.82319955777E+03  0.19558996489E+04  0.12699999809E+01 0. -1.
</event>
<event>
 5   0  0.2198900E-07  0.3490717E+04  0.7818609E-02  0.8115994E-01
       -2   -1    0    0    0  501  0.00000000000E+00  0.00000000000E+00  0.20939669633E+04  0.20939669633E+04  0.25500000920E-02 0. -1.
        2   -1    0    0  501    0  0.00000000000E+00  0.00000000000E+00 -0.14547868030E+04  0.14547868030E+04  0.25500000920E-02 0.  1.
    10030    2    1    2    0    0  0.00000000000E+00  0.00000000000E+00  0.63918016029E+03  0.35487537664E+04  0.34907165478E+04 0.  0.
        2    1    3    3  502    0 -0.12108162615E+04  0.11267887484E+04  0.88612237568E+03  0.18764172690E+04  0.25500000920E-02 0.  1.
       -2    1    3    3    0  502  0.12108162615E+04 -0.11267887484E+04 -0.24694221539E+03  0.16723364974E+04  0.25500000920E-02 0. -1.
</event>
<event>
 5   0  0.2309391E-07  0.3579368E+04  0.7818609E-02  0.8095234E-01
       -2   -1    0    0    0  501  0.00000000000E+00  0.00000000000E+00  0.11426761936E+04  0.11426761936E+04  0.25500000920E-02 0. -1.
        2   -1    0    0  501    0  0.00000000000E+00  0.00000000000E+00 -0.28030417668E+04  0.28030417668E+04  0.25500000920E-02 0.  1.
    10030    2    1    2    0    0  0.00000000000E+00  0.00000000000E+00 -0.16603655732E+04  0.39457179604E+04  0.35793681546E+04 0.  0.
        4    1    3    3  502    0  0.33962300576E+03  0.13812995513E+04 -0.20274567526E+04  0.24766741274E+04  0.12699999809E+01 0.  1.
       -4    1    3    3    0  502 -0.33962300576E+03 -0.13812995513E+04  0.36709117942E+03  0.14690438330E+04  0.12699999809E+01 0. -1.
</event>
<event>
 5   0  0.7347303E-08  0.3468607E+04  0.7818609E-02  0.8121270E-01
       -1   -1    0    0    0  501  0.00000000000E+00  0.00000000000E+00  0.99833779594E+03  0.99833779595E+03  0.50400001928E-02 0. -1.
        1   -1    0    0  501    0  0.00000000000E+00  0.00000000000E+00 -0.30128163245E+04  0.30128163245E+04  0.50400001928E-02 0.  1.
    10030    2    1    2    0    0  0.00000000000E+00  0.00000000000E+00 -0.20144785286E+04  0.40111541205E+04  0.34686068725E+04 0.  0.
        2    1    3    3  502    0 -0.68669981125E+03 -0.13786413440E+04 -0.19291866829E+04  0.24685967358E+04  0.25500000920E-02 0.  1.
       -2    1    3    3    0  502  0.68669981125E+03  0.13786413440E+04 -0.85291845669E+02  0.15425573847E+04  0.25500000920E-02 0. -1.
</event>
<event>
 5   0  0.2199902E-07  0.3597080E+04  0.7818609E-02  0.8091161E-01
       -2   -1    0    0    0  501  0.00000000000E+00  0.00000000000E+00  0.12804494197E+04  0.12804494197E+04  0.25500000920E-02 0.  1.
        2   -1    0    0  501    0  0.00000000000E+00  0.00000000000E+00 -0.25262579740E+04  0.25262579740E+04  0.25500000920E-02 0. -1.
    10030    2    1    2    0    0  0.00000000000E+00  0.00000000000E+00 -0.12458085543E+04  0.38067073937E+04  0.35970796804E+04 0.  0.
        1    1    3    3  502    0 -0.62376642772E+03 -0.10652833356E+04  0.76130951634E+03  0.14503466210E+04  0.50400001928E-02 0. -1.
       -1    1    3    3    0  502  0.62376642772E+03  0.10652833356E+04 -0.20071180707E+04  0.23563607727E+04  0.50400001928E-02 0.  1.
</event>
<event>
 5   0  0.7514289E-08  0.3602503E+04  0.7818609E-02  0.8089919E-01
       -1   -1    0    0    0  501  0.00000000000E+00  0.00000000000E+00  0.13602642827E+04  0.13602642827E+04  0.50400001928E-02 0.  1.
        1   -1    0    0  501    0  0.00000000000E+00  0.00000000000E+00 -0.23852027943E+04  0.23852027943E+04  0.50400001928E-02 0. -1.
    10030    2    1    2    0    0  0.00000000000E+00  0.00000000000E+00 -0.10249385116E+04  0.37454670770E+04  0.36025025569E+04 0.  0.
        4    1    3    3  502    0 -0.16247009935E+04  0.61400843856E+03 -0.10087430213E+04  0.20085377210E+04  0.12699999809E+01 0.  1.
       -4    1    3    3    0  502  0.16247009935E+04 -0.61400843856E+03 -0.16195490221E+02  0.17369293560E+04  0.12699999809E+01 0. -1.
</event>
<event>
 5   0  0.7347303E-08  0.3681192E+04  0.7818609E-02  0.8072143E-01
        1   -1    0    0  501    0  0.00000000000E+00  0.00000000000E+00  0.23609547247E+04  0.23609547247E+04  0.50400001928E-02 0.  1.
       -1   -1    0    0    0  501  0.00000000000E+00  0.00000000000E+00 -0.14349250630E+04  0.14349250630E+04  0.50400001928E-02 0. -1.
    10030    2    1    2    0    0  0.00000000000E+00  0.00000000000E+00  0.92602966171E+03  0.37958797878E+04  0.36811917131E+04 0.  0.
        2    1    3    3  502    0 -0.53479053589E+03 -0.47742466238E+03  0.22110761315E+04  0.23243908632E+04  0.25500000920E-02 0.  1.
       -2    1    3    3    0  502  0.53479053589E+03  0.47742466238E+03 -0.12850464698E+04  0.14714889246E+04  0.25500000920E-02 0. -1.
</event>
<event>
 5   0  0.7236375E-08  0.3600431E+04  0.7818609E-02  0.8090393E-01
       -1   -1    0    0    0  501  0.00000000000E+00  0.00000000000E+00  0.13453607543E+04  0.13453607543E+04  0.50400001928E-02 0.  1.
        1   -1    0    0  501    0  0.00000000000E+00  0.00000000000E+00 -0.24088527399E+04  0.24088527399E+04  0.50400001928E-02 0. -1.
    10030    2    1    2    0    0  0.00000000000E+00  0.00000000000E+00 -0.10634919856E+04  0.37542134942E+04  0.36004310515E+04 0.  0.
        1    1    3    3  502    0 -0.16933929377E+04  0.59429502941E+03 -0.67924358431E+03  0.19188898015E+04  0.50400001928E-02 0. -1.
       -1    1    3    3    0  502  0.16933929377E+04 -0.59429502941E+03 -0.38424840128E+03  0.18353236928E+04  0.50400001928E-02 0.  1.
</event>
<event>
 5   0  0.2199902E-07  0.3581374E+04  0.7818609E-02  0.8094772E-01
       -2   -1    0    0    0  501  0.00000000000E+00  0.00000000000E+00  0.14566077262E+04  0.14566077262E+04  0.25500000920E-02 0.  1.
        2   -1    0    0  501    0  0.00000000000E+00  0.00000000000E+00 -0.22013884614E+04  0.22013884614E+04  0.25500000920E-02 0. -1.
    10030    2    1    2    0    0  0.00000000000E+00  0.00000000000E+00 -0.74478073514E+03  0.36579961876E+04  0.35813737260E+04 0.  0.
        1    1    3    3  502    0 -0.12417363960E+03 -0.75905079410E+03  0.12792974943E+04  0.14927087056E+04  0.50400001928E-02 0.  1.
       -1    1    3    3    0  502  0.12417363960E+03  0.75905079410E+03 -0.20240782295E+04  0.21652874820E+04  0.50400001928E-02 0. -1.
</event>
<event>
 5   0  0.7261233E-08  0.3601066E+04  0.7818609E-02  0.8090248E-01
       -1   -1    0    0    0  501  0.00000000000E+00  0.00000000000E+00  0.14805472414E+04  0.14805472414E+04  0.50400001928E-02 0.  1.
        1   -1    0    0  501    0  0.00000000000E+00  0.00000000000E+00 -0.21896759726E+04  0.21896759726E+04  0.50400001928E-02 0. -1.
    10030    2    1    2    0    0  0.00000000000E+00  0.00000000000E+00 -0.70912873125E+03  0.36702232140E+04  0.36010657982E+04 0.  0.
        3    1    3    3  502    0  0.55571261605E+02 -0.17158056045E+04  0.19885691429E+03  0.17281843420E+04  0.10100000352E+00 0. -1.
       -3    1    3    3    0  502 -0.55571261605E+02  0.17158056045E+04 -0.90798564554E+03  0.19420388720E+04  0.10100000352E+00 0.  1.
</event>
<event>
 5   0  0.7236375E-08  0.3593598E+04  0.7818609E-02  0.8091960E-01
       -1   -1    0    0    0  501  0.00000000000E+00  0.00000000000E+00  0.31815199156E+04  0.31815199156E+04  0.50400001928E-02 0.  1.
        1   -1    0    0  501    0  0.00000000000E+00  0.00000000000E+00 -0.10147626326E+04  0.10147626327E+04  0.50400001928E-02 0. -1.
    10030    2    1    2    0    0  0.00000000000E+00  0.00000000000E+00  0.21667572830E+04  0.41962825483E+04  0.35935984892E+04 0.  0.
        5    1    3    3  502    0  0.98307733281E+03 -0.14014207154E+04  0.17208719541E+04  0.24273119775E+04  0.46999998093E+01 0. -1.
       -5    1    3    3    0  502 -0.98307733281E+03  0.14014207154E+04  0.44588532891E+03  0.17689705708E+04  0.46999998093E+01 0.  1.
</event>
<event>
 5   0  0.7261233E-08  0.3591926E+04  0.7818609E-02  0.8092344E-01
        1   -1    0    0  501    0  0.00000000000E+00  0.00000000000E+00  0.21396514685E+04  0.21396514685E+04  0.50400001928E-02 0. -1.
       -1   -1    0    0    0  501  0.00000000000E+00  0.00000000000E+00 -0.15074808911E+04  0.15074808911E+04  0.50400001928E-02 0.  1.
    10030    2    1    2    0    0  0.00000000000E+00  0.00000000000E+00  0.63217057740E+03  0.36471323596E+04  0.35919263369E+04 0.  0.
        3    1    3    3  502    0  0.12160691633E+04 -0.10254044069E+04 -0.53051933395E+03  0.16768211537E+04  0.10100000352E+00 0.  1.
       -3    1    3    3    0  502 -0.12160691633E+04  0.10254044069E+04  0.11626899114E+04  0.19703112058E+04  0.10100000352E+00 0. -1.
</event>
<event>
 5   0  0.2198900E-07  0.3599820E+04  0.7818609E-02  0.8090533E-01
        2   -1    0    0  501    0  0.00000000000E+00  0.00000000000E+00  0.25096702126E+04  0.25096702126E+04  0.25500000920E-02 0. -1.
       -2   -1    0    0    0  501  0.00000000000E+00  0.00000000000E+00 -0.12908775230E+04  0.12908775230E+04  0.25500000920E-02 0.  1.
    10030    2    1    2    0    0  0.00000000000E+00  0.00000000000E+00  0.12187926896E+04  0.38005477356E+04  0.35998204775E+04 0.  0.
        2    1    3    3  502    0 -0.17387621926E+04 -0.51787429410E+02  0.12134154000E+03  0.17437602099E+04  0.25500000920E-02 0.  1.
       -2    1    3    3    0  502  0.17387621926E+04  0.51787429410E+02  0.10974511496E+04  0.20567875257E+04  0.25500000920E-02 0. -1.
</event>
<event>
 5   0  0.2198900E-07  0.3596735E+04  0.7818609E-02  0.8091240E-01
        2   -1    0    0  501    0  0.00000000000E+00  0.00000000000E+00  0.27786531674E+04  0.27786531674E+04  0.25500000920E-02 0. -1.
       -2   -1    0    0    0  501  0.00000000000E+00  0.00000000000E+00 -0.11639186619E+04  0.11639186619E+04  0.25500000920E-02 0.  1.
    10030    2    1    2    0    0  0.00000000000E+00  0.00000000000E+00  0.16147345055E+04  0.39425718294E+04  0.35967353401E+04 0.  0.
        2    1    3    3  502    0 -0.20167693244E+03 -0.12994447236E+04  0.21520641133E+04  0.25220250043E+04  0.25500000920E-02 0. -1.
       -2    1    3    3    0  502  0.20167693244E+03  0.12994447236E+04 -0.53732960781E+03  0.14205468250E+04  0.25500000920E-02 0.  1.
</event>
<event>
 5   0  0.2309391E-07  0.3605011E+04  0.7818609E-02  0.8089345E-01
        2   -1    0    0  501    0  0.00000000000E+00  0.00000000000E+00  0.21610818139E+04  0.21610818139E+04  0.25500000920E-02 0.  1.
       -2   -1    0    0    0  501  0.00000000000E+00  0.00000000000E+00 -0.15034255608E+04  0.15034255608E+04  0.25500000920E-02 0. -1.
    10030    2    1    2    0    0  0.00000000000E+00  0.00000000000E+00  0.65765625316E+03  0.36645073747E+04  0.36050107562E+04 0.  0.
        4    1    3    3  502    0 -0.47990448157E+03  0.15279106188E+04  0.11696463404E+04  0.19831523756E+04  0.12699999809E+01 0.  1.
       -4    1    3    3    0  502  0.47990448157E+03 -0.15279106188E+04 -0.51199008721E+03  0.16813549991E+04  0.12699999809E+01 0. -1.
</event>
<event>
 5   0  0.7236375E-08  0.3600200E+04  0.7818609E-02  0.8090446E-01
       -3   -1    0    0    0  501  0.00000000000E+00  0.00000000000E+00  0.22618732298E+04  0.22618732320E+04  0.10100000352E+00 0. -1.
        3   -1    0    0  501    0  0.00000000000E+00  0.00000000000E+00 -0.14325998437E+04  0.14325998472E+04  0.10100000352E+00 0.  1.
    10030    2    1    2    0    0  0.00000000000E+00  0.00000000000E+00  0.82927338610E+03  0.36944730793E+04  0.36001995757E+04 0.  0.
        5    1    3    3  502    0 -0.13766908769E+03 -0.14055769735E+04  0.15599893893E+04  0.21043261133E+04  0.46999998093E+01 0. -1.
       -5    1    3    3    0  502  0.13766908769E+03  0.14055769735E+04 -0.73071600322E+03  0.15901469660E+04  0.46999998093E+01 0.  1.
</event>
<event>
 5   0  0.7261233E-08  0.3609109E+04  0.7818609E-02  0.8088408E-01
       -1   -1    0    0    0  501  0.00000000000E+00  0.00000000000E+00  0.13325185423E+04  0.13325185423E+04  0.50400001928E-02 0.  1.
        1   -1    0    0  501    0  0.00000000000E+00  0.00000000000E+00 -0.24438062370E+04  0.24438062370E+04  0.50400001928E-02 0. -1.
    10030    2    1    2    0    0  0.00000000000E+00  0.00000000000E+00 -0.11112876947E+04  0.37763247793E+04  0.36091091004E+04 0.  0.
        3    1    3    3  502    0  0.55698427802E+03  0.14466549058E+04 -0.15222272635E+04  0.21726062124E+04  0.10100000352E+00 0. -1.
       -3    1    3    3    0  502 -0.55698427802E+03 -0.14466549058E+04  0.41093956886E+03  0.16037185669E+04  0.10100000352E+00 0.  1.
</event>
<event>
 5   0  0.7514289E-08  0.3602570E+04  0.7818609E-02  0.8089903E-01
       -1   -1    0    0    0  501  0.00000000000E+00  0.00000000000E+00  0.22550124696E+04  0.22550124696E+04  0.50400001928E-02 0.  1.
        1   -1    0    0  501    0  0.00000000000E+00  0.00000000000E+00 -0.14388510763E+04  0.14388510763E+04  0.50400001928E-02 0. -1.
    10030    2    1    2    0    0  0.00000000000E+00  0.00000000000E+00  0.81616139330E+03  0.36938635460E+04  0.36025697046E+04 0.  0.
        4    1    3    3  502    0 -0.71597334217E+03 -0.16500830709E+04  0.30955431401E+03  0.18251623089E+04  0.12699999809E+01 0. -1.
       -4    1    3    3    0  502  0.71597334217E+03  0.16500830709E+04  0.50660707929E+03  0.18687012371E+04  0.12699999809E+01 0.  1.
</event>
<event>
 5   0  0.2342606E-07  0.3616345E+04  0.7818609E-02  0.8086758E-01
        2   -1    0    0  501    0  0.00000000000E+00  0.00000000000E+00  0.24894209617E+04  0.24894209617E+04  0.25500000920E-02 0. -1.
       -2   -1    0    0    0  501  0.00000000000E+00  0.00000000000E+00 -0.13133530277E+04  0.13133530277E+04  0.25500000920E-02 0.  1.
    10030    2    1    2    0    0  0.00000000000E+00  0.00000000000E+00  0.11760679341E+04  0.38027739894E+04  0.36163454244E+04 0.  0.
        5    1    3    3  502    0  0.10174253983E+03  0.12114249158E+04 -0.81946097869E+03  0.14660969465E+04  0.46999998093E+01 0.  1.
       -5    1    3    3    0  502 -0.10174253983E+03 -0.12114249158E+04  0.19955289128E+04  0.23366770429E+04  0.46999998093E+01 0. -1.
</event>
<event>
 5   0  0.7236375E-08  0.3606412E+04  0.7818609E-02  0.8089025E-01
        1   -1    0    0  501    0  0.00000000000E+00  0.00000000000E+00  0.15232692264E+04  0.15232692264E+04  0.50400001928E-02 0. -1.
       -1   -1    0    0    0  501  0.00000000000E+00  0.00000000000E+00 -0.21345872863E+04  0.21345872863E+04  0.50400001928E-02 0.  1.
    10030    2    1    2    0    0  0.00000000000E+00  0.00000000000E+00 -0.61131805990E+03  0.36578565127E+04  0.36064115818E+04 0.  0.
        5    1    3    3  502    0 -0.12217299798E+04  0.12198825134E+03  0.10337942640E+04  0.16050725676E+04  0.46999998093E+01 0. -1.
       -5    1    3    3    0  502  0.12217299798E+04 -0.12198825134E+03 -0.16451123239E+04  0.20527839451E+04  0.46999998093E+01 0.  1.
</event>
<event>
 5   0  0.7347303E-08  0.3575676E+04  0.7818609E-02  0.8096086E-01
        1   -1    0    0  501    0  0.00000000000E+00  0.00000000000E+00  0.12339583807E+04  0.12339583807E+04  0.50400001928E-02 0.  1.
       -1   -1    0    0    0  501  0.00000000000E+00  0.00000000000E+00 -0.25903345844E+04  0.25903345844E+04  0.50400001928E-02 0. -1.
    10030    2    1    2    0    0  0.00000000000E+00  0.00000000000E+00 -0.13563762038E+04  0.38242929651E+04  0.35756761986E+04 0.  0.
        2    1    3    3  502    0  0.17358194386E+04  0.22471140883E+02 -0.11354556362E+04  0.20743272590E+04  0.25500000920E-02 0. -1.
       -2    1    3    3    0  502 -0.17358194386E+04 -0.22471140883E+02 -0.22092056757E+03  0.17499657062E+04  0.25500000920E-02 0.  1.
</event>
<event>
 5   0  0.2238968E-07  0.3620403E+04  0.7818609E-02  0.8085834E-01
        2   -1    0    0  501    0  0.00000000000E+00  0.00000000000E+00  0.23690248565E+04  0.23690248565E+04  0.25500000920E-02 0.  1.
       -2   -1    0    0    0  501  0.00000000000E+00  0.00000000000E+00 -0.13831978736E+04  0.13831978736E+04  0.25500000920E-02 0. -1.
    10030    2    1    2    0    0  0.00000000000E+00  0.00000000000E+00  0.98582698284E+03  0.37522227301E+04  0.36204033720E+04 0.  0.
        3    1    3    3  502    0  0.10160403580E+04 -0.12326288636E+03  0.20403603726E+04  0.22826743544E+04  0.10100000352E+00 0.  1.
       -3    1    3    3    0  502 -0.10160403580E+04  0.12326288636E+03 -0.10545333897E+04  0.14695483757E+04  0.10100000352E+00 0. -1.
</event>
<event>
 5   0  0.7261233E-08  0.3616198E+04  0.7818609E-02  0.8086791E-01
       -1   -1    0    0    0  501  0.00000000000E+00  0.00000000000E+00  0.23203087024E+04  0.23203087025E+04  0.50400001928E-02 0. -1.
        1   -1    0    0  501    0  0.00000000000E+00  0.00000000000E+00 -0.14089596818E+04  0.14089596818E+04  0.50400001928E-02 0.  1.
    10030    2    1    2    0    0  0.00000000000E+00  0.00000000000E+00  0.91134902064E+03  0.37292683843E+04  0.36161976777E+04 0.  0.
        3    1    3    3  502    0  0.15475535072E+04 -0.87180678332E+03  0.80425597155E+03  0.19498196335E+04  0.10100000352E+00 0.  1.
       -3    1    3    3    0  502 -0.15475535072E+04  0.87180678332E+03  0.10709304909E+03  0.17794487508E+04  0.10100000352E+00 0. -1.
</event>
<event>
 5   0  0.7261233E-08  0.3593070E+04  0.7818609E-02  0.8092081E-01
        1   -1    0    0  501    0  0.00000000000E+00  0.00000000000E+00  0.11460199981E+04  0.11460199981E+04  0.50400001928E-02 0.  1.
       -1   -1    0    0    0  501  0.00000000000E+00  0.00000000000E+00 -0.28163010004E+04  0.28163010004E+04  0.50400001928E-02 0. -1.
    10030    2    1    2    0    0  0.00000000000E+00  0.00000000000E+00 -0.16702810023E+04  0.39623209986E+04  0.35930695887E+04 0.  0.
        3    1    3    3  502    0  0.35079934937E+03 -0.17033187057E+04 -0.13322214687E+04  0.21907005383E+04  0.10100000352E+00 0. -1.
       -3    1    3    3    0  502 -0.35079934937E+03  0.17033187057E+04 -0.33805953366E+03  0.17716204603E+04  0.10100000352E+00 0.  1.
</event>
<event>
 5   0  0.7261233E-08  0.3597202E+04  0.7818609E-02  0.8091133E-01
       -1   -1    0    0    0  501  0.00000000000E+00  0.00000000000E+00  0.15833922163E+04  0.15833922163E+04  0.50400001928E-02 0.  1.
        1   -1    0    0  501    0  0.00000000000E+00  0.00000000000E+00 -0.20430601556E+04  0.20430601556E+04  0.50400001928E-02 0. -1.
    10030    2    1    2    0    0  0.00000000000E+00  0.00000000000E+00 -0.45966793929E+03  0.36264523720E+04  0.35972019949E+04 0.  0.
        3    1    3    3  502    0 -0.15236564261E+04 -0.81089254979E+03  0.28013497466E+03  0.17485854987E+04  0.10100000352E+00 0. -1.
       -3    1    3    3    0  502  0.15236564261E+04  0.81089254979E+03 -0.73980291396E+03  0.18778668733E+04  0.10100000352E+00 0.  1.
</event>
<event>
 5   0  0.7236375E-08  0.3586762E+04  0.7818609E-02  0.8093531E-01
       -4   -1    0    0    0  501  0.00000000000E+00  0.00000000000E+00  0.12949270778E+04  0.12949277005E+04  0.12699999809E+01 0.  1.
        4   -1    0    0  501    0  0.00000000000E+00  0.00000000000E+00 -0.24837029756E+04  0.24837033003E+04  0.12699999809E+01 0. -1.
    10030    2    1    2    0    0  0.00000000000E+00  0.00000000000E+00 -0.11887758979E+04  0.37786310009E+04  0.35867623430E+04 0.  0.
        4    1    3    3  502    0  0.15636124740E+04 -0.35675547845E+02 -0.15188594247E+04  0.21801587737E+04  0.12699999809E+01 0. -1.
       -4    1    3    3    0  502 -0.15636124740E+04  0.35675547845E+02  0.33008352688E+03  0.15984722272E+04  0.12699999809E+01 0.  1.
</event>
<event>
 5   0  0.7514289E-08  0.3574488E+04  0.7818609E-02  0.8096361E-01
        1   -1    0    0  501    0  0.00000000000E+00  0.00000000000E+00  0.14542976062E+04  0.14542976062E+04  0.50400001928E-02 0. -1.
       -1   -1    0    0    0  501  0.00000000000E+00  0.00000000000E+00 -0.21964145879E+04  0.21964145879E+04  0.50400001928E-02 0.  1.
    10030    2    1    2    0    0  0.00000000000E+00  0.00000000000E+00 -0.74211698171E+03  0.36507121941E+04  0.35744876429E+04 0.  0.
        4    1    3    3  502    0 -0.47967825160E+03 -0.13071276224E+04  0.77335613620E+03  0.15927194268E+04  0.12699999809E+01 0. -1.
       -4    1    3    3    0  502  0.47967825160E+03  0.13071276224E+04 -0.15154731179E+04  0.20579927673E+04  0.12699999809E+01 0.  1.
</event>
<event>
 5   0  0.7514289E-08  0.3599786E+04  0.7818609E-02  0.8090541E-01
       -1   -1    0    0    0  501  0.00000000000E+00  0.00000000000E+00  0.11579929053E+04  0.11579929053E+04  0.50400001928E-02 0.  1.
        1   -1    0    0  501    0  0.00000000000E+00  0.00000000000E+00 -0.27976125871E+04  0.27976125871E+04  0.50400001928E-02 0. -1.
    10030    2    1    2    0    0  0.00000000000E+00  0.00000000000E+00 -0.16396196818E+04  0.39556054924E+04  0.35997863980E+04 0.  0.
        4    1    3    3  502    0  0.10346553548E+04  0.14491500559E+04 -0.53102830589E+03  0.18581012519E+04  0.12699999809E+01 0. -1.
       -4    1    3    3    0  502 -0.10346553548E+04 -0.14491500559E+04 -0.11085913759E+04  0.20975042406E+04  0.12699999809E+01 0.  1.
</event>
<event>
 5   0  0.2238968E-07  0.3600760E+04  0.7818609E-02  0.8090318E-01
        2   -1    0    0  501    0  0.00000000000E+00  0.00000000000E+00  0.17076825500E+04  0.17076825500E+04  0.25500000920E-02 0.  1.
       -2   -1    0    0    0  501  0.00000000000E+00  0.00000000000E+00 -0.18981094616E+04  0.18981094616E+04  0.25500000920E-02 0. -1.
    10030    2    1    2    0    0  0.00000000000E+00  0.00000000000E+00 -0.19042691160E+03  0.36057920117E+04  0.36007601451E+04 0.  0.
        3    1    3    3  502    0  0.17386272336E+04 -0.27432578695E+03 -0.47427790681E+03  0.18229149289E+04  0.10100000352E+00 0. -1.
       -3    1    3    3    0  502 -0.17386272336E+04  0.27432578695E+03  0.28385099521E+03  0.17828770828E+04  0.10100000352E+00 0.  1.
</event>
<event>
 5   0  0.2309391E-07  0.3612217E+04  0.7818609E-02  0.8087699E-01
        2   -1    0    0  501    0  0.00000000000E+00  0.00000000000E+00  0.21739831623E+04  0.21739831623E+04  0.25500000920E-02 0.  1.
       -2   -1    0    0    0  501  0.00000000000E+00  0.00000000000E+00 -0.15004846994E+04  0.15004846994E+04  0.25500000920E-02 0. -1.
    10030    2    1    2    0    0  0.00000000000E+00  0.00000000000E+00  0.67349846294E+03  0.36744678617E+04  0.36122173090E+04 0.  0.
        4    1    3    3  502    0 -0.15980174366E+04  0.83166650472E+03  0.46819670502E+03  0.18613271260E+04  0.12699999809E+01 0. -1.
       -4    1    3    3    0  502  0.15980174366E+04 -0.83166650472E+03  0.20530175791E+03  0.18131407357E+04  0.12699999809E+01 0.  1.
</event>
<event>
 5   0  0.2309391E-07  0.3606800E+04  0.7818609E-02  0.8088936E-01
        2   -1    0    0  501    0  0.00000000000E+00  0.00000000000E+00  0.19359184330E+04  0.19359184330E+04  0.25500000920E-02 0. -1.
       -2   -1    0    0    0  501  0.00000000000E+00  0.00000000000E+00 -0.16799527918E+04  0.16799527918E+04  0.25500000920E-02 0.  1.
    10030    2    1    2    0    0  0.00000000000E+00  0.00000000000E+00  0.25596564120E+03  0.36158712248E+04  0.36068000090E+04 0.  0.
        4    1    3    3  502    0  0.10191858600E+04  0.14615344642E+04 -0.15097436115E+03  0.17881883788E+04  0.12699999809E+01 0.  1.
       -4    1    3    3    0  502 -0.10191858600E+04 -0.14615344642E+04  0.40694000235E+03  0.18276828461E+04  0.12699999809E+01 0. -1.
</event>
<event>
 5   0  0.7236375E-08  0.3592849E+04  0.7818609E-02  0.8092132E-01
        1   -1    0    0  501    0  0.00000000000E+00  0.00000000000E+00  0.24629362284E+04  0.24629362284E+04  0.50400001928E-02 0. -1.
       -1   -1    0    0    0  501  0.00000000000E+00  0.00000000000E+00 -0.13102820047E+04  0.13102820047E+04  0.50400001928E-02 0.  1.
    10030    2    1    2    0    0  0.00000000000E+00  0.00000000000E+00  0.11526542237E+04  0.37732182331E+04  0.35928490192E+04 0.  0.
        5    1    3    3  502    0  0.46092518283E+03 -0.14186211370E+04  0.16276740005E+04  0.22077777734E+04  0.46999998093E+01 0. -1.
       -5    1    3    3    0  502 -0.46092518283E+03  0.14186211370E+04 -0.47501977678E+03  0.15654404597E+04  0.46999998093E+01 0.  1.
</event>
<event>
 5   0  0.7261233E-08  0.3594712E+04  0.7818609E-02  0.8091704E-01
       -1   -1    0    0    0  501  0.00000000000E+00  0.00000000000E+00  0.24035678614E+04  0.24035678614E+04  0.50400001928E-02 0.  1.
        1   -1    0    0  501    0  0.00000000000E+00  0.00000000000E+00 -0.13440388361E+04  0.13440388361E+04  0.50400001928E-02 0. -1.
    10030    2    1    2    0    0  0.00000000000E+00  0.00000000000E+00  0.10595290253E+04  0.37476066975E+04  0.35947119778E+04 0.  0.
        3    1    3    3  502    0  0.72343037508E+03 -0.75699361628E+01  0.22450658692E+04  0.23587559388E+04  0.10100000352E+00 0.  1.
       -3    1    3    3    0  502 -0.72343037508E+03  0.75699361628E+01 -0.11855368439E+04  0.13888507587E+04  0.10100000352E+00 0. -1.
</event>
<event>
 5   0  0.2309391E-07  0.3607400E+04  0.7818609E-02  0.8088799E-01
       -2   -1    0    0    0  501  0.00000000000E+00  0.00000000000E+00  0.17149664347E+04  0.17149664347E+04  0.25500000920E-02 0.  1.
        2   -1    0    0  501    0  0.00000000000E+00  0.00000000000E+00 -0.18970248582E+04  0.18970248582E+04  0.25500000920E-02 0. -1.
    10030    2    1    2    0    0  0.00000000000E+00  0.00000000000E+00 -0.18205842342E+03  0.36119912929E+04  0.36074001484E+04 0.  0.
        4    1    3    3  502    0  0.76169344227E+03 -0.83542231732E+03 -0.14982448812E+04  0.18769247948E+04  0.12699999809E+01 0. -1.
       -4    1    3    3    0  502 -0.76169344227E+03  0.83542231732E+03  0.13161864578E+04  0.17350664981E+04  0.12699999809E+01 0.  1.
</event>
<event>
 5   0  0.2342606E-07  0.3606625E+04  0.7818609E-02  0.8088976E-01
       -2   -1    0    0    0  501  0.00000000000E+00  0.00000000000E+00  0.30543950785E+04  0.30543950785E+04  0.25500000920E-02 0.  1.
        2   -1    0    0  501    0  0.00000000000E+00  0.00000000000E+00 -0.10646743803E+04  0.10646743803E+04  0.25500000920E-02 0. -1.
    10030    2    1    2    0    0  0.00000000000E+00  0.00000000000E+00  0.19897206983E+04  0.41190694588E+04  0.36066251190E+04 0.  0.
        5    1    3    3  502    0  0.74316499808E+03  0.14024128556E+03  0.28645160649E+04  0.29626738275E+04  0.46999998093E+01 0.  1.
       -5    1    3    3    0  502 -0.74316499808E+03 -0.14024128556E+03 -0.87479536660E+03  0.11563956312E+04  0.46999998093E+01 0. -1.
</event>
<event>
 5   0  0.7236375E-08  0.3614550E+04  0.7818609E-02  0.8087167E-01
       -1   -1    0    0    0  501  0.00000000000E+00  0.00000000000E+00  0.10956914716E+04  0.10956914716E+04  0.50400001928E-02 0.  1.
        1   -1    0    0  501    0  0.00000000000E+00  0.00000000000E+00 -0.29809882180E+04  0.29809882180E+04  0.50400001928E-02 0. -1.
    10030    2    1    2    0    0  0.00000000000E+00  0.00000000000E+00 -0.18852967464E+04  0.40766796896E+04  0.36145502444E+04 0.  0.
        5    1    3    3  502    0  0.34259555997E+03 -0.79682559691E+03 -0.27308970937E+04  0.28653313554E+04  0.46999998093E+01 0. -1.
       -5    1    3    3    0  502 -0.34259555997E+03  0.79682559691E+03  0.84560034725E+03  0.12113483342E+04  0.46999998093E+01 0.  1.
</event>
<event>
 5   0  0.7261233E-08  0.3573601E+04  0.7818609E-02  0.8096566E-01
        1   -1    0    0  501    0  0.00000000000E+00  0.00000000000E+00  0.18028532314E+04  0.18028532315E+04  0.50400001928E-02 0.  1.
       -1   -1    0    0    0  501  0.00000000000E+00  0.00000000000E+00 -0.17708904656E+04  0.17708904656E+04  0.50400001928E-02 0. -1.
    10030    2    1    2    0    0  0.00000000000E+00  0.00000000000E+00  0.31962765820E+02  0.35737436971E+04  0.35736007603E+04 0.  0.
        3    1    3    3  502    0  0.11567172881E+04  0.10608745776E+04 -0.83798827057E+03  0.17792341346E+04  0.10100000352E+00 0. -1.
       -3    1    3    3    0  502 -0.11567172881E+04 -0.10608745776E+04  0.86995103639E+03  0.17945095625E+04  0.10100000352E+00 0.  1.
</event>
<event>
 5   0  0.2198900E-07  0.3569907E+04  0.7818609E-02  0.8097420E-01
        2   -1    0    0  501    0  0.00000000000E+00  0.00000000000E+00  0.26300995291E+04  0.26300995291E+04  0.25500000920E-02 0. -1.
       -2   -1    0    0    0  501  0.00000000000E+00  0.00000000000E+00 -0.12113832417E+04  0.12113832417E+04  0.25500000920E-02 0.  1.
    10030    2    1    2    0    0  0.00000000000E+00  0.00000000000E+00  0.14187162873E+04  0.38414827708E+04  0.35699067179E+04 0.  0.
        2    1    3    3  502    0 -0.13234903024E+04  0.48103241253E+03 -0.47091359133E+03  0.14848496129E+04  0.25500000920E-02 0.  1.
       -2    1    3    3    0  502  0.13234903024E+04 -0.48103241253E+03  0.18896298787E+04  0.23566331579E+04  0.25500000920E-02 0. -1.
</event>
<event>
 5   0  0.2342606E-07  0.3596387E+04  0.7818609E-02  0.8091320E-01
        2   -1    0    0  501    0  0.00000000000E+00  0.00000000000E+00  0.18743498439E+04  0.18743498439E+04  0.25500000920E-02 0. -1.
       -2   -1    0    0    0  501  0.00000000000E+00  0.00000000000E+00 -0.17251317394E+04  0.17251317394E+04  0.25500000920E-02 0.  1.
    10030    2    1    2    0    0  0.00000000000E+00  0.00000000000E+00  0.14921810447E+03  0.35994815833E+04  0.35963873020E+04 0.  0.
        5    1    3    3  502    0  0.15473173159E+04  0.65176085345E+02 -0.83998214001E+03  0.17618260084E+04  0.46999998093E+01 0.  1.
       -5    1    3    3    0  502 -0.15473173159E+04 -0.65176085345E+02  0.98920024448E+03  0.18376555749E+04  0.46999998093E+01 0. -1.
</event>
<event>
 5   0  0.2199902E-07  0.3600741E+04  0.7818609E-02  0.8090322E-01
       -2   -1    0    0    0  501  0.00000000000E+00  0.00000000000E+00  0.26459900462E+04  0.26459900462E+04  0.25500000920E-02 0.  1.
        2   -1    0    0  501    0  0.00000000000E+00  0.00000000000E+00 -0.12249983669E+04  0.12249983669E+04  0.25500000920E-02 0. -1.
    10030    2    1    2    0    0  0.00000000000E+00  0.00000000000E+00  0.14209916793E+04  0.38709884131E+04  0.36007407491E+04 0.  0.
        1    1    3    3  502    0 -0.89480322101E+03 -0.37265628637E+03  0.23415285694E+04  0.25342260265E+04  0.50400001928E-02 0.  1.
       -1    1    3    3    0  502  0.89480322101E+03  0.37265628637E+03 -0.92053689013E+03  0.13367623866E+04  0.50400001928E-02 0. -1.
</event>
<event>
 5   0  0.2309391E-07  0.3594231E+04  0.7818609E-02  0.8091814E-01
       -2   -1    0    0    0  501  0.00000000000E+00  0.00000000000E+00  0.10864165125E+04  0.10864165125E+04  0.25500000920E-02 0.  1.
        2   -1    0    0  501    0  0.00000000000E+00  0.00000000000E+00 -0.29727312903E+04  0.29727312903E+04  0.25500000920E-02 0. -1.
    10030    2    1    2    0    0  0.00000000000E+00  0.00000000000E+00 -0.18863147779E+04  0.40591478028E+04  0.35942311339E+04 0.  0.
        4    1    3    3  502    0 -0.72411226107E+03 -0.16422143678E+04 -0.83955121421E+03  0.19814273771E+04  0.12699999809E+01 0. -1.
       -4    1    3    3    0  502  0.72411226107E+03  0.16422143678E+04 -0.10467635636E+04  0.20777204257E+04  0.12699999809E+01 0.  1.
</event>
<event>
 5   0  0.2342606E-07  0.3580795E+04  0.7818609E-02  0.8094905E-01
        2   -1    0    0  501    0  0.00000000000E+00  0.00000000000E+00  0.26229649745E+04  0.26229649745E+04  0.25500000920E-02 0. -1.
       -2   -1    0    0    0  501  0.00000000000E+00  0.00000000000E+00 -0.12220990626E+04  0.12220990626E+04  0.25500000920E-02 0.  1.
    10030    2    1    2    0    0  0.00000000000E+00  0.00000000000E+00  0.14008659118E+04  0.38450640371E+04  0.35807949043E+04 0.  0.
        5    1    3    3  502    0 -0.14903754406E+04 -0.15918668906E+03 -0.35109350970E+03  0.15394310957E+04  0.46999998093E+01 0.  1.
       -5    1    3    3    0  502  0.14903754406E+04  0.15918668906E+03  0.17519594215E+04  0.23056329414E+04  0.46999998093E+01 0. -1.
</event>
<event>
 5   0  0.2238968E-07  0.3709198E+04  0.7818609E-02  0.8065927E-01
        2   -1    0    0  501    0  0.00000000000E+00  0.00000000000E+00  0.20806584972E+04  0.20806584972E+04  0.25500000920E-02 0.  1.
       -2   -1    0    0    0  501  0.00000000000E+00  0.00000000000E+00 -0.16531003750E+04  0.16531003750E+04  0.25500000920E-02 0. -1.
    10030    2    1    2    0    0  0.00000000000E+00  0.00000000000E+00  0.42755812223E+03  0.37337588722E+04  0.37091979413E+04 0.  0.
        3    1    3    3  502    0  0.81220978875E+03  0.63673834539E+03  0.17648967201E+04  0.20445001600E+04  0.10100000352E+00 0.  1.
       -3    1    3    3    0  502 -0.81220978875E+03 -0.63673834539E+03 -0.13373385978E+04  0.16892587122E+04  0.10100000352E+00 0. -1.
</event>
<event>
 5   0  0.7514289E-08  0.3593244E+04  0.7818609E-02  0.8092041E-01
       -1   -1    0    0    0  501  0.00000000000E+00  0.00000000000E+00  0.11006273268E+04  0.11006273268E+04  0.50400001928E-02 0.  1.
        1   -1    0    0  501    0  0.00000000000E+00  0.00000000000E+00 -0.29327373602E+04  0.29327373602E+04  0.50400001928E-02 0. -1.
    10030    2    1    2    0    0  0.00000000000E+00  0.00000000000E+00 -0.18321100334E+04  0.40333646870E+04  0.35932441504E+04 0.  0.
        4    1    3    3  502    0 -0.87425542560E+03  0.15658991679E+04 -0.79575244665E+03  0.19620362694E+04  0.12699999809E+01 0.  1.
       -4    1    3    3    0  502  0.87425542560E+03 -0.15658991679E+04 -0.10363575867E+04  0.20713284176E+04  0.12699999809E+01 0. -1.
</event>
<event>
 5   0  0.2342606E-07  0.3603456E+04  0.7818609E-02  0.8089700E-01
       -2   -1    0    0    0  501  0.00000000000E+00  0.00000000000E+00  0.14037120130E+04  0.14037120130E+04  0.25500000920E-02 0.  1.
        2   -1    0    0  501    0  0.00000000000E+00  0.00000000000E+00 -0.23126001503E+04  0.23126001503E+04  0.25500000920E-02 0. -1.
    10030    2    1    2    0    0  0.00000000000E+00  0.00000000000E+00 -0.90888813727E+03  0.37163121634E+04  0.36034564587E+04 0.  0.
        5    1    3    3  502    0  0.16604115554E+04 -0.69461985444E+03 -0.36978010523E+03  0.18374500515E+04  0.46999998093E+01 0. -1.
       -5    1    3    3    0  502 -0.16604115554E+04  0.69461985444E+03 -0.53910803204E+03  0.18788621119E+04  0.46999998093E+01 0.  1.
</event>
<event>
 5   0  0.7236375E-08  0.3598409E+04  0.7818609E-02  0.8090856E-01
       -1   -1    0    0    0  501  0.00000000000E+00  0.00000000000E+00  0.14817291396E+04  0.14817291396E+04  0.50400001928E-02 0. -1.
        1   -1    0    0  501    0  0.00000000000E+00  0.00000000000E+00 -0.21847019053E+04  0.21847019053E+04  0.50400001928E-02 0.  1.
    10030    2    1    2    0    0  0.00000000000E+00  0.00000000000E+00 -0.70297276572E+03  0.36664310449E+04  0.35984088008E+04 0.  0.
        5    1    3    3  502    0 -0.11192127825E+04  0.89006299970E+03 -0.14640360720E+04  0.20465270841E+04  0.46999998093E+01 0.  1.
       -5    1    3    3    0  502  0.11192127825E+04 -0.89006299970E+03  0.76106330629E+03  0.16199039608E+04  0.46999998093E+01 0. -1.
</event>
<event>
 5   0  0.7236375E-08  0.3603317E+04  0.7818609E-02  0.8089732E-01
        1   -1    0    0  501    0  0.00000000000E+00  0.00000000000E+00  0.18820048020E+04  0.18820048020E+04  0.50400001928E-02 0. -1.
       -1   -1    0    0    0  501  0.00000000000E+00  0.00000000000E+00 -0.17247419550E+04  0.17247419550E+04  0.50400001928E-02 0.  1.
    10030    2    1    2    0    0  0.00000000000E+00  0.00000000000E+00  0.15726284702E+03  0.36067467570E+04  0.36033166064E+04 0.  0.
        5    1    3    3  502    0  0.73626295943E+03 -0.16181088108E+04  0.37146980238E+03  0.18161418373E+04  0.46999998093E+01 0.  1.
       -5    1    3    3    0  502 -0.73626295943E+03  0.16181088108E+04 -0.21420695536E+03  0.17906049198E+04  0.46999998093E+01 0. -1.
</event>
<event>
 5   0  0.7236375E-08  0.3597745E+04  0.7818609E-02  0.8091009E-01
       -1   -1    0    0    0  501  0.00000000000E+00  0.00000000000E+00  0.11982263277E+04  0.11982263277E+04  0.50400001928E-02 0.  1.
        1   -1    0    0  501    0  0.00000000000E+00  0.00000000000E+00 -0.27006095530E+04  0.27006095530E+04  0.50400001928E-02 0. -1.
    10030    2    1    2    0    0  0.00000000000E+00  0.00000000000E+00 -0.15023832253E+04  0.38988358808E+04  0.35977445531E+04 0.  0.
        5    1    3    3  502    0  0.37497759375E+03 -0.56658378811E+03 -0.25562068423E+04  0.26449651974E+04  0.46999998093E+01 0. -1.
       -5    1    3    3    0  502 -0.37497759375E+03  0.56658378811E+03  0.10538236170E+04  0.12538706834E+04  0.46999998093E+01 0.  1.
</event>
<event>
 5   0  0.7236375E-08  0.3609884E+04  0.7818609E-02  0.8088231E-01
        1   -1    0    0  501    0  0.00000000000E+00  0.00000000000E+00  0.19533668152E+04  0.19533668152E+04  0.50400001928E-02 0.  1.
       -1   -1    0    0    0  501  0.00000000000E+00  0.00000000000E+00 -0.16677947154E+04  0.16677947154E+04  0.50400001928E-02 0. -1.
    10030    2    1    2    0    0  0.00000000000E+00  0.00000000000E+00  0.28557209982E+03  0.36211615306E+04  0.36098835725E+04 0.  0.
        1    1    3    3  502    0 -0.17076691928E+04  0.42739021028E+01 -0.44355914239E+03  0.17643404012E+04  0.50400001928E-02 0. -1.
       -1    1    3    3    0  502  0.17076691928E+04 -0.42739021028E+01  0.72913124221E+03  0.18568211295E+04  0.50400001928E-02 0.  1.
</event>
<event>
 5   0  0.2238968E-07  0.3601451E+04  0.7818609E-02  0.8090159E-01
       -2   -1    0    0    0  501  0.00000000000E+00  0.00000000000E+00  0.17106397498E+04  0.17106397498E+04  0.25500000920E-02 0. -1.
        2   -1    0    0  501    0  0.00000000000E+00  0.00000000000E+00 -0.18955554765E+04  0.18955554765E+04  0.25500000920E-02 0.  1.
    10030    2    1    2    0    0  0.00000000000E+00  0.00000000000E+00 -0.18491572668E+03  0.36061952262E+04  0.36014511220E+04 0.  0.
        3    1    3    3  502    0 -0.89246861531E+03 -0.10884995678E+04 -0.12170049259E+04  0.18607612792E+04  0.10100000352E+00 0.  1.
       -3    1    3    3    0  502  0.89246861531E+03  0.10884995678E+04  0.10320891992E+04  0.17454339471E+04  0.10100000352E+00 0. -1.
</event>
<event>
 5   0  0.2342606E-07  0.3614699E+04  0.7818609E-02  0.8087133E-01
       -2   -1    0    0    0  501  0.00000000000E+00  0.00000000000E+00  0.21207834772E+04  0.21207834772E+04  0.25500000920E-02 0.  1.
        2   -1    0    0  501    0  0.00000000000E+00  0.00000000000E+00 -0.15402381964E+04  0.15402381964E+04  0.25500000920E-02 0. -1.
    10030    2    1    2    0    0  0.00000000000E+00  0.00000000000E+00  0.58054528082E+03  0.36610216736E+04  0.36146987248E+04 0.  0.
        5    1    3    3  502    0 -0.11964474918E+04  0.11707163549E+04 -0.39994899815E+03  0.17210591725E+04  0.46999998093E+01 0. -1.
       -5    1    3    3    0  502  0.11964474918E+04 -0.11707163549E+04  0.98049427896E+03  0.19399625010E+04  0.46999998093E+01 0.  1.
</event>
<event>
 5   0  0.7514289E-08  0.3610849E+04  0.7818609E-02  0.8088011E-01
       -1   -1    0    0    0  501  0.00000000000E+00  0.00000000000E+00  0.21200380846E+04  0.21200380846E+04  0.50400001928E-02 0. -1.
        1   -1    0    0  501    0  0.00000000000E+00  0.00000000000E+00 -0.15374993786E+04  0.15374993786E+04  0.50400001928E-02 0.  1.
    10030    2    1    2    0    0  0.00000000000E+00  0.00000000000E+00  0.58253870599E+03  0.36575374632E+04  0.36108487854E+04 0.  0.
        4    1    3    3  502    0  0.14499552707E+04  0.98759371410E+03  0.72321486121E+03  0.18975650132E+04  0.12699999809E+01 0.  1.
       -4    1    3    3    0  502 -0.14499552707E+04 -0.98759371410E+03 -0.14067615522E+03  0.17599724500E+04  0.12699999809E+01 0. -1.
</event>
<event>
 5   0  0.2198900E-07  0.3604623E+04  0.7818609E-02  0.8089433E-01
        2   -1    0    0  501    0  0.00000000000E+00  0.00000000000E+00  0.33520047292E+04  0.33520047292E+04  0.25500000920E-02 0.  1.
       -2   -1    0    0    0  501  0.00000000000E+00  0.00000000000E+00 -0.96907011322E+03  0.96907011322E+03  0.25500000920E-02 0. -1.
    10030    2    1    2    0    0  0.00000000000E+00  0.00000000000E+00  0.23829346159E+04  0.43210748424E+04  0.36046234768E+04 0.  0.
        2    1    3    3  502    0  0.10087584728E+04  0.62409441520E+03 -0.43515638842E+03  0.12635064614E+04  0.25500000920E-02 0. -1.
       -2    1    3    3    0  502 -0.10087584728E+04 -0.62409441520E+03  0.28180910044E+04  0.30575683810E+04  0.25500000920E-02 0.  1.
</event>
<event>
 5   0  0.2198900E-07  0.3587256E+04  0.7818609E-02  0.8093417E-01
       -2   -1    0    0    0  501  0.00000000000E+00  0.00000000000E+00  0.18660716884E+04  0.18660716884E+04  0.25500000920E-02 0. -1.
        2   -1    0    0  501    0  0.00000000000E+00  0.00000000000E+00 -0.17239968852E+04  0.17239968852E+04  0.25500000920E-02 0.  1.
    10030    2    1    2    0    0  0.00000000000E+00  0.00000000000E+00  0.14207480317E+03  0.35900685736E+04  0.35872562097E+04 0.  0.
        2    1    3    3  502    0 -0.16514947522E+03 -0.14879004584E+04  0.10597287421E+04  0.18341611516E+04  0.25500000920E-02 0.  1.
       -2    1    3    3    0  502  0.16514947522E+03  0.14879004584E+04 -0.91765393892E+03  0.17559074220E+04  0.25500000920E-02 0. -1.
</event>
<event>
 5   0  0.7236375E-08  0.3599153E+04  0.7818609E-02  0.8090686E-01
       -1   -1    0    0    0  501  0.00000000000E+00  0.00000000000E+00  0.12753564483E+04  0.12753564483E+04  0.50400001928E-02 0. -1.
        1   -1    0    0  501    0  0.00000000000E+00  0.00000000000E+00 -0.25392703405E+04  0.25392703405E+04  0.50400001928E-02 0.  1.
    10030    2    1    2    0    0  0.00000000000E+00  0.00000000000E+00 -0.12639138922E+04  0.38146267888E+04  0.35991525684E+04 0.  0.
        1    1    3    3  502    0  0.11575136108E+04  0.55062759860E+03  0.70677273379E+03  0.14637473173E+04  0.50400001928E-02 0. -1.
       -1    1    3    3    0  502 -0.11575136108E+04 -0.55062759860E+03 -0.19706866260E+04  0.23508794715E+04  0.50400001928E-02 0.  1.
</event>
<event>
 5   0  0.2342606E-07  0.3599304E+04  0.7818609E-02  0.8090651E-01
        2   -1    0    0  501    0  0.00000000000E+00  0.00000000000E+00  0.28538340737E+04  0.28538340737E+04  0.25500000920E-02 0.  1.
       -2   -1    0    0    0  501  0.00000000000E+00  0.00000000000E+00 -0.11348758473E+04  0.11348758473E+04  0.25500000920E-02 0. -1.
    10030    2    1    2    0    0  0.00000000000E+00  0.00000000000E+00  0.17189582264E+04  0.39887099209E+04  0.35993040229E+04 0.  0.
        5    1    3    3  502    0 -0.95104400473E+03  0.13356807702E+04  0.16814817479E+04  0.23486018771E+04  0.46999998093E+01 0. -1.
       -5    1    3    3    0  502  0.95104400473E+03 -0.13356807702E+04  0.37476478502E+02  0.16401080438E+04  0.46999998093E+01 0.  1.
</event>
<event>
 5   0  0.7261233E-08  0.3606716E+04  0.7818609E-02  0.8088955E-01
       -1   -1    0    0    0  501  0.00000000000E+00  0.00000000000E+00  0.15575936841E+04  0.15575936842E+04  0.50400001928E-02 0. -1.
        1   -1    0    0  501    0  0.00000000000E+00  0.00000000000E+00 -0.20879000485E+04  0.20879000485E+04  0.50400001928E-02 0.  1.
    10030    2    1    2    0    0  0.00000000000E+00  0.00000000000E+00 -0.53030636430E+03  0.36454937326E+04  0.36067159182E+04 0.  0.
        3    1    3    3  502    0 -0.16675716376E+04  0.68314853710E+03 -0.19650515646E+03  0.18127607060E+04  0.10100000352E+00 0.  1.
       -3    1    3    3    0  502  0.16675716376E+04 -0.68314853710E+03 -0.33380120784E+03  0.18327330266E+04  0.10100000352E+00 0. -1.
</event>
<event>
 5   0  0.2309391E-07  0.3589137E+04  0.7818609E-02  0.8092985E-01
        2   -1    0    0  501    0  0.00000000000E+00  0.00000000000E+00  0.19681667243E+04  0.19681667244E+04  0.25500000920E-02 0.  1.
       -2   -1    0    0    0  501  0.00000000000E+00  0.00000000000E+00 -0.16362820236E+04  0.16362820236E+04  0.25500000920E-02 0. -1.
    10030    2    1    2    0    0  0.00000000000E+00  0.00000000000E+00  0.33188470078E+03  0.36044487479E+04  0.35891368491E+04 0.  0.
        4    1    3    3  502    0  0.61000222569E+01 -0.15046528598E+03  0.19618098716E+04  0.19675814082E+04  0.12699999809E+01 0.  1.
       -4    1    3    3    0  502 -0.61000222569E+01  0.15046528598E+03 -0.16299251708E+04  0.16368673398E+04  0.12699999809E+01 0. -1.
</event>
<event>
 5   0  0.2342606E-07  0.3597287E+04  0.7818609E-02  0.8091113E-01
        2   -1    0    0  501    0  0.00000000000E+00  0.00000000000E+00  0.28944852512E+04  0.28944852512E+04  0.25500000920E-02 0.  1.
       -2   -1    0    0    0  501  0.00000000000E+00  0.00000000000E+00 -0.11176835130E+04  0.11176835130E+04  0.25500000920E-02 0. -1.
    10030    2    1    2    0    0  0.00000000000E+00  0.00000000000E+00  0.17768017382E+04  0.40121687643E+04  0.35972870022E+04 0.  0.
        5    1    3    3  502    0 -0.83064976408E+03  0.74549436064E+03 -0.68471351267E+03  0.13094256591E+04  0.46999998093E+01 0. -1.
       -5    1    3    3    0  502  0.83064976408E+03 -0.74549436064E+03  0.24615152509E+04  0.27027431052E+04  0.46999998093E+01 0.  1.
</event>
<event>
 5   0  0.7236375E-08  0.3467423E+04  0.7818609E-02  0.8121554E-01
        1   -1    0    0  501    0  0.00000000000E+00  0.00000000000E+00  0.13173073957E+04  0.13173073957E+04  0.50400001928E-02 0. -1.
       -1   -1    0    0    0  501  0.00000000000E+00  0.00000000000E+00 -0.22817414070E+04  0.22817414070E+04  0.50400001928E-02 0.  1.
    10030    2    1    2    0    0  0.00000000000E+00  0.00000000000E+00 -0.96443401135E+03  0.35990488027E+04  0.34674225762E+04 0.  0.
        1    1    3    3  502    0  0.29729729865E+02  0.10032345954E+04  0.98509080891E+03  0.14063311886E+04  0.50400001928E-02 0. -1.
       -1    1    3    3    0  502 -0.29729729865E+02 -0.10032345954E+04 -0.19495248203E+04  0.21927176141E+04  0.50400001928E-02 0.  1.
</event>
<event>
 5   0  0.7236375E-08  0.3574943E+04  0.7818609E-02  0.8096256E-01
        1   -1    0    0  501    0  0.00000000000E+00  0.00000000000E+00  0.16070252898E+04  0.16070252899E+04  0.50400001928E-02 0. -1.
       -1   -1    0    0    0  501  0.00000000000E+00  0.00000000000E+00 -0.19881788047E+04  0.19881788047E+04  0.50400001928E-02 0.  1.
    10030    2    1    2    0    0  0.00000000000E+00  0.00000000000E+00 -0.38115351485E+03  0.35952040946E+04  0.35749425841E+04 0.  0.
        1    1    3    3  502    0  0.41214646279E+03 -0.17037713659E+04  0.16119429367E+03  0.17603082612E+04  0.50400001928E-02 0. -1.
       -1    1    3    3    0  502 -0.41214646279E+03  0.17037713659E+04 -0.54234780852E+03  0.18348958334E+04  0.50400001928E-02 0.  1.
</event>
<event>
 5   0  0.7261233E-08  0.3604165E+04  0.7818609E-02  0.8089538E-01
       -1   -1    0    0    0  501  0.00000000000E+00  0.00000000000E+00  0.11642088971E+04  0.11642088971E+04  0.50400001928E-02 0. -1.
        1   -1    0    0  501    0  0.00000000000E+00  0.00000000000E+00 -0.27894493162E+04  0.27894493162E+04  0.50400001928E-02 0.  1.
    10030    2    1    2    0    0  0.00000000000E+00  0.00000000000E+00 -0.16252404190E+04  0.39536582133E+04  0.36041652082E+04 0.  0.
        3    1    3    3  502    0  0.23494258591E+02  0.11576170466E+04 -0.23274200818E+04  0.25995217741E+04  0.10100000352E+00 0.  1.
       -3    1    3    3    0  502 -0.23494258591E+02 -0.11576170466E+04  0.70217966276E+03  0.13541364392E+04  0.10100000352E+00 0. -1.
</event>
<event>
 5   0  0.2309391E-07  0.3597793E+04  0.7818609E-02  0.8090997E-01
       -2   -1    0    0    0  501  0.00000000000E+00  0.00000000000E+00  0.13613550238E+04  0.13613550238E+04  0.25500000920E-02 0. -1.
        2   -1    0    0  501    0  0.00000000000E+00  0.00000000000E+00 -0.23770643982E+04  0.23770643982E+04  0.25500000920E-02 0.  1.
    10030    2    1    2    0    0  0.00000000000E+00  0.00000000000E+00 -0.10157093744E+04  0.37384194220E+04  0.35977929681E+04 0.  0.
        4    1    3    3  502    0  0.23096746484E+03  0.16294327834E+04  0.24691857378E+03  0.16641416888E+04  0.12699999809E+01 0. -1.
       -4    1    3    3    0  502 -0.23096746484E+03 -0.16294327834E+04 -0.12626279482E+04  0.20742777331E+04  0.12699999809E+01 0.  1.
</event>
<event>
 5   0  0.2199902E-07  0.3604382E+04  0.7818609E-02  0.8089489E-01
        2   -1    0    0  501    0  0.00000000000E+00  0.00000000000E+00  0.20090830922E+04  0.20090830922E+04  0.25500000920E-02 0. -1.
       -2   -1    0    0    0  501  0.00000000000E+00  0.00000000000E+00 -0.16166040042E+04  0.16166040042E+04  0.25500000920E-02 0.  1.
    10030    2    1    2    0    0  0.00000000000E+00  0.00000000000E+00  0.39247908801E+03  0.36256870965E+04  0.36043816512E+04 0.  0.
        1    1    3    3  502    0  0.51635630206E+03  0.55590745581E+03 -0.14481202975E+04  0.16348422939E+04  0.50400001928E-02 0.  1.
       -1    1    3    3    0  502 -0.51635630206E+03 -0.55590745581E+03  0.18405993855E+04  0.19908448026E+04  0.50400001928E-02 0. -1.
</event>
<event>
 5   0  0.2342606E-07  0.3598244E+04  0.7818609E-02  0.8090894E-01
        2   -1    0    0  501    0  0.00000000000E+00  0.00000000000E+00  0.10585106360E+04  0.10585106360E+04  0.25500000920E-02 0.  1.
       -2   -1    0    0    0  501  0.00000000000E+00  0.00000000000E+00 -0.30579183370E+04  0.30579183370E+04  0.25500000920E-02 0. -1.
    10030    2    1    2    0    0  0.00000000000E+00  0.00000000000E+00 -0.19994077011E+04  0.41164289730E+04  0.35982435069E+04 0.  0.
        5    1    3    3  502    0  0.58973201754E+03 -0.12291466487E+04  0.34334307340E+03  0.14058776236E+04  0.46999998093E+01 0.  1.
       -5    1    3    3    0  502 -0.58973201754E+03  0.12291466487E+04 -0.23427507745E+04  0.27105513494E+04  0.46999998093E+01 0. -1.
</event>
<event>
 5   0  0.7347303E-08  0.3578899E+04  0.7818609E-02  0.8095342E-01
       -1   -1    0    0    0  501  0.00000000000E+00  0.00000000000E+00  0.13904088886E+04  0.13904088886E+04  0.50400001928E-02 0. -1.
        1   -1    0    0  501    0  0.00000000000E+00  0.00000000000E+00 -0.23030130185E+04  0.23030130185E+04  0.50400001928E-02 0.  1.
    10030    2    1    2    0    0  0.00000000000E+00  0.00000000000E+00 -0.91260412994E+03  0.36934219071E+04  0.35788991444E+04 0.  0.
        2    1    3    3  502    0  0.81196196565E+03  0.12750653158E+04 -0.14445760974E+04  0.20909026506E+04  0.25500000920E-02 0.  1.
       -2    1    3    3    0  502 -0.81196196565E+03 -0.12750653158E+04  0.53197196747E+03  0.16025192565E+04  0.25500000920E-02 0. -1.
</event>
<event>
 5   0  0.7236375E-08  0.3593329E+04  0.7818609E-02  0.8092022E-01
        3   -1    0    0  501    0  0.00000000000E+00  0.00000000000E+00  0.13881375934E+04  0.13881375971E+04  0.10100000352E+00 0. -1.
       -3   -1    0    0    0  501  0.00000000000E+00  0.00000000000E+00 -0.23254196455E+04  0.23254196477E+04  0.10100000352E+00 0.  1.
    10030    2    1    2    0    0  0.00000000000E+00  0.00000000000E+00 -0.93728205213E+03  0.37135572448E+04  0.35933285078E+04 0.  0.
        4    1    3    3  502    0 -0.64670286757E+03 -0.42814331471E+03 -0.21435043929E+04  0.22795052077E+04  0.12699999809E+01 0.  1.
       -4    1    3    3    0  502  0.64670286757E+03  0.42814331471E+03  0.12062223407E+04  0.14340520371E+04  0.12699999809E+01 0. -1.
</event>
<event>
 5   0  0.2309391E-07  0.3604490E+04  0.7818609E-02  0.8089464E-01
        2   -1    0    0  501    0  0.00000000000E+00  0.00000000000E+00  0.26856849342E+04  0.26856849342E+04  0.25500000920E-02 0.  1.
       -2   -1    0    0    0  501  0.00000000000E+00  0.00000000000E+00 -0.12094071435E+04  0.12094071435E+04  0.25500000920E-02 0. -1.
    10030    2    1    2    0    0  0.00000000000E+00  0.00000000000E+00  0.14762777906E+04  0.38950920777E+04  0.36044897252E+04 0.  0.
        4    1    3    3  502    0 -0.97630903778E+03  0.73009863306E+03 -0.69622659996E+03  0.14039075620E+04  0.12699999809E+01 0. -1.
       -4    1    3    3    0  502  0.97630903778E+03 -0.73009863306E+03  0.21725043906E+04  0.24911845157E+04  0.12699999809E+01 0.  1.
</event>
<event>
 5   0  0.7261233E-08  0.3606153E+04  0.7818609E-02  0.8089084E-01
        1   -1    0    0  501    0  0.00000000000E+00  0.00000000000E+00  0.26496919193E+04  0.26496919193E+04  0.50400001928E-02 0. -1.
       -1   -1    0    0    0  501  0.00000000000E+00  0.00000000000E+00 -0.12269672791E+04  0.12269672791E+04  0.50400001928E-02 0.  1.
    10030    2    1    2    0    0  0.00000000000E+00  0.00000000000E+00  0.14227246402E+04  0.38766591985E+04  0.36061532329E+04 0.  0.
        3    1    3    3  502    0  0.39828265274E+03 -0.17238831963E+04  0.10848156762E+04  0.20753860864E+04  0.10100000352E+00 0. -1.
       -3    1    3    3    0  502 -0.39828265274E+03  0.17238831963E+04  0.33790896397E+03  0.18012731121E+04  0.10100000352E+00 0.  1.
</event>
<event>
 5   0  0.2309391E-07  0.3598107E+04  0.7818609E-02  0.8090925E-01
        2   -1    0    0  501    0  0.00000000000E+00  0.00000000000E+00  0.27056783191E+04  0.27056783191E+04  0.25500000920E-02 0.  1.
       -2   -1    0    0    0  501  0.00000000000E+00  0.00000000000E+00 -0.11962227016E+04  0.11962227016E+04  0.25500000920E-02 0. -1.
    10030    2    1    2    0    0  0.00000000000E+00  0.00000000000E+00  0.15094556175E+04  0.39019010207E+04  0.35981071850E+04 0.  0.
        4    1    3    3  502    0 -0.15030490022E+04 -0.34643183744E+03 -0.24942355720E+03  0.15624932143E+04  0.12699999809E+01 0. -1.
       -4    1    3    3    0  502  0.15030490022E+04  0.34643183744E+03  0.17588791747E+04  0.23394078064E+04  0.12699999809E+01 0.  1.
</event>
<event>
 5   0  0.7261233E-08  0.3596397E+04  0.7818609E-02  0.8091317E-01
        1   -1    0    0  501    0  0.00000000000E+00  0.00000000000E+00  0.18735221939E+04  0.18735221939E+04  0.50400001928E-02 0. -1.
       -1   -1    0    0    0  501  0.00000000000E+00  0.00000000000E+00 -0.17259033278E+04  0.17259033278E+04  0.50400001928E-02 0.  1.
    10030    2    1    2    0    0  0.00000000000E+00  0.00000000000E+00  0.14761886610E+03  0.35994255217E+04  0.35963971912E+04 0.  0.
        3    1    3    3  502    0  0.29456166908E+02  0.17266598384E+04  0.57552618552E+03  0.18202890605E+04  0.10100000352E+00 0. -1.
       -3    1    3    3    0  502 -0.29456166908E+02 -0.17266598384E+04 -0.42790731943E+03  0.17791364612E+04  0.10100000352E+00 0.  1.
</event>
<event>
 5   0  0.7261233E-08  0.3638616E+04  0.7818609E-02  0.8081703E-01
        1   -1    0    0  501    0  0.00000000000E+00  0.00000000000E+00  0.25424061875E+04  0.25424061875E+04  0.50400001928E-02 0.  1.
       -1   -1    0    0    0  501  0.00000000000E+00  0.00000000000E+00 -0.13018694834E+04  0.13018694834E+04  0.50400001928E-02 0. -1.
    10030    2    1    2    0    0  0.00000000000E+00  0.00000000000E+00  0.12405367041E+04  0.38442756709E+04  0.36386156872E+04 0.  0.
        3    1    3    3  502    0  0.16438935944E+04 -0.12946881368E+03 -0.19176494954E+03  0.16600970241E+04  0.10100000352E+00 0. -1.
       -3    1    3    3    0  502 -0.16438935944E+04  0.12946881368E+03  0.14323016536E+04  0.21841786467E+04  0.10100000352E+00 0.  1.
</event>
<event>
 5   0  0.2309391E-07  0.3592806E+04  0.7818609E-02  0.8092142E-01
       -2   -1    0    0    0  501  0.00000000000E+00  0.00000000000E+00  0.14933625861E+04  0.14933625861E+04  0.25500000920E-02 0.  1.
        2   -1    0    0  501    0  0.00000000000E+00  0.00000000000E+00 -0.21609376991E+04  0.21609376991E+04  0.25500000920E-02 0. -1.
    10030    2    1    2    0    0  0.00000000000E+00  0.00000000000E+00 -0.66757511302E+03  0.36543002852E+04  0.35928058732E+04 0.  0.
        4    1    3    3  502    0  0.56003156939E+01  0.16565692983E+04 -0.10405248693E+04  0.19562583725E+04  0.12699999809E+01 0. -1.
       -4    1    3    3    0  502 -0.56003156939E+01 -0.16565692983E+04  0.37294975629E+03  0.16980419127E+04  0.12699999809E+01 0.  1.
</event>
<event>
 5   0  0.2199902E-07  0.3570531E+04  0.7818609E-02  0.8097275E-01
        2   -1    0    0  501    0  0.00000000000E+00  0.00000000000E+00  0.27345974770E+04  0.27345974770E+04  0.25500000920E-02 0. -1.
       -2   -1    0    0    0  501  0.00000000000E+00  0.00000000000E+00 -0.11654997181E+04  0.11654997181E+04  0.25500000920E-02 0.  1.
    10030    2    1    2    0    0  0.00000000000E+00  0.00000000000E+00  0.15690977589E+04  0.39000971952E+04  0.35705308225E+04 0.  0.
        1    1    3    3  502    0  0.10901569508E+04  0.82380245558E+03 -0.47044832163E+03  0.14451346949E+04  0.50400001928E-02 0. -1.
       -1    1    3    3    0  502 -0.10901569508E+04 -0.82380245558E+03  0.20395460805E+04  0.24549625002E+04  0.50400001928E-02 0.  1.
</event>
<event>
 5   0  0.2198900E-07  0.3615582E+04  0.7818609E-02  0.8086932E-01
        2   -1    0    0  501    0  0.00000000000E+00  0.00000000000E+00  0.22626893445E+04  0.22626893445E+04  0.25500000920E-02 0. -1.
       -2   -1    0    0    0  501  0.00000000000E+00  0.00000000000E+00 -0.14443465856E+04  0.14443465856E+04  0.25500000920E-02 0.  1.
    10030    2    1    2    0    0  0.00000000000E+00  0.00000000000E+00  0.81834275882E+03  0.37070359301E+04  0.36155816290E+04 0.  0.
        2    1    3    3  502    0 -0.84702577284E+03  0.14149147526E+03  0.20402067933E+04  0.22135754464E+04  0.25500000920E-02 0. -1.
       -2    1    3    3    0  502  0.84702577284E+03 -0.14149147526E+03 -0.12218640345E+04  0.14934604837E+04  0.25500000920E-02 0.  1.
</event>
<event>
 5   0  0.2309391E-07  0.3599445E+04  0.7818609E-02  0.8090619E-01
        2   -1    0    0  501    0  0.00000000000E+00  0.00000000000E+00  0.15991290002E+04  0.15991290002E+04  0.25500000920E-02 0.  1.
       -2   -1    0    0    0  501  0.00000000000E+00  0.00000000000E+00 -0.20254788349E+04  0.20254788349E+04  0.25500000920E-02 0. -1.
    10030    2    1    2    0    0  0.00000000000E+00  0.00000000000E+00 -0.42634983467E+03  0.36246078350E+04  0.35994454818E+04 0.  0.
        4    1    3    3  502    0  0.17506241135E+04  0.21886592083E+03 -0.57120682171E+03  0.18544179476E+04  0.12699999809E+01 0.  1.
       -4    1    3    3    0  502 -0.17506241135E+04 -0.21886592083E+03  0.14485698705E+03  0.17701898875E+04  0.12699999809E+01 0. -1.
</event>
<event>
 5   0  0.7236375E-08  0.3578211E+04  0.7818609E-02  0.8095501E-01
       -1   -1    0    0    0  501  0.00000000000E+00  0.00000000000E+00  0.15858222546E+04  0.15858222546E+04  0.50400001928E-02 0. -1.
        1   -1    0    0  501    0  0.00000000000E+00  0.00000000000E+00 -0.20184477338E+04  0.20184477338E+04  0.50400001928E-02 0.  1.
    10030    2    1    2    0    0  0.00000000000E+00  0.00000000000E+00 -0.43262547923E+03  0.36042699885E+04  0.35782114729E+04 0.  0.
        1    1    3    3  502    0  0.16078184983E+04  0.76901623054E+03 -0.37376182857E+03  0.18210338247E+04  0.50400001928E-02 0. -1.
       -1    1    3    3    0  502 -0.16078184983E+04 -0.76901623054E+03 -0.58863650664E+02  0.17832361637E+04  0.50400001928E-02 0.  1.
</event>
<event>
 5   0  0.7261233E-08  0.3599397E+04  0.7818609E-02  0.8090630E-01
       -1   -1    0    0    0  501  0.00000000000E+00  0.00000000000E+00  0.23590587812E+04  0.23590587812E+04  0.50400001928E-02 0.  1.
        1   -1    0    0  501    0  0.00000000000E+00  0.00000000000E+00 -0.13729688354E+04  0.13729688354E+04  0.50400001928E-02 0. -1.
    10030    2    1    2    0    0  0.00000000000E+00  0.00000000000E+00  0.98608994583E+03  0.37320276167E+04  0.35993967203E+04 0.  0.
        3    1    3    3  502    0 -0.12877098958E+04 -0.18529431792E+03  0.17824035813E+04  0.22066928415E+04  0.10100000352E+00 0.  1.
       -3    1    3    3    0  502  0.12877098958E+04  0.18529431792E+03 -0.79631363548E+03  0.15253347751E+04  0.10100000352E+00 0. -1.
</event>
<event>
 5   0  0.2198900E-07  0.3592801E+04  0.7818609E-02  0.8092143E-01
       -2   -1    0    0    0  501  0.00000000000E+00  0.00000000000E+00  0.11400360722E+04  0.11400360722E+04  0.25500000920E-02 0. -1.
        2   -1    0    0  501    0  0.00000000000E+00  0.00000000000E+00 -0.28306605743E+04  0.28306605743E+04  0.25500000920E-02 0.  1.
    10030    2    1    2    0    0  0.00000000000E+00  0.00000000000E+00 -0.16906245020E+04  0.39706966465E+04  0.35928012263E+04 0.  0.
        2    1    3    3  502    0 -0.16497477873E+04 -0.26169459020E+03 -0.11480218844E+03  0.16743151921E+04  0.25500000920E-02 0. -1.
       -2    1    3    3    0  502  0.16497477873E+04  0.26169459020E+03 -0.15758223136E+04  0.22963814544E+04  0.25500000920E-02 0.  1.
</event>
<event>
 5   0  0.7347303E-08  0.3598855E+04  0.7818609E-02  0.8090754E-01
       -1   -1    0    0    0  501  0.00000000000E+00  0.00000000000E+00  0.97726455181E+03  0.97726455182E+03  0.50400001928E-02 0. -1.
        1   -1    0    0  501    0  0.00000000000E+00  0.00000000000E+00 -0.33132680610E+04  0.33132680610E+04  0.50400001928E-02 0.  1.
    10030    2    1    2    0    0  0.00000000000E+00  0.00000000000E+00 -0.23360035092E+04  0.42905326129E+04  0.35988550550E+04 0.  0.
        2    1    3    3  502    0 -0.16527877451E+04  0.60375911611E+03 -0.71921240315E+03  0.19009205353E+04  0.25500000920E-02 0. -1.
       -2    1    3    3    0  502  0.16527877451E+04 -0.60375911611E+03 -0.16167911061E+04  0.23896120776E+04  0.25500000920E-02 0.  1.
</event>
<event>
 5   0  0.7514289E-08  0.3600399E+04  0.7818609E-02  0.8090400E-01
       -1   -1    0    0    0  501  0.00000000000E+00  0.00000000000E+00  0.23492195070E+04  0.23492195070E+04  0.50400001928E-02 0. -1.
        1   -1    0    0  501    0  0.00000000000E+00  0.00000000000E+00 -0.13794871816E+04  0.13794871816E+04  0.50400001928E-02 0.  1.
    10030    2    1    2    0    0  0.00000000000E+00  0.00000000000E+00  0.96973232539E+03  0.37287066887E+04  0.36003989761E+04 0.  0.
        4    1    3    3  502    0  0.11485887436E+03  0.89739538127E+03  0.20966733571E+04  0.22835393166E+04  0.12699999809E+01 0. -1.
       -4    1    3    3    0  502 -0.11485887436E+03 -0.89739538127E+03 -0.11269410317E+04  0.14451673720E+04  0.12699999809E+01 0.  1.
</event>
<event>
 5   0  0.7514289E-08  0.3609375E+04  0.7818609E-02  0.8088348E-01
       -1   -1    0    0    0  501  0.00000000000E+00  0.00000000000E+00  0.99283458823E+03  0.99283458824E+03  0.50400001928E-02 0. -1.
        1   -1    0    0  501    0  0.00000000000E+00  0.00000000000E+00 -0.32804026093E+04  0.32804026093E+04  0.50400001928E-02 0.  1.
    10030    2    1    2    0    0  0.00000000000E+00  0.00000000000E+00 -0.22875680210E+04  0.42732371975E+04  0.36093751115E+04 0.  0.
        4    1    3    3  502    0 -0.15882573300E+04 -0.84956561170E+03 -0.12765343267E+04  0.22076830784E+04  0.12699999809E+01 0.  1.
       -4    1    3    3    0  502  0.15882573300E+04  0.84956561170E+03 -0.10110336944E+04  0.20655541191E+04  0.12699999809E+01 0. -1.
</event>
<event>
 5   0  0.2198900E-07  0.3598908E+04  0.7818609E-02  0.8090742E-01
       -2   -1    0    0    0  501  0.00000000000E+00  0.00000000000E+00  0.15503678243E+04  0.15503678243E+04  0.25500000920E-02 0. -1.
        2   -1    0    0  501    0  0.00000000000E+00  0.00000000000E+00 -0.20885590790E+04  0.20885590790E+04  0.25500000920E-02 0.  1.
    10030    2    1    2    0    0  0.00000000000E+00  0.00000000000E+00 -0.53819125468E+03  0.36389269033E+04  0.35989080540E+04 0.  0.
        2    1    3    3  502    0  0.41497422333E+03  0.35086012785E+03 -0.20036090614E+04  0.20759951123E+04  0.25500000920E-02 0.  1.
       -2    1    3    3    0  502 -0.41497422333E+03 -0.35086012785E+03  0.14654178067E+04  0.15629317911E+04  0.25500000920E-02 0. -1.
</event>
<event>
 5   0  0.7236375E-08  0.3477846E+04  0.7818609E-02  0.8119060E-01
       -1   -1    0    0    0  501  0.00000000000E+00  0.00000000000E+00  0.14438721808E+04  0.14438721808E+04  0.50400001928E-02 0. -1.
        1   -1    0    0  501    0  0.00000000000E+00  0.00000000000E+00 -0.20942670149E+04  0.20942670149E+04  0.50400001928E-02 0.  1.
    10030    2    1    2    0    0  0.00000000000E+00  0.00000000000E+00 -0.65039483407E+03  0.35381391957E+04  0.34778463922E+04 0.  0.
        1    1    3    3  502    0 -0.79402979629E+03  0.52855874428E+03 -0.18043624149E+04  0.20409755970E+04  0.50400001928E-02 0.  1.
       -1    1    3    3    0  502  0.79402979629E+03 -0.52855874428E+03  0.11539675808E+04  0.14971635986E+04  0.50400001928E-02 0. -1.
</event>
<event>
 5   0  0.2198900E-07  0.3596160E+04  0.7818609E-02  0.8091372E-01
       -2   -1    0    0    0  501  0.00000000000E+00  0.00000000000E+00  0.14072823512E+04  0.14072823512E+04  0.25500000920E-02 0. -1.
        2   -1    0    0  501    0  0.00000000000E+00  0.00000000000E+00 -0.22974005750E+04  0.22974005750E+04  0.25500000920E-02 0.  1.
    10030    2    1    2    0    0  0.00000000000E+00  0.00000000000E+00 -0.89011822374E+03  0.37046829262E+04  0.35961597756E+04 0.  0.
        2    1    3    3  502    0 -0.76172605192E+03 -0.15351243225E+04  0.11566227640E+03  0.17176178346E+04  0.25500000920E-02 0. -1.
       -2    1    3    3    0  502  0.76172605192E+03  0.15351243225E+04 -0.10057805001E+04  0.19870650916E+04  0.25500000920E-02 0.  1.
</event>
<event>
 5   0  0.2198900E-07  0.3611468E+04  0.7818609E-02  0.8087870E-01
        2   -1    0    0  501    0  0.00000000000E+00  0.00000000000E+00  0.19093393262E+04  0.19093393262E+04  0.25500000920E-02 0.  1.
       -2   -1    0    0    0  501  0.00000000000E+00  0.00000000000E+00 -0.17077504869E+04  0.17077504869E+04  0.25500000920E-02 0. -1.
    10030    2    1    2    0    0  0.00000000000E+00  0.00000000000E+00  0.20158883931E+03  0.36170898131E+04  0.36114679364E+04 0.  0.
        2    1    3    3  502    0 -0.78061812254E+03  0.41259261951E+03 -0.14768013175E+04  0.17206218220E+04  0.25500000920E-02 0. -1.
       -2    1    3    3    0  502  0.78061812254E+03 -0.41259261951E+03  0.16783901568E+04  0.18964679911E+04  0.25500000920E-02 0.  1.
</event>
<event>
 5   0  0.2198900E-07  0.3598707E+04  0.7818609E-02  0.8090788E-01
       -2   -1    0    0    0  501  0.00000000000E+00  0.00000000000E+00  0.18955955421E+04  0.18955955421E+04  0.25500000920E-02 0.  1.
        2   -1    0    0  501    0  0.00000000000E+00  0.00000000000E+00 -0.17079978111E+04  0.17079978111E+04  0.25500000920E-02 0. -1.
    10030    2    1    2    0    0  0.00000000000E+00  0.00000000000E+00  0.18759773101E+03  0.36035933532E+04  0.35987070104E+04 0.  0.
        2    1    3    3  502    0  0.12434000946E+03  0.15873722103E+04 -0.74546925184E+03  0.17581056219E+04  0.25500000920E-02 0. -1.
       -2    1    3    3    0  502 -0.12434000946E+03 -0.15873722103E+04  0.93306698286E+03  0.18454877314E+04  0.25500000920E-02 0.  1.
</event>
<event>
 5   0  0.2199902E-07  0.3617435E+04  0.7818609E-02  0.8086510E-01
       -2   -1    0    0    0  501  0.00000000000E+00  0.00000000000E+00  0.23691378638E+04  0.23691378638E+04  0.25500000920E-02 0.  1.
        2   -1    0    0  501    0  0.00000000000E+00  0.00000000000E+00 -0.13808647299E+04  0.13808647299E+04  0.25500000920E-02 0. -1.
    10030    2    1    2    0    0  0.00000000000E+00  0.00000000000E+00  0.98827313392E+03  0.37500025937E+04  0.36174349567E+04 0.  0.
        1    1    3    3  502    0  0.68807580494E+03 -0.42110477023E+03  0.21723142764E+04  0.23172671094E+04  0.50400001928E-02 0.  1.
       -1    1    3    3    0  502 -0.68807580494E+03  0.42110477023E+03 -0.11840411425E+04  0.14327354843E+04  0.50400001928E-02 0. -1.
</event>
<event>
 5   0  0.7347303E-08  0.3595360E+04  0.7818609E-02  0.8091555E-01
        1   -1    0    0  501    0  0.00000000000E+00  0.00000000000E+00  0.10752983482E+04  0.10752983482E+04  0.50400001928E-02 0. -1.
       -1   -1    0    0    0  501  0.00000000000E+00  0.00000000000E+00 -0.30053559095E+04  0.30053559095E+04  0.50400001928E-02 0.  1.
    10030    2    1    2    0    0  0.00000000000E+00  0.00000000000E+00 -0.19300575613E+04  0.40806542577E+04  0.35953604799E+04 0.  0.
        2    1    3    3  502    0  0.33670428778E+03  0.82821827540E+03  0.80507776134E+03  0.12031066000E+04  0.25500000920E-02 0. -1.
       -2    1    3    3    0  502 -0.33670428778E+03 -0.82821827540E+03 -0.27351353226E+04  0.28775476577E+04  0.25500000920E-02 0.  1.
</event>
<event>
 5   0  0.2309391E-07  0.3599662E+04  0.7818609E-02  0.8090569E-01
        2   -1    0    0  501    0  0.00000000000E+00  0.00000000000E+00  0.16968149490E+04  0.16968149490E+04  0.25500000920E-02 0. -1.
       -2   -1    0    0    0  501  0.00000000000E+00  0.00000000000E+00 -0.19091016152E+04  0.19091016152E+04  0.25500000920E-02 0.  1.
    10030    2    1    2    0    0  0.00000000000E+00  0.00000000000E+00 -0.21228666618E+03  0.36059165642E+04  0.35996622952E+04 0.  0.
        4    1    3    3  502    0  0.18611361967E+03 -0.72988152579E+03 -0.17436164980E+04  0.18993592146E+04  0.12699999809E+01 0.  1.
       -4    1    3    3    0  502 -0.18611361967E+03  0.72988152579E+03  0.15313298318E+04  0.17065573497E+04  0.12699999809E+01 0. -1.
</event>
<event>
 5   0  0.2342606E-07  0.3615346E+04  0.7818609E-02  0.8086986E-01
       -2   -1    0    0    0  501  0.00000000000E+00  0.00000000000E+00  0.14033287752E+04  0.14033287752E+04  0.25500000920E-02 0. -1.
        2   -1    0    0  501    0  0.00000000000E+00  0.00000000000E+00 -0.23285216000E+04  0.23285216000E+04  0.25500000920E-02 0.  1.
    10030    2    1    2    0    0  0.00000000000E+00  0.00000000000E+00 -0.92519282472E+03  0.37318503752E+04  0.36153458286E+04 0.  0.
        5    1    3    3  502    0  0.16145099884E+04 -0.69022524292E+03 -0.90610001183E+03  0.19758777063E+04  0.46999998093E+01 0.  1.
       -5    1    3    3    0  502 -0.16145099884E+04  0.69022524292E+03 -0.19092812889E+02  0.17559726690E+04  0.46999998093E+01 0. -1.
</event>
<event>
 5   0  0.7261233E-08  0.3595155E+04  0.7818609E-02  0.8091602E-01
        1   -1    0    0  501    0  0.00000000000E+00  0.00000000000E+00  0.13122701465E+04  0.13122701465E+04  0.50400001928E-02 0. -1.
       -1   -1    0    0    0  501  0.00000000000E+00  0.00000000000E+00 -0.24623621524E+04  0.24623621524E+04  0.50400001928E-02 0.  1.
    10030    2    1    2    0    0  0.00000000000E+00  0.00000000000E+00 -0.11500920059E+04  0.37746322990E+04  0.35951547074E+04 0.  0.
        3    1    3    3  502    0 -0.40413431567E+03 -0.11264275349E+04  0.83322821918E+03  0.14582293414E+04  0.10100000352E+00 0. -1.
       -3    1    3    3    0  502  0.40413431567E+03  0.11264275349E+04 -0.19833202251E+04  0.23164029576E+04  0.10100000352E+00 0.  1.
</event>
<event>
 5   0  0.2342606E-07  0.3595189E+04  0.7818609E-02  0.8091595E-01
       -2   -1    0    0    0  501  0.00000000000E+00  0.00000000000E+00  0.24850792916E+04  0.24850792916E+04  0.25500000920E-02 0.  1.
        2   -1    0    0  501    0  0.00000000000E+00  0.00000000000E+00 -0.13002985906E+04  0.13002985906E+04  0.25500000920E-02 0. -1.
    10030    2    1    2    0    0  0.00000000000E+00  0.00000000000E+00  0.11847807010E+04  0.37853778823E+04  0.35951885072E+04 0.  0.
        5    1    3    3  502    0  0.49692622661E+03 -0.37401864352E+03  0.23681751874E+04  0.24484896219E+04  0.46999998093E+01 0.  1.
       -5    1    3    3    0  502 -0.49692622661E+03  0.37401864352E+03 -0.11833944864E+04  0.13368882604E+04  0.46999998093E+01 0. -1.
</event>
<event>
 5   0  0.7236375E-08  0.3599166E+04  0.7818609E-02  0.8090683E-01
       -1   -1    0    0    0  501  0.00000000000E+00  0.00000000000E+00  0.20381703331E+04  0.20381703331E+04  0.50400001928E-02 0.  1.
        1   -1    0    0  501    0  0.00000000000E+00  0.00000000000E+00 -0.15889249377E+04  0.15889249377E+04  0.50400001928E-02 0. -1.
    10030    2    1    2    0    0  0.00000000000E+00  0.00000000000E+00  0.44924539540E+03  0.36270952708E+04  0.35991663866E+04 0.  0.
        5    1    3    3  502    0  0.36643477605E+03  0.13967694041E+03 -0.15453356535E+04  0.15943238268E+04  0.46999998093E+01 0. -1.
       -5    1    3    3    0  502 -0.36643477605E+03 -0.13967694041E+03  0.19945810489E+04  0.20327714440E+04  0.46999998093E+01 0.  1.
</event>
<event>
 5   0  0.2238968E-07  0.3744961E+04  0.7818609E-02  0.8058070E-01
        2   -1    0    0  501    0  0.00000000000E+00  0.00000000000E+00  0.27960208622E+04  0.27960208622E+04  0.25500000920E-02 0.  1.
       -2   -1    0    0    0  501  0.00000000000E+00  0.00000000000E+00 -0.12539905655E+04  0.12539905655E+04  0.25500000920E-02 0. -1.
    10030    2    1    2    0    0  0.00000000000E+00  0.00000000000E+00  0.15420302967E+04  0.40500114276E+04  0.37449612986E+04 0.  0.
        3    1    3    3  502    0 -0.49610102536E+03 -0.27544647581E+03 -0.11587695761E+04  0.12902456855E+04  0.10100000352E+00 0. -1.
       -3    1    3    3    0  502  0.49610102536E+03  0.27544647581E+03  0.27007998728E+04  0.27597657421E+04  0.10100000352E+00 0.  1.
</event>
<event>
 5   0  0.2198900E-07  0.3606423E+04  0.7818609E-02  0.8089022E-01
       -2   -1    0    0    0  501  0.00000000000E+00  0.00000000000E+00  0.15262963605E+04  0.15262963605E+04  0.25500000920E-02 0.  1.
        2   -1    0    0  501    0  0.00000000000E+00  0.00000000000E+00 -0.21303675434E+04  0.21303675434E+04  0.25500000920E-02 0. -1.
    10030    2    1    2    0    0  0.00000000000E+00  0.00000000000E+00 -0.60407118289E+03  0.36566639040E+04  0.36064232853E+04 0.  0.
        2    1    3    3  502    0  0.17598971867E+04 -0.34990474584E+03 -0.12093950686E+03  0.17984153589E+04  0.25500000920E-02 0.  1.
       -2    1    3    3    0  502 -0.17598971867E+04  0.34990474584E+03 -0.48313167603E+03  0.18582485451E+04  0.25500000920E-02 0. -1.
</event>
<event>
 5   0  0.7236375E-08  0.3588806E+04  0.7818609E-02  0.8093061E-01
       -1   -1    0    0    0  501  0.00000000000E+00  0.00000000000E+00  0.22952802267E+04  0.22952802267E+04  0.50400001928E-02 0. -1.
        1   -1    0    0  501    0  0.00000000000E+00  0.00000000000E+00 -0.14028275136E+04  0.14028275136E+04  0.50400001928E-02 0.  1.
    10030    2    1    2    0    0  0.00000000000E+00  0.00000000000E+00  0.89245271306E+03  0.36981077403E+04  0.35888060708E+04 0.  0.
        1    1    3    3  502    0 -0.17092316688E+02 -0.12335498296E+04  0.17889646302E+04  0.21730926758E+04  0.50400001928E-02 0. -1.
       -1    1    3    3    0  502  0.17092316688E+02  0.12335498296E+04 -0.89651191713E+03  0.15250150645E+04  0.50400001928E-02 0.  1.
</event>
<event>
 5   0  0.7261233E-08  0.3597333E+04  0.7818609E-02  0.8091103E-01
       -1   -1    0    0    0  501  0.00000000000E+00  0.00000000000E+00  0.19828184974E+04  0.19828184974E+04  0.50400001928E-02 0.  1.
        1   -1    0    0  501    0  0.00000000000E+00  0.00000000000E+00 -0.16316175744E+04  0.16316175744E+04  0.50400001928E-02 0. -1.
    10030    2    1    2    0    0  0.00000000000E+00  0.00000000000E+00  0.35120092300E+03  0.36144360719E+04  0.35973331830E+04 0.  0.
        3    1    3    3  502    0 -0.10335308145E+04  0.60487424813E+03  0.15240476581E+04  0.19382414904E+04  0.10100000352E+00 0.  1.
       -3    1    3    3    0  502  0.10335308145E+04 -0.60487424813E+03 -0.11728467351E+04  0.16761945815E+04  0.10100000352E+00 0. -1.
</event>
<event>
 5   0  0.2309391E-07  0.3566463E+04  0.7818609E-02  0.8098217E-01
        2   -1    0    0  501    0  0.00000000000E+00  0.00000000000E+00  0.11345552775E+04  0.11345552775E+04  0.25500000920E-02 0. -1.
       -2   -1    0    0    0  501  0.00000000000E+00  0.00000000000E+00 -0.28027845256E+04  0.28027845256E+04  0.25500000920E-02 0.  1.
    10030    2    1    2    0    0  0.00000000000E+00  0.00000000000E+00 -0.16682292480E+04  0.39373398031E+04  0.35664626594E+04 0.  0.
        4    1    3    3  502    0 -0.53221632623E+01  0.64237413579E+02  0.11332682580E+04  0.11351005806E+04  0.12699999809E+01 0. -1.
       -4    1    3    3    0  502  0.53221632623E+01 -0.64237413579E+02 -0.28014975060E+04  0.28022392224E+04  0.12699999809E+01 0.  1.
</event>
<event>
 5   0  0.2309391E-07  0.3594836E+04  0.7818609E-02  0.8091676E-01
        2   -1    0    0  501    0  0.00000000000E+00  0.00000000000E+00  0.24756362415E+04  0.24756362415E+04  0.25500000920E-02 0.  1.
       -2   -1    0    0    0  501  0.00000000000E+00  0.00000000000E+00 -0.13050023503E+04  0.13050023503E+04  0.25500000920E-02 0. -1.
    10030    2    1    2    0    0  0.00000000000E+00  0.00000000000E+00  0.11706338912E+04  0.37806385919E+04  0.35948358036E+04 0.  0.
        4    1    3    3  502    0 -0.13722530811E+04 -0.50969750083E+03 -0.51158676297E+03  0.15506749143E+04  0.12699999809E+01 0. -1.
       -4    1    3    3    0  502  0.13722530811E+04  0.50969750083E+03  0.16822206542E+04  0.22299636775E+04  0.12699999809E+01 0.  1.
</event>
<event>
 5   0  0.2199902E-07  0.3596031E+04  0.7818609E-02  0.8091402E-01
       -2   -1    0    0    0  501  0.00000000000E+00  0.00000000000E+00  0.14091273490E+04  0.14091273490E+04  0.25500000920E-02 0. -1.
        2   -1    0    0  501    0  0.00000000000E+00  0.00000000000E+00 -0.22942275945E+04  0.22942275945E+04  0.25500000920E-02 0.  1.
    10030    2    1    2    0    0  0.00000000000E+00  0.00000000000E+00 -0.88510024553E+03  0.37033549435E+04  0.35960305050E+04 0.  0.
        1    1    3    3  502    0 -0.63368188234E+03 -0.12194247077E+04 -0.16365976280E+04  0.21370543142E+04  0.50400001928E-02 0.  1.
       -1    1    3    3    0  502  0.63368188234E+03  0.12194247077E+04  0.75149738244E+03  0.15663006294E+04  0.50400001928E-02 0. -1.
</event>
<event>
 5   0  0.2342606E-07  0.3599947E+04  0.7818609E-02  0.8090504E-01
        2   -1    0    0  501    0  0.00000000000E+00  0.00000000000E+00  0.19118778357E+04  0.19118778357E+04  0.25500000920E-02 0.  1.
       -2   -1    0    0    0  501  0.00000000000E+00  0.00000000000E+00 -0.16946187093E+04  0.16946187093E+04  0.25500000920E-02 0. -1.
    10030    2    1    2    0    0  0.00000000000E+00  0.00000000000E+00  0.21725912644E+03  0.36064965449E+04  0.35999466386E+04 0.  0.
        5    1    3    3  502    0 -0.11374308961E+04 -0.12286127211E+04  0.77062196664E+03  0.18431273877E+04  0.46999998093E+01 0.  1.
       -5    1    3    3    0  502  0.11374308961E+04  0.12286127211E+04 -0.55336284020E+03  0.17633691572E+04  0.46999998093E+01 0. -1.
</event>
<event>
 5   0  0.7261233E-08  0.3598634E+04  0.7818609E-02  0.8090805E-01
        1   -1    0    0  501    0  0.00000000000E+00  0.00000000000E+00  0.11379254912E+04  0.11379254912E+04  0.50400001928E-02 0. -1.
       -1   -1    0    0    0  501  0.00000000000E+00  0.00000000000E+00 -0.28451265756E+04  0.28451265756E+04  0.50400001928E-02 0.  1.
    10030    2    1    2    0    0  0.00000000000E+00  0.00000000000E+00 -0.17072010844E+04  0.39830520668E+04  0.35986342165E+04 0.  0.
        3    1    3    3  502    0 -0.15867556168E+04 -0.44578217616E+03 -0.16525298548E+04  0.23339601683E+04  0.10100000352E+00 0.  1.
       -3    1    3    3    0  502  0.15867556168E+04  0.44578217616E+03 -0.54671229607E+02  0.16490918985E+04  0.10100000352E+00 0. -1.
</event>
<event>
 5   0  0.7236375E-08  0.3587259E+04  0.7818609E-02  0.8093416E-01
        1   -1    0    0  501    0  0.00000000000E+00  0.00000000000E+00  0.16137462777E+04  0.16137462777E+04  0.50400001928E-02 0. -1.
       -1   -1    0    0    0  501  0.00000000000E+00  0.00000000000E+00 -0.19935640836E+04  0.19935640836E+04  0.50400001928E-02 0.  1.
    10030    2    1    2    0    0  0.00000000000E+00  0.00000000000E+00 -0.37981780586E+03  0.36073103613E+04  0.35872589086E+04 0.  0.
        1    1    3    3  502    0  0.98749677045E+02 -0.54324104045E+03  0.15261598670E+04  0.16229683504E+04  0.50400001928E-02 0. -1.
       -1    1    3    3    0  502 -0.98749677045E+02  0.54324104045E+03 -0.19059776729E+04  0.19843420109E+04  0.50400001928E-02 0.  1.
</event>
<event>
 5   0  0.2198900E-07  0.3594700E+04  0.7818609E-02  0.8091707E-01
       -2   -1    0    0    0  501  0.00000000000E+00  0.00000000000E+00  0.13171319432E+04  0.13171319432E+04  0.25500000920E-02 0.  1.
        2   -1    0    0  501    0  0.00000000000E+00  0.00000000000E+00 -0.24526525814E+04  0.24526525814E+04  0.25500000920E-02 0. -1.
    10030    2    1    2    0    0  0.00000000000E+00  0.00000000000E+00 -0.11355206382E+04  0.37697845246E+04  0.35947000212E+04 0.  0.
        2    1    3    3  502    0  0.90780948780E+03 -0.63159848878E+03  0.91808750161E+03  0.14373306432E+04  0.25500000920E-02 0.  1.
       -2    1    3    3    0  502 -0.90780948780E+03  0.63159848878E+03 -0.20536081398E+04  0.23324538814E+04  0.25500000920E-02 0. -1.
</event>
<event>
 5   0  0.7236375E-08  0.3600105E+04  0.7818609E-02  0.8090468E-01
        1   -1    0    0  501    0  0.00000000000E+00  0.00000000000E+00  0.17891958830E+04  0.17891958830E+04  0.50400001928E-02 0.  1.
       -1   -1    0    0    0  501  0.00000000000E+00  0.00000000000E+00 -0.18109747810E+04  0.18109747810E+04  0.50400001928E-02 0. -1.
    10030    2    1    2    0    0  0.00000000000E+00  0.00000000000E+00 -0.21778897992E+02  0.36001706641E+04  0.36001047888E+04 0.  0.
        5    1    3    3  502    0 -0.71375035744E+03  0.76193170023E+03  0.14554889925E+04  0.17912146119E+04  0.46999998093E+01 0.  1.
       -5    1    3    3    0  502  0.71375035744E+03 -0.76193170023E+03 -0.14772678905E+04  0.18089560522E+04  0.46999998093E+01 0. -1.
</event>
<event>
 5   0  0.7261233E-08  0.3592890E+04  0.7818609E-02  0.8092122E-01
       -1   -1    0    0    0  501  0.00000000000E+00  0.00000000000E+00  0.13926387743E+04  0.13926387743E+04  0.50400001928E-02 0.  1.
        1   -1    0    0  501    0  0.00000000000E+00  0.00000000000E+00 -0.23173377587E+04  0.23173377587E+04  0.50400001928E-02 0. -1.
    10030    2    1    2    0    0  0.00000000000E+00  0.00000000000E+00 -0.92469898441E+03  0.37099765331E+04  0.35928898764E+04 0.  0.
        3    1    3    3  502    0 -0.12377709396E+04 -0.66948257137E+03  0.69070118900E+03  0.15675943210E+04  0.10100000352E+00 0.  1.
       -3    1    3    3    0  502  0.12377709396E+04  0.66948257137E+03 -0.16154001734E+04  0.21423822121E+04  0.10100000352E+00 0. -1.
</event>
<event>
 5   0  0.7347303E-08  0.3582309E+04  0.7818609E-02  0.8094556E-01
        1   -1    0    0  501    0  0.00000000000E+00  0.00000000000E+00  0.26576579001E+04  0.26576579001E+04  0.50400001928E-02 0. -1.
       -1   -1    0    0    0  501  0.00000000000E+00  0.00000000000E+00 -0.12071659401E+04  0.12071659401E+04  0.50400001928E-02 0.  1.
    10030    2    1    2    0    0  0.00000000000E+00  0.00000000000E+00  0.14504919600E+04  0.38648238402E+04  0.35823088071E+04 0.  0.
        2    1    3    3  502    0  0.28663535337E+03 -0.22342485599E+03 -0.11669705530E+04  0.12222515141E+04  0.25500000920E-02 0.  1.
       -2    1    3    3    0  502 -0.28663535337E+03  0.22342485599E+03  0.26174625129E+04  0.26425723261E+04  0.25500000920E-02 0. -1.
</event>
<event>
 5   0  0.2198900E-07  0.3604755E+04  0.7818609E-02  0.8089403E-01
        2   -1    0    0  501    0  0.00000000000E+00  0.00000000000E+00  0.27965542742E+04  0.27965542742E+04  0.25500000920E-02 0. -1.
       -2   -1    0    0    0  501  0.00000000000E+00  0.00000000000E+00 -0.11616314282E+04  0.11616314282E+04  0.25500000920E-02 0.  1.
    10030    2    1    2    0    0  0.00000000000E+00  0.00000000000E+00  0.16349228460E+04  0.39581857024E+04  0.36047553790E+04 0.  0.
        2    1    3    3  502    0 -0.38830884775E+02 -0.68837914532E+03 -0.10111031826E+04  0.12238069011E+04  0.25500000920E-02 0.  1.
       -2    1    3    3    0  502  0.38830884775E+02  0.68837914532E+03  0.26460260286E+04  0.27343788014E+04  0.25500000920E-02 0. -1.
</event>
<event>
 5   0  0.2238968E-07  0.3607762E+04  0.7818609E-02  0.8088716E-01
        2   -1    0    0  501    0  0.00000000000E+00  0.00000000000E+00  0.15529059570E+04  0.15529059570E+04  0.25500000920E-02 0. -1.
       -2   -1    0    0    0  501  0.00000000000E+00  0.00000000000E+00 -0.20954182883E+04  0.20954182883E+04  0.25500000920E-02 0.  1.
    10030    2    1    2    0    0  0.00000000000E+00  0.00000000000E+00 -0.54251233123E+03  0.36483242453E+04  0.36077624879E+04 0.  0.
        3    1    3    3  502    0  0.49188009876E+03 -0.16269979967E+04 -0.88213311836E+03  0.19150006166E+04  0.10100000352E+00 0.  1.
       -3    1    3    3    0  502 -0.49188009876E+03  0.16269979967E+04  0.33962078713E+03  0.17333236287E+04  0.10100000352E+00 0. -1.
</event>
<event>
 5   0  0.7236375E-08  0.3602682E+04  0.7818609E-02  0.8089878E-01
       -1   -1    0    0    0  501  0.00000000000E+00  0.00000000000E+00  0.14147352869E+04  0.14147352869E+04  0.50400001928E-02 0.  1.
        1   -1    0    0  501    0  0.00000000000E+00  0.00000000000E+00 -0.22935948820E+04  0.22935948820E+04  0.50400001928E-02 0. -1.
    10030    2    1    2    0    0  0.00000000000E+00  0.00000000000E+00 -0.87885959514E+03  0.37083301689E+04  0.36026821194E+04 0.  0.
        5    1    3    3  502    0  0.11119822432E+04  0.14104414002E+04 -0.58115579503E+03  0.18877535858E+04  0.46999998093E+01 0. -1.
       -5    1    3    3    0  502 -0.11119822432E+04 -0.14104414002E+04 -0.29770380011E+03  0.18205765831E+04  0.46999998093E+01 0.  1.
</event>
<event>
 5   0  0.7236375E-08  0.3588347E+04  0.7818609E-02  0.8093166E-01
       -1   -1    0    0    0  501  0.00000000000E+00  0.00000000000E+00  0.30848615571E+04  0.30848615571E+04  0.50400001928E-02 0. -1.
        1   -1    0    0  501    0  0.00000000000E+00  0.00000000000E+00 -0.10435018280E+04  0.10435018280E+04  0.50400001928E-02 0.  1.
    10030    2    1    2    0    0  0.00000000000E+00  0.00000000000E+00  0.20413597291E+04  0.41283633852E+04  0.35883470702E+04 0.  0.
        1    1    3    3  502    0  0.12686326496E+04  0.63396156980E+03 -0.24366943618E+03  0.14389964787E+04  0.50400001928E-02 0.  1.
       -1    1    3    3    0  502 -0.12686326496E+04 -0.63396156980E+03  0.22850291653E+04  0.26893669065E+04  0.50400001928E-02 0. -1.
</event>
<event>
 5   0  0.7236375E-08  0.3592650E+04  0.7818609E-02  0.8092177E-01
       -1   -1    0    0    0  501  0.00000000000E+00  0.00000000000E+00  0.19464515068E+04  0.19464515068E+04  0.50400001928E-02 0. -1.
        1   -1    0    0  501    0  0.00000000000E+00  0.00000000000E+00 -0.16577775314E+04  0.16577775314E+04  0.50400001928E-02 0.  1.
    10030    2    1    2    0    0  0.00000000000E+00  0.00000000000E+00  0.28867397544E+03  0.36042290382E+04  0.35926500380E+04 0.  0.
        5    1    3    3  502    0  0.38941461809E+03  0.17535122191E+04  0.16207550866E+03  0.18035352527E+04  0.46999998093E+01 0. -1.
       -5    1    3    3    0  502 -0.38941461809E+03 -0.17535122191E+04  0.12659846678E+03  0.18006937855E+04  0.46999998093E+01 0.  1.
</event>
<event>
 5   0  0.2342606E-07  0.3684366E+04  0.7818609E-02  0.8071435E-01
       -2   -1    0    0    0  501  0.00000000000E+00  0.00000000000E+00  0.21946512639E+04  0.21946512639E+04  0.25500000920E-02 0.  1.
        2   -1    0    0  501    0  0.00000000000E+00  0.00000000000E+00 -0.15463226682E+04  0.15463226682E+04  0.25500000920E-02 0. -1.
    10030    2    1    2    0    0  0.00000000000E+00  0.00000000000E+00  0.64832859570E+03  0.37409739321E+04  0.36843664303E+04 0.  0.
        5    1    3    3  502    0  0.16302196589E+04 -0.77599744300E+03  0.69561104590E+03  0.19348604562E+04  0.46999998093E+01 0.  1.
       -5    1    3    3    0  502 -0.16302196589E+04  0.77599744300E+03 -0.47282450200E+02  0.18061134759E+04  0.46999998093E+01 0. -1.
</event>
<event>
 5   0  0.2198900E-07  0.3602266E+04  0.7818609E-02  0.8089973E-01
        2   -1    0    0  501    0  0.00000000000E+00  0.00000000000E+00  0.17045164806E+04  0.17045164806E+04  0.25500000920E-02 0. -1.
       -2   -1    0    0    0  501  0.00000000000E+00  0.00000000000E+00 -0.19032259497E+04  0.19032259497E+04  0.25500000920E-02 0.  1.
    10030    2    1    2    0    0  0.00000000000E+00  0.00000000000E+00 -0.19870946910E+03  0.36077424302E+04  0.36022659521E+04 0.  0.
        2    1    3    3  502    0 -0.57989579168E+03  0.16423136403E+04  0.36026209214E+03  0.17785561552E+04  0.25500000920E-02 0. -1.
       -2    1    3    3    0  502  0.57989579168E+03 -0.16423136403E+04 -0.55897156125E+03  0.18291862750E+04  0.25500000920E-02 0.  1.
</event>
<event>
 5   0  0.2198900E-07  0.3591682E+04  0.7818609E-02  0.8092400E-01
        2   -1    0    0  501    0  0.00000000000E+00  0.00000000000E+00  0.23465081890E+04  0.23465081890E+04  0.25500000920E-02 0.  1.
       -2   -1    0    0    0  501  0.00000000000E+00  0.00000000000E+00 -0.13744016995E+04  0.13744016995E+04  0.25500000920E-02 0. -1.
    10030    2    1    2    0    0  0.00000000000E+00  0.00000000000E+00  0.97210648949E+03  0.37209098885E+04  0.35916819697E+04 0.  0.
        2    1    3    3  502    0  0.16264384318E+03  0.13047930142E+04  0.17532166066E+04  0.21915077685E+04  0.25500000920E-02 0.  1.
       -2    1    3    3    0  502 -0.16264384318E+03 -0.13047930142E+04 -0.78111011707E+03  0.15294021200E+04  0.25500000920E-02 0. -1.
</event>
<event>
 5   0  0.2342606E-07  0.3597310E+04  0.7818609E-02  0.8091108E-01
        2   -1    0    0  501    0  0.00000000000E+00  0.00000000000E+00  0.18045697389E+04  0.18045697389E+04  0.25500000920E-02 0.  1.
       -2   -1    0    0    0  501  0.00000000000E+00  0.00000000000E+00 -0.17927599181E+04  0.17927599181E+04  0.25500000920E-02 0. -1.
    10030    2    1    2    0    0  0.00000000000E+00  0.00000000000E+00  0.11809820790E+02  0.35973296571E+04  0.35973102716E+04 0.  0.
        5    1    3    3  502    0 -0.22603462882E+03 -0.15980461194E+04  0.79982048996E+03  0.18012712065E+04  0.46999998093E+01 0.  1.
       -5    1    3    3    0  502  0.22603462882E+03  0.15980461194E+04 -0.78801066917E+03  0.17960584506E+04  0.46999998093E+01 0. -1.
</event>
<event>
 5   0  0.2199902E-07  0.3596155E+04  0.7818609E-02  0.8091373E-01
        2   -1    0    0  501    0  0.00000000000E+00  0.00000000000E+00  0.24684282453E+04  0.24684282453E+04  0.25500000920E-02 0.  1.
       -2   -1    0    0    0  501  0.00000000000E+00  0.00000000000E+00 -0.13097741408E+04  0.13097741408E+04  0.25500000920E-02 0. -1.
    10030    2    1    2    0    0  0.00000000000E+00  0.00000000000E+00  0.11586541045E+04  0.37782023861E+04  0.35961554383E+04 0.  0.
        1    1    3    3  502    0  0.92847175864E+03 -0.40945525549E+03 -0.98019128544E+03  0.14108466851E+04  0.50400001928E-02 0. -1.
       -1    1    3    3    0  502 -0.92847175864E+03  0.40945525549E+03  0.21388453899E+04  0.23673557009E+04  0.50400001928E-02 0.  1.
</event>
<event>
 5   0  0.2198900E-07  0.3589480E+04  0.7818609E-02  0.8092906E-01
        2   -1    0    0  501    0  0.00000000000E+00  0.00000000000E+00  0.24060519067E+04  0.24060519067E+04  0.25500000920E-02 0. -1.
       -2   -1    0    0    0  501  0.00000000000E+00  0.00000000000E+00 -0.13387455549E+04  0.13387455549E+04  0.25500000920E-02 0.  1.
    10030    2    1    2    0    0  0.00000000000E+00  0.00000000000E+00  0.10673063518E+04  0.37447974616E+04  0.35894797923E+04 0.  0.
        2    1    3    3  502    0  0.71463955552E+02 -0.23522880231E+03 -0.13210957771E+04  0.13437759257E+04  0.25500000920E-02 0.  1.
       -2    1    3    3    0  502 -0.71463955552E+02  0.23522880231E+03  0.23884021289E+04  0.24010215358E+04  0.25500000920E-02 0. -1.
</event>
<event>
 5   0  0.2199902E-07  0.3592272E+04  0.7818609E-02  0.8092264E-01
        2   -1    0    0  501    0  0.00000000000E+00  0.00000000000E+00  0.18708989903E+04  0.18708989903E+04  0.25500000920E-02 0. -1.
       -2   -1    0    0    0  501  0.00000000000E+00  0.00000000000E+00 -0.17243604634E+04  0.17243604634E+04  0.25500000920E-02 0.  1.
    10030    2    1    2    0    0  0.00000000000E+00  0.00000000000E+00  0.14653852691E+03  0.35952594537E+04  0.35922718437E+04 0.  0.
        1    1    3    3  502    0  0.13833368870E+04 -0.92588188472E+03  0.74853481071E+03  0.18251527526E+04  0.50400001928E-02 0. -1.
       -1    1    3    3    0  502 -0.13833368870E+04  0.92588188472E+03 -0.60199628380E+03  0.17701067011E+04  0.50400001928E-02 0.  1.
</event>
<event>
 5   0  0.7514289E-08  0.3603071E+04  0.7818609E-02  0.8089789E-01
        1   -1    0    0  501    0  0.00000000000E+00  0.00000000000E+00  0.19110475234E+04  0.19110475234E+04  0.50400001928E-02 0. -1.
       -1   -1    0    0    0  501  0.00000000000E+00  0.00000000000E+00 -0.16982990376E+04  0.16982990376E+04  0.50400001928E-02 0.  1.
    10030    2    1    2    0    0  0.00000000000E+00  0.00000000000E+00  0.21274848574E+03  0.36093465610E+04  0.36030710067E+04 0.  0.
        4    1    3    3  502    0 -0.82467503195E+03 -0.96835357542E+03 -0.11716735085E+04  0.17293403305E+04  0.12699999809E+01 0.  1.
       -4    1    3    3    0  502  0.82467503195E+03  0.96835357542E+03  0.13844219943E+04  0.18800062304E+04  0.12699999809E+01 0. -1.
</event>
<event>
 5   0  0.7514289E-08  0.3610772E+04  0.7818609E-02  0.8088029E-01
        1   -1    0    0  501    0  0.00000000000E+00  0.00000000000E+00  0.26684193025E+04  0.26684193025E+04  0.50400001928E-02 0.  1.
       -1   -1    0    0    0  501  0.00000000000E+00  0.00000000000E+00 -0.12214791324E+04  0.12214791324E+04  0.50400001928E-02 0. -1.
    10030    2    1    2    0    0  0.00000000000E+00  0.00000000000E+00  0.14469401700E+04  0.38898984349E+04  0.36107719366E+04 0.  0.
        4    1    3    3  502    0  0.50455292437E+03  0.10066324489E+04  0.22437799145E+04  0.25104645902E+04  0.12699999809E+01 0.  1.
       -4    1    3    3    0  502 -0.50455292437E+03 -0.10066324489E+04 -0.79683974448E+03  0.13794338447E+04  0.12699999809E+01 0. -1.
</event>
<event>
 5   0  0.7514289E-08  0.3588702E+04  0.7818609E-02  0.8093084E-01
        1   -1    0    0  501    0  0.00000000000E+00  0.00000000000E+00  0.21747717101E+04  0.21747717101E+04  0.50400001928E-02 0.  1.
       -1   -1    0    0    0  501  0.00000000000E+00  0.00000000000E+00 -0.14804753195E+04  0.14804753195E+04  0.50400001928E-02 0. -1.
    10030    2    1    2    0    0  0.00000000000E+00  0.00000000000E+00  0.69429639055E+03  0.36552470296E+04  0.35887021846E+04 0.  0.
        4    1    3    3  502    0 -0.51529026660E+03  0.13035175469E+04 -0.79389814762E+03  0.16108873131E+04  0.12699999809E+01 0. -1.
       -4    1    3    3    0  502  0.51529026660E+03 -0.13035175469E+04  0.14881945382E+04  0.20443597165E+04  0.12699999809E+01 0.  1.
</event>
<event>
 5   0  0.2309391E-07  0.3585078E+04  0.7818609E-02  0.8093918E-01
        2   -1    0    0  501    0  0.00000000000E+00  0.00000000000E+00  0.20185506747E+04  0.20185506747E+04  0.25500000920E-02 0.  1.
       -2   -1    0    0    0  501  0.00000000000E+00  0.00000000000E+00 -0.15918330638E+04  0.15918330638E+04  0.25500000920E-02 0. -1.
    10030    2    1    2    0    0  0.00000000000E+00  0.00000000000E+00  0.42671761096E+03  0.36103837385E+04  0.35850777983E+04 0.  0.
        4    1    3    3  502    0 -0.16363171110E+04  0.38974236535E+03  0.83721625326E+03  0.18789266795E+04  0.12699999809E+01 0.  1.
       -4    1    3    3    0  502  0.16363171110E+04 -0.38974236535E+03 -0.41049864230E+03  0.17314570591E+04  0.12699999809E+01 0. -1.
</event>
<event>
 5   0  0.7236375E-08  0.3606254E+04  0.7818609E-02  0.8089061E-01
       -1   -1    0    0    0  501  0.00000000000E+00  0.00000000000E+00  0.13844600583E+04  0.13844600583E+04  0.50400001928E-02 0.  1.
        1   -1    0    0  501    0  0.00000000000E+00  0.00000000000E+00 -0.23484008664E+04  0.23484008664E+04  0.50400001928E-02 0. -1.
    10030    2    1    2    0    0  0.00000000000E+00  0.00000000000E+00 -0.96394080817E+03  0.37328609247E+04  0.36062541233E+04 0.  0.
        5    1    3    3  502    0 -0.19731320157E+03 -0.15841647778E+04  0.38575266005E+03  0.16423573751E+04  0.46999998093E+01 0.  1.
       -5    1    3    3    0  502  0.19731320157E+03  0.15841647778E+04 -0.13496934682E+04  0.20905035496E+04  0.46999998093E+01 0. -1.
</event>
<event>
 5   0  0.7347303E-08  0.3606110E+04  0.7818609E-02  0.8089093E-01
        1   -1    0    0  501    0  0.00000000000E+00  0.00000000000E+00  0.18570595989E+04  0.18570595989E+04  0.50400001928E-02 0.  1.
       -1   -1    0    0    0  501  0.00000000000E+00  0.00000000000E+00 -0.17506212406E+04  0.17506212406E+04  0.50400001928E-02 0. -1.
    10030    2    1    2    0    0  0.00000000000E+00  0.00000000000E+00  0.10643835830E+03  0.36076808396E+04  0.36061103583E+04 0.  0.
        2    1    3    3  502    0 -0.97576257730E+03 -0.63035613371E+03  0.14327854680E+04  0.18445421275E+04  0.25500000920E-02 0.  1.
       -2    1    3    3    0  502  0.97576257730E+03  0.63035613371E+03 -0.13263471097E+04  0.17631387121E+04  0.25500000920E-02 0. -1.
</event>
<event>
 5   0  0.7514289E-08  0.3572983E+04  0.7818609E-02  0.8096708E-01
        1   -1    0    0  501    0  0.00000000000E+00  0.00000000000E+00  0.23524567795E+04  0.23524567795E+04  0.50400001928E-02 0. -1.
       -1   -1    0    0    0  501  0.00000000000E+00  0.00000000000E+00 -0.13566888796E+04  0.13566888796E+04  0.50400001928E-02 0.  1.
    10030    2    1    2    0    0  0.00000000000E+00  0.00000000000E+00  0.99576789997E+03  0.37091456591E+04  0.35729830408E+04 0.  0.
        4    1    3    3  502    0  0.68764666452E+03  0.12116957259E+04 -0.66298268320E+03  0.15429232381E+04  0.12699999809E+01 0.  1.
       -4    1    3    3    0  502 -0.68764666452E+03 -0.12116957259E+04  0.16587505832E+04  0.21662224211E+04  0.12699999809E+01 0. -1.
</event>
<event>
 5   0  0.7514289E-08  0.3598623E+04  0.7818609E-02  0.8090807E-01
        1   -1    0    0  501    0  0.00000000000E+00  0.00000000000E+00  0.14665264262E+04  0.14665264262E+04  0.50400001928E-02 0. -1.
       -1   -1    0    0    0  501  0.00000000000E+00  0.00000000000E+00 -0.22076124118E+04  0.22076124118E+04  0.50400001928E-02 0.  1.
    10030    2    1    2    0    0  0.00000000000E+00  0.00000000000E+00 -0.74108598558E+03  0.36741388380E+04  0.35986230371E+04 0.  0.
        4    1    3    3  502    0  0.32995329166E+03 -0.14827730020E+04 -0.13551636479E+04  0.20356706697E+04  0.12699999809E+01 0.  1.
       -4    1    3    3    0  502 -0.32995329166E+03  0.14827730020E+04  0.61407766232E+03  0.16384681683E+04  0.12699999809E+01 0. -1.
</event>
<event>
 5   0  0.2238968E-07  0.3631870E+04  0.7818609E-02  0.8083230E-01
        2   -1    0    0  501    0  0.00000000000E+00  0.00000000000E+00  0.17936833058E+04  0.17936833058E+04  0.25500000920E-02 0. -1.
       -2   -1    0    0    0  501  0.00000000000E+00  0.00000000000E+00 -0.18384631123E+04  0.18384631123E+04  0.25500000920E-02 0.  1.
    10030    2    1    2    0    0  0.00000000000E+00  0.00000000000E+00 -0.44779806485E+02  0.36321464181E+04  0.36318703682E+04 0.  0.
        3    1    3    3  502    0 -0.41995937416E+02 -0.60130371503E+03  0.16907174607E+04  0.17949527455E+04  0.10100000352E+00 0. -1.
       -3    1    3    3    0  502  0.41995937416E+02  0.60130371503E+03 -0.17354972671E+04  0.18371936727E+04  0.10100000352E+00 0.  1.
</event>
<event>
 5   0  0.7347303E-08  0.3599775E+04  0.7818609E-02  0.8090543E-01
       -1   -1    0    0    0  501  0.00000000000E+00  0.00000000000E+00  0.29808884951E+04  0.29808884951E+04  0.50400001928E-02 0.  1.
        1   -1    0    0  501    0  0.00000000000E+00  0.00000000000E+00 -0.10867881528E+04  0.10867881528E+04  0.50400001928E-02 0. -1.
    10030    2    1    2    0    0  0.00000000000E+00  0.00000000000E+00  0.18941003423E+04  0.40676766479E+04  0.35997746048E+04 0.  0.
        2    1    3    3  502    0 -0.43372691821E+03  0.10739823767E+04 -0.60971627997E+03  0.13089351119E+04  0.25500000920E-02 0. -1.
       -2    1    3    3    0  502  0.43372691821E+03 -0.10739823767E+04  0.25038166222E+04  0.27587415361E+04  0.25500000920E-02 0.  1.
</event>
<event>
 5   0  0.2238968E-07  0.3590421E+04  0.7818609E-02  0.8092689E-01
        2   -1    0    0  501    0  0.00000000000E+00  0.00000000000E+00  0.14827691574E+04  0.14827691574E+04  0.25500000920E-02 0.  1.
       -2   -1    0    0    0  501  0.00000000000E+00  0.00000000000E+00 -0.21734876997E+04  0.21734876997E+04  0.25500000920E-02 0. -1.
    10030    2    1    2    0    0  0.00000000000E+00  0.00000000000E+00 -0.69071854228E+03  0.36562568571E+04  0.35904208807E+04 0.  0.
        3    1    3    3  502    0  0.10498680120E+04  0.67005156337E+03  0.97124734758E+03  0.15794028493E+04  0.10100000352E+00 0.  1.
       -3    1    3    3    0  502 -0.10498680120E+04 -0.67005156337E+03 -0.16619658899E+04  0.20768540077E+04  0.10100000352E+00 0. -1.
</event>
<event>
 5   0  0.7236375E-08  0.3616607E+04  0.7818609E-02  0.8086698E-01
        1   -1    0    0  501    0  0.00000000000E+00  0.00000000000E+00  0.16301661809E+04  0.16301661809E+04  0.50400001928E-02 0.  1.
       -1   -1    0    0    0  501  0.00000000000E+00  0.00000000000E+00 -0.20059064957E+04  0.20059064957E+04  0.50400001928E-02 0. -1.
    10030    2    1    2    0    0  0.00000000000E+00  0.00000000000E+00 -0.37574031475E+03  0.36360726766E+04  0.36166066589E+04 0.  0.
        5    1    3    3  502    0 -0.68421568098E+03 -0.52480004458E+03 -0.17858819639E+04  0.19831698525E+04  0.46999998093E+01 0. -1.
       -5    1    3    3    0  502  0.68421568098E+03  0.52480004458E+03  0.14101416492E+04  0.16529028240E+04  0.46999998093E+01 0.  1.
</event>
<event>
 5   0  0.2238968E-07  0.3596340E+04  0.7818609E-02  0.8091330E-01
        2   -1    0    0  501    0  0.00000000000E+00  0.00000000000E+00  0.22383818823E+04  0.22383818823E+04  0.25500000920E-02 0.  1.
       -2   -1    0    0    0  501  0.00000000000E+00  0.00000000000E+00 -0.14445328210E+04  0.14445328210E+04  0.25500000920E-02 0. -1.
    10030    2    1    2    0    0  0.00000000000E+00  0.00000000000E+00  0.79384906127E+03  0.36829147033E+04  0.35963404149E+04 0.  0.
        3    1    3    3  502    0  0.43421122107E+03  0.70449813894E+03 -0.12379266277E+04  0.14890666063E+04  0.10100000352E+00 0. -1.
       -3    1    3    3    0  502 -0.43421122107E+03 -0.70449813894E+03  0.20317756890E+04  0.21938480970E+04  0.10100000352E+00 0.  1.
</event>
<event>
 5   0  0.7261233E-08  0.3592525E+04  0.7818609E-02  0.8092206E-01
       -1   -1    0    0    0  501  0.00000000000E+00  0.00000000000E+00  0.19438260433E+04  0.19438260433E+04  0.50400001928E-02 0.  1.
        1   -1    0    0  501    0  0.00000000000E+00  0.00000000000E+00 -0.16599013967E+04  0.16599013967E+04  0.50400001928E-02 0. -1.
    10030    2    1    2    0    0  0.00000000000E+00  0.00000000000E+00  0.28392464661E+03  0.36037274399E+04  0.35925253313E+04 0.  0.
        3    1    3    3  502    0 -0.16489010325E+04  0.25254716356E+02  0.85625511178E+03  0.18581402644E+04  0.10100000352E+00 0.  1.
       -3    1    3    3    0  502  0.16489010325E+04 -0.25254716356E+02 -0.57233046517E+03  0.17455871755E+04  0.10100000352E+00 0. -1.
</event>
<event>
 5   0  0.7236375E-08  0.3589526E+04  0.7818609E-02  0.8092895E-01
       -1   -1    0    0    0  501  0.00000000000E+00  0.00000000000E+00  0.17160822593E+04  0.17160822593E+04  0.50400001928E-02 0. -1.
        1   -1    0    0  501    0  0.00000000000E+00  0.00000000000E+00 -0.18770511394E+04  0.18770511394E+04  0.50400001928E-02 0.  1.
    10030    2    1    2    0    0  0.00000000000E+00  0.00000000000E+00 -0.16096888004E+03  0.35931333987E+04  0.35895259632E+04 0.  0.
        5    1    3    3  502    0 -0.55579429238E+03 -0.12791199585E+04  0.10502954337E+04  0.17459088613E+04  0.46999998093E+01 0. -1.
       -5    1    3    3    0  502  0.55579429238E+03  0.12791199585E+04 -0.12112643138E+04  0.18472245374E+04  0.46999998093E+01 0.  1.
</event>
<event>
 5   0  0.2238968E-07  0.3590102E+04  0.7818609E-02  0.8092763E-01
        2   -1    0    0  501    0  0.00000000000E+00  0.00000000000E+00  0.22404701216E+04  0.22404701216E+04  0.25500000920E-02 0. -1.
       -2   -1    0    0    0  501  0.00000000000E+00  0.00000000000E+00 -0.14381839490E+04  0.14381839490E+04  0.25500000920E-02 0.  1.
    10030    2    1    2    0    0  0.00000000000E+00  0.00000000000E+00  0.80228617256E+03  0.36786540706E+04  0.35901020415E+04 0.  0.
        3    1    3    3  502    0 -0.75152350697E+03  0.12729758678E+04 -0.64228301587E+03  0.16117638239E+04  0.10100000352E+00 0.  1.
       -3    1    3    3    0  502  0.75152350697E+03 -0.12729758678E+04  0.14445691884E+04  0.20668902467E+04  0.10100000352E+00 0. -1.
</event>
<event>
 5   0  0.7261233E-08  0.3610789E+04  0.7818609E-02  0.8088025E-01
       -1   -1    0    0    0  501  0.00000000000E+00  0.00000000000E+00  0.14215714793E+04  0.14215714794E+04  0.50400001928E-02 0. -1.
        1   -1    0    0  501    0  0.00000000000E+00  0.00000000000E+00 -0.22928492646E+04  0.22928492646E+04  0.50400001928E-02 0.  1.
    10030    2    1    2    0    0  0.00000000000E+00  0.00000000000E+00 -0.87127778524E+03  0.37144207439E+04  0.36107889005E+04 0.  0.
        3    1    3    3  502    0 -0.10322808101E+04  0.20309207141E+03  0.10736437221E+04  0.15031835924E+04  0.10100000352E+00 0. -1.
       -3    1    3    3    0  502  0.10322808101E+04 -0.20309207141E+03 -0.19449215073E+04  0.22112371515E+04  0.10100000352E+00 0.  1.
</event>
<event>
 5   0  0.7347303E-08  0.3604949E+04  0.7818609E-02  0.8089359E-01
        1   -1    0    0  501    0  0.00000000000E+00  0.00000000000E+00  0.18317756456E+04  0.18317756456E+04  0.50400001928E-02 0.  1.
       -1   -1    0    0    0  501  0.00000000000E+00  0.00000000000E+00 -0.17736421905E+04  0.17736421905E+04  0.50400001928E-02 0. -1.
    10030    2    1    2    0    0  0.00000000000E+00  0.00000000000E+00  0.58133455125E+02  0.36054178361E+04  0.36049491361E+04 0.  0.
        2    1    3    3  502    0  0.12519007414E+04 -0.82717490433E+02  0.13233821653E+04  0.18235783517E+04  0.25500000920E-02 0.  1.
       -2    1    3    3    0  502 -0.12519007414E+04  0.82717490433E+02 -0.12652487101E+04  0.17818394843E+04  0.25500000920E-02 0. -1.
</event>
<event>
 5   0  0.2198900E-07  0.3597601E+04  0.7818609E-02  0.8091041E-01
        2   -1    0    0  501    0  0.00000000000E+00  0.00000000000E+00  0.27284142355E+04  0.27284142355E+04  0.25500000920E-02 0. -1.
       -2   -1    0    0    0  501  0.00000000000E+00  0.00000000000E+00 -0.11859209071E+04  0.11859209071E+04  0.25500000920E-02 0.  1.
    10030    2    1    2    0    0  0.00000000000E+00  0.00000000000E+00  0.15424933284E+04  0.39143351426E+04  0.35976011370E+04 0.  0.
        2    1    3    3  502    0 -0.17718866503E+04  0.50926892315E+02  0.11039587160E+04  0.20882769683E+04  0.25500000920E-02 0. -1.
       -2    1    3    3    0  502  0.17718866503E+04 -0.50926892315E+02  0.43853461246E+03  0.18260581743E+04  0.25500000920E-02 0.  1.
</event>
<event>
 5   0  0.2198900E-07  0.3630650E+04  0.7818609E-02  0.8083507E-01
       -2   -1    0    0    0  501  0.00000000000E+00  0.00000000000E+00  0.14597237934E+04  0.14597237934E+04  0.25500000920E-02 0. -1.
        2   -1    0    0  501    0  0.00000000000E+00  0.00000000000E+00 -0.22575536815E+04  0.22575536815E+04  0.25500000920E-02 0.  1.
    10030    2    1    2    0    0  0.00000000000E+00  0.00000000000E+00 -0.79782988803E+03  0.37172774749E+04  0.36306499825E+04 0.  0.
        2    1    3    3  502    0  0.15351941456E+04 -0.96586342949E+03 -0.47615766831E+03  0.18752171485E+04  0.25500000920E-02 0.  1.
       -2    1    3    3    0  502 -0.15351941456E+04  0.96586342949E+03 -0.32167221972E+03  0.18420603264E+04  0.25500000920E-02 0. -1.
</event>
<event>
 5   0  0.2309391E-07  0.3612637E+04  0.7818609E-02  0.8087603E-01
        2   -1    0    0  501    0  0.00000000000E+00  0.00000000000E+00  0.18297005888E+04  0.18297005888E+04  0.25500000920E-02 0. -1.
       -2   -1    0    0    0  501  0.00000000000E+00  0.00000000000E+00 -0.17832353244E+04  0.17832353244E+04  0.25500000920E-02 0.  1.
    10030    2    1    2    0    0  0.00000000000E+00  0.00000000000E+00  0.46465264381E+02  0.36129359132E+04  0.36126371105E+04 0.  0.
        4    1    3    3  502    0 -0.17256940984E+04  0.42093207875E+03  0.35125545285E+03  0.18106865942E+04  0.12699999809E+01 0. -1.
       -4    1    3    3    0  502  0.17256940984E+04 -0.42093207875E+03 -0.30479018847E+03  0.18022493191E+04  0.12699999809E+01 0.  1.
</event>
<event>
 5   0  0.2199902E-07  0.3604031E+04  0.7818609E-02  0.8089569E-01
        2   -1    0    0  501    0  0.00000000000E+00  0.00000000000E+00  0.25219170505E+04  0.25219170505E+04  0.25500000920E-02 0.  1.
       -2   -1    0    0    0  501  0.00000000000E+00  0.00000000000E+00 -0.12876153862E+04  0.12876153862E+04  0.25500000920E-02 0. -1.
    10030    2    1    2    0    0  0.00000000000E+00  0.00000000000E+00  0.12343016643E+04  0.38095324367E+04  0.36040306308E+04 0.  0.
        1    1    3    3  502    0  0.12260013652E+04  0.10755914603E+04  0.14271915789E+04  0.21672222175E+04  0.50400001928E-02 0.  1.
       -1    1    3    3    0  502 -0.12260013652E+04 -0.10755914603E+04 -0.19288991456E+03  0.16423102192E+04  0.50400001928E-02 0. -1.
</event>
<event>
 5   0  0.2342606E-07  0.3601380E+04  0.7818609E-02  0.8090176E-01
        2   -1    0    0  501    0  0.00000000000E+00  0.00000000000E+00  0.26450570830E+04  0.26450570830E+04  0.25500000920E-02 0.  1.
       -2   -1    0    0    0  501  0.00000000000E+00  0.00000000000E+00 -0.12258653630E+04  0.12258653630E+04  0.25500000920E-02 0. -1.
    10030    2    1    2    0    0  0.00000000000E+00  0.00000000000E+00  0.14191917201E+04  0.38709224460E+04  0.36013796585E+04 0.  0.
        5    1    3    3  502    0  0.88835670768E+03 -0.80534989545E+03  0.21535305560E+04  0.24648492935E+04  0.46999998093E+01 0.  1.
       -5    1    3    3    0  502 -0.88835670768E+03  0.80534989545E+03 -0.73433883590E+03  0.14060731525E+04  0.46999998093E+01 0. -1.
</event>
<event>
 5   0  0.2198900E-07  0.3607583E+04  0.7818609E-02  0.8088757E-01
        2   -1    0    0  501    0  0.00000000000E+00  0.00000000000E+00  0.22961525469E+04  0.22961525469E+04  0.25500000920E-02 0.  1.
       -2   -1    0    0    0  501  0.00000000000E+00  0.00000000000E+00 -0.14170064135E+04  0.14170064135E+04  0.25500000920E-02 0. -1.
    10030    2    1    2    0    0  0.00000000000E+00  0.00000000000E+00  0.87914613340E+03  0.37131589605E+04  0.36075825066E+04 0.  0.
        2    1    3    3  502    0  0.55659301844E+03 -0.17062120555E+04  0.25342819761E+03  0.18125068877E+04  0.25500000920E-02 0.  1.
       -2    1    3    3    0  502 -0.55659301844E+03  0.17062120555E+04  0.62571793578E+03  0.19006520728E+04  0.25500000920E-02 0. -1.
</event>
<event>
 5   0  0.2199902E-07  0.3599450E+04  0.7818609E-02  0.8090618E-01
        2   -1    0    0  501    0  0.00000000000E+00  0.00000000000E+00  0.30557881899E+04  0.30557881899E+04  0.25500000920E-02 0.  1.
       -2   -1    0    0    0  501  0.00000000000E+00  0.00000000000E+00 -0.10599592471E+04  0.10599592471E+04  0.25500000920E-02 0. -1.
    10030    2    1    2    0    0  0.00000000000E+00  0.00000000000E+00  0.19958289428E+04  0.41157474371E+04  0.35994504854E+04 0.  0.
        1    1    3    3  502    0  0.71365713160E+02 -0.16042605146E+04  0.19270348976E+04  0.25084274676E+04  0.50400001928E-02 0.  1.
       -1    1    3    3    0  502 -0.71365713160E+02  0.16042605146E+04  0.68794045210E+02  0.16073199695E+04  0.50400001928E-02 0. -1.
</event>
<event>
 5   0  0.7261233E-08  0.3596980E+04  0.7818609E-02  0.8091184E-01
        1   -1    0    0  501    0  0.00000000000E+00  0.00000000000E+00  0.21914988966E+04  0.21914988966E+04  0.50400001928E-02 0.  1.
       -1   -1    0    0    0  501  0.00000000000E+00  0.00000000000E+00 -0.14759604384E+04  0.14759604384E+04  0.50400001928E-02 0. -1.
    10030    2    1    2    0    0  0.00000000000E+00  0.00000000000E+00  0.71553845818E+03  0.36674593351E+04  0.35969796620E+04 0.  0.
        3    1    3    3  502    0  0.47193324696E+03  0.17223129424E+04  0.57521498045E+03  0.18761543500E+04  0.10100000352E+00 0. -1.
       -3    1    3    3    0  502 -0.47193324696E+03 -0.17223129424E+04  0.14032347773E+03  0.17913049851E+04  0.10100000352E+00 0.  1.
</event>
<event>
 5   0  0.2342606E-07  0.3608437E+04  0.7818609E-02  0.8088562E-01
       -2   -1    0    0    0  501  0.00000000000E+00  0.00000000000E+00  0.18539489460E+04  0.18539489460E+04  0.25500000920E-02 0. -1.
        2   -1    0    0  501    0  0.00000000000E+00  0.00000000000E+00 -0.17558217973E+04  0.17558217973E+04  0.25500000920E-02 0.  1.
    10030    2    1    2    0    0  0.00000000000E+00  0.00000000000E+00  0.98127148622E+02  0.36097707433E+04  0.36084367643E+04 0.  0.
        5    1    3    3  502    0 -0.13254688915E+04  0.12113607081E+04  0.22496751963E+03  0.18096671026E+04  0.46999998093E+01 0. -1.
       -5    1    3    3    0  502  0.13254688915E+04 -0.12113607081E+04 -0.12684037101E+03  0.18001036407E+04  0.46999998093E+01 0.  1.
</event>
<event>
 5   0  0.7514289E-08  0.3607745E+04  0.7818609E-02  0.8088720E-01
       -1   -1    0    0    0  501  0.00000000000E+00  0.00000000000E+00  0.16342790941E+04  0.16342790941E+04  0.50400001928E-02 0. -1.
        1   -1    0    0  501    0  0.00000000000E+00  0.00000000000E+00 -0.19910654064E+04  0.19910654064E+04  0.50400001928E-02 0.  1.
    10030    2    1    2    0    0  0.00000000000E+00  0.00000000000E+00 -0.35678631231E+03  0.36253445005E+04  0.36077453173E+04 0.  0.
        4    1    3    3  502    0 -0.12957090853E+04 -0.15319580893E+02  0.10826621760E+04  0.16885661738E+04  0.12699999809E+01 0. -1.
       -4    1    3    3    0  502  0.12957090853E+04  0.15319580893E+02 -0.14394484883E+04  0.19367783267E+04  0.12699999809E+01 0.  1.
</event>
<event>
 5   0  0.2199902E-07  0.3589456E+04  0.7818609E-02  0.8092911E-01
        2   -1    0    0  501    0  0.00000000000E+00  0.00000000000E+00  0.18667431154E+04  0.18667431154E+04  0.25500000920E-02 0. -1.
       -2   -1    0    0    0  501  0.00000000000E+00  0.00000000000E+00 -0.17254912520E+04  0.17254912520E+04  0.25500000920E-02 0.  1.
    10030    2    1    2    0    0  0.00000000000E+00  0.00000000000E+00  0.14125186342E+03  0.35922343674E+04  0.35894561790E+04 0.  0.
        1    1    3    3  502    0  0.13900830589E+03 -0.14510679729E+04  0.11183972689E+04  0.18373170717E+04  0.50400001928E-02 0. -1.
       -1    1    3    3    0  502 -0.13900830589E+03  0.14510679729E+04 -0.97714540546E+03  0.17549172956E+04  0.50400001928E-02 0.  1.
</event>
<event>
 5   0  0.2198900E-07  0.3596128E+04  0.7818609E-02  0.8091379E-01
       -2   -1    0    0    0  501  0.00000000000E+00  0.00000000000E+00  0.13205297324E+04  0.13205297324E+04  0.25500000920E-02 0.  1.
        2   -1    0    0  501    0  0.00000000000E+00  0.00000000000E+00 -0.24482857325E+04  0.24482857325E+04  0.25500000920E-02 0. -1.
    10030    2    1    2    0    0  0.00000000000E+00  0.00000000000E+00 -0.11277560002E+04  0.37688154649E+04  0.35961279750E+04 0.  0.
        2    1    3    3  502    0 -0.10528315195E+04 -0.30661218322E+03 -0.20572864216E+04  0.23312856239E+04  0.25500000920E-02 0. -1.
       -2    1    3    3    0  502  0.10528315195E+04  0.30661218322E+03  0.92953042145E+03  0.14375298410E+04  0.25500000920E-02 0.  1.
</event>
<event>
 5   0  0.7236375E-08  0.3608422E+04  0.7818609E-02  0.8088565E-01
       -1   -1    0    0    0  501  0.00000000000E+00  0.00000000000E+00  0.11842420042E+04  0.11842420042E+04  0.50400001928E-02 0.  1.
        1   -1    0    0  501    0  0.00000000000E+00  0.00000000000E+00 -0.27487430005E+04  0.27487430005E+04  0.50400001928E-02 0. -1.
    10030    2    1    2    0    0  0.00000000000E+00  0.00000000000E+00 -0.15645009963E+04  0.39329850047E+04  0.36084217713E+04 0.  0.
        5    1    3    3  502    0 -0.10866150078E+04  0.10287644589E+04 -0.18809173687E+04  0.24035308870E+04  0.46999998093E+01 0. -1.
       -5    1    3    3    0  502  0.10866150078E+04 -0.10287644589E+04  0.31641637242E+03  0.15294541176E+04  0.46999998093E+01 0.  1.
</event>
<event>
 5   0  0.2309391E-07  0.3577914E+04  0.7818609E-02  0.8095570E-01
       -2   -1    0    0    0  501  0.00000000000E+00  0.00000000000E+00  0.26758883608E+04  0.26758883608E+04  0.25500000920E-02 0. -1.
        2   -1    0    0  501    0  0.00000000000E+00  0.00000000000E+00 -0.11960014236E+04  0.11960014236E+04  0.25500000920E-02 0.  1.
    10030    2    1    2    0    0  0.00000000000E+00  0.00000000000E+00  0.14798869372E+04  0.38718897845E+04  0.35779135199E+04 0.  0.
        4    1    3    3  502    0 -0.16906277232E+04  0.31094446289E+03  0.20380116214E+03  0.17310242876E+04  0.12699999809E+01 0.  1.
       -4    1    3    3    0  502  0.16906277232E+04 -0.31094446289E+03  0.12760857751E+04  0.21408654969E+04  0.12699999809E+01 0. -1.
</event>
<event>
 5   0  0.2342606E-07  0.3600597E+04  0.7818609E-02  0.8090355E-01
        2   -1    0    0  501    0  0.00000000000E+00  0.00000000000E+00  0.28142929290E+04  0.28142929290E+04  0.25500000920E-02 0. -1.
       -2   -1    0    0    0  501  0.00000000000E+00  0.00000000000E+00 -0.11516476376E+04  0.11516476376E+04  0.25500000920E-02 0.  1.
    10030    2    1    2    0    0  0.00000000000E+00  0.00000000000E+00  0.16626452914E+04  0.39659405665E+04  0.36005965079E+04 0.  0.
        5    1    3    3  502    0 -0.58615234179E+03 -0.14649668820E+04  0.17860792123E+04  0.23832338483E+04  0.46999998093E+01 0. -1.
       -5    1    3    3    0  502  0.58615234179E+03  0.14649668820E+04 -0.12343392089E+03  0.15827067182E+04  0.46999998093E+01 0.  1.
</event>
<event>
 5   0  0.7514289E-08  0.3600125E+04  0.7818609E-02  0.8090463E-01
       -1   -1    0    0    0  501  0.00000000000E+00  0.00000000000E+00  0.13856427621E+04  0.13856427621E+04  0.50400001928E-02 0.  1.
        1   -1    0    0  501    0  0.00000000000E+00  0.00000000000E+00 -0.23384270324E+04  0.23384270325E+04  0.50400001928E-02 0. -1.
    10030    2    1    2    0    0  0.00000000000E+00  0.00000000000E+00 -0.95278427032E+03  0.37240697946E+04  0.36001247158E+04 0.  0.
        4    1    3    3  502    0 -0.16415838865E+03 -0.12025554057E+04  0.89871070529E+03  0.15102218463E+04  0.12699999809E+01 0.  1.
       -4    1    3    3    0  502  0.16415838865E+03  0.12025554057E+04 -0.18514949756E+04  0.22138479483E+04  0.12699999809E+01 0. -1.
</event>
<event>
 5   0  0.2199902E-07  0.3609357E+04  0.7818609E-02  0.8088352E-01
       -2   -1    0    0    0  501  0.00000000000E+00  0.00000000000E+00  0.19288691692E+04  0.19288691692E+04  0.25500000920E-02 0. -1.
        2   -1    0    0  501    0  0.00000000000E+00  0.00000000000E+00 -0.16884843160E+04  0.16884843160E+04  0.25500000920E-02 0.  1.
    10030    2    1    2    0    0  0.00000000000E+00  0.00000000000E+00  0.24038485314E+03  0.36173534852E+04  0.36093574718E+04 0.  0.
        1    1    3    3  502    0 -0.11639080127E+04 -0.13478977286E+04  0.41299576359E+03  0.18281344725E+04  0.50400001928E-02 0.  1.
       -1    1    3    3    0  502  0.11639080127E+04  0.13478977286E+04 -0.17261091045E+03  0.17892190127E+04  0.50400001928E-02 0. -1.
</event>
<event>
 5   0  0.7236375E-08  0.3601607E+04  0.7818609E-02  0.8090124E-01
       -3   -1    0    0    0  501  0.00000000000E+00  0.00000000000E+00  0.23135072530E+04  0.23135072552E+04  0.10100000352E+00 0.  1.
        3   -1    0    0  501    0  0.00000000000E+00  0.00000000000E+00 -0.14017219247E+04  0.14017219283E+04  0.10100000352E+00 0. -1.
    10030    2    1    2    0    0  0.00000000000E+00  0.00000000000E+00  0.91178532834E+03  0.37152291836E+04  0.36016073358E+04 0.  0.
        4    1    3    3  502    0  0.63235643097E+03  0.96308601476E+03 -0.97177915818E+03  0.15072377625E+04  0.12699999809E+01 0. -1.
       -4    1    3    3    0  502 -0.63235643097E+03 -0.96308601476E+03  0.18835644865E+04  0.22079914210E+04  0.12699999809E+01 0.  1.
</event>
<event>
 5   0  0.7261233E-08  0.3613909E+04  0.7818609E-02  0.8087313E-01
       -1   -1    0    0    0  501  0.00000000000E+00  0.00000000000E+00  0.13602997379E+04  0.13602997379E+04  0.50400001928E-02 0. -1.
        1   -1    0    0  501    0  0.00000000000E+00  0.00000000000E+00 -0.24002678081E+04  0.24002678081E+04  0.50400001928E-02 0.  1.
    10030    2    1    2    0    0  0.00000000000E+00  0.00000000000E+00 -0.10399680702E+04  0.37605675459E+04  0.36139085047E+04 0.  0.
        3    1    3    3  502    0 -0.17827839693E+04  0.28174787806E+03 -0.60939606825E+03  0.19050102693E+04  0.10100000352E+00 0.  1.
       -3    1    3    3    0  502  0.17827839693E+04 -0.28174787806E+03 -0.43057200193E+03  0.18555572767E+04  0.10100000352E+00 0. -1.
</event>
<event>
 5   0  0.7261233E-08  0.3606093E+04  0.7818609E-02  0.8089097E-01
        1   -1    0    0  501    0  0.00000000000E+00  0.00000000000E+00  0.17736682739E+04  0.17736682739E+04  0.50400001928E-02 0. -1.
       -1   -1    0    0    0  501  0.00000000000E+00  0.00000000000E+00 -0.18329112466E+04  0.18329112466E+04  0.50400001928E-02 0.  1.
    10030    2    1    2    0    0  0.00000000000E+00  0.00000000000E+00 -0.59242972729E+02  0.36065795205E+04  0.36060929145E+04 0.  0.
        3    1    3    3  502    0 -0.79616876878E+03  0.13940717191E+04 -0.85049764560E+03  0.18167737674E+04  0.10100000352E+00 0.  1.
       -3    1    3    3    0  502  0.79616876878E+03 -0.13940717191E+04  0.79125467287E+03  0.17898057531E+04  0.10100000352E+00 0. -1.
</event>
<event>
 5   0  0.7236375E-08  0.3577120E+04  0.7818609E-02  0.8095753E-01
       -1   -1    0    0    0  501  0.00000000000E+00  0.00000000000E+00  0.15704941877E+04  0.15704941877E+04  0.50400001928E-02 0.  1.
        1   -1    0    0  501    0  0.00000000000E+00  0.00000000000E+00 -0.20369044264E+04  0.20369044264E+04  0.50400001928E-02 0. -1.
    10030    2    1    2    0    0  0.00000000000E+00  0.00000000000E+00 -0.46641023874E+03  0.36073986141E+04  0.35771198261E+04 0.  0.
        1    1    3    3  502    0 -0.11694982711E+04  0.85931583518E+03  0.82101262916E+03  0.16673966678E+04  0.50400001928E-02 0.  1.
       -1    1    3    3    0  502  0.11694982711E+04 -0.85931583518E+03 -0.12874228679E+04  0.19400019463E+04  0.50400001928E-02 0. -1.
</event>
<event>
 5   0  0.2238968E-07  0.3618435E+04  0.7818609E-02  0.8086282E-01
        2   -1    0    0  501    0  0.00000000000E+00  0.00000000000E+00  0.24680520136E+04  0.24680520136E+04  0.25500000920E-02 0. -1.
       -2   -1    0    0    0  501  0.00000000000E+00  0.00000000000E+00 -0.13262558337E+04  0.13262558337E+04  0.25500000920E-02 0.  1.
    10030    2    1    2    0    0  0.00000000000E+00  0.00000000000E+00  0.11417961799E+04  0.37943078473E+04  0.36184352313E+04 0.  0.
        3    1    3    3  502    0  0.10384467937E+04  0.14098133435E+03 -0.97557895161E+03  0.14317827283E+04  0.10100000352E+00 0.  1.
       -3    1    3    3    0  502 -0.10384467937E+04 -0.14098133435E+03  0.21173751315E+04  0.23625251190E+04  0.10100000352E+00 0. -1.
</event>
<event>
 5   0  0.7236375E-08  0.3592046E+04  0.7818609E-02  0.8092316E-01
       -3   -1    0    0    0  501  0.00000000000E+00  0.00000000000E+00  0.11544027144E+04  0.11544027188E+04  0.10100000352E+00 0. -1.
        3   -1    0    0  501    0  0.00000000000E+00  0.00000000000E+00 -0.27942579965E+04  0.27942579984E+04  0.10100000352E+00 0.  1.
    10030    2    1    2    0    0  0.00000000000E+00  0.00000000000E+00 -0.16398552821E+04  0.39486607172E+04  0.35920462293E+04 0.  0.
        5    1    3    3  502    0 -0.63735796330E+02 -0.16076118145E+04  0.57568922426E+02  0.16099112612E+04  0.46999998093E+01 0.  1.
       -5    1    3    3    0  502  0.63735796330E+02  0.16076118145E+04 -0.16974242046E+04  0.23387494560E+04  0.46999998093E+01 0. -1.
</event>
<event>
 5   0  0.2238968E-07  0.3683124E+04  0.7818609E-02  0.8071712E-01
        2   -1    0    0  501    0  0.00000000000E+00  0.00000000000E+00  0.14644910732E+04  0.14644910732E+04  0.25500000920E-02 0.  1.
       -2   -1    0    0    0  501  0.00000000000E+00  0.00000000000E+00 -0.23157200670E+04  0.23157200670E+04  0.25500000920E-02 0. -1.
    10030    2    1    2    0    0  0.00000000000E+00  0.00000000000E+00 -0.85122899385E+03  0.37802111402E+04  0.36831244161E+04 0.  0.
        3    1    3    3  502    0 -0.17348972566E+03  0.18157470773E+04 -0.68590394102E+03  0.19487176194E+04  0.10100000352E+00 0. -1.
       -3    1    3    3    0  502  0.17348972566E+03 -0.18157470773E+04 -0.16532505283E+03  0.18314935208E+04  0.10100000352E+00 0.  1.
</event>
<event>
 5   0  0.2342606E-07  0.3590793E+04  0.7818609E-02  0.8092604E-01
        2   -1    0    0  501    0  0.00000000000E+00  0.00000000000E+00  0.12035505166E+04  0.12035505166E+04  0.25500000920E-02 0.  1.
       -2   -1    0    0    0  501  0.00000000000E+00  0.00000000000E+00 -0.26782824024E+04  0.26782824024E+04  0.25500000920E-02 0. -1.
    10030    2    1    2    0    0  0.00000000000E+00  0.00000000000E+00 -0.14747318858E+04  0.38818329190E+04  0.35907927643E+04 0.  0.
        5    1    3    3  502    0  0.16830708020E+04  0.60725479349E+03 -0.89749438300E+03  0.20017502258E+04  0.46999998093E+01 0. -1.
       -5    1    3    3    0  502 -0.16830708020E+04 -0.60725479349E+03 -0.57723750282E+03  0.18800826932E+04  0.46999998093E+01 0.  1.
</event>
<event>
 5   0  0.7347303E-08  0.3603648E+04  0.7818609E-02  0.8089657E-01
        1   -1    0    0  501    0  0.00000000000E+00  0.00000000000E+00  0.22548416124E+04  0.22548416124E+04  0.50400001928E-02 0. -1.
       -1   -1    0    0    0  501  0.00000000000E+00  0.00000000000E+00 -0.14398216908E+04  0.14398216908E+04  0.50400001928E-02 0.  1.
    10030    2    1    2    0    0  0.00000000000E+00  0.00000000000E+00  0.81501992159E+03  0.36946633032E+04  0.36036480754E+04 0.  0.
        2    1    3    3  502    0 -0.78368233974E+03  0.12565856051E+04  0.14597869498E+04  0.20794574608E+04  0.25500000920E-02 0. -1.
       -2    1    3    3    0  502  0.78368233974E+03 -0.12565856051E+04 -0.64476702821E+03  0.16152058424E+04  0.25500000920E-02 0.  1.
</event>
<event>
 5   0  0.7514289E-08  0.3602456E+04  0.7818609E-02  0.8089929E-01
       -1   -1    0    0    0  501  0.00000000000E+00  0.00000000000E+00  0.27906587497E+04  0.27906587497E+04  0.50400001928E-02 0.  1.
        1   -1    0    0  501    0  0.00000000000E+00  0.00000000000E+00 -0.11626008999E+04  0.11626008999E+04  0.50400001928E-02 0. -1.
    10030    2    1    2    0    0  0.00000000000E+00  0.00000000000E+00  0.16280578498E+04  0.39532596495E+04  0.36024560364E+04 0.  0.
        4    1    3    3  502    0  0.96687663949E+03  0.77728276321E+02  0.24795627544E+04  0.26625411146E+04  0.12699999809E+01 0.  1.
       -4    1    3    3    0  502 -0.96687663949E+03 -0.77728276321E+02 -0.85150490463E+03  0.12907185349E+04  0.12699999809E+01 0. -1.
</event>
<event>
 5   0  0.2198900E-07  0.3601225E+04  0.7818609E-02  0.8090211E-01
       -2   -1    0    0    0  501  0.00000000000E+00  0.00000000000E+00  0.13505254401E+04  0.13505254401E+04  0.25500000920E-02 0.  1.
        2   -1    0    0  501    0  0.00000000000E+00  0.00000000000E+00 -0.24006988849E+04  0.24006988849E+04  0.25500000920E-02 0. -1.
    10030    2    1    2    0    0  0.00000000000E+00  0.00000000000E+00 -0.10501734449E+04  0.37512243250E+04  0.36012247461E+04 0.  0.
        2    1    3    3  502    0  0.12468441758E+04 -0.14872146065E+03 -0.18693698692E+04  0.22519507498E+04  0.25500000920E-02 0. -1.
       -2    1    3    3    0  502 -0.12468441758E+04  0.14872146065E+03  0.81919642436E+03  0.14992735752E+04  0.25500000920E-02 0.  1.
</event>
<event>
 5   0  0.2238968E-07  0.3618100E+04  0.7818609E-02  0.8086358E-01
        2   -1    0    0  501    0  0.00000000000E+00  0.00000000000E+00  0.14405432149E+04  0.14405432149E+04  0.25500000920E-02 0. -1.
       -2   -1    0    0    0  501  0.00000000000E+00  0.00000000000E+00 -0.22718245868E+04  0.22718245868E+04  0.25500000920E-02 0.  1.
    10030    2    1    2    0    0  0.00000000000E+00  0.00000000000E+00 -0.83128137185E+03  0.37123678017E+04  0.36180997742E+04 0.  0.
        3    1    3    3  502    0 -0.51286500960E+03  0.14753129673E+04  0.52087378814E+03  0.16464775683E+04  0.10100000352E+00 0. -1.
       -3    1    3    3    0  502  0.51286500960E+03 -0.14753129673E+04 -0.13521551600E+04  0.20658902334E+04  0.10100000352E+00 0.  1.
</event>
<event>
 5   0  0.7236375E-08  0.3606164E+04  0.7818609E-02  0.8089081E-01
       -1   -1    0    0    0  501  0.00000000000E+00  0.00000000000E+00  0.15929016238E+04  0.15929016238E+04  0.50400001928E-02 0.  1.
        1   -1    0    0  501    0  0.00000000000E+00  0.00000000000E+00 -0.20409955870E+04  0.20409955871E+04  0.50400001928E-02 0. -1.
    10030    2    1    2    0    0  0.00000000000E+00  0.00000000000E+00 -0.44809396330E+03  0.36338972108E+04  0.36061642695E+04 0.  0.
        1    1    3    3  502    0  0.23357575601E+03 -0.14850920134E+04  0.77912352180E+03  0.16932481756E+04  0.50400001928E-02 0.  1.
       -1    1    3    3    0  502 -0.23357575601E+03  0.14850920134E+04 -0.12272174851E+04  0.19406490352E+04  0.50400001928E-02 0. -1.
</event>
<event>
 5   0  0.2342606E-07  0.3597294E+04  0.7818609E-02  0.8091112E-01
       -2   -1    0    0    0  501  0.00000000000E+00  0.00000000000E+00  0.12022635827E+04  0.12022635827E+04  0.25500000920E-02 0.  1.
        2   -1    0    0  501    0  0.00000000000E+00  0.00000000000E+00 -0.26908669121E+04  0.26908669121E+04  0.25500000920E-02 0. -1.
    10030    2    1    2    0    0  0.00000000000E+00  0.00000000000E+00 -0.14886033294E+04  0.38931304948E+04  0.35972941466E+04 0.  0.
        5    1    3    3  502    0  0.77244988767E+02 -0.13488553927E+04  0.54066310067E+03  0.14552375535E+04  0.46999998093E+01 0.  1.
       -5    1    3    3    0  502 -0.77244988767E+02  0.13488553927E+04 -0.20292664301E+04  0.24378929413E+04  0.46999998093E+01 0. -1.
</event>
<event>
 5   0  0.7514289E-08  0.3591141E+04  0.7818609E-02  0.8092524E-01
       -1   -1    0    0    0  501  0.00000000000E+00  0.00000000000E+00  0.26201668299E+04  0.26201668299E+04  0.50400001928E-02 0.  1.
        1   -1    0    0  501    0  0.00000000000E+00  0.00000000000E+00 -0.12304842700E+04  0.12304842700E+04  0.50400001928E-02 0. -1.
    10030    2    1    2    0    0  0.00000000000E+00  0.00000000000E+00  0.13896825599E+04  0.38506510999E+04  0.35911413612E+04 0.  0.
        4    1    3    3  502    0  0.16221733498E+04 -0.76442162231E+03  0.59723780234E+03  0.18901008965E+04  0.12699999809E+01 0. -1.
       -4    1    3    3    0  502 -0.16221733498E+04  0.76442162231E+03  0.79244475761E+03  0.19605502034E+04  0.12699999809E+01 0.  1.
</event>
<event>
 5   0  0.7236375E-08  0.3577030E+04  0.7818609E-02  0.8095774E-01
        1   -1    0    0  501    0  0.00000000000E+00  0.00000000000E+00  0.14352920605E+04  0.14352920605E+04  0.50400001928E-02 0. -1.
       -1   -1    0    0    0  501  0.00000000000E+00  0.00000000000E+00 -0.22286657711E+04  0.22286657711E+04  0.50400001928E-02 0.  1.
    10030    2    1    2    0    0  0.00000000000E+00  0.00000000000E+00 -0.79337371058E+03  0.36639578317E+04  0.35770302134E+04 0.  0.
        5    1    3    3  502    0  0.12331846894E+04  0.66377210293E+03 -0.15361165459E+04  0.20787048890E+04  0.46999998093E+01 0.  1.
       -5    1    3    3    0  502 -0.12331846894E+04 -0.66377210293E+03  0.74274283536E+03  0.15852529427E+04  0.46999998093E+01 0. -1.
</event>
<event>
 5   0  0.2198900E-07  0.3561354E+04  0.7818609E-02  0.8099402E-01
        2   -1    0    0  501    0  0.00000000000E+00  0.00000000000E+00  0.20041766340E+04  0.20041766340E+04  0.25500000920E-02 0.  1.
       -2   -1    0    0    0  501  0.00000000000E+00  0.00000000000E+00 -0.15821012963E+04  0.15821012963E+04  0.25500000920E-02 0. -1.
    10030    2    1    2    0    0  0.00000000000E+00  0.00000000000E+00  0.42207533770E+03  0.35862779304E+04  0.35613539284E+04 0.  0.
        2    1    3    3  502    0  0.39306857050E+03 -0.15299407782E+04 -0.61665673105E+03  0.16957261600E+04  0.25500000920E-02 0. -1.
       -2    1    3    3    0  502 -0.39306857050E+03  0.15299407782E+04  0.10387320687E+04  0.18905517704E+04  0.25500000920E-02 0.  1.
</event>
<event>
 5   0  0.7236375E-08  0.3602688E+04  0.7818609E-02  0.8089876E-01
       -1   -1    0    0    0  501  0.00000000000E+00  0.00000000000E+00  0.10564329655E+04  0.10564329655E+04  0.50400001928E-02 0. -1.
        1   -1    0    0  501    0  0.00000000000E+00  0.00000000000E+00 -0.30715058072E+04  0.30715058072E+04  0.50400001928E-02 0.  1.
    10030    2    1    2    0    0  0.00000000000E+00  0.00000000000E+00 -0.20150728416E+04  0.41279387727E+04  0.36026878791E+04 0.  0.
        1    1    3    3  502    0 -0.10415019055E+04 -0.55803065302E+03  0.55037103896E+03  0.13034694892E+04  0.50400001928E-02 0. -1.
       -1    1    3    3    0  502  0.10415019055E+04  0.55803065302E+03 -0.25654438806E+04  0.28244692835E+04  0.50400001928E-02 0.  1.
</event>
<event>
 5   0  0.7347303E-08  0.3609422E+04  0.7818609E-02  0.8088337E-01
        1   -1    0    0  501    0  0.00000000000E+00  0.00000000000E+00  0.21647114588E+04  0.21647114588E+04  0.50400001928E-02 0. -1.
       -1   -1    0    0    0  501  0.00000000000E+00  0.00000000000E+00 -0.15045797183E+04  0.15045797184E+04  0.50400001928E-02 0.  1.
    10030    2    1    2    0    0  0.00000000000E+00  0.00000000000E+00  0.66013174047E+03  0.36692911772E+04  0.36094215365E+04 0.  0.
        2    1    3    3  502    0  0.58882847933E+03  0.49705104466E+03 -0.13289351185E+04  0.15361794388E+04  0.25500000920E-02 0.  1.
       -2    1    3    3    0  502 -0.58882847933E+03 -0.49705104466E+03  0.19890668589E+04  0.21331117384E+04  0.25500000920E-02 0. -1.
</event>
<event>
 5   0  0.2342606E-07  0.3593124E+04  0.7818609E-02  0.8092069E-01
        2   -1    0    0  501    0  0.00000000000E+00  0.00000000000E+00  0.24258936441E+04  0.24258936441E+04  0.25500000920E-02 0. -1.
       -2   -1    0    0    0  501  0.00000000000E+00  0.00000000000E+00 -0.13304929273E+04  0.13304929273E+04  0.25500000920E-02 0.  1.
    10030    2    1    2    0    0  0.00000000000E+00  0.00000000000E+00  0.10954007168E+04  0.37563865713E+04  0.35931236192E+04 0.  0.
        5    1    3    3  502    0 -0.27401834462E+03  0.14150931424E+04 -0.57342490315E+03  0.15512617008E+04  0.46999998093E+01 0.  1.
       -5    1    3    3    0  502  0.27401834462E+03 -0.14150931424E+04  0.16688256200E+04  0.22051248705E+04  0.46999998093E+01 0. -1.
</event>
<event>
 5   0  0.2309391E-07  0.3573895E+04  0.7818609E-02  0.8096498E-01
       -2   -1    0    0    0  501  0.00000000000E+00  0.00000000000E+00  0.27351140134E+04  0.27351140134E+04  0.25500000920E-02 0. -1.
        2   -1    0    0  501    0  0.00000000000E+00  0.00000000000E+00 -0.11674763758E+04  0.11674763758E+04  0.25500000920E-02 0.  1.
    10030    2    1    2    0    0  0.00000000000E+00  0.00000000000E+00  0.15676376377E+04  0.39025903892E+04  0.35738947918E+04 0.  0.
        4    1    3    3  502    0  0.10593009402E+04 -0.38639637762E+03  0.22975914172E+04  0.25593648774E+04  0.12699999809E+01 0. -1.
       -4    1    3    3    0  502 -0.10593009402E+04  0.38639637762E+03 -0.72995377953E+03  0.13432255118E+04  0.12699999809E+01 0.  1.
</event>
<event>
 5   0  0.7347303E-08  0.3614417E+04  0.7818609E-02  0.8087197E-01
       -1   -1    0    0    0  501  0.00000000000E+00  0.00000000000E+00  0.12196855491E+04  0.12196855491E+04  0.50400001928E-02 0. -1.
        1   -1    0    0  501    0  0.00000000000E+00  0.00000000000E+00 -0.26777416767E+04  0.26777416767E+04  0.50400001928E-02 0.  1.
    10030    2    1    2    0    0  0.00000000000E+00  0.00000000000E+00 -0.14580561276E+04  0.38974272258E+04  0.36144171465E+04 0.  0.
        2    1    3    3  502    0 -0.82752615707E+03  0.67295676289E+03  0.84408333276E+03  0.13602010947E+04  0.25500000920E-02 0. -1.
       -2    1    3    3    0  502  0.82752615707E+03 -0.67295676289E+03 -0.23021394604E+04  0.25372261311E+04  0.25500000920E-02 0.  1.
</event>
<event>
 5   0  0.7261233E-08  0.3613088E+04  0.7818609E-02  0.8087500E-01
        1   -1    0    0  501    0  0.00000000000E+00  0.00000000000E+00  0.27037806940E+04  0.27037806940E+04  0.50400001928E-02 0.  1.
       -1   -1    0    0    0  501  0.00000000000E+00  0.00000000000E+00 -0.12070509281E+04  0.12070509281E+04  0.50400001928E-02 0. -1.
    10030    2    1    2    0    0  0.00000000000E+00  0.00000000000E+00  0.14967297659E+04  0.39108316221E+04  0.36130878739E+04 0.  0.
        3    1    3    3  502    0  0.11447424216E+04 -0.86853306357E+03 -0.43676752941E+03  0.15018491200E+04  0.10100000352E+00 0. -1.
       -3    1    3    3    0  502 -0.11447424216E+04  0.86853306357E+03  0.19334972953E+04  0.24089825021E+04  0.10100000352E+00 0.  1.
</event>
<event>
 5   0  0.7347303E-08  0.3440493E+04  0.7818609E-02  0.8128039E-01
       -1   -1    0    0    0  501  0.00000000000E+00  0.00000000000E+00  0.87424620426E+03  0.87424620427E+03  0.50400001928E-02 0. -1.
        1   -1    0    0  501    0  0.00000000000E+00  0.00000000000E+00 -0.33849135375E+04  0.33849135375E+04  0.50400001928E-02 0.  1.
    10030    2    1    2    0    0  0.00000000000E+00  0.00000000000E+00 -0.25106673333E+04  0.42591597418E+04  0.34404928786E+04 0.  0.
        2    1    3    3  502    0  0.37526624230E+03 -0.16098777455E+04 -0.18447810241E+04  0.24770442335E+04  0.25500000920E-02 0.  1.
       -2    1    3    3    0  502 -0.37526624230E+03  0.16098777455E+04 -0.66588630920E+03  0.17821155083E+04  0.25500000920E-02 0. -1.
</event>
<event>
 5   0  0.2238968E-07  0.3602825E+04  0.7818609E-02  0.8089845E-01
       -2   -1    0    0    0  501  0.00000000000E+00  0.00000000000E+00  0.16547027242E+04  0.16547027242E+04  0.25500000920E-02 0.  1.
        2   -1    0    0  501    0  0.00000000000E+00  0.00000000000E+00 -0.19611293729E+04  0.19611293729E+04  0.25500000920E-02 0. -1.
    10030    2    1    2    0    0  0.00000000000E+00  0.00000000000E+00 -0.30642664866E+03  0.36158320971E+04  0.36028245119E+04 0.  0.
        3    1    3    3  502    0 -0.17684859450E+04  0.20694663143E+03  0.12111703451E+03  0.17846676979E+04  0.10100000352E+00 0.  1.
       -3    1    3    3    0  502  0.17684859450E+04 -0.20694663143E+03 -0.42754368318E+03  0.18311643992E+04  0.10100000352E+00 0. -1.
</event>
<event>
 5   0  0.7236375E-08  0.3593786E+04  0.7818609E-02  0.8091916E-01
       -3   -1    0    0    0  501  0.00000000000E+00  0.00000000000E+00  0.12808636174E+04  0.12808636214E+04  0.10100000352E+00 0. -1.
        3   -1    0    0  501    0  0.00000000000E+00  0.00000000000E+00 -0.25208187574E+04  0.25208187595E+04  0.10100000352E+00 0.  1.
    10030    2    1    2    0    0  0.00000000000E+00  0.00000000000E+00 -0.12399551400E+04  0.38016823809E+04  0.35937863286E+04 0.  0.
        4    1    3    3  502    0  0.58344205326E+03  0.84071853386E+03  0.94249445359E+03  0.13912259668E+04  0.12699999809E+01 0. -1.
       -4    1    3    3    0  502 -0.58344205326E+03 -0.84071853386E+03 -0.21824495936E+04  0.24104564141E+04  0.12699999809E+01 0.  1.
</event>
<event>
 5   0  0.7514289E-08  0.3598610E+04  0.7818609E-02  0.8090810E-01
       -1   -1    0    0    0  501  0.00000000000E+00  0.00000000000E+00  0.13964802055E+04  0.13964802055E+04  0.50400001928E-02 0.  1.
        1   -1    0    0  501    0  0.00000000000E+00  0.00000000000E+00 -0.23183278024E+04  0.23183278024E+04  0.50400001928E-02 0. -1.
    10030    2    1    2    0    0  0.00000000000E+00  0.00000000000E+00 -0.92184759691E+03  0.37148080079E+04  0.35986102239E+04 0.  0.
        4    1    3    3  502    0 -0.87254426899E+03 -0.47645295554E+03 -0.20090679166E+04  0.22415834641E+04  0.12699999809E+01 0. -1.
       -4    1    3    3    0  502  0.87254426899E+03  0.47645295554E+03  0.10872203197E+04  0.14732245438E+04  0.12699999809E+01 0.  1.
</event>
<event>
 5   0  0.7261233E-08  0.3604389E+04  0.7818609E-02  0.8089487E-01
        1   -1    0    0  501    0  0.00000000000E+00  0.00000000000E+00  0.21538241041E+04  0.21538241041E+04  0.50400001928E-02 0. -1.
       -1   -1    0    0    0  501  0.00000000000E+00  0.00000000000E+00 -0.15079712805E+04  0.15079712806E+04  0.50400001928E-02 0.  1.
    10030    2    1    2    0    0  0.00000000000E+00  0.00000000000E+00  0.64585282355E+03  0.36617953847E+04  0.36043889315E+04 0.  0.
        3    1    3    3  502    0  0.87917617063E+00 -0.11977766925E+04  0.16909370819E+04  0.20721819426E+04  0.10100000352E+00 0. -1.
       -3    1    3    3    0  502 -0.87917617063E+00  0.11977766925E+04 -0.10450842583E+04  0.15896134421E+04  0.10100000352E+00 0.  1.
</event>
<event>
 5   0  0.2199902E-07  0.3621524E+04  0.7818609E-02  0.8085579E-01
       -2   -1    0    0    0  501  0.00000000000E+00  0.00000000000E+00  0.12411136876E+04  0.12411136876E+04  0.25500000920E-02 0.  1.
        2   -1    0    0  501    0  0.00000000000E+00  0.00000000000E+00 -0.26418679072E+04  0.26418679072E+04  0.25500000920E-02 0. -1.
    10030    2    1    2    0    0  0.00000000000E+00  0.00000000000E+00 -0.14007542196E+04  0.38829815948E+04  0.36215236685E+04 0.  0.
        1    1    3    3  502    0 -0.14466581774E+03  0.49276637911E+03 -0.25621456780E+04  0.26131087575E+04  0.50400001928E-02 0. -1.
       -1    1    3    3    0  502  0.14466581774E+03 -0.49276637911E+03  0.11613914584E+04  0.12698728373E+04  0.50400001928E-02 0.  1.
</event>
<event>
 5   0  0.7236375E-08  0.3684858E+04  0.7818609E-02  0.8071326E-01
       -1   -1    0    0    0  501  0.00000000000E+00  0.00000000000E+00  0.14053780207E+04  0.14053780207E+04  0.50400001928E-02 0.  1.
        1   -1    0    0  501    0  0.00000000000E+00  0.00000000000E+00 -0.24153962157E+04  0.24153962157E+04  0.50400001928E-02 0. -1.
    10030    2    1    2    0    0  0.00000000000E+00  0.00000000000E+00 -0.10100181949E+04  0.38207742364E+04  0.36848580721E+04 0.  0.
        1    1    3    3  502    0 -0.14167443509E+04 -0.88470737191E+03 -0.13112984463E+04  0.21235289744E+04  0.50400001928E-02 0.  1.
       -1    1    3    3    0  502  0.14167443509E+04  0.88470737191E+03  0.30128025134E+03  0.16972452621E+04  0.50400001928E-02 0. -1.
</event>
<event>
 5   0  0.2238968E-07  0.3597391E+04  0.7818609E-02  0.8091090E-01
       -2   -1    0    0    0  501  0.00000000000E+00  0.00000000000E+00  0.16559711185E+04  0.16559711185E+04  0.25500000920E-02 0. -1.
        2   -1    0    0  501    0  0.00000000000E+00  0.00000000000E+00 -0.19537212558E+04  0.19537212558E+04  0.25500000920E-02 0.  1.
    10030    2    1    2    0    0  0.00000000000E+00  0.00000000000E+00 -0.29775013729E+03  0.36096923743E+04  0.35973912621E+04 0.  0.
        3    1    3    3  502    0 -0.14310194052E+03  0.17716397305E+04  0.12796772748E+03  0.17820104516E+04  0.10100000352E+00 0.  1.
       -3    1    3    3    0  502  0.14310194052E+03 -0.17716397305E+04 -0.42571786477E+03  0.18276819227E+04  0.10100000352E+00 0. -1.
</event>
<event>
 5   0  0.2238968E-07  0.3601915E+04  0.7818609E-02  0.8090053E-01
        2   -1    0    0  501    0  0.00000000000E+00  0.00000000000E+00  0.22058914234E+04  0.22058914234E+04  0.25500000920E-02 0.  1.
       -2   -1    0    0    0  501  0.00000000000E+00  0.00000000000E+00 -0.14703571928E+04  0.14703571928E+04  0.25500000920E-02 0. -1.
    10030    2    1    2    0    0  0.00000000000E+00  0.00000000000E+00  0.73553423062E+03  0.36762486163E+04  0.36019152245E+04 0.  0.
        3    1    3    3  502    0 -0.31170302160E+02 -0.17972207085E+04  0.25377309869E+03  0.18153166827E+04  0.10100000352E+00 0. -1.
       -3    1    3    3    0  502  0.31170302160E+02  0.17972207085E+04  0.48176113193E+03  0.18609319335E+04  0.10100000352E+00 0.  1.
</event>
<event>
 5   0  0.2309391E-07  0.3564428E+04  0.7818609E-02  0.8098689E-01
        2   -1    0    0  501    0  0.00000000000E+00  0.00000000000E+00  0.12145013508E+04  0.12145013508E+04  0.25500000920E-02 0.  1.
       -2   -1    0    0    0  501  0.00000000000E+00  0.00000000000E+00 -0.26153009283E+04  0.26153009283E+04  0.25500000920E-02 0. -1.
    10030    2    1    2    0    0  0.00000000000E+00  0.00000000000E+00 -0.14007995775E+04  0.38298022790E+04  0.35644278700E+04 0.  0.
        4    1    3    3  502    0  0.23621901504E+02  0.17612456858E+04 -0.40863043647E+03  0.18081827359E+04  0.12699999809E+01 0. -1.
       -4    1    3    3    0  502 -0.23621901504E+02 -0.17612456858E+04 -0.99216914103E+03  0.20216195431E+04  0.12699999809E+01 0.  1.
</event>
<event>
 5   0  0.7261233E-08  0.3587572E+04  0.7818609E-02  0.8093344E-01
       -1   -1    0    0    0  501  0.00000000000E+00  0.00000000000E+00  0.22321024433E+04  0.22321024433E+04  0.50400001928E-02 0. -1.
        1   -1    0    0  501    0  0.00000000000E+00  0.00000000000E+00 -0.14415413536E+04  0.14415413536E+04  0.50400001928E-02 0.  1.
    10030    2    1    2    0    0  0.00000000000E+00  0.00000000000E+00  0.79056108972E+03  0.36736437969E+04  0.35875718683E+04 0.  0.
        3    1    3    3  502    0 -0.17381023493E+04  0.34798122081E+03  0.11377172396E+03  0.17762417409E+04  0.10100000352E+00 0. -1.
       -3    1    3    3    0  502  0.17381023493E+04 -0.34798122081E+03  0.67678936576E+03  0.18974020561E+04  0.10100000352E+00 0.  1.
</event>
<event>
 5   0  0.2309391E-07  0.3594826E+04  0.7818609E-02  0.8091678E-01
       -2   -1    0    0    0  501  0.00000000000E+00  0.00000000000E+00  0.17280250170E+04  0.17280250170E+04  0.25500000920E-02 0. -1.
        2   -1    0    0  501    0  0.00000000000E+00  0.00000000000E+00 -0.18695867607E+04  0.18695867607E+04  0.25500000920E-02 0.  1.
    10030    2    1    2    0    0  0.00000000000E+00  0.00000000000E+00 -0.14156174365E+03  0.35976117778E+04  0.35948255557E+04 0.  0.
        4    1    3    3  502    0  0.64563940673E+03 -0.56777760952E+02  0.16070080397E+04  0.17327868911E+04  0.12699999809E+01 0. -1.
       -4    1    3    3    0  502 -0.64563940673E+03  0.56777760952E+02 -0.17485697833E+04  0.18648248866E+04  0.12699999809E+01 0.  1.
</event>
<event>
 5   0  0.7236375E-08  0.3590758E+04  0.7818609E-02  0.8092612E-01
       -1   -1    0    0    0  501  0.00000000000E+00  0.00000000000E+00  0.17744129205E+04  0.17744129205E+04  0.50400001928E-02 0. -1.
        1   -1    0    0  501    0  0.00000000000E+00  0.00000000000E+00 -0.18165928821E+04  0.18165928821E+04  0.50400001928E-02 0.  1.
    10030    2    1    2    0    0  0.00000000000E+00  0.00000000000E+00 -0.42179961589E+02  0.35910058026E+04  0.35907580710E+04 0.  0.
        5    1    3    3  502    0 -0.25224047993E+03  0.66063323051E+03  0.16292669649E+04  0.17761178052E+04  0.46999998093E+01 0. -1.
       -5    1    3    3    0  502  0.25224047993E+03 -0.66063323051E+03 -0.16714469265E+04  0.18148879974E+04  0.46999998093E+01 0.  1.
</event>
<event>
 5   0  0.2199902E-07  0.3602195E+04  0.7818609E-02  0.8089989E-01
       -2   -1    0    0    0  501  0.00000000000E+00  0.00000000000E+00  0.11728038805E+04  0.11728038805E+04  0.25500000920E-02 0. -1.
        2   -1    0    0  501    0  0.00000000000E+00  0.00000000000E+00 -0.27659800526E+04  0.27659800526E+04  0.25500000920E-02 0.  1.
    10030    2    1    2    0    0  0.00000000000E+00  0.00000000000E+00 -0.15931761721E+04  0.39387839332E+04  0.36021949637E+04 0.  0.
        1    1    3    3  502    0 -0.12170617474E+04 -0.65575247768E+03  0.46570845216E+03  0.14588128638E+04  0.50400001928E-02 0. -1.
       -1    1    3    3    0  502  0.12170617474E+04  0.65575247768E+03 -0.20588846242E+04  0.24799710694E+04  0.50400001928E-02 0.  1.
</event>
<event>
 5   0  0.7347303E-08  0.3389139E+04  0.7818609E-02  0.8140577E-01
       -1   -1    0    0    0  501  0.00000000000E+00  0.00000000000E+00  0.16518038023E+04  0.16518038023E+04  0.50400001928E-02 0. -1.
        1   -1    0    0  501    0  0.00000000000E+00  0.00000000000E+00 -0.17384425729E+04  0.17384425729E+04  0.50400001928E-02 0.  1.
    10030    2    1    2    0    0  0.00000000000E+00  0.00000000000E+00 -0.86638770638E+02  0.33902463752E+04  0.33891391544E+04 0.  0.
        2    1    3    3  502    0 -0.24276592160E+03 -0.12098668455E+04  0.11184613389E+04  0.16654335301E+04  0.25500000920E-02 0. -1.
       -2    1    3    3    0  502  0.24276592160E+03  0.12098668455E+04 -0.12051001096E+04  0.17248128451E+04  0.25500000920E-02 0.  1.
</event>
<event>
 5   0  0.2342606E-07  0.3599800E+04  0.7818609E-02  0.8090538E-01
       -2   -1    0    0    0  501  0.00000000000E+00  0.00000000000E+00  0.19741421399E+04  0.19741421399E+04  0.25500000920E-02 0.  1.
        2   -1    0    0  501    0  0.00000000000E+00  0.00000000000E+00 -0.16410365797E+04  0.16410365797E+04  0.25500000920E-02 0. -1.
    10030    2    1    2    0    0  0.00000000000E+00  0.00000000000E+00  0.33310556020E+03  0.36151787195E+04  0.35997996972E+04 0.  0.
        5    1    3    3  502    0  0.16105754911E+04  0.38257136236E+03 -0.54307984472E+03  0.17422032222E+04  0.46999998093E+01 0.  1.
       -5    1    3    3    0  502 -0.16105754911E+04 -0.38257136236E+03  0.87618540492E+03  0.18729754973E+04  0.46999998093E+01 0. -1.
</event>
<event>
 5   0  0.7261233E-08  0.3591755E+04  0.7818609E-02  0.8092383E-01
       -1   -1    0    0    0  501  0.00000000000E+00  0.00000000000E+00  0.12482174332E+04  0.12482174332E+04  0.50400001928E-02 0.  1.
        1   -1    0    0  501    0  0.00000000000E+00  0.00000000000E+00 -0.25838253726E+04  0.25838253726E+04  0.50400001928E-02 0. -1.
    10030    2    1    2    0    0  0.00000000000E+00  0.00000000000E+00 -0.13356079394E+04  0.38320428058E+04  0.35917549328E+04 0.  0.
        3    1    3    3  502    0 -0.16557785174E+04 -0.42206963861E+03 -0.12574344383E+04  0.21215293200E+04  0.10100000352E+00 0. -1.
       -3    1    3    3    0  502  0.16557785174E+04  0.42206963861E+03 -0.78173501059E+02  0.17105134858E+04  0.10100000352E+00 0.  1.
</event>
<event>
 5   0  0.7261233E-08  0.3598916E+04  0.7818609E-02  0.8090740E-01
       -1   -1    0    0    0  501  0.00000000000E+00  0.00000000000E+00  0.18059482932E+04  0.18059482932E+04  0.50400001928E-02 0. -1.
        1   -1    0    0  501    0  0.00000000000E+00  0.00000000000E+00 -0.17929914716E+04  0.17929914716E+04  0.50400001928E-02 0.  1.
    10030    2    1    2    0    0  0.00000000000E+00  0.00000000000E+00  0.12956821595E+02  0.35989397648E+04  0.35989164412E+04 0.  0.
        3    1    3    3  502    0  0.12662128204E+04  0.11355459975E+04 -0.58113943608E+03  0.17973543539E+04  0.10100000352E+00 0.  1.
       -3    1    3    3    0  502 -0.12662128204E+04 -0.11355459975E+04  0.59409625768E+03  0.18015854109E+04  0.10100000352E+00 0. -1.
</event>
<event>
 5   0  0.7261233E-08  0.3570712E+04  0.7818609E-02  0.8097234E-01
       -1   -1    0    0    0  501  0.00000000000E+00  0.00000000000E+00  0.14731419031E+04  0.14731419031E+04  0.50400001928E-02 0.  1.
        1   -1    0    0  501    0  0.00000000000E+00  0.00000000000E+00 -0.21637398849E+04  0.21637398849E+04  0.50400001928E-02 0. -1.
    10030    2    1    2    0    0  0.00000000000E+00  0.00000000000E+00 -0.69059798182E+03  0.36368817879E+04  0.35707119132E+04 0.  0.
        3    1    3    3  502    0 -0.26357124519E+03  0.62812058069E+03  0.13355833487E+04  0.14992625376E+04  0.10100000352E+00 0.  1.
       -3    1    3    3    0  502  0.26357124519E+03 -0.62812058069E+03 -0.20261813305E+04  0.21376192503E+04  0.10100000352E+00 0. -1.
</event>
<event>
 5   0  0.7347303E-08  0.3582173E+04  0.7818609E-02  0.8094587E-01
        1   -1    0    0  501    0  0.00000000000E+00  0.00000000000E+00  0.20484818401E+04  0.20484818401E+04  0.50400001928E-02 0.  1.
       -1   -1    0    0    0  501  0.00000000000E+00  0.00000000000E+00 -0.15660333301E+04  0.15660333301E+04  0.50400001928E-02 0. -1.
    10030    2    1    2    0    0  0.00000000000E+00  0.00000000000E+00  0.48244851003E+03  0.36145151701E+04  0.35821729928E+04 0.  0.
        2    1    3    3  502    0  0.16205568753E+04 -0.17076852027E+03  0.99132312396E+03  0.19073772594E+04  0.25500000920E-02 0.  1.
       -2    1    3    3    0  502 -0.16205568753E+04  0.17076852027E+03 -0.50887461393E+03  0.17071379107E+04  0.25500000920E-02 0. -1.
</event>
<event>
 5   0  0.7236375E-08  0.3598096E+04  0.7818609E-02  0.8090928E-01
        1   -1    0    0  501    0  0.00000000000E+00  0.00000000000E+00  0.24253177081E+04  0.24253177081E+04  0.50400001928E-02 0. -1.
       -1   -1    0    0    0  501  0.00000000000E+00  0.00000000000E+00 -0.13344943651E+04  0.13344943651E+04  0.50400001928E-02 0.  1.
    10030    2    1    2    0    0  0.00000000000E+00  0.00000000000E+00  0.10908233430E+04  0.37598120731E+04  0.35980955045E+04 0.  0.
        5    1    3    3  502    0 -0.24003773655E+03 -0.37644957166E+03 -0.12756785297E+04  0.13515584323E+04  0.46999998093E+01 0.  1.
       -5    1    3    3    0  502  0.24003773655E+03  0.37644957166E+03  0.23665018727E+04  0.24082536408E+04  0.46999998093E+01 0. -1.
</event>
<event>
 5   0  0.2342606E-07  0.3606509E+04  0.7818609E-02  0.8089002E-01
       -2   -1    0    0    0  501  0.00000000000E+00  0.00000000000E+00  0.27262464902E+04  0.27262464902E+04  0.25500000920E-02 0.  1.
        2   -1    0    0  501    0  0.00000000000E+00  0.00000000000E+00 -0.11927486678E+04  0.11927486678E+04  0.25500000920E-02 0. -1.
    10030    2    1    2    0    0  0.00000000000E+00  0.00000000000E+00  0.15334978223E+04  0.39189951580E+04  0.36065090430E+04 0.  0.
        5    1    3    3  502    0  0.38910806972E+03  0.13264828616E+04 -0.49148230463E+03  0.14671533041E+04  0.46999998093E+01 0. -1.
       -5    1    3    3    0  502 -0.38910806972E+03 -0.13264828616E+04  0.20249801270E+04  0.24518418539E+04  0.46999998093E+01 0.  1.
</event>
<event>
 5   0  0.7236375E-08  0.3604348E+04  0.7818609E-02  0.8089496E-01
        3   -1    0    0  501    0  0.00000000000E+00  0.00000000000E+00  0.15773492572E+04  0.15773492604E+04  0.10100000352E+00 0. -1.
       -3   -1    0    0    0  501  0.00000000000E+00  0.00000000000E+00 -0.20590440154E+04  0.20590440178E+04  0.10100000352E+00 0.  1.
    10030    2    1    2    0    0  0.00000000000E+00  0.00000000000E+00 -0.48169475816E+03  0.36363932783E+04  0.36043482399E+04 0.  0.
        4    1    3    3  502    0 -0.75702167226E+03 -0.12844431215E+04  0.78055364619E+03  0.16828967741E+04  0.12699999809E+01 0. -1.
       -4    1    3    3    0  502  0.75702167226E+03  0.12844431215E+04 -0.12622484043E+04  0.19534965042E+04  0.12699999809E+01 0.  1.
</event>
<event>
 5   0  0.2199902E-07  0.3606343E+04  0.7818609E-02  0.8089040E-01
        2   -1    0    0  501    0  0.00000000000E+00  0.00000000000E+00  0.18764117685E+04  0.18764117685E+04  0.25500000920E-02 0. -1.
       -2   -1    0    0    0  501  0.00000000000E+00  0.00000000000E+00 -0.17327903042E+04  0.17327903042E+04  0.25500000920E-02 0.  1.
    10030    2    1    2    0    0  0.00000000000E+00  0.00000000000E+00  0.14362146431E+03  0.36092020727E+04  0.36063433664E+04 0.  0.
        1    1    3    3  502    0  0.86830507405E+03  0.15550767111E+04 -0.20985656949E+03  0.17933926115E+04  0.50400001928E-02 0.  1.
       -1    1    3    3    0  502 -0.86830507405E+03 -0.15550767111E+04  0.35347803379E+03  0.18158094612E+04  0.50400001928E-02 0. -1.
</event>
<event>
 5   0  0.7236375E-08  0.3627528E+04  0.7818609E-02  0.8084215E-01
        1   -1    0    0  501    0  0.00000000000E+00  0.00000000000E+00  0.31470689164E+04  0.31470689164E+04  0.50400001928E-02 0.  1.
       -1   -1    0    0    0  501  0.00000000000E+00  0.00000000000E+00 -0.10453345427E+04  0.10453345427E+04  0.50400001928E-02 0. -1.
    10030    2    1    2    0    0  0.00000000000E+00  0.00000000000E+00  0.21017343737E+04  0.41924034591E+04  0.36275279994E+04 0.  0.
        1    1    3    3  502    0  0.14435090084E+04 -0.10783488141E+04  0.81069600602E+03  0.19757991893E+04  0.50400001928E-02 0. -1.
       -1    1    3    3    0  502 -0.14435090084E+04  0.10783488141E+04  0.12910383676E+04  0.22166042698E+04  0.50400001928E-02 0.  1.
</event>
<event>
 5   0  0.2309391E-07  0.3606703E+04  0.7818609E-02  0.8088958E-01
        2   -1    0    0  501    0  0.00000000000E+00  0.00000000000E+00  0.26227972649E+04  0.26227972649E+04  0.25500000920E-02 0. -1.
       -2   -1    0    0    0  501  0.00000000000E+00  0.00000000000E+00 -0.12399271165E+04  0.12399271165E+04  0.25500000920E-02 0.  1.
    10030    2    1    2    0    0  0.00000000000E+00  0.00000000000E+00  0.13828701484E+04  0.38627243814E+04  0.36067034532E+04 0.  0.
        4    1    3    3  502    0 -0.15541961508E+02  0.26751005506E+03  0.26013563327E+04  0.26151213289E+04  0.12699999809E+01 0. -1.
       -4    1    3    3    0  502  0.15541961508E+02 -0.26751005506E+03 -0.12184861844E+04  0.12476030525E+04  0.12699999809E+01 0.  1.
</event>
<event>
 5   0  0.2238968E-07  0.3603512E+04  0.7818609E-02  0.8089688E-01
       -2   -1    0    0    0  501  0.00000000000E+00  0.00000000000E+00  0.19218473292E+04  0.19218473292E+04  0.25500000920E-02 0.  1.
        2   -1    0    0  501    0  0.00000000000E+00  0.00000000000E+00 -0.16891689113E+04  0.16891689113E+04  0.25500000920E-02 0. -1.
    10030    2    1    2    0    0  0.00000000000E+00  0.00000000000E+00  0.23267841785E+03  0.36110162405E+04  0.36035120429E+04 0.  0.
        3    1    3    3  502    0  0.16285408979E+04  0.53576837470E+03  0.67168780036E+03  0.18412924045E+04  0.10100000352E+00 0.  1.
       -3    1    3    3    0  502 -0.16285408979E+04 -0.53576837470E+03 -0.43900938251E+03  0.17697238360E+04  0.10100000352E+00 0. -1.
</event>
<event>
 5   0  0.7261233E-08  0.3603663E+04  0.7818609E-02  0.8089653E-01
        1   -1    0    0  501    0  0.00000000000E+00  0.00000000000E+00  0.12239837647E+04  0.12239837647E+04  0.50400001928E-02 0. -1.
       -1   -1    0    0    0  501  0.00000000000E+00  0.00000000000E+00 -0.26524835302E+04  0.26524835302E+04  0.50400001928E-02 0.  1.
    10030    2    1    2    0    0  0.00000000000E+00  0.00000000000E+00 -0.14284997655E+04  0.38764672948E+04  0.36036630125E+04 0.  0.
        3    1    3    3  502    0 -0.72821006660E+03 -0.13410032591E+04  0.31641467843E+03  0.15584280224E+04  0.10100000352E+00 0. -1.
       -3    1    3    3    0  502  0.72821006660E+03  0.13410032591E+04 -0.17449144439E+04  0.23180392725E+04  0.10100000352E+00 0.  1.
</event>
<event>
 5   0  0.7236375E-08  0.3607294E+04  0.7818609E-02  0.8088823E-01
        1   -1    0    0  501    0  0.00000000000E+00  0.00000000000E+00  0.16328434740E+04  0.16328434740E+04  0.50400001928E-02 0. -1.
       -1   -1    0    0    0  501  0.00000000000E+00  0.00000000000E+00 -0.19923170904E+04  0.19923170904E+04  0.50400001928E-02 0.  1.
    10030    2    1    2    0    0  0.00000000000E+00  0.00000000000E+00 -0.35947361641E+03  0.36251605644E+04  0.36072936998E+04 0.  0.
        5    1    3    3  502    0 -0.11238562683E+04  0.40565096208E+03  0.11780711753E+04  0.16779390332E+04  0.46999998093E+01 0. -1.
       -5    1    3    3    0  502  0.11238562683E+04 -0.40565096208E+03 -0.15375447917E+04  0.19472215312E+04  0.46999998093E+01 0.  1.
</event>
<event>
 5   0  0.7514289E-08  0.3597664E+04  0.7818609E-02  0.8091027E-01
        1   -1    0    0  501    0  0.00000000000E+00  0.00000000000E+00  0.23487871730E+04  0.23487871730E+04  0.50400001928E-02 0.  1.
       -1   -1    0    0    0  501  0.00000000000E+00  0.00000000000E+00 -0.13776454308E+04  0.13776454309E+04  0.50400001928E-02 0. -1.
    10030    2    1    2    0    0  0.00000000000E+00  0.00000000000E+00  0.97114174218E+03  0.37264326039E+04  0.35976636402E+04 0.  0.
        4    1    3    3  502    0 -0.16757247124E+04 -0.34397313240E+02  0.11620613158E+04  0.20395157762E+04  0.12699999809E+01 0. -1.
       -4    1    3    3    0  502  0.16757247124E+04  0.34397313240E+02 -0.19091957360E+03  0.16869168277E+04  0.12699999809E+01 0.  1.
</event>
<event>
 5   0  0.2238968E-07  0.3590807E+04  0.7818609E-02  0.8092601E-01
       -2   -1    0    0    0  501  0.00000000000E+00  0.00000000000E+00  0.16172691855E+04  0.16172691855E+04  0.25500000920E-02 0. -1.
        2   -1    0    0  501    0  0.00000000000E+00  0.00000000000E+00 -0.19931582776E+04  0.19931582776E+04  0.25500000920E-02 0.  1.
    10030    2    1    2    0    0  0.00000000000E+00  0.00000000000E+00 -0.37588909207E+03  0.36104274631E+04  0.35908068532E+04 0.  0.
        3    1    3    3  502    0 -0.63993230325E+03 -0.12579307881E+04 -0.13037697592E+04  0.19213846090E+04  0.10100000352E+00 0.  1.
       -3    1    3    3    0  502  0.63993230325E+03  0.12579307881E+04  0.92788066713E+03  0.16890428541E+04  0.10100000352E+00 0. -1.
</event>
<event>
 5   0  0.2198900E-07  0.3602842E+04  0.7818609E-02  0.8089841E-01
       -2   -1    0    0    0  501  0.00000000000E+00  0.00000000000E+00  0.11596885988E+04  0.11596885988E+04  0.25500000920E-02 0. -1.
        2   -1    0    0  501    0  0.00000000000E+00  0.00000000000E+00 -0.27982667596E+04  0.27982667596E+04  0.25500000920E-02 0.  1.
    10030    2    1    2    0    0  0.00000000000E+00  0.00000000000E+00 -0.16385781608E+04  0.39579553584E+04  0.36028422432E+04 0.  0.
        2    1    3    3  502    0 -0.10089650687E+04 -0.28992562559E+03  0.78891761558E+03  0.13131863472E+04  0.25500000920E-02 0. -1.
       -2    1    3    3    0  502  0.10089650687E+04  0.28992562559E+03 -0.24274957764E+04  0.26447690112E+04  0.25500000920E-02 0.  1.
</event>
<event>
 5   0  0.2238968E-07  0.3585116E+04  0.7818609E-02  0.8093910E-01
        2   -1    0    0  501    0  0.00000000000E+00  0.00000000000E+00  0.22341394875E+04  0.22341394875E+04  0.25500000920E-02 0.  1.
       -2   -1    0    0    0  501  0.00000000000E+00  0.00000000000E+00 -0.14382558484E+04  0.14382558484E+04  0.25500000920E-02 0. -1.
    10030    2    1    2    0    0  0.00000000000E+00  0.00000000000E+00  0.79588363910E+03  0.36723953359E+04  0.35851160004E+04 0.  0.
        3    1    3    3  502    0  0.95364575776E+03  0.88879087839E+03  0.16582918692E+04  0.21093414589E+04  0.10100000352E+00 0. -1.
       -3    1    3    3    0  502 -0.95364575776E+03 -0.88879087839E+03 -0.86240823007E+03  0.15630538770E+04  0.10100000352E+00 0.  1.
</event>
<event>
 5   0  0.2198900E-07  0.3598707E+04  0.7818609E-02  0.8090788E-01
       -2   -1    0    0    0  501  0.00000000000E+00  0.00000000000E+00  0.13012036076E+04  0.13012036076E+04  0.25500000920E-02 0.  1.
        2   -1    0    0  501    0  0.00000000000E+00  0.00000000000E+00 -0.24882136211E+04  0.24882136211E+04  0.25500000920E-02 0. -1.
    10030    2    1    2    0    0  0.00000000000E+00  0.00000000000E+00 -0.11870100135E+04  0.37894172287E+04  0.35987067345E+04 0.  0.
        2    1    3    3  502    0 -0.16649205443E+04 -0.37150358182E+03 -0.11962898735E+04  0.20835270077E+04  0.25500000920E-02 0.  1.
       -2    1    3    3    0  502  0.16649205443E+04  0.37150358182E+03  0.92798600213E+01  0.17058902210E+04  0.25500000920E-02 0. -1.
</event>
<event>
 5   0  0.2238968E-07  0.3600166E+04  0.7818609E-02  0.8090454E-01
       -2   -1    0    0    0  501  0.00000000000E+00  0.00000000000E+00  0.13631553929E+04  0.13631553929E+04  0.25500000920E-02 0.  1.
        2   -1    0    0  501    0  0.00000000000E+00  0.00000000000E+00 -0.23770581034E+04  0.23770581034E+04  0.25500000920E-02 0. -1.
    10030    2    1    2    0    0  0.00000000000E+00  0.00000000000E+00 -0.10139027105E+04  0.37402134963E+04  0.36001664255E+04 0.  0.
        3    1    3    3  502    0 -0.34880864689E+03  0.12274563150E+04 -0.18259794798E+04  0.22276708797E+04  0.10100000352E+00 0. -1.
       -3    1    3    3    0  502  0.34880864689E+03 -0.12274563150E+04  0.81207676937E+03  0.15125426166E+04  0.10100000352E+00 0.  1.
</event>
<event>
 5   0  0.2342606E-07  0.3625784E+04  0.7818609E-02  0.8084611E-01
       -2   -1    0    0    0  501  0.00000000000E+00  0.00000000000E+00  0.16155552113E+04  0.16155552113E+04  0.25500000920E-02 0. -1.
        2   -1    0    0  501    0  0.00000000000E+00  0.00000000000E+00 -0.20343335205E+04  0.20343335205E+04  0.25500000920E-02 0.  1.
    10030    2    1    2    0    0  0.00000000000E+00  0.00000000000E+00 -0.41877830917E+03  0.36498887318E+04  0.36257843955E+04 0.  0.
        5    1    3    3  502    0  0.46906853010E+03  0.12753662472E+04 -0.14173549165E+04  0.19635430730E+04  0.46999998093E+01 0.  1.
       -5    1    3    3    0  502 -0.46906853010E+03 -0.12753662472E+04  0.99857660730E+03  0.16863456588E+04  0.46999998093E+01 0. -1.
</event>
<event>
 5   0  0.2309391E-07  0.3615566E+04  0.7818609E-02  0.8086935E-01
        2   -1    0    0  501    0  0.00000000000E+00  0.00000000000E+00  0.21284973763E+04  0.21284973763E+04  0.25500000920E-02 0.  1.
       -2   -1    0    0    0  501  0.00000000000E+00  0.00000000000E+00 -0.15353931070E+04  0.15353931070E+04  0.25500000920E-02 0. -1.
    10030    2    1    2    0    0  0.00000000000E+00  0.00000000000E+00  0.59310426934E+03  0.36638904833E+04  0.36155664562E+04 0.  0.
        4    1    3    3  502    0  0.91828976719E+03  0.15519819049E+04  0.16767268322E+03  0.18110824584E+04  0.12699999809E+01 0.  1.
       -4    1    3    3    0  502 -0.91828976719E+03 -0.15519819049E+04  0.42543158612E+03  0.18528080249E+04  0.12699999809E+01 0. -1.
</event>
<event>
 5   0  0.2309391E-07  0.3589937E+04  0.7818609E-02  0.8092801E-01
       -2   -1    0    0    0  501  0.00000000000E+00  0.00000000000E+00  0.15447687605E+04  0.15447687605E+04  0.25500000920E-02 0. -1.
        2   -1    0    0  501    0  0.00000000000E+00  0.00000000000E+00 -0.20856918613E+04  0.20856918613E+04  0.25500000920E-02 0.  1.
    10030    2    1    2    0    0  0.00000000000E+00  0.00000000000E+00 -0.54092310077E+03  0.36304606217E+04  0.35899368414E+04 0.  0.
        4    1    3    3  502    0  0.36707997031E+03  0.72324424614E+03 -0.18898115084E+04  0.20565065267E+04  0.12699999809E+01 0.  1.
       -4    1    3    3    0  502 -0.36707997031E+03 -0.72324424614E+03  0.13488884076E+04  0.15739540950E+04  0.12699999809E+01 0. -1.
</event>
<event>
 5   0  0.7236375E-08  0.3599210E+04  0.7818609E-02  0.8090673E-01
        1   -1    0    0  501    0  0.00000000000E+00  0.00000000000E+00  0.23534967969E+04  0.23534967969E+04  0.50400001928E-02 0.  1.
       -1   -1    0    0    0  501  0.00000000000E+00  0.00000000000E+00 -0.13760705029E+04  0.13760705029E+04  0.50400001928E-02 0. -1.
    10030    2    1    2    0    0  0.00000000000E+00  0.00000000000E+00  0.97742629401E+03  0.37295672997E+04  0.35992096470E+04 0.  0.
        1    1    3    3  502    0  0.42144311785E+03  0.17495437386E+04  0.48069158212E+03  0.18626813984E+04  0.50400001928E-02 0. -1.
       -1    1    3    3    0  502 -0.42144311785E+03 -0.17495437386E+04  0.49673471188E+03  0.18668859014E+04  0.50400001928E-02 0.  1.
</event>
<event>
 5   0  0.2198900E-07  0.3603718E+04  0.7818609E-02  0.8089641E-01
        2   -1    0    0  501    0  0.00000000000E+00  0.00000000000E+00  0.19306880425E+04  0.19306880425E+04  0.25500000920E-02 0.  1.
       -2   -1    0    0    0  501  0.00000000000E+00  0.00000000000E+00 -0.16816261318E+04  0.16816261318E+04  0.25500000920E-02 0. -1.
    10030    2    1    2    0    0  0.00000000000E+00  0.00000000000E+00  0.24906191072E+03  0.36123141744E+04  0.36037177829E+04 0.  0.
        2    1    3    3  502    0  0.50859922558E+03  0.12030720869E+04  0.13687169416E+04  0.18919412477E+04  0.25500000920E-02 0.  1.
       -2    1    3    3    0  502 -0.50859922558E+03 -0.12030720869E+04 -0.11196550309E+04  0.17203729266E+04  0.25500000920E-02 0. -1.
</event>
<event>
 5   0  0.7236375E-08  0.3599470E+04  0.7818609E-02  0.8090613E-01
        1   -1    0    0  501    0  0.00000000000E+00  0.00000000000E+00  0.27980350385E+04  0.27980350385E+04  0.50400001928E-02 0.  1.
       -1   -1    0    0    0  501  0.00000000000E+00  0.00000000000E+00 -0.11576143686E+04  0.11576143686E+04  0.50400001928E-02 0. -1.
    10030    2    1    2    0    0  0.00000000000E+00  0.00000000000E+00  0.16404206699E+04  0.39556494070E+04  0.35994697189E+04 0.  0.
        5    1    3    3  502    0 -0.69460922446E+03 -0.37681132373E+03  0.25971723188E+04  0.27147366156E+04  0.46999998093E+01 0.  1.
       -5    1    3    3    0  502  0.69460922446E+03  0.37681132373E+03 -0.95675164889E+03  0.12409127915E+04  0.46999998093E+01 0. -1.
</event>
<event>
 5   0  0.7236375E-08  0.3577212E+04  0.7818609E-02  0.8095732E-01
       -1   -1    0    0    0  501  0.00000000000E+00  0.00000000000E+00  0.23699491865E+04  0.23699491865E+04  0.50400001928E-02 0. -1.
        1   -1    0    0  501    0  0.00000000000E+00  0.00000000000E+00 -0.13498650880E+04  0.13498650880E+04  0.50400001928E-02 0.  1.
    10030    2    1    2    0    0  0.00000000000E+00  0.00000000000E+00  0.10200840985E+04  0.37198142746E+04  0.35772121364E+04 0.  0.
        1    1    3    3  502    0 -0.16838310752E+03  0.13007209944E+04  0.17746140769E+04  0.22066905307E+04  0.50400001928E-02 0. -1.
       -1    1    3    3    0  502  0.16838310752E+03 -0.13007209944E+04 -0.75452997837E+03  0.15131237439E+04  0.50400001928E-02 0.  1.
</event>
<event>
 5   0  0.7236375E-08  0.3580580E+04  0.7818609E-02  0.8094955E-01
        1   -1    0    0  501    0  0.00000000000E+00  0.00000000000E+00  0.19015979631E+04  0.19015979631E+04  0.50400001928E-02 0.  1.
       -1   -1    0    0    0  501  0.00000000000E+00  0.00000000000E+00 -0.16854969853E+04  0.16854969853E+04  0.50400001928E-02 0. -1.
    10030    2    1    2    0    0  0.00000000000E+00  0.00000000000E+00  0.21610097779E+03  0.35870949484E+04  0.35805796369E+04 0.  0.
        5    1    3    3  502    0 -0.15886176204E+04 -0.81899301919E+03  0.46151726752E+01  0.17873161161E+04  0.46999998093E+01 0. -1.
       -5    1    3    3    0  502  0.15886176204E+04  0.81899301919E+03  0.21148580511E+03  0.17997788322E+04  0.46999998093E+01 0.  1.
</event>
<event>
 5   0  0.2199902E-07  0.3611203E+04  0.7818609E-02  0.8087930E-01
       -2   -1    0    0    0  501  0.00000000000E+00  0.00000000000E+00  0.21234980509E+04  0.21234980509E+04  0.25500000920E-02 0.  1.
        2   -1    0    0  501    0  0.00000000000E+00  0.00000000000E+00 -0.15352952359E+04  0.15352952359E+04  0.25500000920E-02 0. -1.
    10030    2    1    2    0    0  0.00000000000E+00  0.00000000000E+00  0.58820281502E+03  0.36587932867E+04  0.36112028140E+04 0.  0.
        1    1    3    3  502    0 -0.95897792574E+02  0.16232368956E+04 -0.50116440858E+03  0.17015464056E+04  0.50400001928E-02 0. -1.
       -1    1    3    3    0  502  0.95897792574E+02 -0.16232368956E+04  0.10893672236E+04  0.19572468812E+04  0.50400001928E-02 0.  1.
</event>
<event>
 5   0  0.2238968E-07  0.3594072E+04  0.7818609E-02  0.8091851E-01
        2   -1    0    0  501    0  0.00000000000E+00  0.00000000000E+00  0.30210288413E+04  0.30210288413E+04  0.25500000920E-02 0. -1.
       -2   -1    0    0    0  501  0.00000000000E+00  0.00000000000E+00 -0.10689532562E+04  0.10689532562E+04  0.25500000920E-02 0.  1.
    10030    2    1    2    0    0  0.00000000000E+00  0.00000000000E+00  0.19520755851E+04  0.40899820975E+04  0.35940721290E+04 0.  0.
        3    1    3    3  502    0 -0.30005103047E+03 -0.17711030023E+04  0.10329611531E+04  0.20721595546E+04  0.10100000352E+00 0. -1.
       -3    1    3    3    0  502  0.30005103047E+03  0.17711030023E+04  0.91911443202E+03  0.20178225430E+04  0.10100000352E+00 0.  1.
</event>
<event>
 5   0  0.2342606E-07  0.3592160E+04  0.7818609E-02  0.8092290E-01
        2   -1    0    0  501    0  0.00000000000E+00  0.00000000000E+00  0.17260720514E+04  0.17260720514E+04  0.25500000920E-02 0. -1.
       -2   -1    0    0    0  501  0.00000000000E+00  0.00000000000E+00 -0.18689273941E+04  0.18689273941E+04  0.25500000920E-02 0.  1.
    10030    2    1    2    0    0  0.00000000000E+00  0.00000000000E+00 -0.14285534270E+03  0.35949994455E+04  0.35921599859E+04 0.  0.
        5    1    3    3  502    0 -0.26000988697E+03  0.45586261775E+03  0.16476219725E+04  0.17291894407E+04  0.46999998093E+01 0. -1.
       -5    1    3    3    0  502  0.26000988697E+03 -0.45586261775E+03 -0.17904773152E+04  0.18658100048E+04  0.46999998093E+01 0.  1.
</event>
<event>
 5   0  0.7236375E-08  0.3577661E+04  0.7818609E-02  0.8095628E-01
        1   -1    0    0  501    0  0.00000000000E+00  0.00000000000E+00  0.22480436219E+04  0.22480436219E+04  0.50400001928E-02 0.  1.
       -1   -1    0    0    0  501  0.00000000000E+00  0.00000000000E+00 -0.14234215899E+04  0.14234215899E+04  0.50400001928E-02 0. -1.
    10030    2    1    2    0    0  0.00000000000E+00  0.00000000000E+00  0.82462203193E+03  0.36714652118E+04  0.35776605912E+04 0.  0.
        5    1    3    3  502    0  0.40051687334E+03 -0.56523808093E+03 -0.12801685956E+04  0.14555966395E+04  0.46999998093E+01 0. -1.
       -5    1    3    3    0  502 -0.40051687334E+03  0.56523808093E+03  0.21047906275E+04  0.22158685723E+04  0.46999998093E+01 0.  1.
</event>
<event>
 5   0  0.2238968E-07  0.3399171E+04  0.7818609E-02  0.8138110E-01
       -2   -1    0    0    0  501  0.00000000000E+00  0.00000000000E+00  0.88203423760E+03  0.88203423761E+03  0.25500000920E-02 0. -1.
        2   -1    0    0  501    0  0.00000000000E+00  0.00000000000E+00 -0.32749183172E+04  0.32749183172E+04  0.25500000920E-02 0.  1.
    10030    2    1    2    0    0  0.00000000000E+00  0.00000000000E+00 -0.23928840796E+04  0.41569525548E+04  0.33991705348E+04 0.  0.
        3    1    3    3  502    0 -0.14030356135E+04 -0.95532469648E+03 -0.10909868901E+04  0.20177726861E+04  0.10100000352E+00 0. -1.
       -3    1    3    3    0  502  0.14030356135E+04  0.95532469648E+03 -0.13018971895E+04  0.21391798687E+04  0.10100000352E+00 0.  1.
</event>
<event>
 5   0  0.2309391E-07  0.3605773E+04  0.7818609E-02  0.8089171E-01
       -2   -1    0    0    0  501  0.00000000000E+00  0.00000000000E+00  0.25874152009E+04  0.25874152009E+04  0.25500000920E-02 0.  1.
        2   -1    0    0  501    0  0.00000000000E+00  0.00000000000E+00 -0.12562341576E+04  0.12562341576E+04  0.25500000920E-02 0. -1.
    10030    2    1    2    0    0  0.00000000000E+00  0.00000000000E+00  0.13311810434E+04  0.38436493585E+04  0.36057727911E+04 0.  0.
        4    1    3    3  502    0 -0.13668319707E+04  0.66741688864E+02  0.19167851917E+04  0.23551541719E+04  0.12699999809E+01 0.  1.
       -4    1    3    3    0  502  0.13668319707E+04 -0.66741688864E+02 -0.58560414837E+03  0.14884951866E+04  0.12699999809E+01 0. -1.
</event>
<event>
 5   0  0.2342606E-07  0.3567212E+04  0.7818609E-02  0.8098044E-01
        2   -1    0    0  501    0  0.00000000000E+00  0.00000000000E+00  0.26130963327E+04  0.26130963327E+04  0.25500000920E-02 0.  1.
       -2   -1    0    0    0  501  0.00000000000E+00  0.00000000000E+00 -0.12174252586E+04  0.12174252587E+04  0.25500000920E-02 0. -1.
    10030    2    1    2    0    0  0.00000000000E+00  0.00000000000E+00  0.13956710741E+04  0.38305215914E+04  0.35672115041E+04 0.  0.
        5    1    3    3  502    0 -0.16149503953E+04 -0.73109585628E+03  0.48669667741E+03  0.18383312204E+04  0.46999998093E+01 0.  1.
       -5    1    3    3    0  502  0.16149503953E+04  0.73109585628E+03  0.90897439669E+03  0.19921903710E+04  0.46999998093E+01 0. -1.
</event>
<event>
 5   0  0.7236375E-08  0.3584387E+04  0.7818609E-02  0.8094077E-01
        1   -1    0    0  501    0  0.00000000000E+00  0.00000000000E+00  0.10796601060E+04  0.10796601060E+04  0.50400001928E-02 0.  1.
       -1   -1    0    0    0  501  0.00000000000E+00  0.00000000000E+00 -0.29749714096E+04  0.29749714096E+04  0.50400001928E-02 0. -1.
    10030    2    1    2    0    0  0.00000000000E+00  0.00000000000E+00 -0.18953113035E+04  0.40546315156E+04  0.35843872266E+04 0.  0.
        5    1    3    3  502    0 -0.62454758202E+03  0.16666637586E+04 -0.71008346144E+03  0.19162641725E+04  0.46999998093E+01 0. -1.
       -5    1    3    3    0  502  0.62454758202E+03 -0.16666637586E+04 -0.11852278421E+04  0.21383673431E+04  0.46999998093E+01 0.  1.
</event>
<event>
 5   0  0.2238968E-07  0.3605227E+04  0.7818609E-02  0.8089296E-01
        2   -1    0    0  501    0  0.00000000000E+00  0.00000000000E+00  0.12872701311E+04  0.12872701312E+04  0.25500000920E-02 0. -1.
       -2   -1    0    0    0  501  0.00000000000E+00  0.00000000000E+00 -0.25242678396E+04  0.25242678396E+04  0.25500000920E-02 0.  1.
    10030    2    1    2    0    0  0.00000000000E+00  0.00000000000E+00 -0.12369977085E+04  0.38115379708E+04  0.36052265354E+04 0.  0.
        3    1    3    3  502    0  0.13940357530E+04  0.10335704869E+04 -0.11340640791E+04  0.20730906825E+04  0.10100000352E+00 0. -1.
       -3    1    3    3    0  502 -0.13940357530E+04 -0.10335704869E+04 -0.10293362938E+03  0.17384472883E+04  0.10100000352E+00 0.  1.
</event>
<event>
 5   0  0.2199902E-07  0.3599287E+04  0.7818609E-02  0.8090655E-01
       -2   -1    0    0    0  501  0.00000000000E+00  0.00000000000E+00  0.17924495658E+04  0.17924495658E+04  0.25500000920E-02 0. -1.
        2   -1    0    0  501    0  0.00000000000E+00  0.00000000000E+00 -0.18068659880E+04  0.18068659880E+04  0.25500000920E-02 0.  1.
    10030    2    1    2    0    0  0.00000000000E+00  0.00000000000E+00 -0.14416422260E+02  0.35993155538E+04  0.35992866825E+04 0.  0.
        1    1    3    3  502    0 -0.14342503881E+04  0.10722164423E+04 -0.18607797948E+03  0.18003742082E+04  0.50400001928E-02 0.  1.
       -1    1    3    3    0  502  0.14342503881E+04 -0.10722164423E+04  0.17166155722E+03  0.17989413457E+04  0.50400001928E-02 0. -1.
</event>
<event>
 5   0  0.2309391E-07  0.3601444E+04  0.7818609E-02  0.8090161E-01
       -2   -1    0    0    0  501  0.00000000000E+00  0.00000000000E+00  0.26894315112E+04  0.26894315112E+04  0.25500000920E-02 0.  1.
        2   -1    0    0  501    0  0.00000000000E+00  0.00000000000E+00 -0.12056821924E+04  0.12056821924E+04  0.25500000920E-02 0. -1.
    10030    2    1    2    0    0  0.00000000000E+00  0.00000000000E+00  0.14837493188E+04  0.38951137036E+04  0.36014439774E+04 0.  0.
        4    1    3    3  502    0  0.11788692145E+03  0.17374139562E+04  0.24613944478E+03  0.17587185166E+04  0.12699999809E+01 0. -1.
       -4    1    3    3    0  502 -0.11788692145E+03 -0.17374139562E+04  0.12376098740E+04  0.21363951869E+04  0.12699999809E+01 0.  1.
</event>
<event>
 5   0  0.2199902E-07  0.3591167E+04  0.7818609E-02  0.8092518E-01
        2   -1    0    0  501    0  0.00000000000E+00  0.00000000000E+00  0.21101759988E+04  0.21101759988E+04  0.25500000920E-02 0. -1.
       -2   -1    0    0    0  501  0.00000000000E+00  0.00000000000E+00 -0.15278912236E+04  0.15278912236E+04  0.25500000920E-02 0.  1.
    10030    2    1    2    0    0  0.00000000000E+00  0.00000000000E+00  0.58228477526E+03  0.36380672224E+04  0.35911666008E+04 0.  0.
        1    1    3    3  502    0  0.62556249256E+02  0.10605622854E+04  0.17576018431E+04  0.20537453310E+04  0.50400001928E-02 0. -1.
       -1    1    3    3    0  502 -0.62556249256E+02 -0.10605622854E+04 -0.11753170678E+04  0.15843218914E+04  0.50400001928E-02 0.  1.
</event>
<event>
 5   0  0.2238968E-07  0.3593901E+04  0.7818609E-02  0.8091890E-01
       -2   -1    0    0    0  501  0.00000000000E+00  0.00000000000E+00  0.11992624755E+04  0.11992624755E+04  0.25500000920E-02 0. -1.
        2   -1    0    0  501    0  0.00000000000E+00  0.00000000000E+00 -0.26925138757E+04  0.26925138757E+04  0.25500000920E-02 0.  1.
    10030    2    1    2    0    0  0.00000000000E+00  0.00000000000E+00 -0.14932514002E+04  0.38917763512E+04  0.35939008645E+04 0.  0.
        3    1    3    3  502    0  0.16279752527E+04  0.72492732691E+03 -0.49683894598E+03  0.18500464862E+04  0.10100000352E+00 0. -1.
       -3    1    3    3    0  502 -0.16279752527E+04 -0.72492732691E+03 -0.99641245422E+03  0.20417298650E+04  0.10100000352E+00 0.  1.
</event>
<event>
 5   0  0.2198900E-07  0.3596902E+04  0.7818609E-02  0.8091202E-01
        2   -1    0    0  501    0  0.00000000000E+00  0.00000000000E+00  0.22627327139E+04  0.22627327139E+04  0.25500000920E-02 0.  1.
       -2   -1    0    0    0  501  0.00000000000E+00  0.00000000000E+00 -0.14294333560E+04  0.14294333560E+04  0.25500000920E-02 0. -1.
    10030    2    1    2    0    0  0.00000000000E+00  0.00000000000E+00  0.83329935790E+03  0.36921660699E+04  0.35969017873E+04 0.  0.
        2    1    3    3  502    0 -0.72006141701E+03  0.15379488382E+04  0.10244905598E+04  0.19832690136E+04  0.25500000920E-02 0.  1.
       -2    1    3    3    0  502  0.72006141701E+03 -0.15379488382E+04 -0.19119120187E+03  0.17088970563E+04  0.25500000920E-02 0. -1.
</event>
<event>
 5   0  0.2199902E-07  0.3653669E+04  0.7818609E-02  0.8078307E-01
       -2   -1    0    0    0  501  0.00000000000E+00  0.00000000000E+00  0.15194875614E+04  0.15194875614E+04  0.25500000920E-02 0. -1.
        2   -1    0    0  501    0  0.00000000000E+00  0.00000000000E+00 -0.21963490607E+04  0.21963490607E+04  0.25500000920E-02 0.  1.
    10030    2    1    2    0    0  0.00000000000E+00  0.00000000000E+00 -0.67686149924E+03  0.37158366221E+04  0.36536694313E+04 0.  0.
        1    1    3    3  502    0  0.68316501601E+03  0.13253059977E+03  0.13794055170E+04  0.15450043299E+04  0.50400001928E-02 0. -1.
       -1    1    3    3    0  502 -0.68316501601E+03 -0.13253059977E+03 -0.20562670162E+04  0.21708322923E+04  0.50400001928E-02 0.  1.
</event>
<event>
 5   0  0.2198900E-07  0.3595803E+04  0.7818609E-02  0.8091454E-01
       -2   -1    0    0    0  501  0.00000000000E+00  0.00000000000E+00  0.16066170992E+04  0.16066170992E+04  0.25500000920E-02 0.  1.
        2   -1    0    0  501    0  0.00000000000E+00  0.00000000000E+00 -0.20119598613E+04  0.20119598613E+04  0.25500000920E-02 0. -1.
    10030    2    1    2    0    0  0.00000000000E+00  0.00000000000E+00 -0.40534276201E+03  0.36185769605E+04  0.35958026175E+04 0.  0.
        2    1    3    3  502    0 -0.28790333793E+03 -0.11836277701E+04  0.11280449252E+04  0.16602254013E+04  0.25500000920E-02 0.  1.
       -2    1    3    3    0  502  0.28790333793E+03  0.11836277701E+04 -0.15333876872E+04  0.19583515592E+04  0.25500000920E-02 0. -1.
</event>
<event>
 5   0  0.7236375E-08  0.3593494E+04  0.7818609E-02  0.8091983E-01
        1   -1    0    0  501    0  0.00000000000E+00  0.00000000000E+00  0.17091738287E+04  0.17091738287E+04  0.50400001928E-02 0.  1.
       -1   -1    0    0    0  501  0.00000000000E+00  0.00000000000E+00 -0.18888076652E+04  0.18888076652E+04  0.50400001928E-02 0. -1.
    10030    2    1    2    0    0  0.00000000000E+00  0.00000000000E+00 -0.17963383644E+03  0.35979814939E+04  0.35934944713E+04 0.  0.
        1    1    3    3  502    0 -0.36448887464E+02  0.17955779796E+04 -0.14347325829E+03  0.18016696085E+04  0.50400001928E-02 0.  1.
       -1    1    3    3    0  502  0.36448887464E+02 -0.17955779796E+04 -0.36160578148E+02  0.17963118854E+04  0.50400001928E-02 0. -1.
</event>
<event>
 5   0  0.7347303E-08  0.3633972E+04  0.7818609E-02  0.8082754E-01
       -1   -1    0    0    0  501  0.00000000000E+00  0.00000000000E+00  0.23714944373E+04  0.23714944373E+04  0.50400001928E-02 0.  1.
        1   -1    0    0  501    0  0.00000000000E+00  0.00000000000E+00 -0.13921336607E+04  0.13921336607E+04  0.50400001928E-02 0. -1.
    10030    2    1    2    0    0  0.00000000000E+00  0.00000000000E+00  0.97936077662E+03  0.37636280980E+04  0.36339715092E+04 0.  0.
        2    1    3    3  502    0  0.14544921400E+04 -0.11283002967E+03 -0.63208920881E+03  0.15899103021E+04  0.25500000920E-02 0. -1.
       -2    1    3    3    0  502 -0.14544921400E+04  0.11283002967E+03  0.16114499854E+04  0.21737177959E+04  0.25500000920E-02 0.  1.
</event>
<event>
 5   0  0.7514289E-08  0.3594860E+04  0.7818609E-02  0.8091670E-01
       -1   -1    0    0    0  501  0.00000000000E+00  0.00000000000E+00  0.12420697409E+04  0.12420697409E+04  0.50400001928E-02 0.  1.
        1   -1    0    0  501    0  0.00000000000E+00  0.00000000000E+00 -0.26011059029E+04  0.26011059029E+04  0.50400001928E-02 0. -1.
    10030    2    1    2    0    0  0.00000000000E+00  0.00000000000E+00 -0.13590361620E+04  0.38431756439E+04  0.35948601836E+04 0.  0.
        4    1    3    3  502    0  0.11349981732E+04  0.35205631372E+03  0.76218387627E+03  0.14117685276E+04  0.12699999809E+01 0.  1.
       -4    1    3    3    0  502 -0.11349981732E+04 -0.35205631372E+03 -0.21212200383E+04  0.24314071163E+04  0.12699999809E+01 0. -1.
</event>
<event>
 5   0  0.7236375E-08  0.3603180E+04  0.7818609E-02  0.8089764E-01
       -1   -1    0    0    0  501  0.00000000000E+00  0.00000000000E+00  0.14384842821E+04  0.14384842821E+04  0.50400001928E-02 0.  1.
        1   -1    0    0  501    0  0.00000000000E+00  0.00000000000E+00 -0.22563516324E+04  0.22563516325E+04  0.50400001928E-02 0. -1.
    10030    2    1    2    0    0  0.00000000000E+00  0.00000000000E+00 -0.81786735035E+03  0.36948359146E+04  0.36031799057E+04 0.  0.
        5    1    3    3  502    0  0.17502075549E+04 -0.34763226901E+03 -0.15436565615E+03  0.17910682638E+04  0.46999998093E+01 0. -1.
       -5    1    3    3    0  502 -0.17502075549E+04  0.34763226901E+03 -0.66350169421E+03  0.19037676507E+04  0.46999998093E+01 0.  1.
</event>
<event>
 5   0  0.2238968E-07  0.3599058E+04  0.7818609E-02  0.8090708E-01
       -2   -1    0    0    0  501  0.00000000000E+00  0.00000000000E+00  0.24044055399E+04  0.24044055399E+04  0.25500000920E-02 0. -1.
        2   -1    0    0  501    0  0.00000000000E+00  0.00000000000E+00 -0.13468213111E+04  0.13468213111E+04  0.25500000920E-02 0.  1.
    10030    2    1    2    0    0  0.00000000000E+00  0.00000000000E+00  0.10575842288E+04  0.37512268509E+04  0.35990579998E+04 0.  0.
        3    1    3    3  502    0  0.85636106691E+03  0.10573542604E+04  0.17562744353E+04  0.22216777920E+04  0.10100000352E+00 0.  1.
       -3    1    3    3    0  502 -0.85636106691E+03 -0.10573542604E+04 -0.69869020653E+03  0.15295490590E+04  0.10100000352E+00 0. -1.
</event>
<event>
 5   0  0.2238968E-07  0.3597004E+04  0.7818609E-02  0.8091178E-01
       -2   -1    0    0    0  501  0.00000000000E+00  0.00000000000E+00  0.33740532309E+04  0.33740532309E+04  0.25500000920E-02 0. -1.
        2   -1    0    0  501    0  0.00000000000E+00  0.00000000000E+00 -0.95867160170E+03  0.95867160170E+03  0.25500000920E-02 0.  1.
    10030    2    1    2    0    0  0.00000000000E+00  0.00000000000E+00  0.24153816292E+04  0.43327248326E+04  0.35970037615E+04 0.  0.
        3    1    3    3  502    0 -0.75226810990E+03  0.16241125143E+04  0.99574621618E+03  0.20482088042E+04  0.10100000352E+00 0.  1.
       -3    1    3    3    0  502  0.75226810990E+03 -0.16241125143E+04  0.14196354130E+04  0.22845160285E+04  0.10100000352E+00 0. -1.
</event>
<event>
 5   0  0.7261233E-08  0.3598526E+04  0.7818609E-02  0.8090829E-01
        1   -1    0    0  501    0  0.00000000000E+00  0.00000000000E+00  0.27191019900E+04  0.27191019900E+04  0.50400001928E-02 0.  1.
       -1   -1    0    0    0  501  0.00000000000E+00  0.00000000000E+00 -0.11905941092E+04  0.11905941092E+04  0.50400001928E-02 0. -1.
    10030    2    1    2    0    0  0.00000000000E+00  0.00000000000E+00  0.15285078807E+04  0.39096960992E+04  0.35985257046E+04 0.  0.
        3    1    3    3  502    0 -0.58251432478E+03 -0.12400741432E+04 -0.50289060908E+03  0.14594539370E+04  0.10100000352E+00 0. -1.
       -3    1    3    3    0  502  0.58251432478E+03  0.12400741432E+04  0.20313984898E+04  0.24502421623E+04  0.10100000352E+00 0.  1.
</event>
<event>
 5   0  0.7514289E-08  0.3617293E+04  0.7818609E-02  0.8086542E-01
       -1   -1    0    0    0  501  0.00000000000E+00  0.00000000000E+00  0.17997512618E+04  0.17997512618E+04  0.50400001928E-02 0. -1.
        1   -1    0    0  501    0  0.00000000000E+00  0.00000000000E+00 -0.18175853941E+04  0.18175853941E+04  0.50400001928E-02 0.  1.
    10030    2    1    2    0    0  0.00000000000E+00  0.00000000000E+00 -0.17834132253E+02  0.36173366560E+04  0.36172926929E+04 0.  0.
        4    1    3    3  502    0 -0.82346385488E+03 -0.53246096916E+03  0.15108357854E+04  0.18011756681E+04  0.12699999809E+01 0. -1.
       -4    1    3    3    0  502  0.82346385488E+03  0.53246096916E+03 -0.15286699176E+04  0.18161609879E+04  0.12699999809E+01 0.  1.
</event>
<event>
 5   0  0.7236375E-08  0.3606312E+04  0.7818609E-02  0.8089047E-01
        1   -1    0    0  501    0  0.00000000000E+00  0.00000000000E+00  0.10233504633E+04  0.10233504633E+04  0.50400001928E-02 0. -1.
       -1   -1    0    0    0  501  0.00000000000E+00  0.00000000000E+00 -0.31771836745E+04  0.31771836745E+04  0.50400001928E-02 0.  1.
    10030    2    1    2    0    0  0.00000000000E+00  0.00000000000E+00 -0.21538332112E+04  0.42005341379E+04  0.36063124576E+04 0.  0.
        5    1    3    3  502    0 -0.13964169840E+03 -0.12878210435E+04  0.38410368439E+03  0.13511256694E+04  0.46999998093E+01 0. -1.
       -5    1    3    3    0  502  0.13964169840E+03  0.12878210435E+04 -0.25379368956E+04  0.28494084685E+04  0.46999998093E+01 0.  1.
</event>
<event>
 5   0  0.2309391E-07  0.3579459E+04  0.7818609E-02  0.8095213E-01
        2   -1    0    0  501    0  0.00000000000E+00  0.00000000000E+00  0.20395501507E+04  0.20395501507E+04  0.25500000920E-02 0. -1.
       -2   -1    0    0    0  501  0.00000000000E+00  0.00000000000E+00 -0.15705086555E+04  0.15705086555E+04  0.25500000920E-02 0.  1.
    10030    2    1    2    0    0  0.00000000000E+00  0.00000000000E+00  0.46904149519E+03  0.36100588061E+04  0.35794587104E+04 0.  0.
        4    1    3    3  502    0  0.62053811222E+03 -0.64348153767E+03  0.17982572177E+04  0.20081998586E+04  0.12699999809E+01 0. -1.
       -4    1    3    3    0  502 -0.62053811222E+03  0.64348153767E+03 -0.13292157225E+04  0.16018589476E+04  0.12699999809E+01 0.  1.
</event>
<event>
 5   0  0.2309391E-07  0.3521291E+04  0.7818609E-02  0.8108763E-01
       -2   -1    0    0    0  501  0.00000000000E+00  0.00000000000E+00  0.13852344972E+04  0.13852344972E+04  0.25500000920E-02 0. -1.
        2   -1    0    0  501    0  0.00000000000E+00  0.00000000000E+00 -0.22377960959E+04  0.22377960959E+04  0.25500000920E-02 0.  1.
    10030    2    1    2    0    0  0.00000000000E+00  0.00000000000E+00 -0.85256159864E+03  0.36230305931E+04  0.35212908711E+04 0.  0.
        4    1    3    3  502    0  0.15644168984E+04 -0.73539881734E+03 -0.77008971260E+03  0.18924194648E+04  0.12699999809E+01 0. -1.
       -4    1    3    3    0  502 -0.15644168984E+04  0.73539881734E+03 -0.82471886033E+02  0.17306111283E+04  0.12699999809E+01 0.  1.
</event>
<event>
 5   0  0.2238968E-07  0.3660367E+04  0.7818609E-02  0.8076802E-01
       -2   -1    0    0    0  501  0.00000000000E+00  0.00000000000E+00  0.15622381149E+04  0.15622381149E+04  0.25500000920E-02 0. -1.
        2   -1    0    0  501    0  0.00000000000E+00  0.00000000000E+00 -0.21440848231E+04  0.21440848231E+04  0.25500000920E-02 0.  1.
    10030    2    1    2    0    0  0.00000000000E+00  0.00000000000E+00 -0.58184670818E+03  0.37063229380E+04  0.36603666659E+04 0.  0.
        3    1    3    3  502    0  0.10920965008E+04  0.12953499602E+04 -0.99168517962E+03  0.19631723796E+04  0.10100000352E+00 0.  1.
       -3    1    3    3    0  502 -0.10920965008E+04 -0.12953499602E+04  0.40983847143E+03  0.17431505584E+04  0.10100000352E+00 0. -1.
</event>
<event>
 5   0  0.7236375E-08  0.3609901E+04  0.7818609E-02  0.8088228E-01
       -1   -1    0    0    0  501  0.00000000000E+00  0.00000000000E+00  0.24751212753E+04  0.24751212753E+04  0.50400001928E-02 0. -1.
        1   -1    0    0  501    0  0.00000000000E+00  0.00000000000E+00 -0.13162367148E+04  0.13162367148E+04  0.50400001928E-02 0.  1.
    10030    2    1    2    0    0  0.00000000000E+00  0.00000000000E+00  0.11588845605E+04  0.37913579901E+04  0.36099005505E+04 0.  0.
        1    1    3    3  502    0 -0.28613992693E+03  0.16593276548E+04  0.12621973045E+04  0.21043731511E+04  0.50400001928E-02 0. -1.
       -1    1    3    3    0  502  0.28613992693E+03 -0.16593276548E+04 -0.10331274401E+03  0.16869848389E+04  0.50400001928E-02 0.  1.
</event>
<event>
 5   0  0.2309391E-07  0.3625566E+04  0.7818609E-02  0.8084660E-01
       -2   -1    0    0    0  501  0.00000000000E+00  0.00000000000E+00  0.22898809295E+04  0.22898809295E+04  0.25500000920E-02 0.  1.
        2   -1    0    0  501    0  0.00000000000E+00  0.00000000000E+00 -0.14350890493E+04  0.14350890493E+04  0.25500000920E-02 0. -1.
    10030    2    1    2    0    0  0.00000000000E+00  0.00000000000E+00  0.85479188019E+03  0.37249699788E+04  0.36255664639E+04 0.  0.
        4    1    3    3  502    0  0.13702867771E+04  0.11095308117E+04 -0.53858207012E+01  0.17631718843E+04  0.12699999809E+01 0. -1.
       -4    1    3    3    0  502 -0.13702867771E+04 -0.11095308117E+04  0.86017770089E+03  0.19617980945E+04  0.12699999809E+01 0.  1.
</event>
<event>
 5   0  0.7514289E-08  0.3601148E+04  0.7818609E-02  0.8090229E-01
        1   -1    0    0  501    0  0.00000000000E+00  0.00000000000E+00  0.22337322065E+04  0.22337322065E+04  0.50400001928E-02 0. -1.
       -1   -1    0    0    0  501  0.00000000000E+00  0.00000000000E+00 -0.14514124215E+04  0.14514124215E+04  0.50400001928E-02 0.  1.
    10030    2    1    2    0    0  0.00000000000E+00  0.00000000000E+00  0.78231978498E+03  0.36851446280E+04  0.36011479674E+04 0.  0.
        4    1    3    3  502    0  0.46601072848E+03 -0.18706252758E+03  0.21606265620E+04  0.22182126006E+04  0.12699999809E+01 0. -1.
       -4    1    3    3    0  502 -0.46601072848E+03  0.18706252758E+03 -0.13783067770E+04  0.14669320273E+04  0.12699999809E+01 0.  1.
</event>
<event>
 5   0  0.2199902E-07  0.3610916E+04  0.7818609E-02  0.8087996E-01
        2   -1    0    0  501    0  0.00000000000E+00  0.00000000000E+00  0.26648115432E+04  0.26648115432E+04  0.25500000920E-02 0. -1.
       -2   -1    0    0    0  501  0.00000000000E+00  0.00000000000E+00 -0.12232301430E+04  0.12232301430E+04  0.25500000920E-02 0.  1.
    10030    2    1    2    0    0  0.00000000000E+00  0.00000000000E+00  0.14415814003E+04  0.38880416862E+04  0.36109155653E+04 0.  0.
        1    1    3    3  502    0  0.13512356644E+04  0.49095295446E+03  0.18967663729E+04  0.23800410285E+04  0.50400001928E-02 0. -1.
       -1    1    3    3    0  502 -0.13512356644E+04 -0.49095295446E+03 -0.45518497262E+03  0.15080006577E+04  0.50400001928E-02 0.  1.
</event>
<event>
 5   0  0.2342606E-07  0.3618855E+04  0.7818609E-02  0.8086186E-01
        2   -1    0    0  501    0  0.00000000000E+00  0.00000000000E+00  0.24175531370E+04  0.24175531370E+04  0.25500000920E-02 0. -1.
       -2   -1    0    0    0  501  0.00000000000E+00  0.00000000000E+00 -0.13542733189E+04  0.13542733189E+04  0.25500000920E-02 0.  1.
    10030    2    1    2    0    0  0.00000000000E+00  0.00000000000E+00  0.10632798181E+04  0.37718264559E+04  0.36188549076E+04 0.  0.
        5    1    3    3  502    0 -0.15062287104E+04 -0.98412747713E+03  0.33176890541E+03  0.18295694892E+04  0.46999998093E+01 0.  1.
       -5    1    3    3    0  502  0.15062287104E+04  0.98412747713E+03  0.73151091267E+03  0.19422569667E+04  0.46999998093E+01 0. -1.
</event>
<event>
 5   0  0.7236375E-08  0.3601242E+04  0.7818609E-02  0.8090207E-01
       -1   -1    0    0    0  501  0.00000000000E+00  0.00000000000E+00  0.17621677576E+04  0.17621677576E+04  0.50400001928E-02 0.  1.
        1   -1    0    0  501    0  0.00000000000E+00  0.00000000000E+00 -0.18399134351E+04  0.18399134351E+04  0.50400001928E-02 0. -1.
    10030    2    1    2    0    0  0.00000000000E+00  0.00000000000E+00 -0.77745677479E+02  0.36020811926E+04  0.36012420813E+04 0.  0.
        1    1    3    3  502    0 -0.12614729772E+04  0.99342788602E+03 -0.85393883234E+03  0.18186326090E+04  0.50400001928E-02 0. -1.
       -1    1    3    3    0  502  0.12614729772E+04 -0.99342788602E+03  0.77619315486E+03  0.17834485837E+04  0.50400001928E-02 0.  1.
</event>
<event>
 5   0  0.7236375E-08  0.3566908E+04  0.7818609E-02  0.8098114E-01
       -1   -1    0    0    0  501  0.00000000000E+00  0.00000000000E+00  0.19271897369E+04  0.19271897369E+04  0.50400001928E-02 0.  1.
        1   -1    0    0  501    0  0.00000000000E+00  0.00000000000E+00 -0.16504383871E+04  0.16504383871E+04  0.50400001928E-02 0. -1.
    10030    2    1    2    0    0  0.00000000000E+00  0.00000000000E+00  0.27675134981E+03  0.35776281240E+04  0.35669078603E+04 0.  0.
        1    1    3    3  502    0 -0.75487880234E+03  0.47491762657E+03 -0.14107139798E+04  0.16689825317E+04  0.50400001928E-02 0. -1.
       -1    1    3    3    0  502  0.75487880234E+03 -0.47491762657E+03  0.16874653296E+04  0.19086455923E+04  0.50400001928E-02 0.  1.
</event>
<event>
 5   0  0.7514289E-08  0.3597851E+04  0.7818609E-02  0.8090984E-01
        1   -1    0    0  501    0  0.00000000000E+00  0.00000000000E+00  0.27048115565E+04  0.27048115565E+04  0.50400001928E-02 0.  1.
       -1   -1    0    0    0  501  0.00000000000E+00  0.00000000000E+00 -0.11964357470E+04  0.11964357470E+04  0.50400001928E-02 0. -1.
    10030    2    1    2    0    0  0.00000000000E+00  0.00000000000E+00  0.15083758095E+04  0.39012473036E+04  0.35978511560E+04 0.  0.
        4    1    3    3  502    0 -0.10542547850E+04  0.13644034070E+04  0.19802028247E+03  0.17355873513E+04  0.12699999809E+01 0. -1.
       -4    1    3    3    0  502  0.10542547850E+04 -0.13644034070E+04  0.13103555270E+04  0.21656599523E+04  0.12699999809E+01 0.  1.
</event>
<event>
 5   0  0.2309391E-07  0.3604037E+04  0.7818609E-02  0.8089568E-01
        2   -1    0    0  501    0  0.00000000000E+00  0.00000000000E+00  0.17180503528E+04  0.17180503528E+04  0.25500000920E-02 0. -1.
       -2   -1    0    0    0  501  0.00000000000E+00  0.00000000000E+00 -0.18900905236E+04  0.18900905236E+04  0.25500000920E-02 0.  1.
    10030    2    1    2    0    0  0.00000000000E+00  0.00000000000E+00 -0.17204017080E+03  0.36081408763E+04  0.36040370091E+04 0.  0.
        4    1    3    3  502    0  0.12787629362E+04 -0.12683220212E+04 -0.14434173114E+03  0.18068512791E+04  0.12699999809E+01 0.  1.
       -4    1    3    3    0  502 -0.12787629362E+04  0.12683220212E+04 -0.27698439662E+02  0.18012895972E+04  0.12699999809E+01 0. -1.
</event>
<event>
 5   0  0.7236375E-08  0.3605409E+04  0.7818609E-02  0.8089254E-01
        1   -1    0    0  501    0  0.00000000000E+00  0.00000000000E+00  0.20529509530E+04  0.20529509531E+04  0.50400001928E-02 0.  1.
       -1   -1    0    0    0  501  0.00000000000E+00  0.00000000000E+00 -0.15829617037E+04  0.15829617037E+04  0.50400001928E-02 0. -1.
    10030    2    1    2    0    0  0.00000000000E+00  0.00000000000E+00  0.46998924936E+03  0.36359126567E+04  0.36054085695E+04 0.  0.
        1    1    3    3  502    0  0.87167814711E+03 -0.20611735489E+03  0.18126588951E+04  0.20218900628E+04  0.50400001928E-02 0.  1.
       -1    1    3    3    0  502 -0.87167814711E+03  0.20611735489E+03 -0.13426696457E+04  0.16140225939E+04  0.50400001928E-02 0. -1.
</event>
<event>
 5   0  0.2199902E-07  0.3523135E+04  0.7818609E-02  0.8108329E-01
       -2   -1    0    0    0  501  0.00000000000E+00  0.00000000000E+00  0.15958832553E+04  0.15958832553E+04  0.25500000920E-02 0. -1.
        2   -1    0    0  501    0  0.00000000000E+00  0.00000000000E+00 -0.19444534772E+04  0.19444534772E+04  0.25500000920E-02 0.  1.
    10030    2    1    2    0    0  0.00000000000E+00  0.00000000000E+00 -0.34857022193E+03  0.35403367325E+04  0.35231353905E+04 0.  0.
        1    1    3    3  502    0  0.38355914679E+03  0.17192697313E+04 -0.18504801122E+03  0.17712280470E+04  0.50400001928E-02 0. -1.
       -1    1    3    3    0  502 -0.38355914679E+03 -0.17192697313E+04 -0.16352221071E+03  0.17691086856E+04  0.50400001928E-02 0.  1.
</event>
<event>
 5   0  0.7236375E-08  0.3599655E+04  0.7818609E-02  0.8090571E-01
       -3   -1    0    0    0  501  0.00000000000E+00  0.00000000000E+00  0.12401597883E+04  0.12401597924E+04  0.10100000352E+00 0.  1.
        3   -1    0    0  501    0  0.00000000000E+00  0.00000000000E+00 -0.26120661713E+04  0.26120661732E+04  0.10100000352E+00 0. -1.
    10030    2    1    2    0    0  0.00000000000E+00  0.00000000000E+00 -0.13719063830E+04  0.38522259657E+04  0.35996552289E+04 0.  0.
        2    1    3    3  502    0 -0.17334949600E+03 -0.95225994610E+03 -0.23098316964E+04  0.25044303780E+04  0.25500000920E-02 0. -1.
       -2    1    3    3    0  502  0.17334949600E+03  0.95225994610E+03  0.93792531337E+03  0.13477955877E+04  0.25500000920E-02 0.  1.
</event>
<event>
 5   0  0.2238968E-07  0.3599916E+04  0.7818609E-02  0.8090511E-01
        2   -1    0    0  501    0  0.00000000000E+00  0.00000000000E+00  0.16833305720E+04  0.16833305720E+04  0.25500000920E-02 0.  1.
       -2   -1    0    0    0  501  0.00000000000E+00  0.00000000000E+00 -0.19246653765E+04  0.19246653765E+04  0.25500000920E-02 0. -1.
    10030    2    1    2    0    0  0.00000000000E+00  0.00000000000E+00 -0.24133480456E+03  0.36079959485E+04  0.35999155929E+04 0.  0.
        3    1    3    3  502    0  0.53397661883E+03  0.15211755042E+04 -0.92292780711E+03  0.18576602734E+04  0.10100000352E+00 0. -1.
       -3    1    3    3    0  502 -0.53397661883E+03 -0.15211755042E+04  0.68159300255E+03  0.17503356751E+04  0.10100000352E+00 0.  1.
</event>
<event>
 5   0  0.7236375E-08  0.3594767E+04  0.7818609E-02  0.8091691E-01
       -1   -1    0    0    0  501  0.00000000000E+00  0.00000000000E+00  0.25930870452E+04  0.25930870452E+04  0.50400001928E-02 0.  1.
        1   -1    0    0  501    0  0.00000000000E+00  0.00000000000E+00 -0.12458461799E+04  0.12458461799E+04  0.50400001928E-02 0. -1.
    10030    2    1    2    0    0  0.00000000000E+00  0.00000000000E+00  0.13472408653E+04  0.38389332252E+04  0.35947670798E+04 0.  0.
        1    1    3    3  502    0 -0.14980329202E+04 -0.95621290034E+03  0.96045628599E+03  0.20201292083E+04  0.50400001928E-02 0. -1.
       -1    1    3    3    0  502  0.14980329202E+04  0.95621290034E+03  0.38678457935E+03  0.18188040169E+04  0.50400001928E-02 0.  1.
</event>
<event>
 5   0  0.7236375E-08  0.3598470E+04  0.7818609E-02  0.8090842E-01
        3   -1    0    0  501    0  0.00000000000E+00  0.00000000000E+00  0.16144385997E+04  0.16144386028E+04  0.10100000352E+00 0.  1.
       -3   -1    0    0    0  501  0.00000000000E+00  0.00000000000E+00 -0.20051845780E+04  0.20051845805E+04  0.10100000352E+00 0. -1.
    10030    2    1    2    0    0  0.00000000000E+00  0.00000000000E+00 -0.39074597829E+03  0.36196231834E+04  0.35984704487E+04 0.  0.
        2    1    3    3  502    0 -0.16247560324E+03 -0.96779889606E+03 -0.17122875498E+04  0.19735657268E+04  0.25500000920E-02 0. -1.
       -2    1    3    3    0  502  0.16247560324E+03  0.96779889606E+03  0.13215415715E+04  0.16460574565E+04  0.25500000920E-02 0.  1.
</event>
<event>
 5   0  0.2342606E-07  0.3597614E+04  0.7818609E-02  0.8091038E-01
        2   -1    0    0  501    0  0.00000000000E+00  0.00000000000E+00  0.16793339475E+04  0.16793339475E+04  0.25500000920E-02 0.  1.
       -2   -1    0    0    0  501  0.00000000000E+00  0.00000000000E+00 -0.19267795591E+04  0.19267795591E+04  0.25500000920E-02 0. -1.
    10030    2    1    2    0    0  0.00000000000E+00  0.00000000000E+00 -0.24744561158E+03  0.36061135065E+04  0.35976138330E+04 0.  0.
        5    1    3    3  502    0  0.16211237435E+04 -0.72279766503E+03 -0.41631238741E+03  0.18231337719E+04  0.46999998093E+01 0. -1.
       -5    1    3    3    0  502 -0.16211237435E+04  0.72279766503E+03  0.16886677583E+03  0.17829797347E+04  0.46999998093E+01 0.  1.
</event>
<event>
 5   0  0.7236375E-08  0.3613483E+04  0.7818609E-02  0.8087410E-01
        1   -1    0    0  501    0  0.00000000000E+00  0.00000000000E+00  0.22975950414E+04  0.22975950414E+04  0.50400001928E-02 0.  1.
       -1   -1    0    0    0  501  0.00000000000E+00  0.00000000000E+00 -0.14207530315E+04  0.14207530315E+04  0.50400001928E-02 0. -1.
    10030    2    1    2    0    0  0.00000000000E+00  0.00000000000E+00  0.87684200989E+03  0.37183480729E+04  0.36134831507E+04 0.  0.
        1    1    3    3  502    0  0.44349210499E+03  0.16936373756E+04  0.89771735719E+03  0.19674829760E+04  0.50400001928E-02 0.  1.
       -1    1    3    3    0  502 -0.44349210499E+03 -0.16936373756E+04 -0.20875347304E+02  0.17508650969E+04  0.50400001928E-02 0. -1.
</event>
<event>
 5   0  0.7236375E-08  0.3593683E+04  0.7818609E-02  0.8091940E-01
        1   -1    0    0  501    0  0.00000000000E+00  0.00000000000E+00  0.21292177667E+04  0.21292177667E+04  0.50400001928E-02 0. -1.
       -1   -1    0    0    0  501  0.00000000000E+00  0.00000000000E+00 -0.15163502460E+04  0.15163502460E+04  0.50400001928E-02 0.  1.
    10030    2    1    2    0    0  0.00000000000E+00  0.00000000000E+00  0.61286752071E+03  0.36455680127E+04  0.35936832829E+04 0.  0.
        5    1    3    3  502    0  0.17774396763E+04  0.35997717588E+00  0.39334279327E+02  0.17778811007E+04  0.46999998093E+01 0. -1.
       -5    1    3    3    0  502 -0.17774396763E+04 -0.35997717588E+00  0.57353324138E+03  0.18676869121E+04  0.46999998093E+01 0.  1.
</event>
<event>
 5   0  0.7261233E-08  0.3600813E+04  0.7818609E-02  0.8090306E-01
        1   -1    0    0  501    0  0.00000000000E+00  0.00000000000E+00  0.12110819107E+04  0.12110819107E+04  0.50400001928E-02 0. -1.
       -1   -1    0    0    0  501  0.00000000000E+00  0.00000000000E+00 -0.26765020813E+04  0.26765020813E+04  0.50400001928E-02 0.  1.
    10030    2    1    2    0    0  0.00000000000E+00  0.00000000000E+00 -0.14654201706E+04  0.38875839920E+04  0.36008128275E+04 0.  0.
        3    1    3    3  502    0 -0.13043303066E+04 -0.91754895542E+03  0.16947787725E+03  0.16037133146E+04  0.10100000352E+00 0. -1.
       -3    1    3    3    0  502  0.13043303066E+04  0.91754895542E+03 -0.16348980478E+04  0.22838706774E+04  0.10100000352E+00 0.  1.
</event>
<event>
 5   0  0.2309391E-07  0.3604950E+04  0.7818609E-02  0.8089359E-01
       -2   -1    0    0    0  501  0.00000000000E+00  0.00000000000E+00  0.17987878752E+04  0.17987878752E+04  0.25500000920E-02 0.  1.
        2   -1    0    0  501    0  0.00000000000E+00  0.00000000000E+00 -0.18061699682E+04  0.18061699682E+04  0.25500000920E-02 0. -1.
    10030    2    1    2    0    0  0.00000000000E+00  0.00000000000E+00 -0.73820929299E+01  0.36049578434E+04  0.36049502850E+04 0.  0.
        4    1    3    3  502    0  0.50692436305E+03 -0.12684435960E+04  0.11723188853E+04  0.18000707341E+04  0.12699999809E+01 0.  1.
       -4    1    3    3    0  502 -0.50692436305E+03  0.12684435960E+04 -0.11797009782E+04  0.18048871092E+04  0.12699999809E+01 0. -1.
</event>
<event>
 5   0  0.7347303E-08  0.3636483E+04  0.7818609E-02  0.8082186E-01
        1   -1    0    0  501    0  0.00000000000E+00  0.00000000000E+00  0.13822126407E+04  0.13822126407E+04  0.50400001928E-02 0. -1.
       -1   -1    0    0    0  501  0.00000000000E+00  0.00000000000E+00 -0.23918187716E+04  0.23918187716E+04  0.50400001928E-02 0.  1.
    10030    2    1    2    0    0  0.00000000000E+00  0.00000000000E+00 -0.10096061309E+04  0.37740314123E+04  0.36364829934E+04 0.  0.
        2    1    3    3  502    0 -0.17415169739E+04  0.31069825888E+03 -0.68685319284E+02  0.17703481159E+04  0.25500000920E-02 0.  1.
       -2    1    3    3    0  502  0.17415169739E+04 -0.31069825888E+03 -0.94092081165E+03  0.20036832964E+04  0.25500000920E-02 0. -1.
</event>
<event>
 5   0  0.2199902E-07  0.3597797E+04  0.7818609E-02  0.8090997E-01
       -2   -1    0    0    0  501  0.00000000000E+00  0.00000000000E+00  0.15092787606E+04  0.15092787606E+04  0.25500000920E-02 0. -1.
        2   -1    0    0  501    0  0.00000000000E+00  0.00000000000E+00 -0.21440936859E+04  0.21440936859E+04  0.25500000920E-02 0.  1.
    10030    2    1    2    0    0  0.00000000000E+00  0.00000000000E+00 -0.63481492527E+03  0.36533724466E+04  0.35977965818E+04 0.  0.
        1    1    3    3  502    0 -0.17137289045E+03 -0.10562776774E+04 -0.17857538892E+04  0.20818280794E+04  0.50400001928E-02 0.  1.
       -1    1    3    3    0  502  0.17137289045E+03  0.10562776774E+04  0.11509389639E+04  0.15715443672E+04  0.50400001928E-02 0. -1.
</event>
<event>
 5   0  0.2309391E-07  0.3601387E+04  0.7818609E-02  0.8090174E-01
        2   -1    0    0  501    0  0.00000000000E+00  0.00000000000E+00  0.24766717388E+04  0.24766717388E+04  0.25500000920E-02 0.  1.
       -2   -1    0    0    0  501  0.00000000000E+00  0.00000000000E+00 -0.13092156169E+04  0.13092156169E+04  0.25500000920E-02 0. -1.
    10030    2    1    2    0    0  0.00000000000E+00  0.00000000000E+00  0.11674561219E+04  0.37858873557E+04  0.36013871319E+04 0.  0.
        4    1    3    3  502    0  0.22512388366E+03  0.46342902998E+03 -0.12300779330E+04  0.13336193471E+04  0.12699999809E+01 0. -1.
       -4    1    3    3    0  502 -0.22512388366E+03 -0.46342902998E+03  0.23975340549E+04  0.24522680086E+04  0.12699999809E+01 0.  1.
</event>
<event>
 5   0  0.2309391E-07  0.3564692E+04  0.7818609E-02  0.8098628E-01
       -2   -1    0    0    0  501  0.00000000000E+00  0.00000000000E+00  0.17048795957E+04  0.17048795957E+04  0.25500000920E-02 0. -1.
        2   -1    0    0  501    0  0.00000000000E+00  0.00000000000E+00 -0.18633325705E+04  0.18633325705E+04  0.25500000920E-02 0.  1.
    10030    2    1    2    0    0  0.00000000000E+00  0.00000000000E+00 -0.15845297480E+03  0.35682121663E+04  0.35646922333E+04 0.  0.
        4    1    3    3  502    0  0.66621773110E+03 -0.77770373098E+03  0.13810103822E+04  0.17192615994E+04  0.12699999809E+01 0. -1.
       -4    1    3    3    0  502 -0.66621773110E+03  0.77770373098E+03 -0.15394633570E+04  0.18489505669E+04  0.12699999809E+01 0.  1.
</event>
<event>
 5   0  0.2198900E-07  0.3597649E+04  0.7818609E-02  0.8091030E-01
       -2   -1    0    0    0  501  0.00000000000E+00  0.00000000000E+00  0.11095700873E+04  0.11095700873E+04  0.25500000920E-02 0. -1.
        2   -1    0    0  501    0  0.00000000000E+00  0.00000000000E+00 -0.29162375467E+04  0.29162375467E+04  0.25500000920E-02 0.  1.
    10030    2    1    2    0    0  0.00000000000E+00  0.00000000000E+00 -0.18066674593E+04  0.40258076340E+04  0.35976492043E+04 0.  0.
        2    1    3    3  502    0 -0.87883528957E+03  0.16601408252E+03  0.84313241468E+03  0.12291397034E+04  0.25500000920E-02 0. -1.
       -2    1    3    3    0  502  0.87883528957E+03 -0.16601408252E+03 -0.26497998740E+04  0.27966679306E+04  0.25500000920E-02 0.  1.
</event>
<event>
 5   0  0.2238968E-07  0.3511546E+04  0.7818609E-02  0.8111059E-01
        2   -1    0    0  501    0  0.00000000000E+00  0.00000000000E+00  0.15932843469E+04  0.15932843469E+04  0.25500000920E-02 0. -1.
       -2   -1    0    0    0  501  0.00000000000E+00  0.00000000000E+00 -0.19348329284E+04  0.19348329284E+04  0.25500000920E-02 0.  1.
    10030    2    1    2    0    0  0.00000000000E+00  0.00000000000E+00 -0.34154858149E+03  0.35281172752E+04  0.35115461088E+04 0.  0.
        3    1    3    3  502    0  0.14760837728E+04 -0.81146595845E+03 -0.66852989712E+03  0.18122451655E+04  0.10100000352E+00 0.  1.
       -3    1    3    3    0  502 -0.14760837728E+04  0.81146595845E+03  0.32698131563E+03  0.17158721098E+04  0.10100000352E+00 0. -1.
</event>
<event>
 5   0  0.7261233E-08  0.3608596E+04  0.7818609E-02  0.8088525E-01
       -1   -1    0    0    0  501  0.00000000000E+00  0.00000000000E+00  0.15453294274E+04  0.15453294275E+04  0.50400001928E-02 0. -1.
        1   -1    0    0  501    0  0.00000000000E+00  0.00000000000E+00 -0.21066650751E+04  0.21066650751E+04  0.50400001928E-02 0.  1.
    10030    2    1    2    0    0  0.00000000000E+00  0.00000000000E+00 -0.56133564769E+03  0.36519945026E+04  0.36085961450E+04 0.  0.
        3    1    3    3  502    0  0.95765607849E+03  0.97466556895E+03 -0.14731481720E+04  0.20092893477E+04  0.10100000352E+00 0.  1.
       -3    1    3    3    0  502 -0.95765607849E+03 -0.97466556895E+03  0.91181252436E+03  0.16427051548E+04  0.10100000352E+00 0. -1.
</event>
<event>
 5   0  0.7514289E-08  0.3621681E+04  0.7818609E-02  0.8085543E-01
       -1   -1    0    0    0  501  0.00000000000E+00  0.00000000000E+00  0.13979795948E+04  0.13979795948E+04  0.50400001928E-02 0. -1.
        1   -1    0    0  501    0  0.00000000000E+00  0.00000000000E+00 -0.23456303922E+04  0.23456303923E+04  0.50400001928E-02 0.  1.
    10030    2    1    2    0    0  0.00000000000E+00  0.00000000000E+00 -0.94765079748E+03  0.37436099870E+04  0.36216810601E+04 0.  0.
        4    1    3    3  502    0  0.62383608239E+03 -0.12810869342E+03 -0.22260526004E+04  0.23153606819E+04  0.12699999809E+01 0.  1.
       -4    1    3    3    0  502 -0.62383608239E+03  0.12810869342E+03  0.12784018029E+04  0.14282493051E+04  0.12699999809E+01 0. -1.
</event>
<event>
 5   0  0.2238968E-07  0.3586765E+04  0.7818609E-02  0.8093530E-01
        2   -1    0    0  501    0  0.00000000000E+00  0.00000000000E+00  0.17880159781E+04  0.17880159781E+04  0.25500000920E-02 0. -1.
       -2   -1    0    0    0  501  0.00000000000E+00  0.00000000000E+00 -0.17987646428E+04  0.17987646428E+04  0.25500000920E-02 0.  1.
    10030    2    1    2    0    0  0.00000000000E+00  0.00000000000E+00 -0.10748664607E+02  0.35867806209E+04  0.35867645154E+04 0.  0.
        3    1    3    3  502    0 -0.66430621205E+03 -0.99019027783E+03  0.13341989197E+04  0.17893759519E+04  0.10100000352E+00 0. -1.
       -3    1    3    3    0  502  0.66430621205E+03  0.99019027783E+03 -0.13449475843E+04  0.17974046690E+04  0.10100000352E+00 0.  1.
</event>
<event>
 5   0  0.2198900E-07  0.3605997E+04  0.7818609E-02  0.8089119E-01
       -2   -1    0    0    0  501  0.00000000000E+00  0.00000000000E+00  0.17549027449E+04  0.17549027449E+04  0.25500000920E-02 0.  1.
        2   -1    0    0  501    0  0.00000000000E+00  0.00000000000E+00 -0.18524128831E+04  0.18524128831E+04  0.25500000920E-02 0. -1.
    10030    2    1    2    0    0  0.00000000000E+00  0.00000000000E+00 -0.97510138243E+02  0.36073156279E+04  0.36059974782E+04 0.  0.
        2    1    3    3  502    0  0.24803903546E+03  0.11944285669E+04  0.12793677997E+04  0.17677570340E+04  0.25500000920E-02 0.  1.
       -2    1    3    3    0  502 -0.24803903546E+03 -0.11944285669E+04 -0.13768779379E+04  0.18395585939E+04  0.25500000920E-02 0. -1.
</event>
<event>
 5   0  0.7236375E-08  0.3595563E+04  0.7818609E-02  0.8091509E-01
        1   -1    0    0  501    0  0.00000000000E+00  0.00000000000E+00  0.20760910695E+04  0.20760910695E+04  0.50400001928E-02 0. -1.
       -1   -1    0    0    0  501  0.00000000000E+00  0.00000000000E+00 -0.15567804076E+04  0.15567804076E+04  0.50400001928E-02 0.  1.
    10030    2    1    2    0    0  0.00000000000E+00  0.00000000000E+00  0.51931066189E+03  0.36328714771E+04  0.35955627662E+04 0.  0.
        1    1    3    3  502    0  0.15972988051E+04 -0.67741368464E+03 -0.21615053031E+03  0.17484203798E+04  0.50400001928E-02 0.  1.
       -1    1    3    3    0  502 -0.15972988051E+04  0.67741368464E+03  0.73546119220E+03  0.18844510973E+04  0.50400001928E-02 0. -1.
</event>
<event>
 5   0  0.2199902E-07  0.3598040E+04  0.7818609E-02  0.8090941E-01
        2   -1    0    0  501    0  0.00000000000E+00  0.00000000000E+00  0.28771987777E+04  0.28771987777E+04  0.25500000920E-02 0.  1.
       -2   -1    0    0    0  501  0.00000000000E+00  0.00000000000E+00 -0.11248693013E+04  0.11248693014E+04  0.25500000920E-02 0. -1.
    10030    2    1    2    0    0  0.00000000000E+00  0.00000000000E+00  0.17523294763E+04  0.40020680790E+04  0.35980397879E+04 0.  0.
        1    1    3    3  502    0 -0.67312830054E+03 -0.93880525439E+03 -0.65783591239E+03  0.13293626677E+04  0.50400001928E-02 0. -1.
       -1    1    3    3    0  502  0.67312830054E+03  0.93880525439E+03  0.24101653887E+04  0.26727054113E+04  0.50400001928E-02 0.  1.
</event>
<event>
 5   0  0.7347303E-08  0.3616118E+04  0.7818609E-02  0.8086810E-01
        1   -1    0    0  501    0  0.00000000000E+00  0.00000000000E+00  0.18416176815E+04  0.18416176815E+04  0.50400001928E-02 0.  1.
       -1   -1    0    0    0  501  0.00000000000E+00  0.00000000000E+00 -0.17751114725E+04  0.17751114725E+04  0.50400001928E-02 0. -1.
    10030    2    1    2    0    0  0.00000000000E+00  0.00000000000E+00  0.66506208981E+02  0.36167291540E+04  0.36161176277E+04 0.  0.
        2    1    3    3  502    0 -0.13010882906E+04 -0.50196776224E+03 -0.11177126802E+04  0.17872000475E+04  0.25500000920E-02 0. -1.
       -2    1    3    3    0  502  0.13010882906E+04  0.50196776224E+03  0.11842188892E+04  0.18295291065E+04  0.25500000920E-02 0.  1.
</event>
<event>
 5   0  0.2342606E-07  0.3599122E+04  0.7818609E-02  0.8090693E-01
       -2   -1    0    0    0  501  0.00000000000E+00  0.00000000000E+00  0.14379909967E+04  0.14379909967E+04  0.25500000920E-02 0. -1.
        2   -1    0    0  501    0  0.00000000000E+00  0.00000000000E+00 -0.22520440895E+04  0.22520440895E+04  0.25500000920E-02 0.  1.
    10030    2    1    2    0    0  0.00000000000E+00  0.00000000000E+00 -0.81405309282E+03  0.36900350862E+04  0.35991216289E+04 0.  0.
        5    1    3    3  502    0 -0.50702931658E+03 -0.14201266416E+03  0.13572401170E+04  0.14558053269E+04  0.46999998093E+01 0. -1.
       -5    1    3    3    0  502  0.50702931658E+03  0.14201266416E+03 -0.21712932098E+04  0.22342297594E+04  0.46999998093E+01 0.  1.
</event>
<event>
 5   0  0.7347303E-08  0.3647398E+04  0.7818609E-02  0.8079720E-01
       -1   -1    0    0    0  501  0.00000000000E+00  0.00000000000E+00  0.20289864165E+04  0.20289864165E+04  0.50400001928E-02 0. -1.
        1   -1    0    0  501    0  0.00000000000E+00  0.00000000000E+00 -0.16391822375E+04  0.16391822375E+04  0.50400001928E-02 0.  1.
    10030    2    1    2    0    0  0.00000000000E+00  0.00000000000E+00  0.38980417903E+03  0.36681686541E+04  0.36473982476E+04 0.  0.
        2    1    3    3  502    0  0.51979273835E+02 -0.14874740707E+04 -0.86494805519E+03  0.17214575493E+04  0.25500000920E-02 0.  1.
       -2    1    3    3    0  502 -0.51979273835E+02  0.14874740707E+04  0.12547522342E+04  0.19467111047E+04  0.25500000920E-02 0. -1.
</event>
<event>
 5   0  0.7261233E-08  0.3581633E+04  0.7818609E-02  0.8094712E-01
        1   -1    0    0  501    0  0.00000000000E+00  0.00000000000E+00  0.18999821056E+04  0.18999821056E+04  0.50400001928E-02 0.  1.
       -1   -1    0    0    0  501  0.00000000000E+00  0.00000000000E+00 -0.16879230298E+04  0.16879230298E+04  0.50400001928E-02 0. -1.
    10030    2    1    2    0    0  0.00000000000E+00  0.00000000000E+00  0.21205907587E+03  0.35879051354E+04  0.35816328970E+04 0.  0.
        3    1    3    3  502    0  0.17589050358E+04 -0.21678879759E+02  0.44248471853E+03  0.18138383707E+04  0.10100000352E+00 0.  1.
       -3    1    3    3    0  502 -0.17589050358E+04  0.21678879759E+02 -0.23042564266E+03  0.17740667647E+04  0.10100000352E+00 0. -1.
</event>
<event>
 5   0  0.7236375E-08  0.3590954E+04  0.7818609E-02  0.8092567E-01
        1   -1    0    0  501    0  0.00000000000E+00  0.00000000000E+00  0.13574032878E+04  0.13574032878E+04  0.50400001928E-02 0. -1.
       -1   -1    0    0    0  501  0.00000000000E+00  0.00000000000E+00 -0.23749292980E+04  0.23749292980E+04  0.50400001928E-02 0.  1.
    10030    2    1    2    0    0  0.00000000000E+00  0.00000000000E+00 -0.10175260102E+04  0.37323325857E+04  0.35909535432E+04 0.  0.
        5    1    3    3  502    0 -0.17107144872E+04 -0.42720606030E+03 -0.86071810408E+03  0.19621179423E+04  0.46999998093E+01 0. -1.
       -5    1    3    3    0  502  0.17107144872E+04  0.42720606030E+03 -0.15680790612E+03  0.17702146435E+04  0.46999998093E+01 0.  1.
</event>
<event>
 5   0  0.2199902E-07  0.3583008E+04  0.7818609E-02  0.8094395E-01
       -2   -1    0    0    0  501  0.00000000000E+00  0.00000000000E+00  0.18846130892E+04  0.18846130892E+04  0.25500000920E-02 0.  1.
        2   -1    0    0  501    0  0.00000000000E+00  0.00000000000E+00 -0.17029950489E+04  0.17029950489E+04  0.25500000920E-02 0. -1.
    10030    2    1    2    0    0  0.00000000000E+00  0.00000000000E+00  0.18161804026E+03  0.35876081381E+04  0.35830080993E+04 0.  0.
        1    1    3    3  502    0  0.66735553435E+03 -0.63196677372E+03 -0.14489367977E+04  0.17158564206E+04  0.50400001928E-02 0. -1.
       -1    1    3    3    0  502 -0.66735553435E+03  0.63196677372E+03  0.16305548380E+04  0.18717517175E+04  0.50400001928E-02 0.  1.
</event>
<event>
 5   0  0.7261233E-08  0.3582085E+04  0.7818609E-02  0.8094608E-01
        1   -1    0    0  501    0  0.00000000000E+00  0.00000000000E+00  0.17184646556E+04  0.17184646556E+04  0.50400001928E-02 0. -1.
       -1   -1    0    0    0  501  0.00000000000E+00  0.00000000000E+00 -0.18666851956E+04  0.18666851956E+04  0.50400001928E-02 0.  1.
    10030    2    1    2    0    0  0.00000000000E+00  0.00000000000E+00 -0.14822054008E+03  0.35851498512E+04  0.35820846063E+04 0.  0.
        3    1    3    3  502    0 -0.64448726990E+02  0.45794536227E+03 -0.18058986764E+04  0.18641721038E+04  0.10100000352E+00 0.  1.
       -3    1    3    3    0  502  0.64448726990E+02 -0.45794536227E+03  0.16576781363E+04  0.17209777474E+04  0.10100000352E+00 0. -1.
</event>
<event>
 5   0  0.2198900E-07  0.3592560E+04  0.7818609E-02  0.8092198E-01
       -2   -1    0    0    0  501  0.00000000000E+00  0.00000000000E+00  0.12456135921E+04  0.12456135921E+04  0.25500000920E-02 0. -1.
        2   -1    0    0  501    0  0.00000000000E+00  0.00000000000E+00 -0.25903871717E+04  0.25903871717E+04  0.25500000920E-02 0.  1.
    10030    2    1    2    0    0  0.00000000000E+00  0.00000000000E+00 -0.13447735796E+04  0.38360007638E+04  0.35925597949E+04 0.  0.
        2    1    3    3  502    0 -0.12010457732E+04 -0.81866047479E+03 -0.17993217790E+04  0.23130661008E+04  0.25500000920E-02 0.  1.
       -2    1    3    3    0  502  0.12010457732E+04  0.81866047479E+03  0.45454819940E+03  0.15229346630E+04  0.25500000920E-02 0. -1.
</event>
<event>
 5   0  0.7514289E-08  0.3459963E+04  0.7818609E-02  0.8123344E-01
        1   -1    0    0  501    0  0.00000000000E+00  0.00000000000E+00  0.20934176914E+04  0.20934176914E+04  0.50400001928E-02 0.  1.
       -1   -1    0    0    0  501  0.00000000000E+00  0.00000000000E+00 -0.14296410904E+04  0.14296410904E+04  0.50400001928E-02 0. -1.
    10030    2    1    2    0    0  0.00000000000E+00  0.00000000000E+00  0.66377660094E+03  0.35230587818E+04  0.34599629773E+04 0.  0.
        4    1    3    3  502    0 -0.80904988566E+01  0.52864726895E+03 -0.13453602332E+04  0.14455203773E+04  0.12699999809E+01 0. -1.
       -4    1    3    3    0  502  0.80904988566E+01 -0.52864726895E+03  0.20091368341E+04  0.20775384045E+04  0.12699999809E+01 0.  1.
</event>
<event>
 5   0  0.7236375E-08  0.3595787E+04  0.7818609E-02  0.8091457E-01
        1   -1    0    0  501    0  0.00000000000E+00  0.00000000000E+00  0.24828951280E+04  0.24828951280E+04  0.50400001928E-02 0.  1.
       -1   -1    0    0    0  501  0.00000000000E+00  0.00000000000E+00 -0.13018755571E+04  0.13018755571E+04  0.50400001928E-02 0. -1.
    10030    2    1    2    0    0  0.00000000000E+00  0.00000000000E+00  0.11810195709E+04  0.37847706851E+04  0.35957866889E+04 0.  0.
        5    1    3    3  502    0  0.16494541573E+04 -0.56438684709E+03  0.10531165281E+04  0.20367395616E+04  0.46999998093E+01 0.  1.
       -5    1    3    3    0  502 -0.16494541573E+04  0.56438684709E+03  0.12790304281E+03  0.17480311234E+04  0.46999998093E+01 0. -1.
</event>
<event>
 5   0  0.2342606E-07  0.3596704E+04  0.7818609E-02  0.8091247E-01
       -2   -1    0    0    0  501  0.00000000000E+00  0.00000000000E+00  0.17031748113E+04  0.17031748113E+04  0.25500000920E-02 0.  1.
        2   -1    0    0  501    0  0.00000000000E+00  0.00000000000E+00 -0.18988475515E+04  0.18988475515E+04  0.25500000920E-02 0. -1.
    10030    2    1    2    0    0  0.00000000000E+00  0.00000000000E+00 -0.19567274022E+03  0.36020223628E+04  0.35967036687E+04 0.  0.
        5    1    3    3  502    0  0.12101611605E+04 -0.87372310535E+03  0.90672477927E+03  0.17464403839E+04  0.46999998093E+01 0.  1.
       -5    1    3    3    0  502 -0.12101611605E+04  0.87372310535E+03 -0.11023975195E+04  0.18555819789E+04  0.46999998093E+01 0. -1.
</event>
<event>
 5   0  0.7236375E-08  0.3598373E+04  0.7818609E-02  0.8090864E-01
       -1   -1    0    0    0  501  0.00000000000E+00  0.00000000000E+00  0.18048341139E+04  0.18048341139E+04  0.50400001928E-02 0. -1.
        1   -1    0    0  501    0  0.00000000000E+00  0.00000000000E+00 -0.17935570293E+04  0.17935570293E+04  0.50400001928E-02 0.  1.
    10030    2    1    2    0    0  0.00000000000E+00  0.00000000000E+00  0.11277084614E+02  0.35983911432E+04  0.35983734724E+04 0.  0.
        5    1    3    3  502    0 -0.15127231149E+04  0.77322073387E+03 -0.58668969604E+03  0.17973392599E+04  0.46999998093E+01 0.  1.
       -5    1    3    3    0  502  0.15127231149E+04 -0.77322073387E+03  0.59796678066E+03  0.18010518833E+04  0.46999998093E+01 0. -1.
</event>
<event>
 5   0  0.7347303E-08  0.3603133E+04  0.7818609E-02  0.8089774E-01
        1   -1    0    0  501    0  0.00000000000E+00  0.00000000000E+00  0.26220937826E+04  0.26220937827E+04  0.50400001928E-02 0.  1.
       -1   -1    0    0    0  501  0.00000000000E+00  0.00000000000E+00 -0.12378057100E+04  0.12378057101E+04  0.50400001928E-02 0. -1.
    10030    2    1    2    0    0  0.00000000000E+00  0.00000000000E+00  0.13842880726E+04  0.38598994927E+04  0.36031334455E+04 0.  0.
        2    1    3    3  502    0 -0.12573577539E+04 -0.40222716717E+03  0.20054374515E+04  0.24009403548E+04  0.25500000920E-02 0.  1.
       -2    1    3    3    0  502  0.12573577539E+04  0.40222716717E+03 -0.62114937891E+03  0.14589591379E+04  0.25500000920E-02 0. -1.
</event>
<event>
 5   0  0.2199902E-07  0.3617593E+04  0.7818609E-02  0.8086474E-01
       -2   -1    0    0    0  501  0.00000000000E+00  0.00000000000E+00  0.15017425036E+04  0.15017425036E+04  0.25500000920E-02 0.  1.
        2   -1    0    0  501    0  0.00000000000E+00  0.00000000000E+00 -0.21786317756E+04  0.21786317756E+04  0.25500000920E-02 0. -1.
    10030    2    1    2    0    0  0.00000000000E+00  0.00000000000E+00 -0.67688927200E+03  0.36803742792E+04  0.36175925349E+04 0.  0.
        1    1    3    3  502    0  0.88893280332E+03 -0.56318109901E+03 -0.18351559325E+04  0.21154601806E+04  0.50400001928E-02 0. -1.
       -1    1    3    3    0  502 -0.88893280332E+03  0.56318109901E+03  0.11582666605E+04  0.15649140986E+04  0.50400001928E-02 0.  1.
</event>
<event>
 5   0  0.7514289E-08  0.3608019E+04  0.7818609E-02  0.8088657E-01
       -1   -1    0    0    0  501  0.00000000000E+00  0.00000000000E+00  0.17744901632E+04  0.17744901632E+04  0.50400001928E-02 0.  1.
        1   -1    0    0  501    0  0.00000000000E+00  0.00000000000E+00 -0.18340194177E+04  0.18340194177E+04  0.50400001928E-02 0. -1.
    10030    2    1    2    0    0  0.00000000000E+00  0.00000000000E+00 -0.59529254480E+02  0.36085095809E+04  0.36080185232E+04 0.  0.
        4    1    3    3  502    0 -0.49147494471E+03 -0.72724496788E+03  0.15465256830E+04  0.17782508725E+04  0.12699999809E+01 0.  1.
       -4    1    3    3    0  502  0.49147494471E+03  0.72724496788E+03 -0.16060549375E+04  0.18302587084E+04  0.12699999809E+01 0. -1.
</event>
<event>
 5   0  0.2199902E-07  0.3671587E+04  0.7818609E-02  0.8074288E-01
       -2   -1    0    0    0  501  0.00000000000E+00  0.00000000000E+00  0.15275708501E+04  0.15275708501E+04  0.25500000920E-02 0. -1.
        2   -1    0    0  501    0  0.00000000000E+00  0.00000000000E+00 -0.22062067316E+04  0.22062067316E+04  0.25500000920E-02 0.  1.
    10030    2    1    2    0    0  0.00000000000E+00  0.00000000000E+00 -0.67863588149E+03  0.37337775818E+04  0.36715866285E+04 0.  0.
        1    1    3    3  502    0  0.32275913551E+03  0.13016758612E+04  0.93555284657E+03  0.16351735798E+04  0.50400001928E-02 0. -1.
       -1    1    3    3    0  502 -0.32275913551E+03 -0.13016758612E+04 -0.16141887281E+04  0.20986040020E+04  0.50400001928E-02 0.  1.
</event>
<event>
 5   0  0.2199902E-07  0.3811621E+04  0.7818609E-02  0.8043666E-01
        2   -1    0    0  501    0  0.00000000000E+00  0.00000000000E+00  0.15950141756E+04  0.15950141756E+04  0.25500000920E-02 0. -1.
       -2   -1    0    0    0  501  0.00000000000E+00  0.00000000000E+00 -0.22771665465E+04  0.22771665465E+04  0.25500000920E-02 0.  1.
    10030    2    1    2    0    0  0.00000000000E+00  0.00000000000E+00 -0.68215237093E+03  0.38721807221E+04  0.38116206117E+04 0.  0.
        1    1    3    3  502    0  0.54355674254E+03  0.17920376104E+04  0.18468181673E+02  0.18727503312E+04  0.50400001928E-02 0.  1.
       -1    1    3    3    0  502 -0.54355674254E+03 -0.17920376104E+04 -0.70062055260E+03  0.19994303909E+04  0.50400001928E-02 0. -1.
</event>
<event>
 5   0  0.7514289E-08  0.3597003E+04  0.7818609E-02  0.8091179E-01
        1   -1    0    0  501    0  0.00000000000E+00  0.00000000000E+00  0.20155357556E+04  0.20155357556E+04  0.50400001928E-02 0. -1.
       -1   -1    0    0    0  501  0.00000000000E+00  0.00000000000E+00 -0.16048377715E+04  0.16048377715E+04  0.50400001928E-02 0.  1.
    10030    2    1    2    0    0  0.00000000000E+00  0.00000000000E+00  0.41069798410E+03  0.36203735271E+04  0.35970031473E+04 0.  0.
        4    1    3    3  502    0 -0.27469823200E+03  0.17381711146E+04  0.57912192839E+03  0.18525878557E+04  0.12699999809E+01 0.  1.
       -4    1    3    3    0  502  0.27469823200E+03 -0.17381711146E+04 -0.16842394428E+03  0.17677856714E+04  0.12699999809E+01 0. -1.
</event>
<event>
 5   0  0.7261233E-08  0.3683330E+04  0.7818609E-02  0.8071666E-01
       -1   -1    0    0    0  501  0.00000000000E+00  0.00000000000E+00  0.17625698625E+04  0.17625698625E+04  0.50400001928E-02 0.  1.
        1   -1    0    0  501    0  0.00000000000E+00  0.00000000000E+00 -0.19243092089E+04  0.19243092089E+04  0.50400001928E-02 0. -1.
    10030    2    1    2    0    0  0.00000000000E+00  0.00000000000E+00 -0.16173934639E+03  0.36868790714E+04  0.36833296989E+04 0.  0.
        3    1    3    3  502    0 -0.25171248241E+03  0.28122087929E+03 -0.18851840290E+04  0.19225928301E+04  0.10100000352E+00 0. -1.
       -3    1    3    3    0  502  0.25171248241E+03 -0.28122087929E+03  0.17234446827E+04  0.17642862413E+04  0.10100000352E+00 0.  1.
</event>
<event>
 5   0  0.2309391E-07  0.3590639E+04  0.7818609E-02  0.8092639E-01
        2   -1    0    0  501    0  0.00000000000E+00  0.00000000000E+00  0.12052911014E+04  0.12052911014E+04  0.25500000920E-02 0.  1.
       -2   -1    0    0    0  501  0.00000000000E+00  0.00000000000E+00 -0.26741857408E+04  0.26741857408E+04  0.25500000920E-02 0. -1.
    10030    2    1    2    0    0  0.00000000000E+00  0.00000000000E+00 -0.14688946394E+04  0.38794768422E+04  0.35906390945E+04 0.  0.
        4    1    3    3  502    0 -0.10185952351E+04 -0.13900658826E+04 -0.19061760094E+03  0.17338270080E+04  0.12699999809E+01 0.  1.
       -4    1    3    3    0  502  0.10185952351E+04  0.13900658826E+04 -0.12782770384E+04  0.21456498342E+04  0.12699999809E+01 0. -1.
</event>
<event>
 5   0  0.7514289E-08  0.3563141E+04  0.7818609E-02  0.8098987E-01
        1   -1    0    0  501    0  0.00000000000E+00  0.00000000000E+00  0.34691247517E+04  0.34691247517E+04  0.50400001928E-02 0. -1.
       -1   -1    0    0    0  501  0.00000000000E+00  0.00000000000E+00 -0.91492618251E+03  0.91492618252E+03  0.50400001928E-02 0.  1.
    10030    2    1    2    0    0  0.00000000000E+00  0.00000000000E+00  0.25541985692E+04  0.43840509343E+04  0.35631407863E+04 0.  0.
        4    1    3    3  502    0 -0.30872615109E+03 -0.86321384629E+03 -0.60243551254E+03  0.10969868461E+04  0.12699999809E+01 0.  1.
       -4    1    3    3    0  502  0.30872615109E+03  0.86321384629E+03  0.31566340818E+04  0.32870640882E+04  0.12699999809E+01 0. -1.
</event>
<event>
 5   0  0.7236375E-08  0.3585942E+04  0.7818609E-02  0.8093720E-01
        1   -1    0    0  501    0  0.00000000000E+00  0.00000000000E+00  0.11497911450E+04  0.11497911450E+04  0.50400001928E-02 0. -1.
       -1   -1    0    0    0  501  0.00000000000E+00  0.00000000000E+00 -0.27959378167E+04  0.27959378167E+04  0.50400001928E-02 0.  1.
    10030    2    1    2    0    0  0.00000000000E+00  0.00000000000E+00 -0.16461466717E+04  0.39457289617E+04  0.35859417416E+04 0.  0.
        1    1    3    3  502    0  0.15179651705E+04 -0.66392532220E+02  0.22433608220E+03  0.15358883114E+04  0.50400001928E-02 0. -1.
       -1    1    3    3    0  502 -0.15179651705E+04  0.66392532220E+02 -0.18704827539E+04  0.24098406503E+04  0.50400001928E-02 0.  1.
</event>
<event>
 5   0  0.7236375E-08  0.3654023E+04  0.7818609E-02  0.8078228E-01
       -1   -1    0    0    0  501  0.00000000000E+00  0.00000000000E+00  0.16022565641E+04  0.16022565641E+04  0.50400001928E-02 0. -1.
        1   -1    0    0  501    0  0.00000000000E+00  0.00000000000E+00 -0.20832934253E+04  0.20832934253E+04  0.50400001928E-02 0.  1.
    10030    2    1    2    0    0  0.00000000000E+00  0.00000000000E+00 -0.48103686116E+03  0.36855499894E+04  0.36540227507E+04 0.  0.
        5    1    3    3  502    0 -0.13552077659E+04  0.26617563308E+03 -0.14468776504E+04  0.20002286323E+04  0.46999998093E+01 0.  1.
       -5    1    3    3    0  502  0.13552077659E+04 -0.26617563308E+03  0.96584078921E+03  0.16853213571E+04  0.46999998093E+01 0. -1.
</event>
<event>
 5   0  0.2309391E-07  0.3575904E+04  0.7818609E-02  0.8096034E-01
        2   -1    0    0  501    0  0.00000000000E+00  0.00000000000E+00  0.24425657978E+04  0.24425657978E+04  0.25500000920E-02 0.  1.
       -2   -1    0    0    0  501  0.00000000000E+00  0.00000000000E+00 -0.13087763484E+04  0.13087763484E+04  0.25500000920E-02 0. -1.
    10030    2    1    2    0    0  0.00000000000E+00  0.00000000000E+00  0.11337894494E+04  0.37513421462E+04  0.35759039951E+04 0.  0.
        4    1    3    3  502    0 -0.17433330238E+04 -0.64363869302E+02  0.97779740529E+03  0.19998605247E+04  0.12699999809E+01 0. -1.
       -4    1    3    3    0  502  0.17433330238E+04  0.64363869302E+02  0.15599204413E+03  0.17514816215E+04  0.12699999809E+01 0.  1.
</event>
<event>
 5   0  0.2198900E-07  0.3596561E+04  0.7818609E-02  0.8091280E-01
       -2   -1    0    0    0  501  0.00000000000E+00  0.00000000000E+00  0.17323519289E+04  0.17323519289E+04  0.25500000920E-02 0.  1.
        2   -1    0    0  501    0  0.00000000000E+00  0.00000000000E+00 -0.18667178409E+04  0.18667178409E+04  0.25500000920E-02 0. -1.
    10030    2    1    2    0    0  0.00000000000E+00  0.00000000000E+00 -0.13436591193E+03  0.35990697698E+04  0.35965607196E+04 0.  0.
        2    1    3    3  502    0 -0.99779780013E+02 -0.13583434361E+04 -0.12422079523E+04  0.18434026939E+04  0.25500000920E-02 0. -1.
       -2    1    3    3    0  502  0.99779780013E+02  0.13583434361E+04  0.11078420404E+04  0.17556670759E+04  0.25500000920E-02 0.  1.
</event>
<event>
 5   0  0.7236375E-08  0.3596207E+04  0.7818609E-02  0.8091361E-01
       -1   -1    0    0    0  501  0.00000000000E+00  0.00000000000E+00  0.19615428929E+04  0.19615428929E+04  0.50400001928E-02 0.  1.
        1   -1    0    0  501    0  0.00000000000E+00  0.00000000000E+00 -0.16482825847E+04  0.16482825847E+04  0.50400001928E-02 0. -1.
    10030    2    1    2    0    0  0.00000000000E+00  0.00000000000E+00  0.31326030820E+03  0.36098254777E+04  0.35962074410E+04 0.  0.
        5    1    3    3  502    0 -0.46377775415E+03 -0.80256509075E+03  0.17032289011E+04  0.19391264295E+04  0.46999998093E+01 0.  1.
       -5    1    3    3    0  502  0.46377775415E+03  0.80256509075E+03 -0.13899685929E+04  0.16706990481E+04  0.46999998093E+01 0. -1.
</event>
<event>
 5   0  0.7236375E-08  0.3625762E+04  0.7818609E-02  0.8084616E-01
       -1   -1    0    0    0  501  0.00000000000E+00  0.00000000000E+00  0.14125314522E+04  0.14125314523E+04  0.50400001928E-02 0.  1.
        1   -1    0    0  501    0  0.00000000000E+00  0.00000000000E+00 -0.23267003989E+04  0.23267003990E+04  0.50400001928E-02 0. -1.
    10030    2    1    2    0    0  0.00000000000E+00  0.00000000000E+00 -0.91416894670E+03  0.37392318512E+04  0.36257619853E+04 0.  0.
        1    1    3    3  502    0  0.14494541208E+04  0.95341891552E+03 -0.99948374255E+03  0.20022219229E+04  0.50400001928E-02 0. -1.
       -1    1    3    3    0  502 -0.14494541208E+04 -0.95341891552E+03  0.85314795852E+02  0.17370099283E+04  0.50400001928E-02 0.  1.
</event>
<event>
 5   0  0.2238968E-07  0.3595393E+04  0.7818609E-02  0.8091548E-01
        2   -1    0    0  501    0  0.00000000000E+00  0.00000000000E+00  0.33778838135E+04  0.33778838135E+04  0.25500000920E-02 0.  1.
       -2   -1    0    0    0  501  0.00000000000E+00  0.00000000000E+00 -0.95672675951E+03  0.95672675952E+03  0.25500000920E-02 0. -1.
    10030    2    1    2    0    0  0.00000000000E+00  0.00000000000E+00  0.24211570540E+04  0.43346105730E+04  0.35953925154E+04 0.  0.
        3    1    3    3  502    0  0.11428715985E+04  0.48692270336E+03 -0.35599037314E+03  0.12922764277E+04  0.10100000352E+00 0. -1.
       -3    1    3    3    0  502 -0.11428715985E+04 -0.48692270336E+03  0.27771474272E+04  0.30423341454E+04  0.10100000352E+00 0.  1.
</event>
<event>
 5   0  0.2309391E-07  0.3648190E+04  0.7818609E-02  0.8079541E-01
       -2   -1    0    0    0  501  0.00000000000E+00  0.00000000000E+00  0.13704363011E+04  0.13704363011E+04  0.25500000920E-02 0. -1.
        2   -1    0    0  501    0  0.00000000000E+00  0.00000000000E+00 -0.24279295646E+04  0.24279295646E+04  0.25500000920E-02 0.  1.
    10030    2    1    2    0    0  0.00000000000E+00  0.00000000000E+00 -0.10574932635E+04  0.37983658657E+04  0.36481901331E+04 0.  0.
        4    1    3    3  502    0  0.13187816868E+04  0.11570053141E+04 -0.10487817117E+04  0.20439645609E+04  0.12699999809E+01 0.  1.
       -4    1    3    3    0  502 -0.13187816868E+04 -0.11570053141E+04 -0.87115518043E+01  0.17544013048E+04  0.12699999809E+01 0. -1.
</event>
<event>
 5   0  0.2309391E-07  0.3581008E+04  0.7818609E-02  0.8094856E-01
        2   -1    0    0  501    0  0.00000000000E+00  0.00000000000E+00  0.23367848623E+04  0.23367848623E+04  0.25500000920E-02 0.  1.
       -2   -1    0    0    0  501  0.00000000000E+00  0.00000000000E+00 -0.13719297919E+04  0.13719297919E+04  0.25500000920E-02 0. -1.
    10030    2    1    2    0    0  0.00000000000E+00  0.00000000000E+00  0.96485507042E+03  0.37087146542E+04  0.35810081093E+04 0.  0.
        4    1    3    3  502    0  0.56396909689E+03 -0.16233734983E+04  0.10028418535E+04  0.19897477360E+04  0.12699999809E+01 0.  1.
       -4    1    3    3    0  502 -0.56396909689E+03  0.16233734983E+04 -0.37986783054E+02  0.17189669181E+04  0.12699999809E+01 0. -1.
</event>
<event>
 5   0  0.7261233E-08  0.3598713E+04  0.7818609E-02  0.8090787E-01
        1   -1    0    0  501    0  0.00000000000E+00  0.00000000000E+00  0.24463926854E+04  0.24463926854E+04  0.50400001928E-02 0. -1.
       -1   -1    0    0    0  501  0.00000000000E+00  0.00000000000E+00 -0.13234522567E+04  0.13234522567E+04  0.50400001928E-02 0.  1.
    10030    2    1    2    0    0  0.00000000000E+00  0.00000000000E+00  0.11229404287E+04  0.37698449421E+04  0.35987130590E+04 0.  0.
        3    1    3    3  502    0  0.54426102474E+03 -0.16013204405E+04 -0.81933009429E+02  0.16932690999E+04  0.10100000352E+00 0. -1.
       -3    1    3    3    0  502 -0.54426102474E+03  0.16013204405E+04  0.12048734381E+04  0.20765758422E+04  0.10100000352E+00 0.  1.
</event>
<event>
 5   0  0.7261233E-08  0.3595154E+04  0.7818609E-02  0.8091603E-01
        1   -1    0    0  501    0  0.00000000000E+00  0.00000000000E+00  0.30497579720E+04  0.30497579720E+04  0.50400001928E-02 0.  1.
       -1   -1    0    0    0  501  0.00000000000E+00  0.00000000000E+00 -0.10595211771E+04  0.10595211771E+04  0.50400001928E-02 0. -1.
    10030    2    1    2    0    0  0.00000000000E+00  0.00000000000E+00  0.19902367949E+04  0.41092791491E+04  0.35951540476E+04 0.  0.
        3    1    3    3  502    0 -0.42344019646E+03  0.10615313179E+04 -0.59079142161E+03  0.12865398761E+04  0.10100000352E+00 0. -1.
       -3    1    3    3    0  502  0.42344019646E+03 -0.10615313179E+04  0.25810282165E+04  0.28227392730E+04  0.10100000352E+00 0.  1.
</event>
<event>
 5   0  0.7261233E-08  0.3603686E+04  0.7818609E-02  0.8089648E-01
       -1   -1    0    0    0  501  0.00000000000E+00  0.00000000000E+00  0.18850363006E+04  0.18850363006E+04  0.50400001928E-02 0. -1.
        1   -1    0    0  501    0  0.00000000000E+00  0.00000000000E+00 -0.17223211792E+04  0.17223211792E+04  0.50400001928E-02 0.  1.
    10030    2    1    2    0    0  0.00000000000E+00  0.00000000000E+00  0.16271512145E+03  0.36073574798E+04  0.36036858598E+04 0.  0.
        3    1    3    3  502    0 -0.27638782467E+03  0.83180940481E+03  0.16572362085E+04  0.18747610451E+04  0.10100000352E+00 0. -1.
       -3    1    3    3    0  502  0.27638782467E+03 -0.83180940481E+03 -0.14945210870E+04  0.17325964346E+04  0.10100000352E+00 0.  1.
</event>
<event>
 5   0  0.7347303E-08  0.3595766E+04  0.7818609E-02  0.8091462E-01
        1   -1    0    0  501    0  0.00000000000E+00  0.00000000000E+00  0.24910409002E+04  0.24910409003E+04  0.50400001928E-02 0.  1.
       -1   -1    0    0    0  501  0.00000000000E+00  0.00000000000E+00 -0.12976035168E+04  0.12976035168E+04  0.50400001928E-02 0. -1.
    10030    2    1    2    0    0  0.00000000000E+00  0.00000000000E+00  0.11934373835E+04  0.37886444170E+04  0.35957660839E+04 0.  0.
        2    1    3    3  502    0  0.59082313862E+03  0.39117382461E+03 -0.11442748541E+04  0.13459026280E+04  0.25500000920E-02 0. -1.
       -2    1    3    3    0  502 -0.59082313862E+03 -0.39117382461E+03  0.23377122376E+04  0.24427417891E+04  0.25500000920E-02 0.  1.
</event>
<event>
 5   0  0.2238968E-07  0.3646381E+04  0.7818609E-02  0.8079949E-01
       -2   -1    0    0    0  501  0.00000000000E+00  0.00000000000E+00  0.97209949667E+03  0.97209949667E+03  0.25500000920E-02 0. -1.
        2   -1    0    0  501    0  0.00000000000E+00  0.00000000000E+00 -0.34194276875E+04  0.34194276875E+04  0.25500000920E-02 0.  1.
    10030    2    1    2    0    0  0.00000000000E+00  0.00000000000E+00 -0.24473281908E+04  0.43915271842E+04  0.36463811835E+04 0.  0.
        3    1    3    3  502    0  0.46317485285E+03  0.12488627430E+04  0.27566240398E+03  0.13602128018E+04  0.10100000352E+00 0. -1.
       -3    1    3    3    0  502 -0.46317485285E+03 -0.12488627430E+04 -0.27229905948E+04  0.30313143824E+04  0.10100000352E+00 0.  1.
</event>
<event>
 5   0  0.2238968E-07  0.3586417E+04  0.7818609E-02  0.8093610E-01
        2   -1    0    0  501    0  0.00000000000E+00  0.00000000000E+00  0.11082631770E+04  0.11082631770E+04  0.25500000920E-02 0. -1.
       -2   -1    0    0    0  501  0.00000000000E+00  0.00000000000E+00 -0.29014735776E+04  0.29014735776E+04  0.25500000920E-02 0.  1.
    10030    2    1    2    0    0  0.00000000000E+00  0.00000000000E+00 -0.17932104006E+04  0.40097367546E+04  0.35864167773E+04 0.  0.
        3    1    3    3  502    0  0.82702779915E+03  0.10100088345E+04 -0.22711524744E+04  0.26195851577E+04  0.10100000352E+00 0.  1.
       -3    1    3    3    0  502 -0.82702779915E+03 -0.10100088345E+04  0.47794207387E+03  0.13901515969E+04  0.10100000352E+00 0. -1.
</event>
<event>
 5   0  0.7261233E-08  0.3590450E+04  0.7818609E-02  0.8092683E-01
        1   -1    0    0  501    0  0.00000000000E+00  0.00000000000E+00  0.26751149142E+04  0.26751149143E+04  0.50400001928E-02 0. -1.
       -1   -1    0    0    0  501  0.00000000000E+00  0.00000000000E+00 -0.12047453743E+04  0.12047453743E+04  0.50400001928E-02 0.  1.
    10030    2    1    2    0    0  0.00000000000E+00  0.00000000000E+00  0.14703695400E+04  0.38798602885E+04  0.35904497315E+04 0.  0.
        3    1    3    3  502    0  0.71546286637E+03  0.33522675223E+03 -0.10067596658E+04  0.12797769819E+04  0.10100000352E+00 0.  1.
       -3    1    3    3    0  502 -0.71546286637E+03 -0.33522675223E+03  0.24771292058E+04  0.26000833066E+04  0.10100000352E+00 0. -1.
</event>
<event>
 5   0  0.2198900E-07  0.3583535E+04  0.7818609E-02  0.8094274E-01
        2   -1    0    0  501    0  0.00000000000E+00  0.00000000000E+00  0.20472234668E+04  0.20472234668E+04  0.25500000920E-02 0. -1.
       -2   -1    0    0    0  501  0.00000000000E+00  0.00000000000E+00 -0.15681878664E+04  0.15681878664E+04  0.25500000920E-02 0.  1.
    10030    2    1    2    0    0  0.00000000000E+00  0.00000000000E+00  0.47903560040E+03  0.36154113332E+04  0.35835351263E+04 0.  0.
        2    1    3    3  502    0  0.10685780758E+04 -0.47837752326E+03  0.16079482255E+04  0.19890202751E+04  0.25500000920E-02 0. -1.
       -2    1    3    3    0  502 -0.10685780758E+04  0.47837752326E+03 -0.11289126251E+04  0.16263910581E+04  0.25500000920E-02 0.  1.
</event>
<event>
 5   0  0.2199902E-07  0.3600708E+04  0.7818609E-02  0.8090330E-01
       -2   -1    0    0    0  501  0.00000000000E+00  0.00000000000E+00  0.22587283140E+04  0.22587283140E+04  0.25500000920E-02 0.  1.
        2   -1    0    0  501    0  0.00000000000E+00  0.00000000000E+00 -0.14349997053E+04  0.14349997053E+04  0.25500000920E-02 0. -1.
    10030    2    1    2    0    0  0.00000000000E+00  0.00000000000E+00  0.82372860867E+03  0.36937280193E+04  0.36007079664E+04 0.  0.
        1    1    3    3  502    0 -0.85505029632E+03 -0.18915456727E+03  0.20255188439E+04  0.22067208810E+04  0.50400001928E-02 0.  1.
       -1    1    3    3    0  502  0.85505029632E+03  0.18915456727E+03 -0.12017902353E+04  0.14870071382E+04  0.50400001928E-02 0. -1.
</event>
<event>
 5   0  0.2309391E-07  0.3599363E+04  0.7818609E-02  0.8090638E-01
        2   -1    0    0  501    0  0.00000000000E+00  0.00000000000E+00  0.25316530500E+04  0.25316530500E+04  0.25500000920E-02 0. -1.
       -2   -1    0    0    0  501  0.00000000000E+00  0.00000000000E+00 -0.12793436253E+04  0.12793436253E+04  0.25500000920E-02 0.  1.
    10030    2    1    2    0    0  0.00000000000E+00  0.00000000000E+00  0.12523094247E+04  0.38109966753E+04  0.35993633831E+04 0.  0.
        4    1    3    3  502    0 -0.11800226384E+04  0.10168627075E+04  0.15804768442E+04  0.22190925760E+04  0.12699999809E+01 0. -1.
       -4    1    3    3    0  502  0.11800226384E+04 -0.10168627075E+04 -0.32816741954E+03  0.15919040992E+04  0.12699999809E+01 0.  1.
</event>
<event>
 5   0  0.7236375E-08  0.3569129E+04  0.7818609E-02  0.8097600E-01
        1   -1    0    0  501    0  0.00000000000E+00  0.00000000000E+00  0.29670990842E+04  0.29670990842E+04  0.50400001928E-02 0.  1.
       -1   -1    0    0    0  501  0.00000000000E+00  0.00000000000E+00 -0.10733277160E+04  0.10733277160E+04  0.50400001928E-02 0. -1.
    10030    2    1    2    0    0  0.00000000000E+00  0.00000000000E+00  0.18937713682E+04  0.40404268002E+04  0.35691285677E+04 0.  0.
        5    1    3    3  502    0 -0.51533416780E+03 -0.10507696070E+04 -0.57821586341E+03  0.13053894998E+04  0.46999998093E+01 0. -1.
       -5    1    3    3    0  502  0.51533416780E+03  0.10507696070E+04  0.24719872316E+04  0.27350373004E+04  0.46999998093E+01 0.  1.
</event>
<event>
 5   0  0.2199902E-07  0.3601920E+04  0.7818609E-02  0.8090052E-01
       -2   -1    0    0    0  501  0.00000000000E+00  0.00000000000E+00  0.12621090590E+04  0.12621090590E+04  0.25500000920E-02 0. -1.
        2   -1    0    0  501    0  0.00000000000E+00  0.00000000000E+00 -0.25698708738E+04  0.25698708738E+04  0.25500000920E-02 0.  1.
    10030    2    1    2    0    0  0.00000000000E+00  0.00000000000E+00 -0.13077618148E+04  0.38319799327E+04  0.36019202157E+04 0.  0.
        1    1    3    3  502    0 -0.11579879320E+04 -0.65288333630E+03  0.63874019454E+03  0.14748497339E+04  0.50400001928E-02 0. -1.
       -1    1    3    3    0  502  0.11579879320E+04  0.65288333630E+03 -0.19465020094E+04  0.23571301988E+04  0.50400001928E-02 0.  1.
</event>
<event>
 5   0  0.2238968E-07  0.3597089E+04  0.7818609E-02  0.8091159E-01
        2   -1    0    0  501    0  0.00000000000E+00  0.00000000000E+00  0.16551106959E+04  0.16551106959E+04  0.25500000920E-02 0. -1.
       -2   -1    0    0    0  501  0.00000000000E+00  0.00000000000E+00 -0.19544084122E+04  0.19544084122E+04  0.25500000920E-02 0.  1.
    10030    2    1    2    0    0  0.00000000000E+00  0.00000000000E+00 -0.29929771628E+03  0.36095191081E+04  0.35970889714E+04 0.  0.
        3    1    3    3  502    0 -0.40574272417E+03 -0.16753789618E+04  0.36519372853E+03  0.17620693214E+04  0.10100000352E+00 0. -1.
       -3    1    3    3    0  502  0.40574272417E+03  0.16753789618E+04 -0.66449144482E+03  0.18474497867E+04  0.10100000352E+00 0.  1.
</event>
<event>
 5   0  0.7514289E-08  0.3611863E+04  0.7818609E-02  0.8087780E-01
       -1   -1    0    0    0  501  0.00000000000E+00  0.00000000000E+00  0.12097513780E+04  0.12097513780E+04  0.50400001928E-02 0. -1.
        1   -1    0    0  501    0  0.00000000000E+00  0.00000000000E+00 -0.26959167776E+04  0.26959167776E+04  0.50400001928E-02 0.  1.
    10030    2    1    2    0    0  0.00000000000E+00  0.00000000000E+00 -0.14861653996E+04  0.39056681556E+04  0.36118632514E+04 0.  0.
        4    1    3    3  502    0  0.89050380094E+03  0.91408422118E+02  0.95295177669E+03  0.13074674836E+04  0.12699999809E+01 0. -1.
       -4    1    3    3    0  502 -0.89050380094E+03 -0.91408422118E+02 -0.24391171763E+04  0.25982006720E+04  0.12699999809E+01 0.  1.
</event>
<event>
 5   0  0.2342606E-07  0.3601177E+04  0.7818609E-02  0.8090222E-01
       -2   -1    0    0    0  501  0.00000000000E+00  0.00000000000E+00  0.24317914091E+04  0.24317914091E+04  0.25500000920E-02 0. -1.
        2   -1    0    0  501    0  0.00000000000E+00  0.00000000000E+00 -0.13332223363E+04  0.13332223363E+04  0.25500000920E-02 0.  1.
    10030    2    1    2    0    0  0.00000000000E+00  0.00000000000E+00  0.10985690728E+04  0.37650137454E+04  0.36011768209E+04 0.  0.
        5    1    3    3  502    0  0.10441688545E+04  0.51044205427E+03 -0.88851181276E+03  0.14629815511E+04  0.46999998093E+01 0.  1.
       -5    1    3    3    0  502 -0.10441688545E+04 -0.51044205427E+03  0.19870808856E+04  0.23020321942E+04  0.46999998093E+01 0. -1.
</event>
<event>
 5   0  0.2198900E-07  0.3562372E+04  0.7818609E-02  0.8099166E-01
        2   -1    0    0  501    0  0.00000000000E+00  0.00000000000E+00  0.11450241625E+04  0.11450241625E+04  0.25500000920E-02 0. -1.
       -2   -1    0    0    0  501  0.00000000000E+00  0.00000000000E+00 -0.27707915987E+04  0.27707915987E+04  0.25500000920E-02 0.  1.
    10030    2    1    2    0    0  0.00000000000E+00  0.00000000000E+00 -0.16257674362E+04  0.39158157612E+04  0.35623718670E+04 0.  0.
        2    1    3    3  502    0 -0.13038255880E+04  0.98217244096E+03 -0.15963397414E+04  0.22831829620E+04  0.25500000920E-02 0.  1.
       -2    1    3    3    0  502  0.13038255880E+04 -0.98217244096E+03 -0.29427694800E+02  0.16326327992E+04  0.25500000920E-02 0. -1.
</event>
<event>
 5   0  0.2198900E-07  0.3600048E+04  0.7818609E-02  0.8090481E-01
       -2   -1    0    0    0  501  0.00000000000E+00  0.00000000000E+00  0.11631527262E+04  0.11631527262E+04  0.25500000920E-02 0. -1.
        2   -1    0    0  501    0  0.00000000000E+00  0.00000000000E+00 -0.27856067999E+04  0.27856067999E+04  0.25500000920E-02 0.  1.
    10030    2    1    2    0    0  0.00000000000E+00  0.00000000000E+00 -0.16224540737E+04  0.39487595261E+04  0.36000478572E+04 0.  0.
        2    1    3    3  502    0  0.11067671719E+04 -0.12867139164E+04 -0.15354821015E+03  0.17041547254E+04  0.25500000920E-02 0. -1.
       -2    1    3    3    0  502 -0.11067671719E+04  0.12867139164E+04 -0.14689058636E+04  0.22446048007E+04  0.25500000920E-02 0.  1.
</event>
<event>
 5   0  0.7261233E-08  0.3591090E+04  0.7818609E-02  0.8092536E-01
       -1   -1    0    0    0  501  0.00000000000E+00  0.00000000000E+00  0.18137506070E+04  0.18137506070E+04  0.50400001928E-02 0. -1.
        1   -1    0    0  501    0  0.00000000000E+00  0.00000000000E+00 -0.17775221453E+04  0.17775221453E+04  0.50400001928E-02 0.  1.
    10030    2    1    2    0    0  0.00000000000E+00  0.00000000000E+00  0.36228461751E+02  0.35912727523E+04  0.35910900128E+04 0.  0.
        3    1    3    3  502    0  0.32204432758E+03  0.14908457474E+03  0.17783296746E+04  0.18133932836E+04  0.10100000352E+00 0. -1.
       -3    1    3    3    0  502 -0.32204432758E+03 -0.14908457474E+03 -0.17421012128E+04  0.17778794687E+04  0.10100000352E+00 0.  1.
</event>
<event>
 5   0  0.7347303E-08  0.3651942E+04  0.7818609E-02  0.8078696E-01
        1   -1    0    0  501    0  0.00000000000E+00  0.00000000000E+00  0.28933307559E+04  0.28933307559E+04  0.50400001928E-02 0. -1.
       -1   -1    0    0    0  501  0.00000000000E+00  0.00000000000E+00 -0.11523642384E+04  0.11523642384E+04  0.50400001928E-02 0.  1.
    10030    2    1    2    0    0  0.00000000000E+00  0.00000000000E+00  0.17409665175E+04  0.40456949943E+04  0.36519424382E+04 0.  0.
        2    1    3    3  502    0  0.12178715055E+04  0.12463883250E+04  0.14747034092E+04  0.22828589544E+04  0.25500000920E-02 0. -1.
       -2    1    3    3    0  502 -0.12178715055E+04 -0.12463883250E+04  0.26626310834E+03  0.17628360399E+04  0.25500000920E-02 0.  1.
</event>
<event>
 5   0  0.2199902E-07  0.3598826E+04  0.7818609E-02  0.8090761E-01
       -2   -1    0    0    0  501  0.00000000000E+00  0.00000000000E+00  0.12602966248E+04  0.12602966248E+04  0.25500000920E-02 0. -1.
        2   -1    0    0  501    0  0.00000000000E+00  0.00000000000E+00 -0.25691470717E+04  0.25691470717E+04  0.25500000920E-02 0.  1.
    10030    2    1    2    0    0  0.00000000000E+00  0.00000000000E+00 -0.13088504469E+04  0.38294436965E+04  0.35988261325E+04 0.  0.
        1    1    3    3  502    0 -0.89350797667E+03 -0.11381729081E+04 -0.17925910615E+04  0.23037310579E+04  0.50400001928E-02 0.  1.
       -1    1    3    3    0  502  0.89350797667E+03  0.11381729081E+04  0.48374061461E+03  0.15257126386E+04  0.50400001928E-02 0. -1.
</event>
<event>
 5   0  0.7347303E-08  0.3470606E+04  0.7818609E-02  0.8120792E-01
        1   -1    0    0  501    0  0.00000000000E+00  0.00000000000E+00  0.22382957010E+04  0.22382957010E+04  0.50400001928E-02 0. -1.
       -1   -1    0    0    0  501  0.00000000000E+00  0.00000000000E+00 -0.13453433272E+04  0.13453433272E+04  0.50400001928E-02 0.  1.
    10030    2    1    2    0    0  0.00000000000E+00  0.00000000000E+00  0.89295237375E+03  0.35836390282E+04  0.34706058178E+04 0.  0.
        2    1    3    3  502    0  0.88503604446E+03  0.14879541153E+04  0.32438858476E+03  0.17613983659E+04  0.25500000920E-02 0. -1.
       -2    1    3    3    0  502 -0.88503604446E+03 -0.14879541153E+04  0.56856378899E+03  0.18222406623E+04  0.25500000920E-02 0.  1.
</event>
<event>
 5   0  0.7236375E-08  0.3436635E+04  0.7818609E-02  0.8128973E-01
       -1   -1    0    0    0  501  0.00000000000E+00  0.00000000000E+00  0.12014613575E+04  0.12014613575E+04  0.50400001928E-02 0. -1.
        1   -1    0    0  501    0  0.00000000000E+00  0.00000000000E+00 -0.24575203027E+04  0.24575203027E+04  0.50400001928E-02 0.  1.
    10030    2    1    2    0    0  0.00000000000E+00  0.00000000000E+00 -0.12560589453E+04  0.36589816602E+04  0.34366353772E+04 0.  0.
        5    1    3    3  502    0 -0.17060873392E+03 -0.11157880266E+04  0.75136308875E+03  0.13559715489E+04  0.46999998093E+01 0. -1.
       -5    1    3    3    0  502  0.17060873392E+03  0.11157880266E+04 -0.20074220340E+04  0.23030101113E+04  0.46999998093E+01 0.  1.
</event>
<event>
 5   0  0.2342606E-07  0.3611478E+04  0.7818609E-02  0.8087868E-01
       -2   -1    0    0    0  501  0.00000000000E+00  0.00000000000E+00  0.14529362389E+04  0.14529362389E+04  0.25500000920E-02 0. -1.
        2   -1    0    0  501    0  0.00000000000E+00  0.00000000000E+00 -0.22442090841E+04  0.22442090841E+04  0.25500000920E-02 0.  1.
    10030    2    1    2    0    0  0.00000000000E+00  0.00000000000E+00 -0.79127284515E+03  0.36971453230E+04  0.36114776510E+04 0.  0.
        5    1    3    3  502    0 -0.89206446847E+03  0.15694907891E+04 -0.35481237673E+03  0.18398353909E+04  0.46999998093E+01 0.  1.
       -5    1    3    3    0  502  0.89206446847E+03 -0.15694907891E+04 -0.43646046842E+03  0.18573099320E+04  0.46999998093E+01 0. -1.
</event>
<event>
 5   0  0.7347303E-08  0.3571683E+04  0.7818609E-02  0.8097009E-01
        1   -1    0    0  501    0  0.00000000000E+00  0.00000000000E+00  0.17969913787E+04  0.17969913787E+04  0.50400001928E-02 0.  1.
       -1   -1    0    0    0  501  0.00000000000E+00  0.00000000000E+00 -0.17747613002E+04  0.17747613002E+04  0.50400001928E-02 0. -1.
    10030    2    1    2    0    0  0.00000000000E+00  0.00000000000E+00  0.22230078443E+02  0.35717526789E+04  0.35716834999E+04 0.  0.
        2    1    3    3  502    0  0.10226009174E+04 -0.13413175634E+04 -0.57573984424E+03  0.17822238385E+04  0.25500000920E-02 0. -1.
       -2    1    3    3    0  502 -0.10226009174E+04  0.13413175634E+04  0.59796992268E+03  0.17895288404E+04  0.25500000920E-02 0.  1.
</event>
<event>
 5   0  0.7261233E-08  0.3612395E+04  0.7818609E-02  0.8087658E-01
        1   -1    0    0  501    0  0.00000000000E+00  0.00000000000E+00  0.11598833940E+04  0.11598833940E+04  0.50400001928E-02 0.  1.
       -1   -1    0    0    0  501  0.00000000000E+00  0.00000000000E+00 -0.28126536721E+04  0.28126536721E+04  0.50400001928E-02 0. -1.
    10030    2    1    2    0    0  0.00000000000E+00  0.00000000000E+00 -0.16527702781E+04  0.39725370661E+04  0.36123954862E+04 0.  0.
        3    1    3    3  502    0  0.87385864877E+03  0.15327326943E+04 -0.12515166351E+04  0.21631440887E+04  0.10100000352E+00 0.  1.
       -3    1    3    3    0  502 -0.87385864877E+03 -0.15327326943E+04 -0.40125364301E+03  0.18093929774E+04  0.10100000352E+00 0. -1.
</event>
<event>
 5   0  0.7236375E-08  0.3784551E+04  0.7818609E-02  0.8049478E-01
        1   -1    0    0  501    0  0.00000000000E+00  0.00000000000E+00  0.14559412823E+04  0.14559412824E+04  0.50400001928E-02 0.  1.
       -1   -1    0    0    0  501  0.00000000000E+00  0.00000000000E+00 -0.24593763115E+04  0.24593763115E+04  0.50400001928E-02 0. -1.
    10030    2    1    2    0    0  0.00000000000E+00  0.00000000000E+00 -0.10034350292E+04  0.39153175939E+04  0.37845514930E+04 0.  0.
        5    1    3    3  502    0  0.13523560411E+04 -0.41005055994E+03 -0.18036422969E+04  0.22913218781E+04  0.46999998093E+01 0.  1.
       -5    1    3    3    0  502 -0.13523560411E+04  0.41005055994E+03  0.80020726771E+03  0.16239957158E+04  0.46999998093E+01 0. -1.
</event>
<event>
 5   0  0.2198900E-07  0.3734725E+04  0.7818609E-02  0.8060310E-01
        2   -1    0    0  501    0  0.00000000000E+00  0.00000000000E+00  0.11669697819E+04  0.11669697819E+04  0.25500000920E-02 0.  1.
       -2   -1    0    0    0  501  0.00000000000E+00  0.00000000000E+00 -0.29881175786E+04  0.29881175786E+04  0.25500000920E-02 0. -1.
    10030    2    1    2    0    0  0.00000000000E+00  0.00000000000E+00 -0.18211477966E+04  0.41550873605E+04  0.37347251139E+04 0.  0.
        2    1    3    3  502    0 -0.39453885164E+03 -0.18247460435E+04 -0.95622785630E+03  0.20975535134E+04  0.25500000920E-02 0.  1.
       -2    1    3    3    0  502  0.39453885164E+03  0.18247460435E+04 -0.86491994035E+03  0.20575338471E+04  0.25500000920E-02 0. -1.
</event>
<event>
 5   0  0.2199902E-07  0.3593768E+04  0.7818609E-02  0.8091921E-01
       -2   -1    0    0    0  501  0.00000000000E+00  0.00000000000E+00  0.13533872529E+04  0.13533872529E+04  0.25500000920E-02 0.  1.
        2   -1    0    0  501    0  0.00000000000E+00  0.00000000000E+00 -0.23857118972E+04  0.23857118972E+04  0.25500000920E-02 0. -1.
    10030    2    1    2    0    0  0.00000000000E+00  0.00000000000E+00 -0.10323246444E+04  0.37390991501E+04  0.35937679784E+04 0.  0.
        1    1    3    3  502    0 -0.75887913768E+03  0.13030362967E+04 -0.15329179183E+04  0.21502647465E+04  0.50400001928E-02 0. -1.
       -1    1    3    3    0  502  0.75887913768E+03 -0.13030362967E+04  0.50059327390E+03  0.15888344036E+04  0.50400001928E-02 0.  1.
</event>
<event>
 5   0  0.7261233E-08  0.3588919E+04  0.7818609E-02  0.8093035E-01
        1   -1    0    0  501    0  0.00000000000E+00  0.00000000000E+00  0.22305228758E+04  0.22305228758E+04  0.50400001928E-02 0. -1.
       -1   -1    0    0    0  501  0.00000000000E+00  0.00000000000E+00 -0.14436460868E+04  0.14436460869E+04  0.50400001928E-02 0.  1.
    10030    2    1    2    0    0  0.00000000000E+00  0.00000000000E+00  0.78687678893E+03  0.36741689626E+04  0.35889194035E+04 0.  0.
        3    1    3    3  502    0 -0.49842523693E+03  0.52290331114E+03 -0.12882088645E+04  0.14769352316E+04  0.10100000352E+00 0.  1.
       -3    1    3    3    0  502  0.49842523693E+03 -0.52290331114E+03  0.20750856534E+04  0.21972337310E+04  0.10100000352E+00 0. -1.
</event>
<event>
 5   0  0.2199902E-07  0.3570008E+04  0.7818609E-02  0.8097397E-01
       -2   -1    0    0    0  501  0.00000000000E+00  0.00000000000E+00  0.19392848372E+04  0.19392848372E+04  0.25500000920E-02 0.  1.
        2   -1    0    0  501    0  0.00000000000E+00  0.00000000000E+00 -0.16429967243E+04  0.16429967243E+04  0.25500000920E-02 0. -1.
    10030    2    1    2    0    0  0.00000000000E+00  0.00000000000E+00  0.29628811293E+03  0.35822815615E+04  0.35700076386E+04 0.  0.
        1    1    3    3  502    0  0.13602815185E+04  0.76786001975E+02 -0.10090670531E+04  0.16954286235E+04  0.50400001928E-02 0. -1.
       -1    1    3    3    0  502 -0.13602815185E+04 -0.76786001975E+02  0.13053551660E+04  0.18868529379E+04  0.50400001928E-02 0.  1.
</event>
<event>
 5   0  0.2199902E-07  0.3583853E+04  0.7818609E-02  0.8094200E-01
       -2   -1    0    0    0  501  0.00000000000E+00  0.00000000000E+00  0.12010926234E+04  0.12010926234E+04  0.25500000920E-02 0. -1.
        2   -1    0    0  501    0  0.00000000000E+00  0.00000000000E+00 -0.26734000601E+04  0.26734000601E+04  0.25500000920E-02 0.  1.
    10030    2    1    2    0    0  0.00000000000E+00  0.00000000000E+00 -0.14723074367E+04  0.38744926835E+04  0.35838532847E+04 0.  0.
        1    1    3    3  502    0 -0.16072292553E+04  0.67678752009E+02  0.11732062502E+03  0.16129260435E+04  0.50400001928E-02 0. -1.
       -1    1    3    3    0  502  0.16072292553E+04 -0.67678752009E+02 -0.15896280618E+04  0.22615666400E+04  0.50400001928E-02 0.  1.
</event>
<event>
 5   0  0.2342606E-07  0.3603809E+04  0.7818609E-02  0.8089620E-01
       -2   -1    0    0    0  501  0.00000000000E+00  0.00000000000E+00  0.32239155814E+04  0.32239155814E+04  0.25500000920E-02 0. -1.
        2   -1    0    0  501    0  0.00000000000E+00  0.00000000000E+00 -0.10071171010E+04  0.10071171010E+04  0.25500000920E-02 0.  1.
    10030    2    1    2    0    0  0.00000000000E+00  0.00000000000E+00  0.22167984805E+04  0.42310326824E+04  0.36038093813E+04 0.  0.
        5    1    3    3  502    0  0.68263168554E+03  0.39803476849E+03 -0.79283555166E+03  0.11193873311E+04  0.46999998093E+01 0.  1.
       -5    1    3    3    0  502 -0.68263168554E+03 -0.39803476849E+03  0.30096340321E+04  0.31116453513E+04  0.46999998093E+01 0. -1.
</event>
<event>
 5   0  0.2199902E-07  0.3602444E+04  0.7818609E-02  0.8089932E-01
       -2   -1    0    0    0  501  0.00000000000E+00  0.00000000000E+00  0.12937160568E+04  0.12937160569E+04  0.25500000920E-02 0.  1.
        2   -1    0    0  501    0  0.00000000000E+00  0.00000000000E+00 -0.25078155259E+04  0.25078155259E+04  0.25500000920E-02 0. -1.
    10030    2    1    2    0    0  0.00000000000E+00  0.00000000000E+00 -0.12140994690E+04  0.38015315827E+04  0.36024442888E+04 0.  0.
        1    1    3    3  502    0 -0.14863283913E+04  0.34207510520E+03 -0.16182408040E+04  0.22237110343E+04  0.50400001928E-02 0. -1.
       -1    1    3    3    0  502  0.14863283913E+04 -0.34207510520E+03  0.40414133501E+03  0.15778205484E+04  0.50400001928E-02 0.  1.
</event>
<event>
 5   0  0.7236375E-08  0.3584430E+04  0.7818609E-02  0.8094068E-01
        1   -1    0    0  501    0  0.00000000000E+00  0.00000000000E+00  0.18087413973E+04  0.18087413973E+04  0.50400001928E-02 0. -1.
       -1   -1    0    0    0  501  0.00000000000E+00  0.00000000000E+00 -0.17758394254E+04  0.17758394255E+04  0.50400001928E-02 0.  1.
    10030    2    1    2    0    0  0.00000000000E+00  0.00000000000E+00  0.32901971867E+02  0.35845808228E+04  0.35844298201E+04 0.  0.
        1    1    3    3  502    0 -0.27458360024E+03  0.13909797937E+04  0.11127696460E+04  0.18023532465E+04  0.50400001928E-02 0. -1.
       -1    1    3    3    0  502  0.27458360024E+03 -0.13909797937E+04 -0.10798676741E+04  0.17822275763E+04  0.50400001928E-02 0.  1.
</event>
<event>
 5   0  0.7236375E-08  0.3613798E+04  0.7818609E-02  0.8087338E-01
        1   -1    0    0  501    0  0.00000000000E+00  0.00000000000E+00  0.33174099204E+04  0.33174099204E+04  0.50400001928E-02 0. -1.
       -1   -1    0    0    0  501  0.00000000000E+00  0.00000000000E+00 -0.98416658994E+03  0.98416658995E+03  0.50400001928E-02 0.  1.
    10030    2    1    2    0    0  0.00000000000E+00  0.00000000000E+00  0.23332433304E+04  0.43015765103E+04  0.36137980070E+04 0.  0.
        1    1    3    3  502    0 -0.17681804776E+04  0.41525052635E+02  0.72652910364E+03  0.19120750691E+04  0.50400001928E-02 0.  1.
       -1    1    3    3    0  502  0.17681804776E+04 -0.41525052635E+02  0.16067142268E+04  0.23895014413E+04  0.50400001928E-02 0. -1.
</event>
<event>
 5   0  0.7261233E-08  0.3597860E+04  0.7818609E-02  0.8090982E-01
        1   -1    0    0  501    0  0.00000000000E+00  0.00000000000E+00  0.10819494028E+04  0.10819494028E+04  0.50400001928E-02 0.  1.
       -1   -1    0    0    0  501  0.00000000000E+00  0.00000000000E+00 -0.29910359835E+04  0.29910359835E+04  0.50400001928E-02 0. -1.
    10030    2    1    2    0    0  0.00000000000E+00  0.00000000000E+00 -0.19090865807E+04  0.40729853863E+04  0.35978602508E+04 0.  0.
        3    1    3    3  502    0  0.55687696892E+03  0.55244675911E+03  0.87814596120E+03  0.11774759953E+04  0.10100000352E+00 0.  1.
       -3    1    3    3    0  502 -0.55687696892E+03 -0.55244675911E+03 -0.27872325419E+04  0.28955093910E+04  0.10100000352E+00 0. -1.
</event>
<event>
 5   0  0.2342606E-07  0.3597031E+04  0.7818609E-02  0.8091172E-01
       -2   -1    0    0    0  501  0.00000000000E+00  0.00000000000E+00  0.17882942216E+04  0.17882942216E+04  0.25500000920E-02 0. -1.
        2   -1    0    0  501    0  0.00000000000E+00  0.00000000000E+00 -0.18087953604E+04  0.18087953604E+04  0.25500000920E-02 0.  1.
    10030    2    1    2    0    0  0.00000000000E+00  0.00000000000E+00 -0.20501138827E+02  0.35970895821E+04  0.35970311598E+04 0.  0.
        5    1    3    3  502    0  0.16409021924E+04  0.19674206523E+02 -0.74625785054E+03  0.18027395677E+04  0.46999998093E+01 0.  1.
       -5    1    3    3    0  502 -0.16409021924E+04 -0.19674206523E+02  0.72575671172E+03  0.17943500144E+04  0.46999998093E+01 0. -1.
</event>
<event>
 5   0  0.2199902E-07  0.3569047E+04  0.7818609E-02  0.8097619E-01
       -2   -1    0    0    0  501  0.00000000000E+00  0.00000000000E+00  0.12182703404E+04  0.12182703404E+04  0.25500000920E-02 0. -1.
        2   -1    0    0  501    0  0.00000000000E+00  0.00000000000E+00 -0.26139715162E+04  0.26139715162E+04  0.25500000920E-02 0.  1.
    10030    2    1    2    0    0  0.00000000000E+00  0.00000000000E+00 -0.13957011758E+04  0.38322418566E+04  0.35690469141E+04 0.  0.
        1    1    3    3  502    0  0.39985205114E+03 -0.15809630931E+04  0.80297378714E+02  0.16327197045E+04  0.50400001928E-02 0.  1.
       -1    1    3    3    0  502 -0.39985205114E+03  0.15809630931E+04 -0.14759985545E+04  0.21995221520E+04  0.50400001928E-02 0. -1.
</event>
<event>
 5   0  0.7236375E-08  0.3611908E+04  0.7818609E-02  0.8087769E-01
        1   -1    0    0  501    0  0.00000000000E+00  0.00000000000E+00  0.27815176137E+04  0.27815176137E+04  0.50400001928E-02 0. -1.
       -1   -1    0    0    0  501  0.00000000000E+00  0.00000000000E+00 -0.11725505405E+04  0.11725505405E+04  0.50400001928E-02 0.  1.
    10030    2    1    2    0    0  0.00000000000E+00  0.00000000000E+00  0.16089670732E+04  0.39540681542E+04  0.36119080727E+04 0.  0.
        5    1    3    3  502    0  0.15934254528E+04  0.83573639402E+03  0.97403578469E+03  0.20460273199E+04  0.46999998093E+01 0. -1.
       -5    1    3    3    0  502 -0.15934254528E+04 -0.83573639402E+03  0.63493128846E+03  0.19080408342E+04  0.46999998093E+01 0.  1.
</event>
<event>
 5   0  0.7236375E-08  0.3601875E+04  0.7818609E-02  0.8090062E-01
       -1   -1    0    0    0  501  0.00000000000E+00  0.00000000000E+00  0.13200940221E+04  0.13200940221E+04  0.50400001928E-02 0. -1.
        1   -1    0    0  501    0  0.00000000000E+00  0.00000000000E+00 -0.24569274618E+04  0.24569274618E+04  0.50400001928E-02 0.  1.
    10030    2    1    2    0    0  0.00000000000E+00  0.00000000000E+00 -0.11368334398E+04  0.37770214839E+04  0.36018746536E+04 0.  0.
        5    1    3    3  502    0  0.38377877533E+03 -0.17401681373E+04 -0.84162745520E+03  0.19707435546E+04  0.46999998093E+01 0.  1.
       -5    1    3    3    0  502 -0.38377877533E+03  0.17401681373E+04 -0.29520598457E+03  0.18062779293E+04  0.46999998093E+01 0. -1.
</event>
<event>
 5   0  0.2199902E-07  0.3640837E+04  0.7818609E-02  0.8081201E-01
        2   -1    0    0  501    0  0.00000000000E+00  0.00000000000E+00  0.17720723996E+04  0.17720723996E+04  0.25500000920E-02 0.  1.
       -2   -1    0    0    0  501  0.00000000000E+00  0.00000000000E+00 -0.18700834208E+04  0.18700834208E+04  0.25500000920E-02 0. -1.
    10030    2    1    2    0    0  0.00000000000E+00  0.00000000000E+00 -0.98011021224E+02  0.36421558204E+04  0.36408368351E+04 0.  0.
        1    1    3    3  502    0 -0.25051580837E+03  0.16229318014E+04  0.73693642605E+03  0.17999280815E+04  0.50400001928E-02 0.  1.
       -1    1    3    3    0  502  0.25051580837E+03 -0.16229318014E+04 -0.83494744728E+03  0.18422277389E+04  0.50400001928E-02 0. -1.
</event>
<event>
 5   0  0.7261233E-08  0.3601183E+04  0.7818609E-02  0.8090221E-01
       -1   -1    0    0    0  501  0.00000000000E+00  0.00000000000E+00  0.20070573866E+04  0.20070573866E+04  0.50400001928E-02 0. -1.
        1   -1    0    0  501    0  0.00000000000E+00  0.00000000000E+00 -0.16153649942E+04  0.16153649943E+04  0.50400001928E-02 0.  1.
    10030    2    1    2    0    0  0.00000000000E+00  0.00000000000E+00  0.39169239234E+03  0.36224223809E+04  0.36011832743E+04 0.  0.
        3    1    3    3  502    0 -0.59366265874E+03  0.16115930976E+04 -0.34814141523E+03  0.17523898310E+04  0.10100000352E+00 0.  1.
       -3    1    3    3    0  502  0.59366265874E+03 -0.16115930976E+04  0.73983380757E+03  0.18700325499E+04  0.10100000352E+00 0. -1.
</event>
<event>
 5   0  0.7347303E-08  0.3603532E+04  0.7818609E-02  0.8089683E-01
        1   -1    0    0  501    0  0.00000000000E+00  0.00000000000E+00  0.25468878725E+04  0.25468878725E+04  0.50400001928E-02 0.  1.
       -1   -1    0    0    0  501  0.00000000000E+00  0.00000000000E+00 -0.12746382122E+04  0.12746382122E+04  0.50400001928E-02 0. -1.
    10030    2    1    2    0    0  0.00000000000E+00  0.00000000000E+00  0.12722496604E+04  0.38215260847E+04  0.36035319365E+04 0.  0.
        2    1    3    3  502    0 -0.14709843955E+04 -0.27357190278E+03 -0.42845746207E+03  0.15563458724E+04  0.25500000920E-02 0. -1.
       -2    1    3    3    0  502  0.14709843955E+04  0.27357190278E+03  0.17007071224E+04  0.22651802123E+04  0.25500000920E-02 0.  1.
</event>
<event>
 5   0  0.7514289E-08  0.3661423E+04  0.7818609E-02  0.8076565E-01
        1   -1    0    0  501    0  0.00000000000E+00  0.00000000000E+00  0.27850779200E+04  0.27850779200E+04  0.50400001928E-02 0.  1.
       -1   -1    0    0    0  501  0.00000000000E+00  0.00000000000E+00 -0.12033791127E+04  0.12033791127E+04  0.50400001928E-02 0. -1.
    10030    2    1    2    0    0  0.00000000000E+00  0.00000000000E+00  0.15816988073E+04  0.39884570327E+04  0.36614230000E+04 0.  0.
        4    1    3    3  502    0  0.11426164070E+04 -0.66686543245E+03  0.21692665970E+04  0.25408661792E+04  0.12699999809E+01 0.  1.
       -4    1    3    3    0  502 -0.11426164070E+04  0.66686543245E+03 -0.58756778979E+03  0.14475908535E+04  0.12699999809E+01 0. -1.
</event>
<event>
 5   0  0.7514289E-08  0.3583642E+04  0.7818609E-02  0.8094249E-01
        1   -1    0    0  501    0  0.00000000000E+00  0.00000000000E+00  0.12004466349E+04  0.12004466349E+04  0.50400001928E-02 0.  1.
       -1   -1    0    0    0  501  0.00000000000E+00  0.00000000000E+00 -0.26745229875E+04  0.26745229875E+04  0.50400001928E-02 0. -1.
    10030    2    1    2    0    0  0.00000000000E+00  0.00000000000E+00 -0.14740763526E+04  0.38749696223E+04  0.35836417902E+04 0.  0.
        4    1    3    3  502    0 -0.13457358690E+04  0.11539768632E+04 -0.10189073844E+04  0.20447106154E+04  0.12699999809E+01 0.  1.
       -4    1    3    3    0  502  0.13457358690E+04 -0.11539768632E+04 -0.45516896822E+03  0.18302590069E+04  0.12699999809E+01 0. -1.
</event>
<event>
 5   0  0.7236375E-08  0.3602265E+04  0.7818609E-02  0.8089973E-01
       -1   -1    0    0    0  501  0.00000000000E+00  0.00000000000E+00  0.14836742822E+04  0.14836742822E+04  0.50400001928E-02 0.  1.
        1   -1    0    0  501    0  0.00000000000E+00  0.00000000000E+00 -0.21865165249E+04  0.21865165249E+04  0.50400001928E-02 0. -1.
    10030    2    1    2    0    0  0.00000000000E+00  0.00000000000E+00 -0.70284224271E+03  0.36701908070E+04  0.36022650294E+04 0.  0.
        1    1    3    3  502    0  0.87221352619E+03 -0.15380859309E+04 -0.20059993855E+01  0.17681823407E+04  0.50400001928E-02 0.  1.
       -1    1    3    3    0  502 -0.87221352619E+03  0.15380859309E+04 -0.70083624333E+03  0.19020084663E+04  0.50400001928E-02 0. -1.
</event>
<event>
 5   0  0.7261233E-08  0.3596769E+04  0.7818609E-02  0.8091232E-01
       -1   -1    0    0    0  501  0.00000000000E+00  0.00000000000E+00  0.15985008482E+04  0.15985008482E+04  0.50400001928E-02 0.  1.
        1   -1    0    0  501    0  0.00000000000E+00  0.00000000000E+00 -0.20232621093E+04  0.20232621093E+04  0.50400001928E-02 0. -1.
    10030    2    1    2    0    0  0.00000000000E+00  0.00000000000E+00 -0.42476126111E+03  0.36217629574E+04  0.35967686596E+04 0.  0.
        3    1    3    3  502    0 -0.31123475443E+03  0.10421137118E+04 -0.16545757652E+04  0.19800224831E+04  0.10100000352E+00 0. -1.
       -3    1    3    3    0  502  0.31123475443E+03 -0.10421137118E+04  0.12298145040E+04  0.16417404744E+04  0.10100000352E+00 0.  1.
</event>
<event>
 5   0  0.7514289E-08  0.3609343E+04  0.7818609E-02  0.8088355E-01
        1   -1    0    0  501    0  0.00000000000E+00  0.00000000000E+00  0.18551934621E+04  0.18551934621E+04  0.50400001928E-02 0.  1.
       -1   -1    0    0    0  501  0.00000000000E+00  0.00000000000E+00 -0.17555256435E+04  0.17555256435E+04  0.50400001928E-02 0. -1.
    10030    2    1    2    0    0  0.00000000000E+00  0.00000000000E+00  0.99667818661E+02  0.36107191056E+04  0.36093432624E+04 0.  0.
        4    1    3    3  502    0 -0.12013466906E+04 -0.23772215245E+03  0.13758928130E+04  0.18419631751E+04  0.12699999809E+01 0.  1.
       -4    1    3    3    0  502  0.12013466906E+04  0.23772215245E+03 -0.12762249943E+04  0.17687559305E+04  0.12699999809E+01 0. -1.
</event>
<event>
 5   0  0.2238968E-07  0.3596626E+04  0.7818609E-02  0.8091265E-01
       -2   -1    0    0    0  501  0.00000000000E+00  0.00000000000E+00  0.34397178337E+04  0.34397178337E+04  0.25500000920E-02 0. -1.
        2   -1    0    0  501    0  0.00000000000E+00  0.00000000000E+00 -0.94017303226E+03  0.94017303226E+03  0.25500000920E-02 0.  1.
    10030    2    1    2    0    0  0.00000000000E+00  0.00000000000E+00  0.24995448015E+04  0.43798908660E+04  0.35966261668E+04 0.  0.
        3    1    3    3  502    0  0.12598417491E+04  0.77992333843E+03  0.88048451250E+01  0.14817419418E+04  0.10100000352E+00 0.  1.
       -3    1    3    3    0  502 -0.12598417491E+04 -0.77992333843E+03  0.24907399563E+04  0.28981489242E+04  0.10100000352E+00 0. -1.
</event>
<event>
 5   0  0.7347303E-08  0.3603436E+04  0.7818609E-02  0.8089705E-01
       -1   -1    0    0    0  501  0.00000000000E+00  0.00000000000E+00  0.17216940559E+04  0.17216940560E+04  0.50400001928E-02 0.  1.
        1   -1    0    0  501    0  0.00000000000E+00  0.00000000000E+00 -0.18854614035E+04  0.18854614035E+04  0.50400001928E-02 0. -1.
    10030    2    1    2    0    0  0.00000000000E+00  0.00000000000E+00 -0.16376734755E+03  0.36071554595E+04  0.36034359665E+04 0.  0.
        2    1    3    3  502    0  0.29894746574E+03 -0.14244210420E+04 -0.11449793118E+04  0.18518430055E+04  0.25500000920E-02 0. -1.
       -2    1    3    3    0  502 -0.29894746574E+03  0.14244210420E+04  0.98121196430E+03  0.17553124540E+04  0.25500000920E-02 0.  1.
</event>
<event>
 5   0  0.7261233E-08  0.3599735E+04  0.7818609E-02  0.8090552E-01
       -1   -1    0    0    0  501  0.00000000000E+00  0.00000000000E+00  0.10758406428E+04  0.10758406428E+04  0.50400001928E-02 0. -1.
        1   -1    0    0  501    0  0.00000000000E+00  0.00000000000E+00 -0.30111557016E+04  0.30111557016E+04  0.50400001928E-02 0.  1.
    10030    2    1    2    0    0  0.00000000000E+00  0.00000000000E+00 -0.19353150588E+04  0.40869963444E+04  0.35997353711E+04 0.  0.
        3    1    3    3  502    0  0.13431404885E+04  0.67732706077E+03 -0.20897274102E+04  0.25748318350E+04  0.10100000352E+00 0.  1.
       -3    1    3    3    0  502 -0.13431404885E+04 -0.67732706077E+03  0.15441235142E+03  0.15121645094E+04  0.10100000352E+00 0. -1.
</event>
<event>
 5   0  0.7347303E-08  0.3631821E+04  0.7818609E-02  0.8083241E-01
        1   -1    0    0  501    0  0.00000000000E+00  0.00000000000E+00  0.23215152174E+04  0.23215152174E+04  0.50400001928E-02 0. -1.
       -1   -1    0    0    0  501  0.00000000000E+00  0.00000000000E+00 -0.14204222012E+04  0.14204222013E+04  0.50400001928E-02 0.  1.
    10030    2    1    2    0    0  0.00000000000E+00  0.00000000000E+00  0.90109301617E+03  0.37419374187E+04  0.36318214468E+04 0.  0.
        2    1    3    3  502    0 -0.44880645408E+03 -0.96226501256E+03  0.19683549515E+04  0.22364709707E+04  0.25500000920E-02 0. -1.
       -2    1    3    3    0  502  0.44880645408E+03  0.96226501256E+03 -0.10672619353E+04  0.15054664480E+04  0.25500000920E-02 0.  1.
</event>
<event>
 5   0  0.2199902E-07  0.3603781E+04  0.7818609E-02  0.8089626E-01
       -2   -1    0    0    0  501  0.00000000000E+00  0.00000000000E+00  0.12746746413E+04  0.12746746413E+04  0.25500000920E-02 0. -1.
        2   -1    0    0  501    0  0.00000000000E+00  0.00000000000E+00 -0.25471667821E+04  0.25471667821E+04  0.25500000920E-02 0.  1.
    10030    2    1    2    0    0  0.00000000000E+00  0.00000000000E+00 -0.12724921408E+04  0.38218414234E+04  0.36037807393E+04 0.  0.
        1    1    3    3  502    0 -0.15947594376E+04 -0.70384918234E+03 -0.11200840713E+04  0.20720158450E+04  0.50400001928E-02 0.  1.
       -1    1    3    3    0  502  0.15947594376E+04  0.70384918234E+03 -0.15240806953E+03  0.17498255784E+04  0.50400001928E-02 0. -1.
</event>
<event>
 5   0  0.7236375E-08  0.3591608E+04  0.7818609E-02  0.8092417E-01
        1   -1    0    0  501    0  0.00000000000E+00  0.00000000000E+00  0.18457835242E+04  0.18457835242E+04  0.50400001928E-02 0. -1.
       -1   -1    0    0    0  501  0.00000000000E+00  0.00000000000E+00 -0.17471780796E+04  0.17471780796E+04  0.50400001928E-02 0.  1.
    10030    2    1    2    0    0  0.00000000000E+00  0.00000000000E+00  0.98605444658E+02  0.35929616038E+04  0.35916082822E+04 0.  0.
        1    1    3    3  502    0  0.77253184746E+03  0.15908990509E+04 -0.26249928504E+03  0.17879236897E+04  0.50400001928E-02 0.  1.
       -1    1    3    3    0  502 -0.77253184746E+03 -0.15908990509E+04  0.36110472970E+03  0.18050379141E+04  0.50400001928E-02 0. -1.
</event>
<event>
 5   0  0.2198900E-07  0.3558311E+04  0.7818609E-02  0.8100108E-01
       -2   -1    0    0    0  501  0.00000000000E+00  0.00000000000E+00  0.24575271281E+04  0.24575271281E+04  0.25500000920E-02 0. -1.
        2   -1    0    0  501    0  0.00000000000E+00  0.00000000000E+00 -0.12880404688E+04  0.12880404688E+04  0.25500000920E-02 0.  1.
    10030    2    1    2    0    0  0.00000000000E+00  0.00000000000E+00  0.11694866594E+04  0.37455675969E+04  0.35583110567E+04 0.  0.
        2    1    3    3  502    0  0.79885588538E+03 -0.15710827439E+04  0.32922916738E+03  0.17930040598E+04  0.25500000920E-02 0. -1.
       -2    1    3    3    0  502 -0.79885588538E+03  0.15710827439E+04  0.84025749197E+03  0.19525635371E+04  0.25500000920E-02 0.  1.
</event>
<event>
 5   0  0.7236375E-08  0.3682073E+04  0.7818609E-02  0.8071946E-01
       -3   -1    0    0    0  501  0.00000000000E+00  0.00000000000E+00  0.24009701172E+04  0.24009701193E+04  0.10100000352E+00 0. -1.
        3   -1    0    0  501    0  0.00000000000E+00  0.00000000000E+00 -0.14116855777E+04  0.14116855813E+04  0.10100000352E+00 0.  1.
    10030    2    1    2    0    0  0.00000000000E+00  0.00000000000E+00  0.98928453952E+03  0.38126557006E+04  0.36820727303E+04 0.  0.
        1    1    3    3  502    0  0.15372109423E+04  0.70799672181E+03  0.12450062402E+04  0.21010276956E+04  0.50400001928E-02 0. -1.
       -1    1    3    3    0  502 -0.15372109423E+04 -0.70799672181E+03 -0.25572170070E+03  0.17116280050E+04  0.50400001928E-02 0.  1.
</event>
<event>
 5   0  0.7236375E-08  0.3486749E+04  0.7818609E-02  0.8116937E-01
       -1   -1    0    0    0  501  0.00000000000E+00  0.00000000000E+00  0.16808916613E+04  0.16808916613E+04  0.50400001928E-02 0. -1.
        1   -1    0    0  501    0  0.00000000000E+00  0.00000000000E+00 -0.18081800365E+04  0.18081800366E+04  0.50400001928E-02 0.  1.
    10030    2    1    2    0    0  0.00000000000E+00  0.00000000000E+00 -0.12728837522E+03  0.34890716979E+04  0.34867490564E+04 0.  0.
        1    1    3    3  502    0 -0.10219689979E+03 -0.69424549120E+03 -0.16606188476E+04  0.18027967067E+04  0.50400001928E-02 0.  1.
       -1    1    3    3    0  502  0.10219689979E+03  0.69424549120E+03  0.15333304724E+04  0.16862749912E+04  0.50400001928E-02 0. -1.
</event>
<event>
 5   0  0.7261233E-08  0.3596438E+04  0.7818609E-02  0.8091308E-01
       -1   -1    0    0    0  501  0.00000000000E+00  0.00000000000E+00  0.14406004015E+04  0.14406004015E+04  0.50400001928E-02 0. -1.
        1   -1    0    0  501    0  0.00000000000E+00  0.00000000000E+00 -0.22446139229E+04  0.22446139229E+04  0.50400001928E-02 0.  1.
    10030    2    1    2    0    0  0.00000000000E+00  0.00000000000E+00 -0.80401352135E+03  0.36852143244E+04  0.35964380816E+04 0.  0.
        3    1    3    3  502    0 -0.80664387844E+03  0.59288423948E+03  0.11286556821E+04  0.15086582539E+04  0.10100000352E+00 0. -1.
       -3    1    3    3    0  502  0.80664387844E+03 -0.59288423948E+03 -0.19326692035E+04  0.21765560706E+04  0.10100000352E+00 0.  1.
</event>
<event>
 5   0  0.2238968E-07  0.3484570E+04  0.7818609E-02  0.8117456E-01
        2   -1    0    0  501    0  0.00000000000E+00  0.00000000000E+00  0.25599229262E+04  0.25599229262E+04  0.25500000920E-02 0.  1.
       -2   -1    0    0    0  501  0.00000000000E+00  0.00000000000E+00 -0.11858002498E+04  0.11858002498E+04  0.25500000920E-02 0. -1.
    10030    2    1    2    0    0  0.00000000000E+00  0.00000000000E+00  0.13741226764E+04  0.37457231760E+04  0.34845701287E+04 0.  0.
        3    1    3    3  502    0 -0.34246953357E+03  0.85576418959E+03  0.22763600753E+04  0.24558975817E+04  0.10100000352E+00 0.  1.
       -3    1    3    3    0  502  0.34246953357E+03 -0.85576418959E+03 -0.90223739884E+03  0.12898255943E+04  0.10100000352E+00 0. -1.
</event>
<event>
 5   0  0.2309391E-07  0.3606157E+04  0.7818609E-02  0.8089083E-01
       -2   -1    0    0    0  501  0.00000000000E+00  0.00000000000E+00  0.14910501617E+04  0.14910501617E+04  0.25500000920E-02 0. -1.
        2   -1    0    0  501    0  0.00000000000E+00  0.00000000000E+00 -0.21804036727E+04  0.21804036727E+04  0.25500000920E-02 0.  1.
    10030    2    1    2    0    0  0.00000000000E+00  0.00000000000E+00 -0.68935351093E+03  0.36714538344E+04  0.36061565406E+04 0.  0.
        4    1    3    3  502    0  0.13009760209E+04 -0.12351249305E+04 -0.52967395856E+03  0.18704620595E+04  0.12699999809E+01 0.  1.
       -4    1    3    3    0  502 -0.13009760209E+04  0.12351249305E+04 -0.15967955238E+03  0.18009917749E+04  0.12699999809E+01 0. -1.
</event>
<event>
 5   0  0.7236375E-08  0.3605092E+04  0.7818609E-02  0.8089326E-01
        1   -1    0    0  501    0  0.00000000000E+00  0.00000000000E+00  0.17563486760E+04  0.17563486760E+04  0.50400001928E-02 0.  1.
       -1   -1    0    0    0  501  0.00000000000E+00  0.00000000000E+00 -0.18499583733E+04  0.18499583733E+04  0.50400001928E-02 0. -1.
    10030    2    1    2    0    0  0.00000000000E+00  0.00000000000E+00 -0.93609697309E+02  0.36063070492E+04  0.36050919209E+04 0.  0.
        1    1    3    3  502    0 -0.54373856865E+03  0.13368941432E+03 -0.17607554765E+04  0.18476429143E+04  0.50400001928E-02 0. -1.
       -1    1    3    3    0  502  0.54373856865E+03 -0.13368941432E+03  0.16671457792E+04  0.17586641350E+04  0.50400001928E-02 0.  1.
</event>
<event>
 5   0  0.7236375E-08  0.3613728E+04  0.7818609E-02  0.8087354E-01
       -1   -1    0    0    0  501  0.00000000000E+00  0.00000000000E+00  0.16814245069E+04  0.16814245069E+04  0.50400001928E-02 0. -1.
        1   -1    0    0  501    0  0.00000000000E+00  0.00000000000E+00 -0.19416618207E+04  0.19416618207E+04  0.50400001928E-02 0.  1.
    10030    2    1    2    0    0  0.00000000000E+00  0.00000000000E+00 -0.26023731382E+03  0.36230863277E+04  0.36137281412E+04 0.  0.
        5    1    3    3  502    0  0.10659257330E+04  0.10619759436E+04 -0.11330817264E+04  0.18835835160E+04  0.46999998093E+01 0.  1.
       -5    1    3    3    0  502 -0.10659257330E+04 -0.10619759436E+04  0.87284441261E+03  0.17395028116E+04  0.46999998093E+01 0. -1.
</event>
<event>
 5   0  0.2238968E-07  0.3565200E+04  0.7818609E-02  0.8098510E-01
       -2   -1    0    0    0  501  0.00000000000E+00  0.00000000000E+00  0.15854108867E+04  0.15854108867E+04  0.25500000920E-02 0.  1.
        2   -1    0    0  501    0  0.00000000000E+00  0.00000000000E+00 -0.20043149610E+04  0.20043149610E+04  0.25500000920E-02 0. -1.
    10030    2    1    2    0    0  0.00000000000E+00  0.00000000000E+00 -0.41890407422E+03  0.35897258477E+04  0.35651999998E+04 0.  0.
        3    1    3    3  502    0 -0.93412840884E+03 -0.33915827087E+03  0.12806062679E+04  0.16209801481E+04  0.10100000352E+00 0.  1.
       -3    1    3    3    0  502  0.93412840884E+03  0.33915827087E+03 -0.16995103421E+04  0.19687456997E+04  0.10100000352E+00 0. -1.
</event>
<event>
 5   0  0.7514289E-08  0.3608237E+04  0.7818609E-02  0.8088608E-01
        1   -1    0    0  501    0  0.00000000000E+00  0.00000000000E+00  0.14662141025E+04  0.14662141025E+04  0.50400001928E-02 0. -1.
       -1   -1    0    0    0  501  0.00000000000E+00  0.00000000000E+00 -0.22198961938E+04  0.22198961938E+04  0.50400001928E-02 0.  1.
    10030    2    1    2    0    0  0.00000000000E+00  0.00000000000E+00 -0.75368209132E+03  0.36861102963E+04  0.36082367469E+04 0.  0.
        4    1    3    3  502    0 -0.27270392597E+03  0.11922717058E+02  0.14449959810E+04  0.14705524746E+04  0.12699999809E+01 0. -1.
       -4    1    3    3    0  502  0.27270392597E+03 -0.11922717058E+02 -0.21986780724E+04  0.22155578217E+04  0.12699999809E+01 0.  1.
</event>
<event>
 5   0  0.2238968E-07  0.3453598E+04  0.7818609E-02  0.8124876E-01
       -2   -1    0    0    0  501  0.00000000000E+00  0.00000000000E+00  0.13797055363E+04  0.13797055363E+04  0.25500000920E-02 0. -1.
        2   -1    0    0  501    0  0.00000000000E+00  0.00000000000E+00 -0.21612109585E+04  0.21612109585E+04  0.25500000920E-02 0.  1.
    10030    2    1    2    0    0  0.00000000000E+00  0.00000000000E+00 -0.78150542216E+03  0.35409164948E+04  0.34535979642E+04 0.  0.
        3    1    3    3  502    0  0.34384845428E+03 -0.16795421362E+04 -0.60271914606E+03  0.18172407452E+04  0.10100000352E+00 0.  1.
       -3    1    3    3    0  502 -0.34384845428E+03  0.16795421362E+04 -0.17878627611E+03  0.17236757496E+04  0.10100000352E+00 0. -1.
</event>
<event>
 5   0  0.7236375E-08  0.3605062E+04  0.7818609E-02  0.8089333E-01
       -3   -1    0    0    0  501  0.00000000000E+00  0.00000000000E+00  0.25666365077E+04  0.25666365097E+04  0.10100000352E+00 0.  1.
        3   -1    0    0  501    0  0.00000000000E+00  0.00000000000E+00 -0.12659052738E+04  0.12659052778E+04  0.10100000352E+00 0. -1.
    10030    2    1    2    0    0  0.00000000000E+00  0.00000000000E+00  0.13007312339E+04  0.38325417876E+04  0.36050623865E+04 0.  0.
        4    1    3    3  502    0 -0.66014247085E+03 -0.14660952324E+04 -0.21584482196E+03  0.16222866307E+04  0.12699999809E+01 0. -1.
       -4    1    3    3    0  502  0.66014247085E+03  0.14660952324E+04  0.15165760559E+04  0.22102551568E+04  0.12699999809E+01 0.  1.
</event>
<event>
 5   0  0.7347303E-08  0.3634023E+04  0.7818609E-02  0.8082743E-01
        1   -1    0    0  501    0  0.00000000000E+00  0.00000000000E+00  0.27550447649E+04  0.27550447649E+04  0.50400001928E-02 0.  1.
       -1   -1    0    0    0  501  0.00000000000E+00  0.00000000000E+00 -0.11983582047E+04  0.11983582047E+04  0.50400001928E-02 0. -1.
    10030    2    1    2    0    0  0.00000000000E+00  0.00000000000E+00  0.15566865602E+04  0.39534029696E+04  0.36340228389E+04 0.  0.
        2    1    3    3  502    0  0.16005367344E+04 -0.75748007258E+03  0.12216306396E+04  0.21512497108E+04  0.25500000920E-02 0.  1.
       -2    1    3    3    0  502 -0.16005367344E+04  0.75748007258E+03  0.33505592060E+03  0.18021532589E+04  0.25500000920E-02 0. -1.
</event>
<event>
 5   0  0.2342606E-07  0.3579492E+04  0.7818609E-02  0.8095206E-01
       -2   -1    0    0    0  501  0.00000000000E+00  0.00000000000E+00  0.18279748016E+04  0.18279748016E+04  0.25500000920E-02 0. -1.
        2   -1    0    0  501    0  0.00000000000E+00  0.00000000000E+00 -0.17523164091E+04  0.17523164091E+04  0.25500000920E-02 0.  1.
    10030    2    1    2    0    0  0.00000000000E+00  0.00000000000E+00  0.75658392535E+02  0.35802912107E+04  0.35794917183E+04 0.  0.
        5    1    3    3  502    0 -0.16624184148E+04  0.73441977083E+02  0.69686894882E+03  0.18040723743E+04  0.46999998093E+01 0. -1.
       -5    1    3    3    0  502  0.16624184148E+04 -0.73441977083E+02 -0.62121055628E+03  0.17762188365E+04  0.46999998093E+01 0.  1.
</event>
<event>
 5   0  0.7236375E-08  0.3604576E+04  0.7818609E-02  0.8089444E-01
        1   -1    0    0  501    0  0.00000000000E+00  0.00000000000E+00  0.27482734770E+04  0.27482734770E+04  0.50400001928E-02 0.  1.
       -1   -1    0    0    0  501  0.00000000000E+00  0.00000000000E+00 -0.11819209062E+04  0.11819209062E+04  0.50400001928E-02 0. -1.
    10030    2    1    2    0    0  0.00000000000E+00  0.00000000000E+00  0.15663525708E+04  0.39301943832E+04  0.36045759132E+04 0.  0.
        1    1    3    3  502    0  0.62098453082E+03 -0.22097994783E+02 -0.10614341726E+04  0.12299400845E+04  0.50400001928E-02 0. -1.
       -1    1    3    3    0  502 -0.62098453082E+03  0.22097994783E+02  0.26277867434E+04  0.27002542987E+04  0.50400001928E-02 0.  1.
</event>
<event>
 5   0  0.7236375E-08  0.3591987E+04  0.7818609E-02  0.8092330E-01
       -1   -1    0    0    0  501  0.00000000000E+00  0.00000000000E+00  0.12105172156E+04  0.12105172156E+04  0.50400001928E-02 0.  1.
        1   -1    0    0  501    0  0.00000000000E+00  0.00000000000E+00 -0.26646395617E+04  0.26646395617E+04  0.50400001928E-02 0. -1.
    10030    2    1    2    0    0  0.00000000000E+00  0.00000000000E+00 -0.14541223461E+04  0.38751567773E+04  0.35919866719E+04 0.  0.
        1    1    3    3  502    0  0.30215399388E+03  0.91355184901E+03  0.90897106604E+03  0.13236700555E+04  0.50400001928E-02 0.  1.
       -1    1    3    3    0  502 -0.30215399388E+03 -0.91355184901E+03 -0.23630934122E+04  0.25514867218E+04  0.50400001928E-02 0. -1.
</event>
<event>
 5   0  0.2238968E-07  0.3592873E+04  0.7818609E-02  0.8092126E-01
        2   -1    0    0  501    0  0.00000000000E+00  0.00000000000E+00  0.15806882750E+04  0.15806882750E+04  0.25500000920E-02 0. -1.
       -2   -1    0    0    0  501  0.00000000000E+00  0.00000000000E+00 -0.20416317083E+04  0.20416317083E+04  0.25500000920E-02 0.  1.
    10030    2    1    2    0    0  0.00000000000E+00  0.00000000000E+00 -0.46094343332E+03  0.36223199833E+04  0.35928725572E+04 0.  0.
        3    1    3    3  502    0 -0.82174551320E+03  0.15973648125E+04 -0.21179257930E+03  0.18087830548E+04  0.10100000352E+00 0.  1.
       -3    1    3    3    0  502  0.82174551320E+03 -0.15973648125E+04 -0.24915085402E+03  0.18135369284E+04  0.10100000352E+00 0. -1.
</event>
<event>
 5   0  0.7514289E-08  0.3600390E+04  0.7818609E-02  0.8090402E-01
       -1   -1    0    0    0  501  0.00000000000E+00  0.00000000000E+00  0.18231299209E+04  0.18231299209E+04  0.50400001928E-02 0.  1.
        1   -1    0    0  501    0  0.00000000000E+00  0.00000000000E+00 -0.17775486480E+04  0.17775486481E+04  0.50400001928E-02 0. -1.
    10030    2    1    2    0    0  0.00000000000E+00  0.00000000000E+00  0.45581272841E+02  0.36006785690E+04  0.36003900489E+04 0.  0.
        4    1    3    3  502    0 -0.13379479452E+04 -0.11935059479E+04 -0.13889903810E+03  0.17982924422E+04  0.12699999809E+01 0. -1.
       -4    1    3    3    0  502  0.13379479452E+04  0.11935059479E+04  0.18448031094E+03  0.18023861268E+04  0.12699999809E+01 0.  1.
</event>
<event>
 5   0  0.7236375E-08  0.3575763E+04  0.7818609E-02  0.8096066E-01
        1   -1    0    0  501    0  0.00000000000E+00  0.00000000000E+00  0.17999154914E+04  0.17999154914E+04  0.50400001928E-02 0. -1.
       -1   -1    0    0    0  501  0.00000000000E+00  0.00000000000E+00 -0.17759281490E+04  0.17759281490E+04  0.50400001928E-02 0.  1.
    10030    2    1    2    0    0  0.00000000000E+00  0.00000000000E+00  0.23987342389E+02  0.35758436404E+04  0.35757631840E+04 0.  0.
        1    1    3    3  502    0 -0.53812656454E+03 -0.24442188303E+03 -0.16754086100E+04  0.17766024505E+04  0.50400001928E-02 0.  1.
       -1    1    3    3    0  502  0.53812656454E+03  0.24442188303E+03  0.16993959524E+04  0.17992411899E+04  0.50400001928E-02 0. -1.
</event>
<event>
 5   0  0.2342606E-07  0.3618960E+04  0.7818609E-02  0.8086163E-01
        2   -1    0    0  501    0  0.00000000000E+00  0.00000000000E+00  0.10427135992E+04  0.10427135992E+04  0.25500000920E-02 0. -1.
       -2   -1    0    0    0  501  0.00000000000E+00  0.00000000000E+00 -0.31400926630E+04  0.31400926630E+04  0.25500000920E-02 0.  1.
    10030    2    1    2    0    0  0.00000000000E+00  0.00000000000E+00 -0.20973790637E+04  0.41828062622E+04  0.36189596972E+04 0.  0.
        5    1    3    3  502    0  0.20394717084E+03  0.11412930062E+04 -0.26544043011E+04  0.28965545840E+04  0.46999998093E+01 0.  1.
       -5    1    3    3    0  502 -0.20394717084E+03 -0.11412930062E+04  0.55702523738E+03  0.12862516782E+04  0.46999998093E+01 0. -1.
</event>
<event>
 5   0  0.7236375E-08  0.3609857E+04  0.7818609E-02  0.8088238E-01
       -1   -1    0    0    0  501  0.00000000000E+00  0.00000000000E+00  0.12540340471E+04  0.12540340472E+04  0.50400001928E-02 0.  1.
        1   -1    0    0  501    0  0.00000000000E+00  0.00000000000E+00 -0.25978296172E+04  0.25978296172E+04  0.50400001928E-02 0. -1.
    10030    2    1    2    0    0  0.00000000000E+00  0.00000000000E+00 -0.13437955700E+04  0.38518636643E+04  0.36098569438E+04 0.  0.
        5    1    3    3  502    0  0.11088673724E+03 -0.69741289405E+03 -0.24442980634E+04  0.25442672277E+04  0.46999998093E+01 0. -1.
       -5    1    3    3    0  502 -0.11088673724E+03  0.69741289405E+03  0.11005024933E+04  0.13075964366E+04  0.46999998093E+01 0.  1.
</event>
<event>
 5   0  0.2238968E-07  0.3617994E+04  0.7818609E-02  0.8086382E-01
       -2   -1    0    0    0  501  0.00000000000E+00  0.00000000000E+00  0.12428239573E+04  0.12428239573E+04  0.25500000920E-02 0. -1.
        2   -1    0    0  501    0  0.00000000000E+00  0.00000000000E+00 -0.26330923560E+04  0.26330923560E+04  0.25500000920E-02 0.  1.
    10030    2    1    2    0    0  0.00000000000E+00  0.00000000000E+00 -0.13902683988E+04  0.38759163133E+04  0.36179940640E+04 0.  0.
        3    1    3    3  502    0 -0.75045286396E+03  0.11500303817E+04  0.56640592315E+03  0.14854511301E+04  0.10100000352E+00 0. -1.
       -3    1    3    3    0  502  0.75045286396E+03 -0.11500303817E+04 -0.19566743219E+04  0.23904651832E+04  0.10100000352E+00 0.  1.
</event>
<event>
 5   0  0.7347303E-08  0.3624674E+04  0.7818609E-02  0.8084863E-01
       -1   -1    0    0    0  501  0.00000000000E+00  0.00000000000E+00  0.13592659823E+04  0.13592659823E+04  0.50400001928E-02 0.  1.
        1   -1    0    0  501    0  0.00000000000E+00  0.00000000000E+00 -0.24164254993E+04  0.24164254993E+04  0.50400001928E-02 0. -1.
    10030    2    1    2    0    0  0.00000000000E+00  0.00000000000E+00 -0.10571595170E+04  0.37756914816E+04  0.36246737673E+04 0.  0.
        2    1    3    3  502    0 -0.14238040801E+04 -0.11202274044E+04 -0.47715189907E+03  0.18734464046E+04  0.25500000920E-02 0. -1.
       -2    1    3    3    0  502  0.14238040801E+04  0.11202274044E+04 -0.58000761789E+03  0.19022450770E+04  0.25500000920E-02 0.  1.
</event>
<event>
 5   0  0.7514289E-08  0.3610979E+04  0.7818609E-02  0.8087981E-01
        1   -1    0    0  501    0  0.00000000000E+00  0.00000000000E+00  0.24378492406E+04  0.24378492406E+04  0.50400001928E-02 0. -1.
       -1   -1    0    0    0  501  0.00000000000E+00  0.00000000000E+00 -0.13371592809E+04  0.13371592809E+04  0.50400001928E-02 0.  1.
    10030    2    1    2    0    0  0.00000000000E+00  0.00000000000E+00  0.11006899597E+04  0.37750085214E+04  0.36109792231E+04 0.  0.
        4    1    3    3  502    0  0.12516869291E+04  0.59287018800E+03 -0.66053352588E+03  0.15344449746E+04  0.12699999809E+01 0.  1.
       -4    1    3    3    0  502 -0.12516869291E+04 -0.59287018800E+03  0.17612234856E+04  0.22405635468E+04  0.12699999809E+01 0. -1.
</event>
<event>
 5   0  0.7236375E-08  0.3554006E+04  0.7818609E-02  0.8101109E-01
        1   -1    0    0  501    0  0.00000000000E+00  0.00000000000E+00  0.17271260092E+04  0.17271260092E+04  0.50400001928E-02 0. -1.
       -1   -1    0    0    0  501  0.00000000000E+00  0.00000000000E+00 -0.18283205071E+04  0.18283205071E+04  0.50400001928E-02 0.  1.
    10030    2    1    2    0    0  0.00000000000E+00  0.00000000000E+00 -0.10119449790E+03  0.35554465163E+04  0.35540061345E+04 0.  0.
        1    1    3    3  502    0  0.77337941937E+03 -0.13891881182E+04 -0.84450601601E+03  0.18003193509E+04  0.50400001928E-02 0.  1.
       -1    1    3    3    0  502 -0.77337941937E+03  0.13891881182E+04  0.74331151811E+03  0.17551271655E+04  0.50400001928E-02 0. -1.
</event>
<event>
 5   0  0.7514289E-08  0.3425158E+04  0.7818609E-02  0.8131759E-01
        1   -1    0    0  501    0  0.00000000000E+00  0.00000000000E+00  0.20014342194E+04  0.20014342194E+04  0.50400001928E-02 0.  1.
       -1   -1    0    0    0  501  0.00000000000E+00  0.00000000000E+00 -0.14654123259E+04  0.14654123259E+04  0.50400001928E-02 0. -1.
    10030    2    1    2    0    0  0.00000000000E+00  0.00000000000E+00  0.53602189347E+03  0.34668465453E+04  0.34251577333E+04 0.  0.
        4    1    3    3  502    0 -0.11158547456E+02  0.92987335137E+03  0.17236160470E+04  0.19584797301E+04  0.12699999809E+01 0.  1.
       -4    1    3    3    0  502  0.11158547456E+02 -0.92987335137E+03 -0.11875941535E+04  0.15083668152E+04  0.12699999809E+01 0. -1.
</event>
<event>
 5   0  0.2198900E-07  0.3614328E+04  0.7818609E-02  0.8087218E-01
        2   -1    0    0  501    0  0.00000000000E+00  0.00000000000E+00  0.10176078161E+04  0.10176078161E+04  0.25500000920E-02 0.  1.
       -2   -1    0    0    0  501  0.00000000000E+00  0.00000000000E+00 -0.32093326530E+04  0.32093326530E+04  0.25500000920E-02 0. -1.
    10030    2    1    2    0    0  0.00000000000E+00  0.00000000000E+00 -0.21917248369E+04  0.42269404691E+04  0.36143281490E+04 0.  0.
        2    1    3    3  502    0 -0.16559152389E+04  0.62976733061E+03 -0.67879365995E+03  0.18972145377E+04  0.25500000920E-02 0. -1.
       -2    1    3    3    0  502  0.16559152389E+04 -0.62976733061E+03 -0.15129311770E+04  0.23297259314E+04  0.25500000920E-02 0.  1.
</event>
<event>
 5   0  0.2199902E-07  0.3599996E+04  0.7818609E-02  0.8090493E-01
        2   -1    0    0  501    0  0.00000000000E+00  0.00000000000E+00  0.24629758010E+04  0.24629758010E+04  0.25500000920E-02 0.  1.
       -2   -1    0    0    0  501  0.00000000000E+00  0.00000000000E+00 -0.13154792182E+04  0.13154792182E+04  0.25500000920E-02 0. -1.
    10030    2    1    2    0    0  0.00000000000E+00  0.00000000000E+00  0.11474965828E+04  0.37784550192E+04  0.35999963784E+04 0.  0.
        1    1    3    3  502    0  0.89839444489E+02  0.22383792079E+03  0.24459383035E+04  0.24578016041E+04  0.50400001928E-02 0.  1.
       -1    1    3    3    0  502 -0.89839444489E+02 -0.22383792079E+03 -0.12984417207E+04  0.13206534151E+04  0.50400001928E-02 0. -1.
</event>
<event>
 5   0  0.2238968E-07  0.3612633E+04  0.7818609E-02  0.8087604E-01
        2   -1    0    0  501    0  0.00000000000E+00  0.00000000000E+00  0.21908237765E+04  0.21908237765E+04  0.25500000920E-02 0. -1.
       -2   -1    0    0    0  501  0.00000000000E+00  0.00000000000E+00 -0.14892933980E+04  0.14892933980E+04  0.25500000920E-02 0.  1.
    10030    2    1    2    0    0  0.00000000000E+00  0.00000000000E+00  0.70153037854E+03  0.36801171746E+04  0.36126330490E+04 0.  0.
        3    1    3    3  502    0  0.54420431722E+03  0.17141213145E+04  0.17906650520E+03  0.18073281504E+04  0.10100000352E+00 0.  1.
       -3    1    3    3    0  502 -0.54420431722E+03 -0.17141213145E+04  0.52246387334E+03  0.18727890241E+04  0.10100000352E+00 0. -1.
</event>
<event>
 5   0  0.2199902E-07  0.3595527E+04  0.7818609E-02  0.8091517E-01
       -2   -1    0    0    0  501  0.00000000000E+00  0.00000000000E+00  0.13630017497E+04  0.13630017497E+04  0.25500000920E-02 0. -1.
        2   -1    0    0  501    0  0.00000000000E+00  0.00000000000E+00 -0.23712025916E+04  0.23712025916E+04  0.25500000920E-02 0.  1.
    10030    2    1    2    0    0  0.00000000000E+00  0.00000000000E+00 -0.10082008419E+04  0.37342043413E+04  0.35955268216E+04 0.  0.
        1    1    3    3  502    0  0.14108543299E+04  0.30682751892E+03 -0.16165339858E+04  0.21674490060E+04  0.50400001928E-02 0.  1.
       -1    1    3    3    0  502 -0.14108543299E+04 -0.30682751892E+03  0.60833314384E+03  0.15667553353E+04  0.50400001928E-02 0. -1.
</event>
<event>
 5   0  0.2309391E-07  0.3585724E+04  0.7818609E-02  0.8093770E-01
       -2   -1    0    0    0  501  0.00000000000E+00  0.00000000000E+00  0.14367814862E+04  0.14367814862E+04  0.25500000920E-02 0. -1.
        2   -1    0    0  501    0  0.00000000000E+00  0.00000000000E+00 -0.22371905192E+04  0.22371905192E+04  0.25500000920E-02 0.  1.
    10030    2    1    2    0    0  0.00000000000E+00  0.00000000000E+00 -0.80040903294E+03  0.36739720054E+04  0.35857238706E+04 0.  0.
        4    1    3    3  502    0 -0.16338073244E+04  0.53207571696E+03  0.12417348329E+03  0.17227453697E+04  0.12699999809E+01 0. -1.
       -4    1    3    3    0  502  0.16338073244E+04 -0.53207571696E+03 -0.92458251623E+03  0.19512266357E+04  0.12699999809E+01 0.  1.
</event>
<event>
 5   0  0.7261233E-08  0.3598935E+04  0.7818609E-02  0.8090736E-01
       -1   -1    0    0    0  501  0.00000000000E+00  0.00000000000E+00  0.28813311550E+04  0.28813311550E+04  0.50400001928E-02 0.  1.
        1   -1    0    0  501    0  0.00000000000E+00  0.00000000000E+00 -0.11238153171E+04  0.11238153171E+04  0.50400001928E-02 0. -1.
    10030    2    1    2    0    0  0.00000000000E+00  0.00000000000E+00  0.17575158379E+04  0.40051464721E+04  0.35989354458E+04 0.  0.
        3    1    3    3  502    0  0.14536858396E+04 -0.67367553407E+02  0.20566890008E+04  0.25194663252E+04  0.10100000352E+00 0.  1.
       -3    1    3    3    0  502 -0.14536858396E+04  0.67367553407E+02 -0.29917316289E+03  0.14856801470E+04  0.10100000352E+00 0. -1.
</event>
<event>
 5   0  0.7236375E-08  0.3606920E+04  0.7818609E-02  0.8088908E-01
        1   -1    0    0  501    0  0.00000000000E+00  0.00000000000E+00  0.10944871882E+04  0.10944871882E+04  0.50400001928E-02 0. -1.
       -1   -1    0    0    0  501  0.00000000000E+00  0.00000000000E+00 -0.29716820898E+04  0.29716820898E+04  0.50400001928E-02 0.  1.
    10030    2    1    2    0    0  0.00000000000E+00  0.00000000000E+00 -0.18771949016E+04  0.40661692780E+04  0.36069200017E+04 0.  0.
        1    1    3    3  502    0  0.14729269926E+03  0.16009802351E+04 -0.18597223720E+04  0.24583327995E+04  0.50400001928E-02 0.  1.
       -1    1    3    3    0  502 -0.14729269926E+03 -0.16009802351E+04 -0.17472529631E+02  0.16078364785E+04  0.50400001928E-02 0. -1.
</event>
<event>
 5   0  0.7236375E-08  0.3582752E+04  0.7818609E-02  0.8094454E-01
       -3   -1    0    0    0  501  0.00000000000E+00  0.00000000000E+00  0.14462888716E+04  0.14462888751E+04  0.10100000352E+00 0. -1.
        3   -1    0    0  501    0  0.00000000000E+00  0.00000000000E+00 -0.22188009780E+04  0.22188009803E+04  0.10100000352E+00 0.  1.
    10030    2    1    2    0    0  0.00000000000E+00  0.00000000000E+00 -0.77251210641E+03  0.36650898554E+04  0.35827515535E+04 0.  0.
        1    1    3    3  502    0 -0.95031282046E+01 -0.10092391907E+04 -0.19002599192E+04  0.21516602460E+04  0.50400001928E-02 0.  1.
       -1    1    3    3    0  502  0.95031282046E+01  0.10092391907E+04  0.11277478128E+04  0.15134296095E+04  0.50400001928E-02 0. -1.
</event>
<event>
 5   0  0.7236375E-08  0.3609490E+04  0.7818609E-02  0.8088321E-01
       -1   -1    0    0    0  501  0.00000000000E+00  0.00000000000E+00  0.24856723122E+04  0.24856723122E+04  0.50400001928E-02 0.  1.
        1   -1    0    0  501    0  0.00000000000E+00  0.00000000000E+00 -0.13103516525E+04  0.13103516525E+04  0.50400001928E-02 0. -1.
    10030    2    1    2    0    0  0.00000000000E+00  0.00000000000E+00  0.11753206597E+04  0.37960239648E+04  0.36094901701E+04 0.  0.
        1    1    3    3  502    0 -0.64397236985E+03  0.51624244171E+03  0.22755630992E+04  0.24206185346E+04  0.50400001928E-02 0.  1.
       -1    1    3    3    0  502  0.64397236985E+03 -0.51624244171E+03 -0.11002424395E+04  0.13754054302E+04  0.50400001928E-02 0. -1.
</event>
<event>
 5   0  0.7514289E-08  0.3585932E+04  0.7818609E-02  0.8093722E-01
        1   -1    0    0  501    0  0.00000000000E+00  0.00000000000E+00  0.10102962013E+04  0.10102962013E+04  0.50400001928E-02 0.  1.
       -1   -1    0    0    0  501  0.00000000000E+00  0.00000000000E+00 -0.31819644267E+04  0.31819644267E+04  0.50400001928E-02 0. -1.
    10030    2    1    2    0    0  0.00000000000E+00  0.00000000000E+00 -0.21716682255E+04  0.41922606280E+04  0.35859317188E+04 0.  0.
        4    1    3    3  502    0  0.15567333894E+04 -0.88840446467E+03 -0.10329839296E+04  0.20687529457E+04  0.12699999809E+01 0. -1.
       -4    1    3    3    0  502 -0.15567333894E+04  0.88840446467E+03 -0.11386842959E+04  0.21235076823E+04  0.12699999809E+01 0.  1.
</event>
<event>
 5   0  0.7261233E-08  0.3598752E+04  0.7818609E-02  0.8090778E-01
        1   -1    0    0  501    0  0.00000000000E+00  0.00000000000E+00  0.18138499681E+04  0.18138499681E+04  0.50400001928E-02 0.  1.
       -1   -1    0    0    0  501  0.00000000000E+00  0.00000000000E+00 -0.17850179212E+04  0.17850179212E+04  0.50400001928E-02 0. -1.
    10030    2    1    2    0    0  0.00000000000E+00  0.00000000000E+00  0.28832046905E+02  0.35988678893E+04  0.35987523946E+04 0.  0.
        3    1    3    3  502    0 -0.17523244629E+04 -0.36762781768E+03  0.19320502004E+03  0.18008662986E+04  0.10100000352E+00 0.  1.
       -3    1    3    3    0  502  0.17523244629E+04  0.36762781768E+03 -0.16437297314E+03  0.17980015907E+04  0.10100000352E+00 0. -1.
</event>
<event>
 5   0  0.2309391E-07  0.3636252E+04  0.7818609E-02  0.8082238E-01
        2   -1    0    0  501    0  0.00000000000E+00  0.00000000000E+00  0.24101879223E+04  0.24101879223E+04  0.25500000920E-02 0. -1.
       -2   -1    0    0    0  501  0.00000000000E+00  0.00000000000E+00 -0.13715042112E+04  0.13715042112E+04  0.25500000920E-02 0.  1.
    10030    2    1    2    0    0  0.00000000000E+00  0.00000000000E+00  0.10386837111E+04  0.37816921335E+04  0.36362524034E+04 0.  0.
        4    1    3    3  502    0 -0.46843387663E+03  0.11664454393E+04  0.18854864861E+04  0.22660728501E+04  0.12699999809E+01 0. -1.
       -4    1    3    3    0  502  0.46843387663E+03 -0.11664454393E+04 -0.84680277501E+03  0.15156192834E+04  0.12699999809E+01 0.  1.
</event>
<event>
 5   0  0.7347303E-08  0.3606442E+04  0.7818609E-02  0.8089018E-01
        1   -1    0    0  501    0  0.00000000000E+00  0.00000000000E+00  0.22819705573E+04  0.22819705573E+04  0.50400001928E-02 0. -1.
       -1   -1    0    0    0  501  0.00000000000E+00  0.00000000000E+00 -0.14249112690E+04  0.14249112690E+04  0.50400001928E-02 0.  1.
    10030    2    1    2    0    0  0.00000000000E+00  0.00000000000E+00  0.85705928831E+03  0.37068818264E+04  0.36064417715E+04 0.  0.
        2    1    3    3  502    0 -0.13900038873E+04 -0.45785302741E+03 -0.65431203899E+03  0.16030796754E+04  0.25500000920E-02 0.  1.
       -2    1    3    3    0  502  0.13900038873E+04  0.45785302741E+03  0.15113713273E+04  0.21038021510E+04  0.25500000920E-02 0. -1.
</event>
<event>
 5   0  0.7261233E-08  0.3604817E+04  0.7818609E-02  0.8089389E-01
        1   -1    0    0  501    0  0.00000000000E+00  0.00000000000E+00  0.23284146388E+04  0.23284146388E+04  0.50400001928E-02 0. -1.
       -1   -1    0    0    0  501  0.00000000000E+00  0.00000000000E+00 -0.13952312429E+04  0.13952312429E+04  0.50400001928E-02 0.  1.
    10030    2    1    2    0    0  0.00000000000E+00  0.00000000000E+00  0.93318339596E+03  0.37236458817E+04  0.36048172495E+04 0.  0.
        3    1    3    3  502    0 -0.92466147348E+03 -0.14728308360E+04  0.95596733003E+03  0.19844654339E+04  0.10100000352E+00 0. -1.
       -3    1    3    3    0  502  0.92466147348E+03  0.14728308360E+04 -0.22783934073E+02  0.17391804478E+04  0.10100000352E+00 0.  1.
</event>
<event>
 5   0  0.2342606E-07  0.3625810E+04  0.7818609E-02  0.8084605E-01
        2   -1    0    0  501    0  0.00000000000E+00  0.00000000000E+00  0.10120349587E+04  0.10120349587E+04  0.25500000920E-02 0. -1.
       -2   -1    0    0    0  501  0.00000000000E+00  0.00000000000E+00 -0.32475396352E+04  0.32475396352E+04  0.25500000920E-02 0.  1.
    10030    2    1    2    0    0  0.00000000000E+00  0.00000000000E+00 -0.22355046765E+04  0.42595745939E+04  0.36258095044E+04 0.  0.
        5    1    3    3  502    0  0.40831069387E+03  0.36644875358E+02  0.95686011117E+03  0.10409917540E+04  0.46999998093E+01 0. -1.
       -5    1    3    3    0  502 -0.40831069387E+03 -0.36644875358E+02 -0.31923647877E+04  0.32185828399E+04  0.46999998093E+01 0.  1.
</event>
<event>
 5   0  0.7347303E-08  0.3595476E+04  0.7818609E-02  0.8091529E-01
        1   -1    0    0  501    0  0.00000000000E+00  0.00000000000E+00  0.27655889253E+04  0.27655889253E+04  0.50400001928E-02 0. -1.
       -1   -1    0    0    0  501  0.00000000000E+00  0.00000000000E+00 -0.11685981259E+04  0.11685981259E+04  0.50400001928E-02 0.  1.
    10030    2    1    2    0    0  0.00000000000E+00  0.00000000000E+00  0.15969907995E+04  0.39341870512E+04  0.35954760659E+04 0.  0.
        2    1    3    3  502    0 -0.38112422395E+02  0.75825262103E+03  0.25815665944E+04  0.26908893837E+04  0.25500000920E-02 0. -1.
       -2    1    3    3    0  502  0.38112422395E+02 -0.75825262103E+03 -0.98457579492E+03  0.12432976675E+04  0.25500000920E-02 0.  1.
</event>
<event>
 5   0  0.7236375E-08  0.3609710E+04  0.7818609E-02  0.8088271E-01
       -1   -1    0    0    0  501  0.00000000000E+00  0.00000000000E+00  0.17222655417E+04  0.17222655417E+04  0.50400001928E-02 0. -1.
        1   -1    0    0  501    0  0.00000000000E+00  0.00000000000E+00 -0.18914046730E+04  0.18914046730E+04  0.50400001928E-02 0.  1.
    10030    2    1    2    0    0  0.00000000000E+00  0.00000000000E+00 -0.16913913129E+03  0.36136702147E+04  0.36097097355E+04 0.  0.
        5    1    3    3  502    0  0.92739379805E+03 -0.10769776582E+04  0.10290982264E+04  0.17547094866E+04  0.46999998093E+01 0. -1.
       -5    1    3    3    0  502 -0.92739379805E+03  0.10769776582E+04 -0.11982373577E+04  0.18589607280E+04  0.46999998093E+01 0.  1.
</event>
<event>
 5   0  0.7236375E-08  0.3619889E+04  0.7818609E-02  0.8085951E-01
       -1   -1    0    0    0  501  0.00000000000E+00  0.00000000000E+00  0.16578417445E+04  0.16578417445E+04  0.50400001928E-02 0.  1.
        1   -1    0    0  501    0  0.00000000000E+00  0.00000000000E+00 -0.19760026400E+04  0.19760026400E+04  0.50400001928E-02 0. -1.
    10030    2    1    2    0    0  0.00000000000E+00  0.00000000000E+00 -0.31816089546E+03  0.36338443845E+04  0.36198893154E+04 0.  0.
        5    1    3    3  502    0  0.10486902568E+04  0.56281196946E+03  0.12097631451E+04  0.16970732232E+04  0.46999998093E+01 0.  1.
       -5    1    3    3    0  502 -0.10486902568E+04 -0.56281196946E+03 -0.15279240406E+04  0.19367711613E+04  0.46999998093E+01 0. -1.
</event>
<event>
 5   0  0.2198900E-07  0.3597363E+04  0.7818609E-02  0.8091096E-01
       -2   -1    0    0    0  501  0.00000000000E+00  0.00000000000E+00  0.22387132841E+04  0.22387132841E+04  0.25500000920E-02 0. -1.
        2   -1    0    0  501    0  0.00000000000E+00  0.00000000000E+00 -0.14451407592E+04  0.14451407592E+04  0.25500000920E-02 0.  1.
    10030    2    1    2    0    0  0.00000000000E+00  0.00000000000E+00  0.79357252492E+03  0.36838540432E+04  0.35973633761E+04 0.  0.
        2    1    3    3  502    0  0.14438650931E+04 -0.16615513095E+03  0.14819343528E+04  0.20756886473E+04  0.25500000920E-02 0. -1.
       -2    1    3    3    0  502 -0.14438650931E+04  0.16615513095E+03 -0.68836182791E+03  0.16081653959E+04  0.25500000920E-02 0.  1.
</event>
<event>
 5   0  0.2198900E-07  0.3592619E+04  0.7818609E-02  0.8092184E-01
       -2   -1    0    0    0  501  0.00000000000E+00  0.00000000000E+00  0.11687055661E+04  0.11687055661E+04  0.25500000920E-02 0.  1.
        2   -1    0    0  501    0  0.00000000000E+00  0.00000000000E+00 -0.27609416300E+04  0.27609416300E+04  0.25500000920E-02 0. -1.
    10030    2    1    2    0    0  0.00000000000E+00  0.00000000000E+00 -0.15922360639E+04  0.39296471961E+04  0.35926190172E+04 0.  0.
        2    1    3    3  502    0  0.14571415459E+04 -0.45457698396E+03 -0.18319672052E+04  0.23845346633E+04  0.25500000920E-02 0. -1.
       -2    1    3    3    0  502 -0.14571415459E+04  0.45457698396E+03  0.23973114131E+03  0.15451125329E+04  0.25500000920E-02 0.  1.
</event>
<event>
 5   0  0.2238968E-07  0.3605184E+04  0.7818609E-02  0.8089305E-01
        2   -1    0    0  501    0  0.00000000000E+00  0.00000000000E+00  0.12778739998E+04  0.12778739998E+04  0.25500000920E-02 0.  1.
       -2   -1    0    0    0  501  0.00000000000E+00  0.00000000000E+00 -0.25427687741E+04  0.25427687741E+04  0.25500000920E-02 0. -1.
    10030    2    1    2    0    0  0.00000000000E+00  0.00000000000E+00 -0.12648947743E+04  0.38206427738E+04  0.36051841028E+04 0.  0.
        3    1    3    3  502    0  0.13324384346E+04 -0.11275294597E+04 -0.15540869876E+03  0.17523888662E+04  0.10100000352E+00 0.  1.
       -3    1    3    3    0  502 -0.13324384346E+04  0.11275294597E+04 -0.11094860755E+04  0.20682539076E+04  0.10100000352E+00 0. -1.
</event>
<event>
 5   0  0.2309391E-07  0.3592918E+04  0.7818609E-02  0.8092116E-01
        2   -1    0    0  501    0  0.00000000000E+00  0.00000000000E+00  0.30078967144E+04  0.30078967144E+04  0.25500000920E-02 0. -1.
       -2   -1    0    0    0  501  0.00000000000E+00  0.00000000000E+00 -0.10729308060E+04  0.10729308060E+04  0.25500000920E-02 0.  1.
    10030    2    1    2    0    0  0.00000000000E+00  0.00000000000E+00  0.19349659084E+04  0.40808275205E+04  0.35929180599E+04 0.  0.
        4    1    3    3  502    0 -0.18767869672E+03 -0.17846669180E+04  0.10625386365E+04  0.20854853796E+04  0.12699999809E+01 0. -1.
       -4    1    3    3    0  502  0.18767869672E+03  0.17846669180E+04  0.87242727190E+03  0.19953421409E+04  0.12699999809E+01 0.  1.
</event>
<event>
 5   0  0.7236375E-08  0.3621257E+04  0.7818609E-02  0.8085640E-01
        1   -1    0    0  501    0  0.00000000000E+00  0.00000000000E+00  0.21636979906E+04  0.21636979906E+04  0.50400001928E-02 0.  1.
       -1   -1    0    0    0  501  0.00000000000E+00  0.00000000000E+00 -0.15151724889E+04  0.15151724889E+04  0.50400001928E-02 0. -1.
    10030    2    1    2    0    0  0.00000000000E+00  0.00000000000E+00  0.64852550162E+03  0.36788704795E+04  0.36212570578E+04 0.  0.
        1    1    3    3  502    0  0.14360798439E+04 -0.80994168102E+03  0.10845304471E+04  0.19734581666E+04  0.50400001928E-02 0.  1.
       -1    1    3    3    0  502 -0.14360798439E+04  0.80994168102E+03 -0.43600494544E+03  0.17054123129E+04  0.50400001928E-02 0. -1.
</event>
<event>
 5   0  0.2309391E-07  0.3643951E+04  0.7818609E-02  0.8080498E-01
       -2   -1    0    0    0  501  0.00000000000E+00  0.00000000000E+00  0.17176746033E+04  0.17176746033E+04  0.25500000920E-02 0. -1.
        2   -1    0    0  501    0  0.00000000000E+00  0.00000000000E+00 -0.19326098145E+04  0.19326098145E+04  0.25500000920E-02 0.  1.
    10030    2    1    2    0    0  0.00000000000E+00  0.00000000000E+00 -0.21493521118E+03  0.36502844178E+04  0.36439510406E+04 0.  0.
        4    1    3    3  502    0 -0.52457711087E+03 -0.16415912560E+04 -0.69975677045E+03  0.18600172439E+04  0.12699999809E+01 0.  1.
       -4    1    3    3    0  502  0.52457711087E+03  0.16415912560E+04  0.48482155927E+03  0.17902671739E+04  0.12699999809E+01 0. -1.
</event>
<event>
 5   0  0.7514289E-08  0.3605084E+04  0.7818609E-02  0.8089328E-01
        1   -1    0    0  501    0  0.00000000000E+00  0.00000000000E+00  0.29717351664E+04  0.29717351664E+04  0.50400001928E-02 0.  1.
       -1   -1    0    0    0  501  0.00000000000E+00  0.00000000000E+00 -0.10933536386E+04  0.10933536386E+04  0.50400001928E-02 0. -1.
    10030    2    1    2    0    0  0.00000000000E+00  0.00000000000E+00  0.18783815278E+04  0.40650888050E+04  0.36050838865E+04 0.  0.
        4    1    3    3  502    0 -0.12262447255E+03  0.17173316259E+04  0.15410489292E+04  0.23106488461E+04  0.12699999809E+01 0.  1.
       -4    1    3    3    0  502  0.12262447255E+03 -0.17173316259E+04  0.33733259863E+03  0.17544399590E+04  0.12699999809E+01 0. -1.
</event>
<event>
 5   0  0.2199902E-07  0.3657149E+04  0.7818609E-02  0.8077525E-01
       -2   -1    0    0    0  501  0.00000000000E+00  0.00000000000E+00  0.13240204234E+04  0.13240204235E+04  0.25500000920E-02 0.  1.
        2   -1    0    0  501    0  0.00000000000E+00  0.00000000000E+00 -0.25254028961E+04  0.25254028961E+04  0.25500000920E-02 0. -1.
    10030    2    1    2    0    0  0.00000000000E+00  0.00000000000E+00 -0.12013824727E+04  0.38494233196E+04  0.36571491695E+04 0.  0.
        1    1    3    3  502    0 -0.17598631449E+04  0.46221713345E+03 -0.40970749449E+03  0.18651067525E+04  0.50400001928E-02 0.  1.
       -1    1    3    3    0  502  0.17598631449E+04 -0.46221713345E+03 -0.79167497820E+03  0.19843165671E+04  0.50400001928E-02 0. -1.
</event>
<event>
 5   0  0.7261233E-08  0.3602958E+04  0.7818609E-02  0.8089815E-01
       -1   -1    0    0    0  501  0.00000000000E+00  0.00000000000E+00  0.13998967756E+04  0.13998967756E+04  0.50400001928E-02 0.  1.
        1   -1    0    0  501    0  0.00000000000E+00  0.00000000000E+00 -0.23182608946E+04  0.23182608946E+04  0.50400001928E-02 0. -1.
    10030    2    1    2    0    0  0.00000000000E+00  0.00000000000E+00 -0.91836411906E+03  0.37181576702E+04  0.36029576469E+04 0.  0.
        3    1    3    3  502    0 -0.74391800255E+03  0.80138029635E+03 -0.19366360382E+04  0.22240016926E+04  0.10100000352E+00 0. -1.
       -3    1    3    3    0  502  0.74391800255E+03 -0.80138029635E+03  0.10182719192E+04  0.14941559776E+04  0.10100000352E+00 0.  1.
</event>
<event>
 5   0  0.2238968E-07  0.3588937E+04  0.7818609E-02  0.8093030E-01
       -2   -1    0    0    0  501  0.00000000000E+00  0.00000000000E+00  0.22710342115E+04  0.22710342115E+04  0.25500000920E-02 0. -1.
        2   -1    0    0  501    0  0.00000000000E+00  0.00000000000E+00 -0.14179081654E+04  0.14179081654E+04  0.25500000920E-02 0.  1.
    10030    2    1    2    0    0  0.00000000000E+00  0.00000000000E+00  0.85312604609E+03  0.36889423769E+04  0.35889374207E+04 0.  0.
        3    1    3    3  502    0 -0.13200499519E+04 -0.38596450037E+03  0.16113382513E+04  0.21184691268E+04  0.10100000352E+00 0. -1.
       -3    1    3    3    0  502  0.13200499519E+04  0.38596450037E+03 -0.75821220523E+03  0.15704732501E+04  0.10100000352E+00 0.  1.
</event>
<event>
 5   0  0.7236375E-08  0.3604786E+04  0.7818609E-02  0.8089396E-01
        1   -1    0    0  501    0  0.00000000000E+00  0.00000000000E+00  0.15993657421E+04  0.15993657421E+04  0.50400001928E-02 0. -1.
       -1   -1    0    0    0  501  0.00000000000E+00  0.00000000000E+00 -0.20311926512E+04  0.20311926512E+04  0.50400001928E-02 0.  1.
    10030    2    1    2    0    0  0.00000000000E+00  0.00000000000E+00 -0.43182690913E+03  0.36305583934E+04  0.36047856758E+04 0.  0.
        5    1    3    3  502    0 -0.15833686695E+04  0.55009857068E+03  0.45134353159E+03  0.17359141264E+04  0.46999998093E+01 0. -1.
       -5    1    3    3    0  502  0.15833686695E+04 -0.55009857068E+03 -0.88317044072E+03  0.18946442669E+04  0.46999998093E+01 0.  1.
</event>
<event>
 5   0  0.2199902E-07  0.3611969E+04  0.7818609E-02  0.8087755E-01
        2   -1    0    0  501    0  0.00000000000E+00  0.00000000000E+00  0.21209164270E+04  0.21209164270E+04  0.25500000920E-02 0.  1.
       -2   -1    0    0    0  501  0.00000000000E+00  0.00000000000E+00 -0.15378167027E+04  0.15378167027E+04  0.25500000920E-02 0. -1.
    10030    2    1    2    0    0  0.00000000000E+00  0.00000000000E+00  0.58309972429E+03  0.36587331297E+04  0.36119693833E+04 0.  0.
        1    1    3    3  502    0 -0.27242254464E+03 -0.27609657262E+02 -0.15166679635E+04  0.15411872202E+04  0.50400001928E-02 0. -1.
       -1    1    3    3    0  502  0.27242254464E+03  0.27609657262E+02  0.20997676878E+04  0.21175459095E+04  0.50400001928E-02 0.  1.
</event>
<event>
 5   0  0.2238968E-07  0.3597897E+04  0.7818609E-02  0.8090974E-01
        2   -1    0    0  501    0  0.00000000000E+00  0.00000000000E+00  0.22136580181E+04  0.22136580181E+04  0.25500000920E-02 0. -1.
       -2   -1    0    0    0  501  0.00000000000E+00  0.00000000000E+00 -0.14619308701E+04  0.14619308701E+04  0.25500000920E-02 0.  1.
    10030    2    1    2    0    0  0.00000000000E+00  0.00000000000E+00  0.75172714800E+03  0.36755888882E+04  0.35978966036E+04 0.  0.
        3    1    3    3  502    0  0.35120306126E+02  0.94260151786E+03 -0.11890380569E+04  0.15177425896E+04  0.10100000352E+00 0.  1.
       -3    1    3    3    0  502 -0.35120306126E+02 -0.94260151786E+03  0.19407652049E+04  0.21578462986E+04  0.10100000352E+00 0. -1.
</event>
<event>
 5   0  0.7236375E-08  0.3615406E+04  0.7818609E-02  0.8086972E-01
       -3   -1    0    0    0  501  0.00000000000E+00  0.00000000000E+00  0.12583087147E+04  0.12583087187E+04  0.10100000352E+00 0. -1.
        3   -1    0    0  501    0  0.00000000000E+00  0.00000000000E+00 -0.25969706427E+04  0.25969706447E+04  0.10100000352E+00 0.  1.
    10030    2    1    2    0    0  0.00000000000E+00  0.00000000000E+00 -0.13386619281E+04  0.38552793634E+04  0.36154063689E+04 0.  0.
        1    1    3    3  502    0  0.86255251145E+03 -0.10057101589E+04 -0.19806960125E+04  0.23829826799E+04  0.50400001928E-02 0.  1.
       -1    1    3    3    0  502 -0.86255251145E+03  0.10057101589E+04  0.64203408444E+03  0.14722966835E+04  0.50400001928E-02 0. -1.
</event>
<event>
 5   0  0.7514289E-08  0.3581547E+04  0.7818609E-02  0.8094732E-01
       -1   -1    0    0    0  501  0.00000000000E+00  0.00000000000E+00  0.21735541876E+04  0.21735541876E+04  0.50400001928E-02 0. -1.
        1   -1    0    0  501    0  0.00000000000E+00  0.00000000000E+00 -0.14754035382E+04  0.14754035382E+04  0.50400001928E-02 0.  1.
    10030    2    1    2    0    0  0.00000000000E+00  0.00000000000E+00  0.69815064940E+03  0.36489577258E+04  0.35815468943E+04 0.  0.
        4    1    3    3  502    0  0.96926960834E+03  0.72269064291E+03  0.16949625509E+04  0.20819858311E+04  0.12699999809E+01 0. -1.
       -4    1    3    3    0  502 -0.96926960834E+03 -0.72269064291E+03 -0.99681190152E+03  0.15669718947E+04  0.12699999809E+01 0.  1.
</event>
<event>
 5   0  0.7347303E-08  0.3460232E+04  0.7818609E-02  0.8123280E-01
       -1   -1    0    0    0  501  0.00000000000E+00  0.00000000000E+00  0.23336689124E+04  0.23336689124E+04  0.50400001928E-02 0.  1.
        1   -1    0    0  501    0  0.00000000000E+00  0.00000000000E+00 -0.12826589408E+04  0.12826589408E+04  0.50400001928E-02 0. -1.
    10030    2    1    2    0    0  0.00000000000E+00  0.00000000000E+00  0.10510099716E+04  0.36163278532E+04  0.34602319549E+04 0.  0.
        2    1    3    3  502    0 -0.23948073708E+02  0.15847508808E+04  0.12505535548E+04  0.20188841121E+04  0.25500000920E-02 0. -1.
       -2    1    3    3    0  502  0.23948073708E+02 -0.15847508808E+04 -0.19954358322E+03  0.15974437411E+04  0.25500000920E-02 0.  1.
</event>
<event>
 5   0  0.2309391E-07  0.3590093E+04  0.7818609E-02  0.8092765E-01
       -2   -1    0    0    0  501  0.00000000000E+00  0.00000000000E+00  0.15856140155E+04  0.15856140155E+04  0.25500000920E-02 0.  1.
        2   -1    0    0  501    0  0.00000000000E+00  0.00000000000E+00 -0.20321419465E+04  0.20321419465E+04  0.25500000920E-02 0. -1.
    10030    2    1    2    0    0  0.00000000000E+00  0.00000000000E+00 -0.44652793098E+03  0.36177559620E+04  0.35900934538E+04 0.  0.
        4    1    3    3  502    0  0.17283596503E+04  0.44104441873E+03 -0.20607756000E+02  0.17838647798E+04  0.12699999809E+01 0. -1.
       -4    1    3    3    0  502 -0.17283596503E+04 -0.44104441873E+03 -0.42592017497E+03  0.18338911822E+04  0.12699999809E+01 0.  1.
</event>
<event>
 5   0  0.2199902E-07  0.3585822E+04  0.7818609E-02  0.8093747E-01
        2   -1    0    0  501    0  0.00000000000E+00  0.00000000000E+00  0.17125655074E+04  0.17125655074E+04  0.25500000920E-02 0.  1.
       -2   -1    0    0    0  501  0.00000000000E+00  0.00000000000E+00 -0.18770258256E+04  0.18770258256E+04  0.25500000920E-02 0. -1.
    10030    2    1    2    0    0  0.00000000000E+00  0.00000000000E+00 -0.16446031826E+03  0.35895913330E+04  0.35858219060E+04 0.  0.
        1    1    3    3  502    0 -0.33317256014E+03  0.13716940965E+04  0.10243643858E+04  0.17440960536E+04  0.50400001928E-02 0.  1.
       -1    1    3    3    0  502  0.33317256014E+03 -0.13716940965E+04 -0.11888247040E+04  0.18454952794E+04  0.50400001928E-02 0. -1.
</event>
<event>
 5   0  0.7236375E-08  0.3583769E+04  0.7818609E-02  0.8094220E-01
        1   -1    0    0  501    0  0.00000000000E+00  0.00000000000E+00  0.18444769990E+04  0.18444769990E+04  0.50400001928E-02 0.  1.
       -1   -1    0    0    0  501  0.00000000000E+00  0.00000000000E+00 -0.17407912451E+04  0.17407912451E+04  0.50400001928E-02 0. -1.
    10030    2    1    2    0    0  0.00000000000E+00  0.00000000000E+00  0.10368575394E+03  0.35852682441E+04  0.35837686375E+04 0.  0.
        1    1    3    3  502    0  0.28404640419E+03 -0.10198239127E+04 -0.13944889684E+04  0.17508062873E+04  0.50400001928E-02 0. -1.
       -1    1    3    3    0  502 -0.28404640419E+03  0.10198239127E+04  0.14981747223E+04  0.18344619569E+04  0.50400001928E-02 0.  1.
</event>
<event>
 5   0  0.2342606E-07  0.3589713E+04  0.7818609E-02  0.8092852E-01
        2   -1    0    0  501    0  0.00000000000E+00  0.00000000000E+00  0.13806543119E+04  0.13806543119E+04  0.25500000920E-02 0.  1.
       -2   -1    0    0    0  501  0.00000000000E+00  0.00000000000E+00 -0.23333213869E+04  0.23333213869E+04  0.25500000920E-02 0. -1.
    10030    2    1    2    0    0  0.00000000000E+00  0.00000000000E+00 -0.95266707499E+03  0.37139756988E+04  0.35897132107E+04 0.  0.
        5    1    3    3  502    0 -0.52611427269E+02 -0.14758840118E+04 -0.15316860366E+04  0.21276949460E+04  0.46999998093E+01 0. -1.
       -5    1    3    3    0  502  0.52611427269E+02  0.14758840118E+04  0.57901896161E+03  0.15862807528E+04  0.46999998093E+01 0.  1.
</event>
<event>
 5   0  0.7514289E-08  0.3603260E+04  0.7818609E-02  0.8089745E-01
        1   -1    0    0  501    0  0.00000000000E+00  0.00000000000E+00  0.21182834908E+04  0.21182834908E+04  0.50400001928E-02 0.  1.
       -1   -1    0    0    0  501  0.00000000000E+00  0.00000000000E+00 -0.15323119906E+04  0.15323119907E+04  0.50400001928E-02 0. -1.
    10030    2    1    2    0    0  0.00000000000E+00  0.00000000000E+00  0.58597150017E+03  0.36505954815E+04  0.36032602973E+04 0.  0.
        4    1    3    3  502    0 -0.16906507632E+04  0.11214548559E+03 -0.32742546017E+03  0.17257130868E+04  0.12699999809E+01 0. -1.
       -4    1    3    3    0  502  0.16906507632E+04 -0.11214548559E+03  0.91339696034E+03  0.19248823946E+04  0.12699999809E+01 0.  1.
</event>
<event>
 5   0  0.7261233E-08  0.3621186E+04  0.7818609E-02  0.8085656E-01
       -1   -1    0    0    0  501  0.00000000000E+00  0.00000000000E+00  0.17090913396E+04  0.17090913396E+04  0.50400001928E-02 0.  1.
        1   -1    0    0  501    0  0.00000000000E+00  0.00000000000E+00 -0.19181228536E+04  0.19181228536E+04  0.50400001928E-02 0. -1.
    10030    2    1    2    0    0  0.00000000000E+00  0.00000000000E+00 -0.20903151400E+03  0.36272141932E+04  0.36211860805E+04 0.  0.
        3    1    3    3  502    0 -0.15889555551E+03 -0.17061635023E+04  0.48127009070E+03  0.17798490398E+04  0.10100000352E+00 0.  1.
       -3    1    3    3    0  502  0.15889555551E+03  0.17061635023E+04 -0.69030160469E+03  0.18473651534E+04  0.10100000352E+00 0. -1.
</event>
<event>
 5   0  0.7347303E-08  0.3597444E+04  0.7818609E-02  0.8091077E-01
        1   -1    0    0  501    0  0.00000000000E+00  0.00000000000E+00  0.13926166459E+04  0.13926166459E+04  0.50400001928E-02 0.  1.
       -1   -1    0    0    0  501  0.00000000000E+00  0.00000000000E+00 -0.23232527409E+04  0.23232527409E+04  0.50400001928E-02 0. -1.
    10030    2    1    2    0    0  0.00000000000E+00  0.00000000000E+00 -0.93063609499E+03  0.37158693869E+04  0.35974437812E+04 0.  0.
        2    1    3    3  502    0 -0.21931883839E+03 -0.74428869258E+03 -0.21414932061E+04  0.22777312314E+04  0.25500000920E-02 0. -1.
       -2    1    3    3    0  502  0.21931883839E+03  0.74428869258E+03  0.12108571111E+04  0.14381381555E+04  0.25500000920E-02 0.  1.
</event>
<event>
 5   0  0.2309391E-07  0.3603442E+04  0.7818609E-02  0.8089704E-01
       -2   -1    0    0    0  501  0.00000000000E+00  0.00000000000E+00  0.16094294497E+04  0.16094294497E+04  0.25500000920E-02 0.  1.
        2   -1    0    0  501    0  0.00000000000E+00  0.00000000000E+00 -0.20169877357E+04  0.20169877357E+04  0.25500000920E-02 0. -1.
    10030    2    1    2    0    0  0.00000000000E+00  0.00000000000E+00 -0.40755828599E+03  0.36264171853E+04  0.36034424993E+04 0.  0.
        4    1    3    3  502    0  0.73519169950E+03  0.16441932702E+04 -0.25224743522E+03  0.18186557470E+04  0.12699999809E+01 0. -1.
       -4    1    3    3    0  502 -0.73519169950E+03 -0.16441932702E+04 -0.15531085077E+03  0.18077614383E+04  0.12699999809E+01 0.  1.
</event>
<event>
 5   0  0.7236375E-08  0.3583243E+04  0.7818609E-02  0.8094341E-01
        1   -1    0    0  501    0  0.00000000000E+00  0.00000000000E+00  0.27430477420E+04  0.27430477420E+04  0.50400001928E-02 0. -1.
       -1   -1    0    0    0  501  0.00000000000E+00  0.00000000000E+00 -0.11701973806E+04  0.11701973806E+04  0.50400001928E-02 0.  1.
    10030    2    1    2    0    0  0.00000000000E+00  0.00000000000E+00  0.15728503614E+04  0.39132451225E+04  0.35832428232E+04 0.  0.
        1    1    3    3  502    0 -0.39570870028E+03  0.20757631949E+03 -0.11083641897E+04  0.11950499910E+04  0.50400001928E-02 0.  1.
       -1    1    3    3    0  502  0.39570870028E+03 -0.20757631949E+03  0.26812145511E+04  0.27181951315E+04  0.50400001928E-02 0. -1.
</event>
<event>
 5   0  0.7261233E-08  0.3604578E+04  0.7818609E-02  0.8089444E-01
       -1   -1    0    0    0  501  0.00000000000E+00  0.00000000000E+00  0.23251561164E+04  0.23251561164E+04  0.50400001928E-02 0. -1.
        1   -1    0    0  501    0  0.00000000000E+00  0.00000000000E+00 -0.13970012286E+04  0.13970012286E+04  0.50400001928E-02 0.  1.
    10030    2    1    2    0    0  0.00000000000E+00  0.00000000000E+00  0.92815488777E+03  0.37221573449E+04  0.36045781729E+04 0.  0.
        3    1    3    3  502    0  0.93812280767E+03 -0.43475518140E+03 -0.10602728748E+04  0.14809676057E+04  0.10100000352E+00 0.  1.
       -3    1    3    3    0  502 -0.93812280767E+03  0.43475518140E+03  0.19884277626E+04  0.22411897392E+04  0.10100000352E+00 0. -1.
</event>
<event>
 5   0  0.2198900E-07  0.3584081E+04  0.7818609E-02  0.8094148E-01
        2   -1    0    0  501    0  0.00000000000E+00  0.00000000000E+00  0.20468611895E+04  0.20468611896E+04  0.25500000920E-02 0.  1.
       -2   -1    0    0    0  501  0.00000000000E+00  0.00000000000E+00 -0.15689435206E+04  0.15689435206E+04  0.25500000920E-02 0. -1.
    10030    2    1    2    0    0  0.00000000000E+00  0.00000000000E+00  0.47791766894E+03  0.36158047102E+04  0.35840812496E+04 0.  0.
        2    1    3    3  502    0 -0.75815573587E+03  0.10946804469E+04 -0.97094115973E+03  0.16479842646E+04  0.25500000920E-02 0. -1.
       -2    1    3    3    0  502  0.75815573587E+03 -0.10946804469E+04  0.14488588287E+04  0.19678204456E+04  0.25500000920E-02 0.  1.
</event>
<event>
 5   0  0.2309391E-07  0.3598081E+04  0.7818609E-02  0.8090931E-01
        2   -1    0    0  501    0  0.00000000000E+00  0.00000000000E+00  0.29934901999E+04  0.29934901999E+04  0.25500000920E-02 0. -1.
       -2   -1    0    0    0  501  0.00000000000E+00  0.00000000000E+00 -0.10811952794E+04  0.10811952794E+04  0.25500000920E-02 0.  1.
    10030    2    1    2    0    0  0.00000000000E+00  0.00000000000E+00  0.19122949204E+04  0.40746854793E+04  0.35980814183E+04 0.  0.
        4    1    3    3  502    0 -0.29115372319E+03 -0.17732205130E+04  0.10539882688E+04  0.20832605123E+04  0.12699999809E+01 0.  1.
       -4    1    3    3    0  502  0.29115372319E+03  0.17732205130E+04  0.85830665167E+03  0.19914249671E+04  0.12699999809E+01 0. -1.
</event>
<event>
 5   0  0.7236375E-08  0.3564743E+04  0.7818609E-02  0.8098616E-01
       -1   -1    0    0    0  501  0.00000000000E+00  0.00000000000E+00  0.23279164043E+04  0.23279164043E+04  0.50400001928E-02 0.  1.
        1   -1    0    0  501    0  0.00000000000E+00  0.00000000000E+00 -0.13646745331E+04  0.13646745331E+04  0.50400001928E-02 0. -1.
    10030    2    1    2    0    0  0.00000000000E+00  0.00000000000E+00  0.96324187116E+03  0.36925909374E+04  0.35647430382E+04 0.  0.
        5    1    3    3  502    0 -0.78458019322E+03  0.39929696546E+03  0.20869844146E+04  0.22650673683E+04  0.46999998093E+01 0.  1.
       -5    1    3    3    0  502  0.78458019322E+03 -0.39929696546E+03 -0.11237425435E+04  0.14275235690E+04  0.46999998093E+01 0. -1.
</event>
<event>
 5   0  0.2309391E-07  0.3413825E+04  0.7818609E-02  0.8134522E-01
        2   -1    0    0  501    0  0.00000000000E+00  0.00000000000E+00  0.30022616327E+04  0.30022616327E+04  0.25500000920E-02 0. -1.
       -2   -1    0    0    0  501  0.00000000000E+00  0.00000000000E+00 -0.97045154909E+03  0.97045154909E+03  0.25500000920E-02 0.  1.
    10030    2    1    2    0    0  0.00000000000E+00  0.00000000000E+00  0.20318100836E+04  0.39727131818E+04  0.34138245135E+04 0.  0.
        4    1    3    3  502    0 -0.18849030028E+03 -0.44076682839E+03 -0.89050602238E+03  0.10113390031E+04  0.12699999809E+01 0.  1.
       -4    1    3    3    0  502  0.18849030028E+03  0.44076682839E+03  0.29223161060E+04  0.29613741788E+04  0.12699999809E+01 0. -1.
</event>
<event>
 5   0  0.7347303E-08  0.3583839E+04  0.7818609E-02  0.8094204E-01
       -1   -1    0    0    0  501  0.00000000000E+00  0.00000000000E+00  0.11574770861E+04  0.11574770862E+04  0.50400001928E-02 0. -1.
        1   -1    0    0  501    0  0.00000000000E+00  0.00000000000E+00 -0.27741160635E+04  0.27741160635E+04  0.50400001928E-02 0.  1.
    10030    2    1    2    0    0  0.00000000000E+00  0.00000000000E+00 -0.16166389773E+04  0.39315931496E+04  0.35838391581E+04 0.  0.
        2    1    3    3  502    0  0.17301444552E+04  0.30006880425E+03 -0.12000921840E+04  0.21268903059E+04  0.25500000920E-02 0. -1.
       -2    1    3    3    0  502 -0.17301444552E+04 -0.30006880425E+03 -0.41654679334E+03  0.18047028437E+04  0.25500000920E-02 0.  1.
</event>
<event>
 5   0  0.2342606E-07  0.3596888E+04  0.7818609E-02  0.8091205E-01
        2   -1    0    0  501    0  0.00000000000E+00  0.00000000000E+00  0.22888966334E+04  0.22888966334E+04  0.25500000920E-02 0. -1.
       -2   -1    0    0    0  501  0.00000000000E+00  0.00000000000E+00 -0.14130830502E+04  0.14130830502E+04  0.25500000920E-02 0.  1.
    10030    2    1    2    0    0  0.00000000000E+00  0.00000000000E+00  0.87581358317E+03  0.37019796836E+04  0.35968881196E+04 0.  0.
        5    1    3    3  502    0  0.16735243226E+04 -0.61795608645E+03  0.20360310776E+03  0.17955583250E+04  0.46999998093E+01 0.  1.
       -5    1    3    3    0  502 -0.16735243226E+04  0.61795608645E+03  0.67221047542E+03  0.19064213586E+04  0.46999998093E+01 0. -1.
</event>
<event>
 5   0  0.7514289E-08  0.3601123E+04  0.7818609E-02  0.8090235E-01
       -1   -1    0    0    0  501  0.00000000000E+00  0.00000000000E+00  0.15935580030E+04  0.15935580030E+04  0.50400001928E-02 0. -1.
        1   -1    0    0  501    0  0.00000000000E+00  0.00000000000E+00 -0.20344547047E+04  0.20344547047E+04  0.50400001928E-02 0.  1.
    10030    2    1    2    0    0  0.00000000000E+00  0.00000000000E+00 -0.44089670174E+03  0.36280127077E+04  0.36011229229E+04 0.  0.
        4    1    3    3  502    0  0.24549870700E+03 -0.90300099792E+03  0.13293292666E+04  0.16256685791E+04  0.12699999809E+01 0. -1.
       -4    1    3    3    0  502 -0.24549870700E+03  0.90300099792E+03 -0.17702259683E+04  0.20023441285E+04  0.12699999809E+01 0.  1.
</event>
<event>
 5   0  0.2238968E-07  0.3589503E+04  0.7818609E-02  0.8092900E-01
       -2   -1    0    0    0  501  0.00000000000E+00  0.00000000000E+00  0.12055781106E+04  0.12055781106E+04  0.25500000920E-02 0. -1.
        2   -1    0    0  501    0  0.00000000000E+00  0.00000000000E+00 -0.26718577504E+04  0.26718577504E+04  0.25500000920E-02 0.  1.
    10030    2    1    2    0    0  0.00000000000E+00  0.00000000000E+00 -0.14662796398E+04  0.38774358610E+04  0.35895031514E+04 0.  0.
        3    1    3    3  502    0 -0.78476973699E+03  0.85482630487E+03 -0.22121045991E+04  0.24979988629E+04  0.10100000352E+00 0.  1.
       -3    1    3    3    0  502  0.78476973699E+03 -0.85482630487E+03  0.74582495924E+03  0.13794369981E+04  0.10100000352E+00 0. -1.
</event>
<event>
 5   0  0.7236375E-08  0.3584302E+04  0.7818609E-02  0.8094097E-01
       -4   -1    0    0    0  501  0.00000000000E+00  0.00000000000E+00  0.15312442721E+04  0.15312447987E+04  0.12699999809E+01 0. -1.
        4   -1    0    0  501    0  0.00000000000E+00  0.00000000000E+00 -0.20975118986E+04  0.20975122831E+04  0.12699999809E+01 0.  1.
    10030    2    1    2    0    0  0.00000000000E+00  0.00000000000E+00 -0.56626762658E+03  0.36287570818E+04  0.35843017359E+04 0.  0.
        1    1    3    3  502    0 -0.11514947305E+04 -0.13680291677E+04 -0.40445674069E+03  0.18333109865E+04  0.50400001928E-02 0.  1.
       -1    1    3    3    0  502  0.11514947305E+04  0.13680291677E+04 -0.16181088589E+03  0.17954460953E+04  0.50400001928E-02 0. -1.
</event>
<event>
 5   0  0.2198900E-07  0.3596217E+04  0.7818609E-02  0.8091359E-01
        2   -1    0    0  501    0  0.00000000000E+00  0.00000000000E+00  0.20371719981E+04  0.20371719981E+04  0.25500000920E-02 0. -1.
       -2   -1    0    0    0  501  0.00000000000E+00  0.00000000000E+00 -0.15870988692E+04  0.15870988692E+04  0.25500000920E-02 0.  1.
    10030    2    1    2    0    0  0.00000000000E+00  0.00000000000E+00  0.45007312892E+03  0.36242708674E+04  0.35962165534E+04 0.  0.
        2    1    3    3  502    0 -0.12580484661E+04 -0.19274972224E+02 -0.10695606543E+04  0.16513683602E+04  0.25500000920E-02 0.  1.
       -2    1    3    3    0  502  0.12580484661E+04  0.19274972224E+02  0.15196337832E+04  0.19729025072E+04  0.25500000920E-02 0. -1.
</event>
<event>
 5   0  0.2309391E-07  0.3601856E+04  0.7818609E-02  0.8090067E-01
        2   -1    0    0  501    0  0.00000000000E+00  0.00000000000E+00  0.21645278032E+04  0.21645278032E+04  0.25500000920E-02 0.  1.
       -2   -1    0    0    0  501  0.00000000000E+00  0.00000000000E+00 -0.14984059749E+04  0.14984059749E+04  0.25500000920E-02 0. -1.
    10030    2    1    2    0    0  0.00000000000E+00  0.00000000000E+00  0.66612182836E+03  0.36629337781E+04  0.36018558512E+04 0.  0.
        4    1    3    3  502    0 -0.10748331578E+03  0.13016763693E+04  0.15940165701E+04  0.20607776377E+04  0.12699999809E+01 0.  1.
       -4    1    3    3    0  502  0.10748331578E+03 -0.13016763693E+04 -0.92789474174E+03  0.16021561404E+04  0.12699999809E+01 0. -1.
</event>
<event>
 5   0  0.2342606E-07  0.3614435E+04  0.7818609E-02  0.8087193E-01
        2   -1    0    0  501    0  0.00000000000E+00  0.00000000000E+00  0.26211196888E+04  0.26211196888E+04  0.25500000920E-02 0. -1.
       -2   -1    0    0    0  501  0.00000000000E+00  0.00000000000E+00 -0.12460454368E+04  0.12460454368E+04  0.25500000920E-02 0.  1.
    10030    2    1    2    0    0  0.00000000000E+00  0.00000000000E+00  0.13750742520E+04  0.38671651256E+04  0.36144345215E+04 0.  0.
        5    1    3    3  502    0  0.24173982785E+03 -0.13220914044E+04 -0.60509953711E+03  0.14739509373E+04  0.46999998093E+01 0.  1.
       -5    1    3    3    0  502 -0.24173982785E+03  0.13220914044E+04  0.19801737891E+04  0.23932141883E+04  0.46999998093E+01 0. -1.
</event>
<event>
 5   0  0.7236375E-08  0.3603412E+04  0.7818609E-02  0.8089711E-01
        1   -1    0    0  501    0  0.00000000000E+00  0.00000000000E+00  0.14877236284E+04  0.14877236284E+04  0.50400001928E-02 0.  1.
       -1   -1    0    0    0  501  0.00000000000E+00  0.00000000000E+00 -0.21819536527E+04  0.21819536528E+04  0.50400001928E-02 0. -1.
    10030    2    1    2    0    0  0.00000000000E+00  0.00000000000E+00 -0.69423002436E+03  0.36696772811E+04  0.36034117196E+04 0.  0.
        1    1    3    3  502    0 -0.12853091510E+04 -0.71158621856E+03  0.71502657669E+03  0.16339025569E+04  0.50400001928E-02 0.  1.
       -1    1    3    3    0  502  0.12853091510E+04  0.71158621856E+03 -0.14092566010E+04  0.20357747242E+04  0.50400001928E-02 0. -1.
</event>
<event>
 5   0  0.7347303E-08  0.3604350E+04  0.7818609E-02  0.8089496E-01
       -1   -1    0    0    0  501  0.00000000000E+00  0.00000000000E+00  0.14808374377E+04  0.14808374377E+04  0.50400001928E-02 0.  1.
        1   -1    0    0  501    0  0.00000000000E+00  0.00000000000E+00 -0.21932416990E+04  0.21932416990E+04  0.50400001928E-02 0. -1.
    10030    2    1    2    0    0  0.00000000000E+00  0.00000000000E+00 -0.71240426131E+03  0.36740791367E+04  0.36043498264E+04 0.  0.
        2    1    3    3  502    0  0.16946445099E+04  0.35425744673E+03  0.15399658483E+03  0.17381119934E+04  0.25500000920E-02 0.  1.
       -2    1    3    3    0  502 -0.16946445099E+04 -0.35425744673E+03 -0.86640084614E+03  0.19359671432E+04  0.25500000920E-02 0. -1.
</event>
<event>
 5   0  0.2342606E-07  0.3608710E+04  0.7818609E-02  0.8088499E-01
       -2   -1    0    0    0  501  0.00000000000E+00  0.00000000000E+00  0.18361170376E+04  0.18361170376E+04  0.25500000920E-02 0. -1.
        2   -1    0    0  501    0  0.00000000000E+00  0.00000000000E+00 -0.17731428145E+04  0.17731428145E+04  0.25500000920E-02 0.  1.
    10030    2    1    2    0    0  0.00000000000E+00  0.00000000000E+00  0.62974223038E+02  0.36092598521E+04  0.36087104244E+04 0.  0.
        5    1    3    3  502    0  0.76323661669E+03 -0.20172151094E+03  0.16542180153E+04  0.18329432706E+04  0.46999998093E+01 0. -1.
       -5    1    3    3    0  502 -0.76323661669E+03  0.20172151094E+03 -0.15912437923E+04  0.17763165815E+04  0.46999998093E+01 0.  1.
</event>
<event>
 5   0  0.7261233E-08  0.3633581E+04  0.7818609E-02  0.8082843E-01
        1   -1    0    0  501    0  0.00000000000E+00  0.00000000000E+00  0.16582037858E+04  0.16582037858E+04  0.50400001928E-02 0.  1.
       -1   -1    0    0    0  501  0.00000000000E+00  0.00000000000E+00 -0.19905438548E+04  0.19905438548E+04  0.50400001928E-02 0. -1.
    10030    2    1    2    0    0  0.00000000000E+00  0.00000000000E+00 -0.33234006900E+03  0.36487476406E+04  0.36335807991E+04 0.  0.
        3    1    3    3  502    0  0.15700736921E+04 -0.89852789102E+03  0.25897058172E+01  0.18090026219E+04  0.10100000352E+00 0.  1.
       -3    1    3    3    0  502 -0.15700736921E+04  0.89852789102E+03 -0.33492977482E+03  0.18397450187E+04  0.10100000352E+00 0. -1.
</event>
<event>
 5   0  0.2199902E-07  0.3581447E+04  0.7818609E-02  0.8094755E-01
        2   -1    0    0  501    0  0.00000000000E+00  0.00000000000E+00  0.19449873644E+04  0.19449873644E+04  0.25500000920E-02 0.  1.
       -2   -1    0    0    0  501  0.00000000000E+00  0.00000000000E+00 -0.16486948900E+04  0.16486948900E+04  0.25500000920E-02 0. -1.
    10030    2    1    2    0    0  0.00000000000E+00  0.00000000000E+00  0.29629247447E+03  0.35936822544E+04  0.35814470421E+04 0.  0.
        1    1    3    3  502    0  0.11369604626E+04  0.10064210549E+04  0.11006670080E+04  0.18753747081E+04  0.50400001928E-02 0.  1.
       -1    1    3    3    0  502 -0.11369604626E+04 -0.10064210549E+04 -0.80437453356E+03  0.17183075463E+04  0.50400001928E-02 0. -1.
</event>
<event>
 5   0  0.7236375E-08  0.3536720E+04  0.7818609E-02  0.8105143E-01
       -1   -1    0    0    0  501  0.00000000000E+00  0.00000000000E+00  0.17698033698E+04  0.17698033698E+04  0.50400001928E-02 0.  1.
        1   -1    0    0  501    0  0.00000000000E+00  0.00000000000E+00 -0.17669176703E+04  0.17669176703E+04  0.50400001928E-02 0. -1.
    10030    2    1    2    0    0  0.00000000000E+00  0.00000000000E+00  0.28856995596E+01  0.35367210401E+04  0.35367198628E+04 0.  0.
        1    1    3    3  502    0 -0.16112430289E+04  0.24851659093E+03 -0.68356267234E+03  0.17678016068E+04  0.50400001928E-02 0. -1.
       -1    1    3    3    0  502  0.16112430289E+04 -0.24851659093E+03  0.68644837190E+03  0.17689194333E+04  0.50400001928E-02 0.  1.
</event>
<event>
 5   0  0.2199902E-07  0.3621524E+04  0.7818609E-02  0.8085579E-01
        2   -1    0    0  501    0  0.00000000000E+00  0.00000000000E+00  0.29075272839E+04  0.29075272839E+04  0.25500000920E-02 0. -1.
       -2   -1    0    0    0  501  0.00000000000E+00  0.00000000000E+00 -0.11277139936E+04  0.11277139936E+04  0.25500000920E-02 0.  1.
    10030    2    1    2    0    0  0.00000000000E+00  0.00000000000E+00  0.17798132903E+04  0.40352412776E+04  0.36215241018E+04 0.  0.
        1    1    3    3  502    0  0.62436838277E+03  0.15308623365E+04  0.17128483460E+04  0.23805933771E+04  0.50400001928E-02 0. -1.
       -1    1    3    3    0  502 -0.62436838277E+03 -0.15308623365E+04  0.66964944287E+02  0.16546479005E+04  0.50400001928E-02 0.  1.
</event>
<event>
 5   0  0.2199902E-07  0.3609462E+04  0.7818609E-02  0.8088328E-01
        2   -1    0    0  501    0  0.00000000000E+00  0.00000000000E+00  0.20897908192E+04  0.20897908192E+04  0.25500000920E-02 0.  1.
       -2   -1    0    0    0  501  0.00000000000E+00  0.00000000000E+00 -0.15585553766E+04  0.15585553766E+04  0.25500000920E-02 0. -1.
    10030    2    1    2    0    0  0.00000000000E+00  0.00000000000E+00  0.53123544261E+03  0.36483461958E+04  0.36094624072E+04 0.  0.
        1    1    3    3  502    0 -0.55955415291E+03 -0.21459610666E+03  0.19862790373E+04  0.20747184756E+04  0.50400001928E-02 0.  1.
       -1    1    3    3    0  502  0.55955415291E+03  0.21459610666E+03 -0.14550435947E+04  0.15736277201E+04  0.50400001928E-02 0. -1.
</event>
<event>
 5   0  0.2342606E-07  0.3604910E+04  0.7818609E-02  0.8089368E-01
        2   -1    0    0  501    0  0.00000000000E+00  0.00000000000E+00  0.16464116067E+04  0.16464116067E+04  0.25500000920E-02 0.  1.
       -2   -1    0    0    0  501  0.00000000000E+00  0.00000000000E+00 -0.19732880059E+04  0.19732880059E+04  0.25500000920E-02 0. -1.
    10030    2    1    2    0    0  0.00000000000E+00  0.00000000000E+00 -0.32687639918E+03  0.36196996126E+04  0.36049101383E+04 0.  0.
        5    1    3    3  502    0  0.45834343137E+03 -0.13620813508E+04 -0.12557790125E+04  0.19084934701E+04  0.46999998093E+01 0. -1.
       -5    1    3    3    0  502 -0.45834343137E+03  0.13620813508E+04  0.92890261327E+03  0.17112061425E+04  0.46999998093E+01 0.  1.
</event>
<event>
 5   0  0.2238968E-07  0.3611055E+04  0.7818609E-02  0.8087964E-01
        2   -1    0    0  501    0  0.00000000000E+00  0.00000000000E+00  0.21268545379E+04  0.21268545379E+04  0.25500000920E-02 0. -1.
       -2   -1    0    0    0  501  0.00000000000E+00  0.00000000000E+00 -0.15327466408E+04  0.15327466408E+04  0.25500000920E-02 0.  1.
    10030    2    1    2    0    0  0.00000000000E+00  0.00000000000E+00  0.59410789710E+03  0.36596011787E+04  0.36110547758E+04 0.  0.
        3    1    3    3  502    0 -0.60608157212E+03  0.31931746283E+03  0.19900301784E+04  0.21046421632E+04  0.10100000352E+00 0. -1.
       -3    1    3    3    0  502  0.60608157212E+03 -0.31931746283E+03 -0.13959222813E+04  0.15549590155E+04  0.10100000352E+00 0.  1.
</event>
<event>
 5   0  0.7347303E-08  0.3594728E+04  0.7818609E-02  0.8091700E-01
        1   -1    0    0  501    0  0.00000000000E+00  0.00000000000E+00  0.19238926380E+04  0.19238926380E+04  0.50400001928E-02 0. -1.
       -1   -1    0    0    0  501  0.00000000000E+00  0.00000000000E+00 -0.16791570974E+04  0.16791570974E+04  0.50400001928E-02 0.  1.
    10030    2    1    2    0    0  0.00000000000E+00  0.00000000000E+00  0.24473554059E+03  0.36030497353E+04  0.35947283500E+04 0.  0.
        2    1    3    3  502    0 -0.13365787628E+04 -0.10985769369E+04  0.61053103505E+03  0.18346831389E+04  0.25500000920E-02 0. -1.
       -2    1    3    3    0  502  0.13365787628E+04  0.10985769369E+04 -0.36579549446E+03  0.17683665964E+04  0.25500000920E-02 0.  1.
</event>
<event>
 5   0  0.7261233E-08  0.3582466E+04  0.7818609E-02  0.8094520E-01
        1   -1    0    0  501    0  0.00000000000E+00  0.00000000000E+00  0.15142025317E+04  0.15142025317E+04  0.50400001928E-02 0. -1.
       -1   -1    0    0    0  501  0.00000000000E+00  0.00000000000E+00 -0.21189480220E+04  0.21189480220E+04  0.50400001928E-02 0.  1.
    10030    2    1    2    0    0  0.00000000000E+00  0.00000000000E+00 -0.60474549028E+03  0.36331505537E+04  0.35824664462E+04 0.  0.
        3    1    3    3  502    0  0.66206679290E+03 -0.79381619865E+02 -0.19883862811E+04  0.20972157478E+04  0.10100000352E+00 0.  1.
       -3    1    3    3    0  502 -0.66206679290E+03  0.79381619865E+02  0.13836407908E+04  0.15359348059E+04  0.10100000352E+00 0. -1.
</event>
<event>
 5   0  0.7347303E-08  0.3608028E+04  0.7818609E-02  0.8088655E-01
        1   -1    0    0  501    0  0.00000000000E+00  0.00000000000E+00  0.26393959765E+04  0.26393959765E+04  0.50400001928E-02 0.  1.
       -1   -1    0    0    0  501  0.00000000000E+00  0.00000000000E+00 -0.12330348709E+04  0.12330348709E+04  0.50400001928E-02 0. -1.
    10030    2    1    2    0    0  0.00000000000E+00  0.00000000000E+00  0.14063611056E+04  0.38724308474E+04  0.36080284240E+04 0.  0.
        2    1    3    3  502    0 -0.17308419031E+04  0.15889214653E+03  0.12217065525E+04  0.21245299029E+04  0.25500000920E-02 0.  1.
       -2    1    3    3    0  502  0.17308419031E+04 -0.15889214653E+03  0.18465455311E+03  0.17479009445E+04  0.25500000920E-02 0. -1.
</event>
<event>
 5   0  0.7236375E-08  0.3603785E+04  0.7818609E-02  0.8089625E-01
       -1   -1    0    0    0  501  0.00000000000E+00  0.00000000000E+00  0.10470135226E+04  0.10470135226E+04  0.50400001928E-02 0. -1.
        1   -1    0    0  501    0  0.00000000000E+00  0.00000000000E+00 -0.31010261371E+04  0.31010261371E+04  0.50400001928E-02 0.  1.
    10030    2    1    2    0    0  0.00000000000E+00  0.00000000000E+00 -0.20540126145E+04  0.41480396598E+04  0.36037848436E+04 0.  0.
        1    1    3    3  502    0  0.14364273654E+04 -0.71467162588E+03 -0.19710818877E+04  0.25415040659E+04  0.50400001928E-02 0.  1.
       -1    1    3    3    0  502 -0.14364273654E+04  0.71467162588E+03 -0.82930726778E+02  0.16065355939E+04  0.50400001928E-02 0. -1.
</event>
<event>
 5   0  0.2309391E-07  0.3596118E+04  0.7818609E-02  0.8091382E-01
       -2   -1    0    0    0  501  0.00000000000E+00  0.00000000000E+00  0.24229922289E+04  0.24229922289E+04  0.25500000920E-02 0. -1.
        2   -1    0    0  501    0  0.00000000000E+00  0.00000000000E+00 -0.13343072191E+04  0.13343072191E+04  0.25500000920E-02 0.  1.
    10030    2    1    2    0    0  0.00000000000E+00  0.00000000000E+00  0.10886850098E+04  0.37572994480E+04  0.35961179195E+04 0.  0.
        4    1    3    3  502    0 -0.13713599881E+04  0.95867543800E+03 -0.14343831276E+03  0.16793638601E+04  0.12699999809E+01 0.  1.
       -4    1    3    3    0  502  0.13713599881E+04 -0.95867543800E+03  0.12321233226E+04  0.20779355878E+04  0.12699999809E+01 0. -1.
</event>
<event>
 5   0  0.7261233E-08  0.3632679E+04  0.7818609E-02  0.8083047E-01
       -1   -1    0    0    0  501  0.00000000000E+00  0.00000000000E+00  0.18817548994E+04  0.18817548994E+04  0.50400001928E-02 0.  1.
        1   -1    0    0  501    0  0.00000000000E+00  0.00000000000E+00 -0.17531979586E+04  0.17531979586E+04  0.50400001928E-02 0. -1.
    10030    2    1    2    0    0  0.00000000000E+00  0.00000000000E+00  0.12855694080E+03  0.36349528580E+04  0.36326788178E+04 0.  0.
        3    1    3    3  502    0  0.56242433006E+02 -0.55828779013E+03  0.17928552784E+04  0.18786107972E+04  0.10100000352E+00 0.  1.
       -3    1    3    3    0  502 -0.56242433006E+02  0.55828779013E+03 -0.16642983376E+04  0.17563420608E+04  0.10100000352E+00 0. -1.
</event>
<event>
 5   0  0.2198900E-07  0.3614214E+04  0.7818609E-02  0.8087244E-01
       -2   -1    0    0    0  501  0.00000000000E+00  0.00000000000E+00  0.17330296309E+04  0.17330296309E+04  0.25500000920E-02 0. -1.
        2   -1    0    0  501    0  0.00000000000E+00  0.00000000000E+00 -0.18843505050E+04  0.18843505050E+04  0.25500000920E-02 0.  1.
    10030    2    1    2    0    0  0.00000000000E+00  0.00000000000E+00 -0.15132087413E+03  0.36173801359E+04  0.36142137514E+04 0.  0.
        2    1    3    3  502    0 -0.59293805460E+02  0.15643510285E+04  0.82786260604E+03  0.17708942346E+04  0.25500000920E-02 0. -1.
       -2    1    3    3    0  502  0.59293805460E+02 -0.15643510285E+04 -0.97918348017E+03  0.18464859013E+04  0.25500000920E-02 0.  1.
</event>
<event>
 5   0  0.7236375E-08  0.3597639E+04  0.7818609E-02  0.8091033E-01
       -1   -1    0    0    0  501  0.00000000000E+00  0.00000000000E+00  0.26843700542E+04  0.26843700542E+04  0.50400001928E-02 0.  1.
        1   -1    0    0  501    0  0.00000000000E+00  0.00000000000E+00 -0.12054044465E+04  0.12054044465E+04  0.50400001928E-02 0. -1.
    10030    2    1    2    0    0  0.00000000000E+00  0.00000000000E+00  0.14789656077E+04  0.38897745007E+04  0.35976390032E+04 0.  0.
        5    1    3    3  502    0  0.16916493173E+04  0.34147923992E+03  0.19089234414E+03  0.17363028138E+04  0.46999998093E+01 0. -1.
       -5    1    3    3    0  502 -0.16916493173E+04 -0.34147923992E+03  0.12880732636E+04  0.21534716869E+04  0.46999998093E+01 0.  1.
</event>
<event>
 5   0  0.2309391E-07  0.3615492E+04  0.7818609E-02  0.8086952E-01
       -2   -1    0    0    0  501  0.00000000000E+00  0.00000000000E+00  0.21188752662E+04  0.21188752662E+04  0.25500000920E-02 0. -1.
        2   -1    0    0  501    0  0.00000000000E+00  0.00000000000E+00 -0.15423018815E+04  0.15423018815E+04  0.25500000920E-02 0.  1.
    10030    2    1    2    0    0  0.00000000000E+00  0.00000000000E+00  0.57657338470E+03  0.36611771478E+04  0.36154918392E+04 0.  0.
        4    1    3    3  502    0 -0.80544723798E+03  0.62249771308E+03 -0.12244759168E+04  0.15923540874E+04  0.12699999809E+01 0.  1.
       -4    1    3    3    0  502  0.80544723798E+03 -0.62249771308E+03  0.18010493015E+04  0.20688230604E+04  0.12699999809E+01 0. -1.
</event>
<event>
 5   0  0.2199902E-07  0.3607037E+04  0.7818609E-02  0.8088882E-01
       -2   -1    0    0    0  501  0.00000000000E+00  0.00000000000E+00  0.13549436436E+04  0.13549436436E+04  0.25500000920E-02 0.  1.
        2   -1    0    0  501    0  0.00000000000E+00  0.00000000000E+00 -0.24006014155E+04  0.24006014155E+04  0.25500000920E-02 0. -1.
    10030    2    1    2    0    0  0.00000000000E+00  0.00000000000E+00 -0.10456577719E+04  0.37555450591E+04  0.36070373597E+04 0.  0.
        1    1    3    3  502    0 -0.42601295384E+03 -0.32542657975E+03 -0.23157283307E+04  0.23769701717E+04  0.50400001928E-02 0. -1.
       -1    1    3    3    0  502  0.42601295384E+03  0.32542657975E+03  0.12700705588E+04  0.13785748873E+04  0.50400001928E-02 0.  1.
</event>
<event>
 5   0  0.2199902E-07  0.3610065E+04  0.7818609E-02  0.8088190E-01
       -2   -1    0    0    0  501  0.00000000000E+00  0.00000000000E+00  0.24566391293E+04  0.24566391293E+04  0.25500000920E-02 0. -1.
        2   -1    0    0  501    0  0.00000000000E+00  0.00000000000E+00 -0.13262600865E+04  0.13262600865E+04  0.25500000920E-02 0.  1.
    10030    2    1    2    0    0  0.00000000000E+00  0.00000000000E+00  0.11303790428E+04  0.37828992158E+04  0.36100650544E+04 0.  0.
        1    1    3    3  502    0 -0.43558027679E+03  0.14411008794E+02  0.24006789987E+04  0.24399175210E+04  0.50400001928E-02 0. -1.
       -1    1    3    3    0  502  0.43558027679E+03 -0.14411008794E+02 -0.12702999559E+04  0.13429816948E+04  0.50400001928E-02 0.  1.
</event>
<event>
 5   0  0.7514289E-08  0.3593858E+04  0.7818609E-02  0.8091900E-01
       -1   -1    0    0    0  501  0.00000000000E+00  0.00000000000E+00  0.14233028974E+04  0.14233028974E+04  0.50400001928E-02 0. -1.
        1   -1    0    0  501    0  0.00000000000E+00  0.00000000000E+00 -0.22686348371E+04  0.22686348371E+04  0.50400001928E-02 0.  1.
    10030    2    1    2    0    0  0.00000000000E+00  0.00000000000E+00 -0.84533193965E+03  0.36919377345E+04  0.35938583927E+04 0.  0.
        4    1    3    3  502    0  0.52797095617E+03 -0.72485416216E+03  0.11770029922E+04  0.14796974500E+04  0.12699999809E+01 0. -1.
       -4    1    3    3    0  502 -0.52797095617E+03  0.72485416216E+03 -0.20223349318E+04  0.22122402845E+04  0.12699999809E+01 0.  1.
</event>
<event>
 5   0  0.2309391E-07  0.3608326E+04  0.7818609E-02  0.8088587E-01
       -2   -1    0    0    0  501  0.00000000000E+00  0.00000000000E+00  0.12812706412E+04  0.12812706413E+04  0.25500000920E-02 0. -1.
        2   -1    0    0  501    0  0.00000000000E+00  0.00000000000E+00 -0.25404507879E+04  0.25404507879E+04  0.25500000920E-02 0.  1.
    10030    2    1    2    0    0  0.00000000000E+00  0.00000000000E+00 -0.12591801466E+04  0.38217214291E+04  0.36083264875E+04 0.  0.
        4    1    3    3  502    0 -0.79115909742E+03 -0.19559145216E+03 -0.23343819778E+04  0.24725552703E+04  0.12699999809E+01 0.  1.
       -4    1    3    3    0  502  0.79115909742E+03  0.19559145216E+03  0.10752018311E+04  0.13491661588E+04  0.12699999809E+01 0. -1.
</event>
<event>
 5   0  0.2309391E-07  0.3610411E+04  0.7818609E-02  0.8088111E-01
        2   -1    0    0  501    0  0.00000000000E+00  0.00000000000E+00  0.23651978847E+04  0.23651978847E+04  0.25500000920E-02 0.  1.
       -2   -1    0    0    0  501  0.00000000000E+00  0.00000000000E+00 -0.13777988107E+04  0.13777988107E+04  0.25500000920E-02 0. -1.
    10030    2    1    2    0    0  0.00000000000E+00  0.00000000000E+00  0.98739907402E+03  0.37429966955E+04  0.36104109643E+04 0.  0.
        4    1    3    3  502    0  0.28814304359E+03 -0.17820441831E+04  0.50154964196E+03  0.18735691982E+04  0.12699999809E+01 0. -1.
       -4    1    3    3    0  502 -0.28814304359E+03  0.17820441831E+04  0.48584943206E+03  0.18694274973E+04  0.12699999809E+01 0.  1.
</event>
<event>
 5   0  0.7347303E-08  0.3562263E+04  0.7818609E-02  0.8099191E-01
        1   -1    0    0  501    0  0.00000000000E+00  0.00000000000E+00  0.22994883684E+04  0.22994883685E+04  0.50400001928E-02 0. -1.
       -1   -1    0    0    0  501  0.00000000000E+00  0.00000000000E+00 -0.13796241106E+04  0.13796241106E+04  0.50400001928E-02 0.  1.
    10030    2    1    2    0    0  0.00000000000E+00  0.00000000000E+00  0.91986425784E+03  0.36791124791E+04  0.35622630982E+04 0.  0.
        2    1    3    3  502    0  0.42538139986E+03 -0.10234295155E+04  0.18999678927E+04  0.21995988956E+04  0.25500000920E-02 0. -1.
       -2    1    3    3    0  502 -0.42538139986E+03  0.10234295155E+04 -0.98010363483E+03  0.14795135834E+04  0.25500000920E-02 0.  1.
</event>
<event>
 5   0  0.2309391E-07  0.3598731E+04  0.7818609E-02  0.8090782E-01
        2   -1    0    0  501    0  0.00000000000E+00  0.00000000000E+00  0.13070471371E+04  0.13070471371E+04  0.25500000920E-02 0.  1.
       -2   -1    0    0    0  501  0.00000000000E+00  0.00000000000E+00 -0.24771225157E+04  0.24771225157E+04  0.25500000920E-02 0. -1.
    10030    2    1    2    0    0  0.00000000000E+00  0.00000000000E+00 -0.11700753786E+04  0.37841696529E+04  0.35987308277E+04 0.  0.
        4    1    3    3  502    0  0.15371001290E+04  0.48198057918E+03 -0.14280545513E+04  0.21527478951E+04  0.12699999809E+01 0. -1.
       -4    1    3    3    0  502 -0.15371001290E+04 -0.48198057918E+03  0.25797917274E+03  0.16314217578E+04  0.12699999809E+01 0.  1.
</event>
<event>
 5   0  0.7236375E-08  0.3633671E+04  0.7818609E-02  0.8082822E-01
       -1   -1    0    0    0  501  0.00000000000E+00  0.00000000000E+00  0.14740124806E+04  0.14740124806E+04  0.50400001928E-02 0. -1.
        1   -1    0    0  501    0  0.00000000000E+00  0.00000000000E+00 -0.22393916997E+04  0.22393916997E+04  0.50400001928E-02 0.  1.
    10030    2    1    2    0    0  0.00000000000E+00  0.00000000000E+00 -0.76537921912E+03  0.37134041804E+04  0.36336710443E+04 0.  0.
        5    1    3    3  502    0  0.14016752764E+04  0.51109815452E+03  0.67686078764E+03  0.16383154519E+04  0.46999998093E+01 0. -1.
       -5    1    3    3    0  502 -0.14016752764E+04 -0.51109815452E+03 -0.14422400068E+04  0.20750887285E+04  0.46999998093E+01 0.  1.
</event>
<event>
 5   0  0.7236375E-08  0.3599015E+04  0.7818609E-02  0.8090717E-01
        1   -1    0    0  501    0  0.00000000000E+00  0.00000000000E+00  0.19166566316E+04  0.19166566316E+04  0.50400001928E-02 0.  1.
       -1   -1    0    0    0  501  0.00000000000E+00  0.00000000000E+00 -0.16895184550E+04  0.16895184550E+04  0.50400001928E-02 0. -1.
    10030    2    1    2    0    0  0.00000000000E+00  0.00000000000E+00  0.22713817658E+03  0.36061750866E+04  0.35990147268E+04 0.  0.
        5    1    3    3  502    0 -0.89925076719E+03  0.14065465433E+04  0.78660445099E+03  0.18454792801E+04  0.46999998093E+01 0.  1.
       -5    1    3    3    0  502  0.89925076719E+03 -0.14065465433E+04 -0.55946627442E+03  0.17606958065E+04  0.46999998093E+01 0. -1.
</event>
<event>
 5   0  0.7236375E-08  0.3598894E+04  0.7818609E-02  0.8090745E-01
        1   -1    0    0  501    0  0.00000000000E+00  0.00000000000E+00  0.23906903148E+04  0.23906903148E+04  0.50400001928E-02 0. -1.
       -1   -1    0    0    0  501  0.00000000000E+00  0.00000000000E+00 -0.13544248432E+04  0.13544248432E+04  0.50400001928E-02 0.  1.
    10030    2    1    2    0    0  0.00000000000E+00  0.00000000000E+00  0.10362654716E+04  0.37451151580E+04  0.35988944718E+04 0.  0.
        5    1    3    3  502    0  0.81106266097E+03 -0.11712179044E+04 -0.62580920270E+03  0.15560312554E+04  0.46999998093E+01 0.  1.
       -5    1    3    3    0  502 -0.81106266097E+03  0.11712179044E+04  0.16620746743E+04  0.21890839026E+04  0.46999998093E+01 0. -1.
</event>
<event>
 5   0  0.7347303E-08  0.3567914E+04  0.7818609E-02  0.8097881E-01
        1   -1    0    0  501    0  0.00000000000E+00  0.00000000000E+00  0.17939746191E+04  0.17939746191E+04  0.50400001928E-02 0. -1.
       -1   -1    0    0    0  501  0.00000000000E+00  0.00000000000E+00 -0.17739955133E+04  0.17739955133E+04  0.50400001928E-02 0.  1.
    10030    2    1    2    0    0  0.00000000000E+00  0.00000000000E+00  0.19979105790E+02  0.35679701323E+04  0.35679141947E+04 0.  0.
        2    1    3    3  502    0 -0.14550255773E+04  0.10306660753E+04  0.65945194477E+02  0.17842983938E+04  0.25500000920E-02 0.  1.
       -2    1    3    3    0  502  0.14550255773E+04 -0.10306660753E+04 -0.45966088686E+02  0.17836717385E+04  0.25500000920E-02 0. -1.
</event>
<event>
 5   0  0.2238968E-07  0.3617503E+04  0.7818609E-02  0.8086494E-01
        2   -1    0    0  501    0  0.00000000000E+00  0.00000000000E+00  0.20307711458E+04  0.20307711458E+04  0.25500000920E-02 0. -1.
       -2   -1    0    0    0  501  0.00000000000E+00  0.00000000000E+00 -0.16110046203E+04  0.16110046203E+04  0.25500000920E-02 0.  1.
    10030    2    1    2    0    0  0.00000000000E+00  0.00000000000E+00  0.41976652549E+03  0.36417757661E+04  0.36175028396E+04 0.  0.
        3    1    3    3  502    0 -0.13036955355E+04 -0.12191066342E+03 -0.10463266461E+04  0.16760917993E+04  0.10100000352E+00 0.  1.
       -3    1    3    3    0  502  0.13036955355E+04  0.12191066342E+03  0.14660931716E+04  0.19656839668E+04  0.10100000352E+00 0. -1.
</event>
<event>
 5   0  0.2342606E-07  0.3596072E+04  0.7818609E-02  0.8091392E-01
        2   -1    0    0  501    0  0.00000000000E+00  0.00000000000E+00  0.10165534668E+04  0.10165534668E+04  0.25500000920E-02 0. -1.
       -2   -1    0    0    0  501  0.00000000000E+00  0.00000000000E+00 -0.31802881861E+04  0.31802881861E+04  0.25500000920E-02 0.  1.
    10030    2    1    2    0    0  0.00000000000E+00  0.00000000000E+00 -0.21637347193E+04  0.41968416530E+04  0.35960717352E+04 0.  0.
        5    1    3    3  502    0 -0.67882715777E+03 -0.14448610443E+04 -0.11631688585E+03  0.16006190851E+04  0.46999998093E+01 0. -1.
       -5    1    3    3    0  502  0.67882715777E+03  0.14448610443E+04 -0.20474178334E+04  0.25962225679E+04  0.46999998093E+01 0.  1.
</event>
<event>
 5   0  0.2198900E-07  0.3593680E+04  0.7818609E-02  0.8091941E-01
        2   -1    0    0  501    0  0.00000000000E+00  0.00000000000E+00  0.20969917255E+04  0.20969917255E+04  0.25500000920E-02 0. -1.
       -2   -1    0    0    0  501  0.00000000000E+00  0.00000000000E+00 -0.15396502613E+04  0.15396502614E+04  0.25500000920E-02 0.  1.
    10030    2    1    2    0    0  0.00000000000E+00  0.00000000000E+00  0.55734146419E+03  0.36366419869E+04  0.35936799291E+04 0.  0.
        2    1    3    3  502    0 -0.17997021353E+03  0.17500169006E+04  0.64867198106E+03  0.18750263383E+04  0.25500000920E-02 0. -1.
       -2    1    3    3    0  502  0.17997021353E+03 -0.17500169006E+04 -0.91330516866E+02  0.17616156486E+04  0.25500000920E-02 0.  1.
</event>
<event>
 5   0  0.7514289E-08  0.3597456E+04  0.7818609E-02  0.8091075E-01
       -1   -1    0    0    0  501  0.00000000000E+00  0.00000000000E+00  0.14730909040E+04  0.14730909040E+04  0.50400001928E-02 0. -1.
        1   -1    0    0  501    0  0.00000000000E+00  0.00000000000E+00 -0.21963500499E+04  0.21963500499E+04  0.50400001928E-02 0.  1.
    10030    2    1    2    0    0  0.00000000000E+00  0.00000000000E+00 -0.72325914589E+03  0.36694409540E+04  0.35974564796E+04 0.  0.
        4    1    3    3  502    0  0.14794267561E+04 -0.29273825542E+02 -0.14047666389E+04  0.20403262989E+04  0.12699999809E+01 0.  1.
       -4    1    3    3    0  502 -0.14794267561E+04  0.29273825542E+02  0.68150749296E+03  0.16291146551E+04  0.12699999809E+01 0. -1.
</event>
<event>
 5   0  0.2199902E-07  0.3588762E+04  0.7818609E-02  0.8093071E-01
        2   -1    0    0  501    0  0.00000000000E+00  0.00000000000E+00  0.18179491716E+04  0.18179491716E+04  0.25500000920E-02 0.  1.
       -2   -1    0    0    0  501  0.00000000000E+00  0.00000000000E+00 -0.17711182295E+04  0.17711182295E+04  0.25500000920E-02 0. -1.
    10030    2    1    2    0    0  0.00000000000E+00  0.00000000000E+00  0.46830942104E+02  0.35890674012E+04  0.35887618580E+04 0.  0.
        1    1    3    3  502    0  0.13642757934E+04 -0.73574876500E+03 -0.88066826082E+03  0.17827370169E+04  0.50400001928E-02 0. -1.
       -1    1    3    3    0  502 -0.13642757934E+04  0.73574876500E+03  0.92749920292E+03  0.18063303843E+04  0.50400001928E-02 0.  1.
</event>
<event>
 5   0  0.7347303E-08  0.3573245E+04  0.7818609E-02  0.8096648E-01
       -1   -1    0    0    0  501  0.00000000000E+00  0.00000000000E+00  0.15685013900E+04  0.15685013901E+04  0.50400001928E-02 0.  1.
        1   -1    0    0  501    0  0.00000000000E+00  0.00000000000E+00 -0.20350757322E+04  0.20350757322E+04  0.50400001928E-02 0. -1.
    10030    2    1    2    0    0  0.00000000000E+00  0.00000000000E+00 -0.46657434215E+03  0.36035771223E+04  0.35732445283E+04 0.  0.
        2    1    3    3  502    0 -0.15650281260E+04  0.70379138667E+03  0.26831184987E+03  0.17368438617E+04  0.25500000920E-02 0.  1.
       -2    1    3    3    0  502  0.15650281260E+04 -0.70379138667E+03 -0.73488619202E+03  0.18667332606E+04  0.25500000920E-02 0. -1.
</event>
<event>
 5   0  0.7236375E-08  0.3672393E+04  0.7818609E-02  0.8074107E-01
        1   -1    0    0  501    0  0.00000000000E+00  0.00000000000E+00  0.12187855038E+04  0.12187855038E+04  0.50400001928E-02 0. -1.
       -1   -1    0    0    0  501  0.00000000000E+00  0.00000000000E+00 -0.27663755747E+04  0.27663755747E+04  0.50400001928E-02 0.  1.
    10030    2    1    2    0    0  0.00000000000E+00  0.00000000000E+00 -0.15475900710E+04  0.39851610785E+04  0.36723934694E+04 0.  0.
        1    1    3    3  502    0 -0.27969815285E+03  0.57228637391E+03 -0.26426394479E+04  0.27183241165E+04  0.50400001928E-02 0.  1.
       -1    1    3    3    0  502  0.27969815285E+03 -0.57228637391E+03  0.10950493769E+04  0.12668369621E+04  0.50400001928E-02 0. -1.
</event>
<event>
 5   0  0.7261233E-08  0.3598909E+04  0.7818609E-02  0.8090742E-01
        1   -1    0    0  501    0  0.00000000000E+00  0.00000000000E+00  0.25933514645E+04  0.25933514645E+04  0.50400001928E-02 0. -1.
       -1   -1    0    0    0  501  0.00000000000E+00  0.00000000000E+00 -0.12485917786E+04  0.12485917786E+04  0.50400001928E-02 0.  1.
    10030    2    1    2    0    0  0.00000000000E+00  0.00000000000E+00  0.13447596859E+04  0.38419432431E+04  0.35989094557E+04 0.  0.
        3    1    3    3  502    0 -0.16210033868E+03 -0.34038939607E+03 -0.12059557801E+04  0.12635152609E+04  0.10100000352E+00 0.  1.
       -3    1    3    3    0  502  0.16210033868E+03  0.34038939607E+03  0.25507154660E+04  0.25784279822E+04  0.10100000352E+00 0. -1.
</event>
<event>
 5   0  0.7347303E-08  0.3588494E+04  0.7818609E-02  0.8093132E-01
       -1   -1    0    0    0  501  0.00000000000E+00  0.00000000000E+00  0.13421845525E+04  0.13421845525E+04  0.50400001928E-02 0. -1.
        1   -1    0    0  501    0  0.00000000000E+00  0.00000000000E+00 -0.23985693248E+04  0.23985693248E+04  0.50400001928E-02 0.  1.
    10030    2    1    2    0    0  0.00000000000E+00  0.00000000000E+00 -0.10563847724E+04  0.37407538773E+04  0.35884942223E+04 0.  0.
        2    1    3    3  502    0  0.11437020177E+04 -0.68633371618E+03  0.72281669125E+03  0.15170933539E+04  0.25500000920E-02 0. -1.
       -2    1    3    3    0  502 -0.11437020177E+04  0.68633371618E+03 -0.17792014636E+04  0.22236605234E+04  0.25500000920E-02 0.  1.
</event>
<event>
 5   0  0.7261233E-08  0.3417404E+04  0.7818609E-02  0.8133648E-01
        1   -1    0    0  501    0  0.00000000000E+00  0.00000000000E+00  0.12973611916E+04  0.12973611916E+04  0.50400001928E-02 0.  1.
       -1   -1    0    0    0  501  0.00000000000E+00  0.00000000000E+00 -0.22504617081E+04  0.22504617081E+04  0.50400001928E-02 0. -1.
    10030    2    1    2    0    0  0.00000000000E+00  0.00000000000E+00 -0.95310051651E+03  0.35478228997E+04  0.34174035075E+04 0.  0.
        3    1    3    3  502    0 -0.51493197756E+02  0.16301916585E+04 -0.10053875045E+04  0.19159802810E+04  0.10100000352E+00 0.  1.
       -3    1    3    3    0  502  0.51493197756E+02 -0.16301916585E+04  0.52286988020E+02  0.16318426187E+04  0.10100000352E+00 0. -1.
</event>
<event>
 5   0  0.7236375E-08  0.3604555E+04  0.7818609E-02  0.8089449E-01
        1   -1    0    0  501    0  0.00000000000E+00  0.00000000000E+00  0.17537986367E+04  0.17537986367E+04  0.50400001928E-02 0. -1.
       -1   -1    0    0    0  501  0.00000000000E+00  0.00000000000E+00 -0.18520962180E+04  0.18520962180E+04  0.50400001928E-02 0.  1.
    10030    2    1    2    0    0  0.00000000000E+00  0.00000000000E+00 -0.98297581251E+02  0.36058948547E+04  0.36045547976E+04 0.  0.
        1    1    3    3  502    0 -0.15429432097E+04  0.78532871364E+03 -0.55012323160E+03  0.18166041139E+04  0.50400001928E-02 0.  1.
       -1    1    3    3    0  502  0.15429432097E+04 -0.78532871364E+03  0.45182565035E+03  0.17892907408E+04  0.50400001928E-02 0. -1.
</event>
<event>
 5   0  0.7347303E-08  0.3599628E+04  0.7818609E-02  0.8090577E-01
       -1   -1    0    0    0  501  0.00000000000E+00  0.00000000000E+00  0.11969003050E+04  0.11969003051E+04  0.50400001928E-02 0. -1.
        1   -1    0    0  501    0  0.00000000000E+00  0.00000000000E+00 -0.27064329375E+04  0.27064329375E+04  0.50400001928E-02 0.  1.
    10030    2    1    2    0    0  0.00000000000E+00  0.00000000000E+00 -0.15095326324E+04  0.39033332426E+04  0.35996279855E+04 0.  0.
        2    1    3    3  502    0 -0.93822676229E+03 -0.27462994483E+03 -0.23934373203E+04  0.25853884177E+04  0.25500000920E-02 0.  1.
       -2    1    3    3    0  502  0.93822676229E+03  0.27462994483E+03  0.88390468788E+03  0.13179448248E+04  0.25500000920E-02 0. -1.
</event>
<event>
 5   0  0.2198900E-07  0.3611148E+04  0.7818609E-02  0.8087943E-01
       -2   -1    0    0    0  501  0.00000000000E+00  0.00000000000E+00  0.13161450780E+04  0.13161450780E+04  0.25500000920E-02 0. -1.
        2   -1    0    0  501    0  0.00000000000E+00  0.00000000000E+00 -0.24770047895E+04  0.24770047895E+04  0.25500000920E-02 0.  1.
    10030    2    1    2    0    0  0.00000000000E+00  0.00000000000E+00 -0.11608597115E+04  0.37931498676E+04  0.36111481066E+04 0.  0.
        2    1    3    3  502    0  0.13622107783E+04  0.11806017398E+04 -0.68887565060E+03  0.19297638028E+04  0.25500000920E-02 0.  1.
       -2    1    3    3    0  502 -0.13622107783E+04 -0.11806017398E+04 -0.47198406091E+03  0.18633860648E+04  0.25500000920E-02 0. -1.
</event>
<event>
 5   0  0.7347303E-08  0.3567814E+04  0.7818609E-02  0.8097904E-01
        1   -1    0    0  501    0  0.00000000000E+00  0.00000000000E+00  0.12513684335E+04  0.12513684335E+04  0.50400001928E-02 0.  1.
       -1   -1    0    0    0  501  0.00000000000E+00  0.00000000000E+00 -0.25430758338E+04  0.25430758338E+04  0.50400001928E-02 0. -1.
    10030    2    1    2    0    0  0.00000000000E+00  0.00000000000E+00 -0.12917074003E+04  0.37944442673E+04  0.35678143575E+04 0.  0.
        2    1    3    3  502    0 -0.83156003282E+03  0.12584571985E+04 -0.16587800598E+04  0.22420432412E+04  0.25500000920E-02 0. -1.
       -2    1    3    3    0  502  0.83156003282E+03 -0.12584571985E+04  0.36707265948E+03  0.15524010261E+04  0.25500000920E-02 0.  1.
</event>
<event>
 5   0  0.7236375E-08  0.3593850E+04  0.7818609E-02  0.8091902E-01
       -1   -1    0    0    0  501  0.00000000000E+00  0.00000000000E+00  0.21495740991E+04  0.21495740992E+04  0.50400001928E-02 0.  1.
        1   -1    0    0  501    0  0.00000000000E+00  0.00000000000E+00 -0.15021297205E+04  0.15021297205E+04  0.50400001928E-02 0. -1.
    10030    2    1    2    0    0  0.00000000000E+00  0.00000000000E+00  0.64744437861E+03  0.36517038197E+04  0.35938498248E+04 0.  0.
        5    1    3    3  502    0  0.52115250791E+03 -0.45694561750E+03  0.20082760396E+04  0.21245220580E+04  0.46999998093E+01 0.  1.
       -5    1    3    3    0  502 -0.52115250791E+03  0.45694561750E+03 -0.13608316610E+04  0.15271817617E+04  0.46999998093E+01 0. -1.
</event>
<event>
 5   0  0.2238968E-07  0.3572073E+04  0.7818609E-02  0.8096919E-01
       -2   -1    0    0    0  501  0.00000000000E+00  0.00000000000E+00  0.11397272192E+04  0.11397272192E+04  0.25500000920E-02 0.  1.
        2   -1    0    0  501    0  0.00000000000E+00  0.00000000000E+00 -0.27988504963E+04  0.27988504963E+04  0.25500000920E-02 0. -1.
    10030    2    1    2    0    0  0.00000000000E+00  0.00000000000E+00 -0.16591232771E+04  0.39385777155E+04  0.35720728398E+04 0.  0.
        3    1    3    3  502    0 -0.15650494875E+04  0.66490982747E+03 -0.22721230595E+03  0.17155495968E+04  0.10100000352E+00 0.  1.
       -3    1    3    3    0  502  0.15650494875E+04 -0.66490982747E+03 -0.14319109712E+04  0.22230281187E+04  0.10100000352E+00 0. -1.
</event>
<event>
 5   0  0.2238968E-07  0.3599563E+04  0.7818609E-02  0.8090592E-01
       -2   -1    0    0    0  501  0.00000000000E+00  0.00000000000E+00  0.20409362709E+04  0.20409362709E+04  0.25500000920E-02 0. -1.
        2   -1    0    0  501    0  0.00000000000E+00  0.00000000000E+00 -0.15871215516E+04  0.15871215516E+04  0.25500000920E-02 0.  1.
    10030    2    1    2    0    0  0.00000000000E+00  0.00000000000E+00  0.45381471929E+03  0.36280578225E+04  0.35995632741E+04 0.  0.
        3    1    3    3  502    0  0.12752291781E+04  0.50936883850E+03 -0.94572316833E+03  0.16673507104E+04  0.10100000352E+00 0.  1.
       -3    1    3    3    0  502 -0.12752291781E+04 -0.50936883850E+03  0.13995378876E+04  0.19607071121E+04  0.10100000352E+00 0. -1.
</event>
<event>
 5   0  0.2309391E-07  0.3605740E+04  0.7818609E-02  0.8089178E-01
       -2   -1    0    0    0  501  0.00000000000E+00  0.00000000000E+00  0.32325464784E+04  0.32325464784E+04  0.25500000920E-02 0.  1.
        2   -1    0    0  501    0  0.00000000000E+00  0.00000000000E+00 -0.10055043981E+04  0.10055043981E+04  0.25500000920E-02 0. -1.
    10030    2    1    2    0    0  0.00000000000E+00  0.00000000000E+00  0.22270420803E+04  0.42380508765E+04  0.36057397028E+04 0.  0.
        4    1    3    3  502    0  0.44941441008E+03  0.12619562966E+04  0.25316877538E+04  0.28642540918E+04  0.12699999809E+01 0.  1.
       -4    1    3    3    0  502 -0.44941441008E+03 -0.12619562966E+04 -0.30464567344E+03  0.13737967847E+04  0.12699999809E+01 0. -1.
</event>
<event>
 5   0  0.2238968E-07  0.3596196E+04  0.7818609E-02  0.8091364E-01
       -2   -1    0    0    0  501  0.00000000000E+00  0.00000000000E+00  0.15311332915E+04  0.15311332915E+04  0.25500000920E-02 0. -1.
        2   -1    0    0  501    0  0.00000000000E+00  0.00000000000E+00 -0.21116098848E+04  0.21116098848E+04  0.25500000920E-02 0.  1.
    10030    2    1    2    0    0  0.00000000000E+00  0.00000000000E+00 -0.58047659322E+03  0.36427431763E+04  0.35961958753E+04 0.  0.
        3    1    3    3  502    0  0.98449965287E+02  0.43001516749E+03  0.14754679825E+04  0.15400036421E+04  0.10100000352E+00 0. -1.
       -3    1    3    3    0  502 -0.98449965287E+02 -0.43001516749E+03 -0.20559445758E+04  0.21027395342E+04  0.10100000352E+00 0.  1.
</event>
<event>
 5   0  0.2199902E-07  0.3605484E+04  0.7818609E-02  0.8089237E-01
       -2   -1    0    0    0  501  0.00000000000E+00  0.00000000000E+00  0.14560251073E+04  0.14560251073E+04  0.25500000920E-02 0.  1.
        2   -1    0    0  501    0  0.00000000000E+00  0.00000000000E+00 -0.22320204527E+04  0.22320204527E+04  0.25500000920E-02 0. -1.
    10030    2    1    2    0    0  0.00000000000E+00  0.00000000000E+00 -0.77599534536E+03  0.36880455600E+04  0.36054835011E+04 0.  0.
        1    1    3    3  502    0  0.11525312651E+04  0.13827536320E+02  0.10298740637E+04  0.15456908180E+04  0.50400001928E-02 0.  1.
       -1    1    3    3    0  502 -0.11525312651E+04 -0.13827536320E+02 -0.18058694090E+04  0.21423547420E+04  0.50400001928E-02 0. -1.
</event>
<event>
 5   0  0.2238968E-07  0.3599977E+04  0.7818609E-02  0.8090497E-01
       -2   -1    0    0    0  501  0.00000000000E+00  0.00000000000E+00  0.10239912125E+04  0.10239912125E+04  0.25500000920E-02 0. -1.
        2   -1    0    0  501    0  0.00000000000E+00  0.00000000000E+00 -0.31640496257E+04  0.31640496257E+04  0.25500000920E-02 0.  1.
    10030    2    1    2    0    0  0.00000000000E+00  0.00000000000E+00 -0.21400584132E+04  0.41880408383E+04  0.35999772293E+04 0.  0.
        3    1    3    3  502    0 -0.10246201208E+04 -0.10940506784E+04  0.89340678994E+02  0.15015908385E+04  0.10100000352E+00 0. -1.
       -3    1    3    3    0  502  0.10246201208E+04  0.10940506784E+04 -0.22293990922E+04  0.26864499998E+04  0.10100000352E+00 0.  1.
</event>
<event>
 5   0  0.2342606E-07  0.3601728E+04  0.7818609E-02  0.8090096E-01
        2   -1    0    0  501    0  0.00000000000E+00  0.00000000000E+00  0.13045260790E+04  0.13045260790E+04  0.25500000920E-02 0.  1.
       -2   -1    0    0    0  501  0.00000000000E+00  0.00000000000E+00 -0.24860453161E+04  0.24860453161E+04  0.25500000920E-02 0. -1.
    10030    2    1    2    0    0  0.00000000000E+00  0.00000000000E+00 -0.11815192372E+04  0.37905713951E+04  0.36017278900E+04 0.  0.
        5    1    3    3  502    0 -0.17428253997E+04 -0.45346146828E+03 -0.58591598098E+03  0.18937759381E+04  0.46999998093E+01 0.  1.
       -5    1    3    3    0  502  0.17428253997E+04  0.45346146828E+03 -0.59560325621E+03  0.18967954570E+04  0.46999998093E+01 0. -1.
</event>
<event>
 5   0  0.7261233E-08  0.3596070E+04  0.7818609E-02  0.8091392E-01
       -1   -1    0    0    0  501  0.00000000000E+00  0.00000000000E+00  0.23011566056E+04  0.23011566056E+04  0.50400001928E-02 0.  1.
        1   -1    0    0  501    0  0.00000000000E+00  0.00000000000E+00 -0.14049153666E+04  0.14049153667E+04  0.50400001928E-02 0. -1.
    10030    2    1    2    0    0  0.00000000000E+00  0.00000000000E+00  0.89624123899E+03  0.37060719723E+04  0.35960702309E+04 0.  0.
        3    1    3    3  502    0  0.35205118829E+03 -0.78515468729E+02 -0.13672460757E+04  0.14140249501E+04  0.10100000352E+00 0. -1.
       -3    1    3    3    0  502 -0.35205118829E+03  0.78515468729E+02  0.22634873147E+04  0.22920470222E+04  0.10100000352E+00 0.  1.
</event>
<event>
 5   0  0.7236375E-08  0.3582178E+04  0.7818609E-02  0.8094586E-01
        1   -1    0    0  501    0  0.00000000000E+00  0.00000000000E+00  0.17651038845E+04  0.17651038845E+04  0.50400001928E-02 0.  1.
       -1   -1    0    0    0  501  0.00000000000E+00  0.00000000000E+00 -0.18174565896E+04  0.18174565896E+04  0.50400001928E-02 0. -1.
    10030    2    1    2    0    0  0.00000000000E+00  0.00000000000E+00 -0.52352705023E+02  0.35825604741E+04  0.35821779332E+04 0.  0.
        1    1    3    3  502    0 -0.54211402235E+03 -0.15694144636E+04  0.64549816315E+03  0.17814649170E+04  0.50400001928E-02 0.  1.
       -1    1    3    3    0  502  0.54211402235E+03  0.15694144636E+04 -0.69785086817E+03  0.18010955571E+04  0.50400001928E-02 0. -1.
</event>
<event>
 5   0  0.7261233E-08  0.3616414E+04  0.7818609E-02  0.8086742E-01
        1   -1    0    0  501    0  0.00000000000E+00  0.00000000000E+00  0.16611922358E+04  0.16611922358E+04  0.50400001928E-02 0. -1.
       -1   -1    0    0    0  501  0.00000000000E+00  0.00000000000E+00 -0.19682320888E+04  0.19682320888E+04  0.50400001928E-02 0.  1.
    10030    2    1    2    0    0  0.00000000000E+00  0.00000000000E+00 -0.30703985302E+03  0.36294243246E+04  0.36164136180E+04 0.  0.
        3    1    3    3  502    0 -0.59066958732E+03 -0.14608100952E+04  0.73666338692E+03  0.17394049705E+04  0.10100000352E+00 0. -1.
       -3    1    3    3    0  502  0.59066958732E+03  0.14608100952E+04 -0.10437032399E+04  0.18900193541E+04  0.10100000352E+00 0.  1.
</event>
<event>
 5   0  0.7236375E-08  0.3617374E+04  0.7818609E-02  0.8086524E-01
        1   -1    0    0  501    0  0.00000000000E+00  0.00000000000E+00  0.22922952445E+04  0.22922952445E+04  0.50400001928E-02 0. -1.
       -1   -1    0    0    0  501  0.00000000000E+00  0.00000000000E+00 -0.14271058890E+04  0.14271058890E+04  0.50400001928E-02 0.  1.
    10030    2    1    2    0    0  0.00000000000E+00  0.00000000000E+00  0.86518935549E+03  0.37194011335E+04  0.36173736565E+04 0.  0.
        1    1    3    3  502    0  0.14354074704E+04  0.81391381498E+02  0.15609664106E+04  0.21221770185E+04  0.50400001928E-02 0. -1.
       -1    1    3    3    0  502 -0.14354074704E+04 -0.81391381498E+02 -0.69577705510E+03  0.15972241150E+04  0.50400001928E-02 0.  1.
</event>
<event>
 5   0  0.7514289E-08  0.3590906E+04  0.7818609E-02  0.8092578E-01
       -1   -1    0    0    0  501  0.00000000000E+00  0.00000000000E+00  0.11723725989E+04  0.11723725989E+04  0.50400001928E-02 0. -1.
        1   -1    0    0  501    0  0.00000000000E+00  0.00000000000E+00 -0.27496811191E+04  0.27496811191E+04  0.50400001928E-02 0.  1.
    10030    2    1    2    0    0  0.00000000000E+00  0.00000000000E+00 -0.15773085203E+04  0.39220537180E+04  0.35909056238E+04 0.  0.
        4    1    3    3  502    0  0.15407160126E+03 -0.74577610854E+03  0.98724376470E+03  0.12468247376E+04  0.12699999809E+01 0. -1.
       -4    1    3    3    0  502 -0.15407160126E+03  0.74577610854E+03 -0.25645522850E+04  0.26752289804E+04  0.12699999809E+01 0.  1.
</event>
<event>
 5   0  0.2309391E-07  0.3599510E+04  0.7818609E-02  0.8090604E-01
       -2   -1    0    0    0  501  0.00000000000E+00  0.00000000000E+00  0.12654291608E+04  0.12654291608E+04  0.25500000920E-02 0. -1.
        2   -1    0    0  501    0  0.00000000000E+00  0.00000000000E+00 -0.25596989303E+04  0.25596989303E+04  0.25500000920E-02 0.  1.
    10030    2    1    2    0    0  0.00000000000E+00  0.00000000000E+00 -0.12942697695E+04  0.38251280910E+04  0.35995097828E+04 0.  0.
        4    1    3    3  502    0  0.91854706603E+03 -0.31899686963E+03 -0.22565354434E+04  0.24571205781E+04  0.12699999809E+01 0.  1.
       -4    1    3    3    0  502 -0.91854706603E+03  0.31899686963E+03  0.96226567388E+03  0.13680075129E+04  0.12699999809E+01 0. -1.
</event>
<event>
 5   0  0.2342606E-07  0.3601476E+04  0.7818609E-02  0.8090154E-01
        2   -1    0    0  501    0  0.00000000000E+00  0.00000000000E+00  0.17705039966E+04  0.17705039966E+04  0.25500000920E-02 0. -1.
       -2   -1    0    0    0  501  0.00000000000E+00  0.00000000000E+00 -0.18314881832E+04  0.18314881832E+04  0.25500000920E-02 0.  1.
    10030    2    1    2    0    0  0.00000000000E+00  0.00000000000E+00 -0.60984186561E+02  0.36019921798E+04  0.36014758909E+04 0.  0.
        5    1    3    3  502    0 -0.58279982756E+03  0.15995961530E+04  0.55633861433E+03  0.17910606454E+04  0.46999998093E+01 0. -1.
       -5    1    3    3    0  502  0.58279982756E+03 -0.15995961530E+04 -0.61732280089E+03  0.18109315344E+04  0.46999998093E+01 0.  1.
</event>
<event>
 5   0  0.7236375E-08  0.3472627E+04  0.7818609E-02  0.8120308E-01
        1   -1    0    0  501    0  0.00000000000E+00  0.00000000000E+00  0.27163940114E+04  0.27163940114E+04  0.50400001928E-02 0.  1.
       -1   -1    0    0    0  501  0.00000000000E+00  0.00000000000E+00 -0.11098480543E+04  0.11098480544E+04  0.50400001928E-02 0. -1.
    10030    2    1    2    0    0  0.00000000000E+00  0.00000000000E+00  0.16065459571E+04  0.38262420658E+04  0.34726270220E+04 0.  0.
        1    1    3    3  502    0 -0.86920616184E+03 -0.56327006612E+03 -0.73218533404E+03  0.12684194427E+04  0.50400001928E-02 0. -1.
       -1    1    3    3    0  502  0.86920616184E+03  0.56327006612E+03  0.23387312911E+04  0.25578226231E+04  0.50400001928E-02 0.  1.
</event>
<event>
 5   0  0.2238968E-07  0.3594467E+04  0.7818609E-02  0.8091760E-01
       -2   -1    0    0    0  501  0.00000000000E+00  0.00000000000E+00  0.14858241067E+04  0.14858241067E+04  0.25500000920E-02 0.  1.
        2   -1    0    0  501    0  0.00000000000E+00  0.00000000000E+00 -0.21739101437E+04  0.21739101437E+04  0.25500000920E-02 0. -1.
    10030    2    1    2    0    0  0.00000000000E+00  0.00000000000E+00 -0.68808603709E+03  0.36597342504E+04  0.35944669131E+04 0.  0.
        3    1    3    3  502    0  0.27481858867E+03  0.55015242357E+03 -0.20634504171E+04  0.21531420250E+04  0.10100000352E+00 0. -1.
       -3    1    3    3    0  502 -0.27481858867E+03 -0.55015242357E+03  0.13753643800E+04  0.15065922254E+04  0.10100000352E+00 0.  1.
</event>
<event>
 5   0  0.2199902E-07  0.3607188E+04  0.7818609E-02  0.8088847E-01
       -2   -1    0    0    0  501  0.00000000000E+00  0.00000000000E+00  0.17896370014E+04  0.17896370014E+04  0.25500000920E-02 0. -1.
        2   -1    0    0  501    0  0.00000000000E+00  0.00000000000E+00 -0.18176598640E+04  0.18176598640E+04  0.25500000920E-02 0.  1.
    10030    2    1    2    0    0  0.00000000000E+00  0.00000000000E+00 -0.28022862589E+02  0.36072968654E+04  0.36071880176E+04 0.  0.
        1    1    3    3  502    0 -0.17806736311E+04 -0.31185187223E+02 -0.29894151311E+03  0.18058618786E+04  0.50400001928E-02 0. -1.
       -1    1    3    3    0  502  0.17806736311E+04  0.31185187223E+02  0.27091865052E+03  0.18014349868E+04  0.50400001928E-02 0.  1.
</event>
<event>
 5   0  0.2198900E-07  0.3593538E+04  0.7818609E-02  0.8091973E-01
       -2   -1    0    0    0  501  0.00000000000E+00  0.00000000000E+00  0.12268543876E+04  0.12268543876E+04  0.25500000920E-02 0. -1.
        2   -1    0    0  501    0  0.00000000000E+00  0.00000000000E+00 -0.26314278781E+04  0.26314278781E+04  0.25500000920E-02 0.  1.
    10030    2    1    2    0    0  0.00000000000E+00  0.00000000000E+00 -0.14045734905E+04  0.38582822657E+04  0.35935379992E+04 0.  0.
        2    1    3    3  502    0  0.51047545904E+02  0.64490131378E+03  0.10974760801E+04  0.12739534147E+04  0.25500000920E-02 0. -1.
       -2    1    3    3    0  502 -0.51047545904E+02 -0.64490131378E+03 -0.25020495706E+04  0.25843288510E+04  0.25500000920E-02 0.  1.
</event>
<event>
 5   0  0.7347303E-08  0.3509471E+04  0.7818609E-02  0.8111549E-01
       -1   -1    0    0    0  501  0.00000000000E+00  0.00000000000E+00  0.17407858990E+04  0.17407858990E+04  0.50400001928E-02 0.  1.
        1   -1    0    0  501    0  0.00000000000E+00  0.00000000000E+00 -0.17687966350E+04  0.17687966350E+04  0.50400001928E-02 0. -1.
    10030    2    1    2    0    0  0.00000000000E+00  0.00000000000E+00 -0.28010735959E+02  0.35095825340E+04  0.35094707523E+04 0.  0.
        2    1    3    3  502    0  0.12022295128E+04 -0.89271185638E+03  0.90079476773E+03  0.17474900496E+04  0.25500000920E-02 0.  1.
       -2    1    3    3    0  502 -0.12022295128E+04  0.89271185638E+03 -0.92880550369E+03  0.17620924844E+04  0.25500000920E-02 0. -1.
</event>
<event>
 5   0  0.7514289E-08  0.3599427E+04  0.7818609E-02  0.8090623E-01
       -1   -1    0    0    0  501  0.00000000000E+00  0.00000000000E+00  0.14563454852E+04  0.14563454852E+04  0.50400001928E-02 0.  1.
        1   -1    0    0  501    0  0.00000000000E+00  0.00000000000E+00 -0.22240390662E+04  0.22240390662E+04  0.50400001928E-02 0. -1.
    10030    2    1    2    0    0  0.00000000000E+00  0.00000000000E+00 -0.76769358104E+03  0.36803845514E+04  0.35994273172E+04 0.  0.
        4    1    3    3  502    0 -0.29897528278E+03 -0.12616105679E+03 -0.21938779902E+04  0.22177477496E+04  0.12699999809E+01 0. -1.
       -4    1    3    3    0  502  0.29897528278E+03  0.12616105679E+03  0.14261844092E+04  0.14626368018E+04  0.12699999809E+01 0.  1.
</event>
<event>
 5   0  0.2342606E-07  0.3598715E+04  0.7818609E-02  0.8090786E-01
       -2   -1    0    0    0  501  0.00000000000E+00  0.00000000000E+00  0.13464888286E+04  0.13464888286E+04  0.25500000920E-02 0.  1.
        2   -1    0    0  501    0  0.00000000000E+00  0.00000000000E+00 -0.24045402370E+04  0.24045402370E+04  0.25500000920E-02 0. -1.
    10030    2    1    2    0    0  0.00000000000E+00  0.00000000000E+00 -0.10580514084E+04  0.37510290656E+04  0.35987145299E+04 0.  0.
        5    1    3    3  502    0 -0.82360001561E+02  0.17318184527E+04 -0.10307360680E+04  0.20170317932E+04  0.46999998093E+01 0. -1.
       -5    1    3    3    0  502  0.82360001561E+02 -0.17318184527E+04 -0.27315340433E+02  0.17339972724E+04  0.46999998093E+01 0.  1.
</event>
<event>
 5   0  0.7236375E-08  0.3607338E+04  0.7818609E-02  0.8088813E-01
        4   -1    0    0  501    0  0.00000000000E+00  0.00000000000E+00  0.21222311819E+04  0.21222315619E+04  0.12699999809E+01 0.  1.
       -4   -1    0    0    0  501  0.00000000000E+00  0.00000000000E+00 -0.15329244511E+04  0.15329249772E+04  0.12699999809E+01 0. -1.
    10030    2    1    2    0    0  0.00000000000E+00  0.00000000000E+00  0.58930673074E+03  0.36551565391E+04  0.36073379246E+04 0.  0.
        1    1    3    3  502    0  0.13300575209E+03 -0.17228983381E+04  0.81837291376E+03  0.19120155437E+04  0.50400001928E-02 0.  1.
       -1    1    3    3    0  502 -0.13300575209E+03  0.17228983381E+04 -0.22906618302E+03  0.17431409953E+04  0.50400001928E-02 0. -1.
</event>
<event>
 5   0  0.7236375E-08  0.3596548E+04  0.7818609E-02  0.8091283E-01
       -1   -1    0    0    0  501  0.00000000000E+00  0.00000000000E+00  0.11789285500E+04  0.11789285500E+04  0.50400001928E-02 0.  1.
        1   -1    0    0  501    0  0.00000000000E+00  0.00000000000E+00 -0.27429895896E+04  0.27429895897E+04  0.50400001928E-02 0. -1.
    10030    2    1    2    0    0  0.00000000000E+00  0.00000000000E+00 -0.15640610397E+04  0.39219181396E+04  0.35965476444E+04 0.  0.
        5    1    3    3  502    0 -0.10532170686E+04 -0.14183771029E+04 -0.11481205171E+04  0.21069557687E+04  0.46999998093E+01 0. -1.
       -5    1    3    3    0  502  0.10532170686E+04  0.14183771029E+04 -0.41594052260E+03  0.18149623709E+04  0.46999998093E+01 0.  1.
</event>
<event>
 5   0  0.7514289E-08  0.3599788E+04  0.7818609E-02  0.8090540E-01
        1   -1    0    0  501    0  0.00000000000E+00  0.00000000000E+00  0.10734171329E+04  0.10734171329E+04  0.50400001928E-02 0.  1.
       -1   -1    0    0    0  501  0.00000000000E+00  0.00000000000E+00 -0.30180421857E+04  0.30180421857E+04  0.50400001928E-02 0. -1.
    10030    2    1    2    0    0  0.00000000000E+00  0.00000000000E+00 -0.19446250528E+04  0.40914593186E+04  0.35997878770E+04 0.  0.
        4    1    3    3  502    0  0.58784281524E+03 -0.16202452538E+04 -0.15616534787E+04  0.23258368512E+04  0.12699999809E+01 0. -1.
       -4    1    3    3    0  502 -0.58784281524E+03  0.16202452538E+04 -0.38297157416E+03  0.17656224674E+04  0.12699999809E+01 0.  1.
</event>
<event>
 5   0  0.7261233E-08  0.3600355E+04  0.7818609E-02  0.8090410E-01
        1   -1    0    0  501    0  0.00000000000E+00  0.00000000000E+00  0.20942142048E+04  0.20942142049E+04  0.50400001928E-02 0. -1.
       -1   -1    0    0    0  501  0.00000000000E+00  0.00000000000E+00 -0.15474251036E+04  0.15474251036E+04  0.50400001928E-02 0.  1.
    10030    2    1    2    0    0  0.00000000000E+00  0.00000000000E+00  0.54678910123E+03  0.36416393085E+04  0.36003553341E+04 0.  0.
        3    1    3    3  502    0 -0.12345859257E+04  0.65475508830E+03 -0.87440083341E+03  0.16484791358E+04  0.10100000352E+00 0.  1.
       -3    1    3    3    0  502  0.12345859257E+04 -0.65475508830E+03  0.14211899346E+04  0.19931601727E+04  0.10100000352E+00 0. -1.
</event>
<event>
 5   0  0.7236375E-08  0.3606846E+04  0.7818609E-02  0.8088925E-01
       -1   -1    0    0    0  501  0.00000000000E+00  0.00000000000E+00  0.15352433854E+04  0.15352433855E+04  0.50400001928E-02 0. -1.
        1   -1    0    0  501    0  0.00000000000E+00  0.00000000000E+00 -0.21184491515E+04  0.21184491516E+04  0.50400001928E-02 0.  1.
    10030    2    1    2    0    0  0.00000000000E+00  0.00000000000E+00 -0.58320576610E+03  0.36536925370E+04  0.36068462941E+04 0.  0.
        5    1    3    3  502    0  0.42466590288E+03  0.17479228815E+04 -0.16054935019E+03  0.18059273829E+04  0.46999998093E+01 0.  1.
       -5    1    3    3    0  502 -0.42466590288E+03 -0.17479228815E+04 -0.42265641592E+03  0.18477651541E+04  0.46999998093E+01 0. -1.
</event>
<event>
 5   0  0.7236375E-08  0.3595506E+04  0.7818609E-02  0.8091522E-01
        1   -1    0    0  501    0  0.00000000000E+00  0.00000000000E+00  0.24967339257E+04  0.24967339257E+04  0.50400001928E-02 0. -1.
       -1   -1    0    0    0  501  0.00000000000E+00  0.00000000000E+00 -0.12944575465E+04  0.12944575465E+04  0.50400001928E-02 0.  1.
    10030    2    1    2    0    0  0.00000000000E+00  0.00000000000E+00  0.12022763791E+04  0.37911914722E+04  0.35955061239E+04 0.  0.
        1    1    3    3  502    0  0.13377834286E+04  0.11933465540E+04  0.74329240070E+03  0.19406761947E+04  0.50400001928E-02 0.  1.
       -1    1    3    3    0  502 -0.13377834286E+04 -0.11933465540E+04  0.45898397845E+03  0.18505152775E+04  0.50400001928E-02 0. -1.
</event>
<event>
 5   0  0.2199902E-07  0.3614602E+04  0.7818609E-02  0.8087155E-01
        2   -1    0    0  501    0  0.00000000000E+00  0.00000000000E+00  0.22095810624E+04  0.22095810624E+04  0.25500000920E-02 0. -1.
       -2   -1    0    0    0  501  0.00000000000E+00  0.00000000000E+00 -0.14782606273E+04  0.14782606273E+04  0.25500000920E-02 0.  1.
    10030    2    1    2    0    0  0.00000000000E+00  0.00000000000E+00  0.73132043513E+03  0.36878416897E+04  0.36146018798E+04 0.  0.
        1    1    3    3  502    0 -0.70620969513E+03  0.14026772721E+04 -0.54694765871E+03  0.16629454003E+04  0.50400001928E-02 0.  1.
       -1    1    3    3    0  502  0.70620969513E+03 -0.14026772721E+04  0.12782680938E+04  0.20248962894E+04  0.50400001928E-02 0. -1.
</event>
<event>
 5   0  0.7236375E-08  0.3611026E+04  0.7818609E-02  0.8087971E-01
        1   -1    0    0  501    0  0.00000000000E+00  0.00000000000E+00  0.15866903222E+04  0.15866903222E+04  0.50400001928E-02 0.  1.
       -1   -1    0    0    0  501  0.00000000000E+00  0.00000000000E+00 -0.20545139978E+04  0.20545139978E+04  0.50400001928E-02 0. -1.
    10030    2    1    2    0    0  0.00000000000E+00  0.00000000000E+00 -0.46782367557E+03  0.36412043200E+04  0.36110261572E+04 0.  0.
        1    1    3    3  502    0  0.56646388359E+03  0.29135490546E+03 -0.19374413108E+04  0.20394724429E+04  0.50400001928E-02 0. -1.
       -1    1    3    3    0  502 -0.56646388359E+03 -0.29135490546E+03  0.14696176352E+04  0.16017318771E+04  0.50400001928E-02 0.  1.
</event>
<event>
 5   0  0.2309391E-07  0.3605416E+04  0.7818609E-02  0.8089252E-01
       -2   -1    0    0    0  501  0.00000000000E+00  0.00000000000E+00  0.13474206294E+04  0.13474206294E+04  0.25500000920E-02 0.  1.
        2   -1    0    0  501    0  0.00000000000E+00  0.00000000000E+00 -0.24118349582E+04  0.24118349582E+04  0.25500000920E-02 0. -1.
    10030    2    1    2    0    0  0.00000000000E+00  0.00000000000E+00 -0.10644143287E+04  0.37592555876E+04  0.36054160245E+04 0.  0.
        4    1    3    3  502    0  0.34970972461E+03 -0.73158251523E+03 -0.22109511377E+04  0.23549557139E+04  0.12699999809E+01 0. -1.
       -4    1    3    3    0  502 -0.34970972461E+03  0.73158251523E+03  0.11465368090E+04  0.14042998737E+04  0.12699999809E+01 0.  1.
</event>
<event>
 5   0  0.2342606E-07  0.3594380E+04  0.7818609E-02  0.8091780E-01
       -2   -1    0    0    0  501  0.00000000000E+00  0.00000000000E+00  0.30153955042E+04  0.30153955042E+04  0.25500000920E-02 0. -1.
        2   -1    0    0  501    0  0.00000000000E+00  0.00000000000E+00 -0.10711339987E+04  0.10711339987E+04  0.25500000920E-02 0.  1.
    10030    2    1    2    0    0  0.00000000000E+00  0.00000000000E+00  0.19442615055E+04  0.40865295029E+04  0.35943804163E+04 0.  0.
        5    1    3    3  502    0 -0.57802847044E+03 -0.15891893336E+04  0.16639090496E+04  0.23723943740E+04  0.46999998093E+01 0. -1.
       -5    1    3    3    0  502  0.57802847044E+03  0.15891893336E+04  0.28035245586E+03  0.17141351289E+04  0.46999998093E+01 0.  1.
</event>
<event>
 5   0  0.7347303E-08  0.3603026E+04  0.7818609E-02  0.8089799E-01
       -1   -1    0    0    0  501  0.00000000000E+00  0.00000000000E+00  0.19977863932E+04  0.19977863932E+04  0.50400001928E-02 0.  1.
        1   -1    0    0  501    0  0.00000000000E+00  0.00000000000E+00 -0.16245222949E+04  0.16245222949E+04  0.50400001928E-02 0. -1.
    10030    2    1    2    0    0  0.00000000000E+00  0.00000000000E+00  0.37326409830E+03  0.36223086881E+04  0.36030256930E+04 0.  0.
        2    1    3    3  502    0  0.30670206904E+03  0.17702932264E+04  0.31941566567E+03  0.18248371528E+04  0.25500000920E-02 0.  1.
       -2    1    3    3    0  502 -0.30670206904E+03 -0.17702932264E+04  0.53848432635E+02  0.17974715353E+04  0.25500000920E-02 0. -1.
</event>
<event>
 5   0  0.7236375E-08  0.3747411E+04  0.7818609E-02  0.8057536E-01
       -1   -1    0    0    0  501  0.00000000000E+00  0.00000000000E+00  0.13271764831E+04  0.13271764831E+04  0.50400001928E-02 0. -1.
        1   -1    0    0  501    0  0.00000000000E+00  0.00000000000E+00 -0.26452935618E+04  0.26452935618E+04  0.50400001928E-02 0.  1.
    10030    2    1    2    0    0  0.00000000000E+00  0.00000000000E+00 -0.13181170788E+04  0.39724700449E+04  0.37474105225E+04 0.  0.
        1    1    3    3  502    0 -0.35393111547E+03 -0.58137506470E+03 -0.25096123994E+04  0.26002727925E+04  0.50400001928E-02 0.  1.
       -1    1    3    3    0  502  0.35393111547E+03  0.58137506470E+03  0.11914953206E+04  0.13721972524E+04  0.50400001928E-02 0. -1.
</event>
<event>
 5   0  0.2198900E-07  0.3604363E+04  0.7818609E-02  0.8089493E-01
        2   -1    0    0  501    0  0.00000000000E+00  0.00000000000E+00  0.23473777326E+04  0.23473777326E+04  0.25500000920E-02 0.  1.
       -2   -1    0    0    0  501  0.00000000000E+00  0.00000000000E+00 -0.13836109829E+04  0.13836109829E+04  0.25500000920E-02 0. -1.
    10030    2    1    2    0    0  0.00000000000E+00  0.00000000000E+00  0.96376674968E+03  0.37309887155E+04  0.36043626964E+04 0.  0.
        2    1    3    3  502    0  0.47339205481E+03  0.54205989517E+03  0.21921786540E+04  0.23072876324E+04  0.25500000920E-02 0.  1.
       -2    1    3    3    0  502 -0.47339205481E+03 -0.54205989517E+03 -0.12284119043E+04  0.14237010831E+04  0.25500000920E-02 0. -1.
</event>
<event>
 5   0  0.7261233E-08  0.3573651E+04  0.7818609E-02  0.8096554E-01
        1   -1    0    0  501    0  0.00000000000E+00  0.00000000000E+00  0.16618559425E+04  0.16618559425E+04  0.50400001928E-02 0.  1.
       -1   -1    0    0    0  501  0.00000000000E+00  0.00000000000E+00 -0.19211923953E+04  0.19211923953E+04  0.50400001928E-02 0. -1.
    10030    2    1    2    0    0  0.00000000000E+00  0.00000000000E+00 -0.25933645283E+03  0.35830483378E+04  0.35736507937E+04 0.  0.
        3    1    3    3  502    0  0.17489958498E+04  0.28176184516E+03  0.10411605274E+03  0.17746031620E+04  0.10100000352E+00 0.  1.
       -3    1    3    3    0  502 -0.17489958498E+04 -0.28176184516E+03 -0.36345250557E+03  0.18084451758E+04  0.10100000352E+00 0. -1.
</event>
<event>
 5   0  0.7261233E-08  0.3596700E+04  0.7818609E-02  0.8091248E-01
       -1   -1    0    0    0  501  0.00000000000E+00  0.00000000000E+00  0.16859212653E+04  0.16859212653E+04  0.50400001928E-02 0. -1.
        1   -1    0    0  501    0  0.00000000000E+00  0.00000000000E+00 -0.19182759770E+04  0.19182759770E+04  0.50400001928E-02 0.  1.
    10030    2    1    2    0    0  0.00000000000E+00  0.00000000000E+00 -0.23235471171E+03  0.36041972422E+04  0.35966997440E+04 0.  0.
        3    1    3    3  502    0  0.37006239492E+02  0.12800189589E+04  0.11490885230E+04  0.17205296978E+04  0.10100000352E+00 0. -1.
       -3    1    3    3    0  502 -0.37006239492E+02 -0.12800189589E+04 -0.13814432347E+04  0.18836675444E+04  0.10100000352E+00 0.  1.
</event>
<event>
 5   0  0.2198900E-07  0.3603796E+04  0.7818609E-02  0.8089623E-01
       -2   -1    0    0    0  501  0.00000000000E+00  0.00000000000E+00  0.14040856671E+04  0.14040856671E+04  0.25500000920E-02 0. -1.
        2   -1    0    0  501    0  0.00000000000E+00  0.00000000000E+00 -0.23124202318E+04  0.23124202318E+04  0.25500000920E-02 0.  1.
    10030    2    1    2    0    0  0.00000000000E+00  0.00000000000E+00 -0.90833456470E+03  0.37165058990E+04  0.36037958343E+04 0.  0.
        2    1    3    3  502    0  0.48095304610E+03  0.13961202768E+03 -0.22392059819E+04  0.22945262648E+04  0.25500000920E-02 0.  1.
       -2    1    3    3    0  502 -0.48095304610E+03 -0.13961202768E+03  0.13308714172E+04  0.14219796341E+04  0.25500000920E-02 0. -1.
</event>
<event>
 5   0  0.7236375E-08  0.3595998E+04  0.7818609E-02  0.8091409E-01
        1   -1    0    0  501    0  0.00000000000E+00  0.00000000000E+00  0.17654086085E+04  0.17654086085E+04  0.50400001928E-02 0.  1.
       -1   -1    0    0    0  501  0.00000000000E+00  0.00000000000E+00 -0.18311907233E+04  0.18311907233E+04  0.50400001928E-02 0. -1.
    10030    2    1    2    0    0  0.00000000000E+00  0.00000000000E+00 -0.65782114781E+02  0.35965993318E+04  0.35959977012E+04 0.  0.
        5    1    3    3  502    0 -0.67825205665E+03  0.53383018673E+03  0.15446417518E+04  0.17694464535E+04  0.46999998093E+01 0.  1.
       -5    1    3    3    0  502  0.67825205665E+03 -0.53383018673E+03 -0.16104238666E+04  0.18271528783E+04  0.46999998093E+01 0. -1.
</event>
<event>
 5   0  0.2238968E-07  0.3594059E+04  0.7818609E-02  0.8091854E-01
       -2   -1    0    0    0  501  0.00000000000E+00  0.00000000000E+00  0.11019545452E+04  0.11019545452E+04  0.25500000920E-02 0.  1.
        2   -1    0    0  501    0  0.00000000000E+00  0.00000000000E+00 -0.29305344841E+04  0.29305344841E+04  0.25500000920E-02 0. -1.
    10030    2    1    2    0    0  0.00000000000E+00  0.00000000000E+00 -0.18285799389E+04  0.40324890293E+04  0.35940594289E+04 0.  0.
        3    1    3    3  502    0  0.78626214028E+03 -0.12568761744E+04 -0.20537396989E+04  0.25329414980E+04  0.10100000352E+00 0.  1.
       -3    1    3    3    0  502 -0.78626214028E+03  0.12568761744E+04  0.22515976000E+03  0.14995475314E+04  0.10100000352E+00 0. -1.
</event>
<event>
 5   0  0.2238968E-07  0.3594779E+04  0.7818609E-02  0.8091689E-01
        2   -1    0    0  501    0  0.00000000000E+00  0.00000000000E+00  0.25611412331E+04  0.25611412331E+04  0.25500000920E-02 0.  1.
       -2   -1    0    0    0  501  0.00000000000E+00  0.00000000000E+00 -0.12613943677E+04  0.12613943677E+04  0.25500000920E-02 0. -1.
    10030    2    1    2    0    0  0.00000000000E+00  0.00000000000E+00  0.12997468654E+04  0.38225356007E+04  0.35947790620E+04 0.  0.
        3    1    3    3  502    0 -0.12190238014E+04  0.12943960648E+04  0.37029143368E+03  0.18162037212E+04  0.10100000352E+00 0.  1.
       -3    1    3    3    0  502  0.12190238014E+04 -0.12943960648E+04  0.92945543175E+03  0.20063318795E+04  0.10100000352E+00 0. -1.
</event>
<event>
 5   0  0.2198900E-07  0.3616338E+04  0.7818609E-02  0.8086759E-01
       -2   -1    0    0    0  501  0.00000000000E+00  0.00000000000E+00  0.16869850436E+04  0.16869850436E+04  0.25500000920E-02 0.  1.
        2   -1    0    0  501    0  0.00000000000E+00  0.00000000000E+00 -0.19380584051E+04  0.19380584051E+04  0.25500000920E-02 0. -1.
    10030    2    1    2    0    0  0.00000000000E+00  0.00000000000E+00 -0.25107336155E+03  0.36250434487E+04  0.36163382270E+04 0.  0.
        2    1    3    3  502    0 -0.89150343061E+03 -0.38197604423E+03 -0.16552479837E+04  0.19184707328E+04  0.25500000920E-02 0. -1.
       -2    1    3    3    0  502  0.89150343061E+03  0.38197604423E+03  0.14041746221E+04  0.17065727159E+04  0.25500000920E-02 0.  1.
</event>
<event>
 5   0  0.7514289E-08  0.3524700E+04  0.7818609E-02  0.8107961E-01
       -1   -1    0    0    0  501  0.00000000000E+00  0.00000000000E+00  0.13666254905E+04  0.13666254905E+04  0.50400001928E-02 0. -1.
        1   -1    0    0  501    0  0.00000000000E+00  0.00000000000E+00 -0.22726621353E+04  0.22726621353E+04  0.50400001928E-02 0.  1.
    10030    2    1    2    0    0  0.00000000000E+00  0.00000000000E+00 -0.90603664482E+03  0.36392876258E+04  0.35247002740E+04 0.  0.
        4    1    3    3  502    0  0.42432897248E+03 -0.71399705893E+03  0.11518718079E+04  0.14200905436E+04  0.12699999809E+01 0. -1.
       -4    1    3    3    0  502 -0.42432897248E+03  0.71399705893E+03 -0.20579084528E+04  0.22191970823E+04  0.12699999809E+01 0.  1.
</event>
<event>
 5   0  0.2199902E-07  0.3594262E+04  0.7818609E-02  0.8091807E-01
        2   -1    0    0  501    0  0.00000000000E+00  0.00000000000E+00  0.28885156385E+04  0.28885156385E+04  0.25500000920E-02 0.  1.
       -2   -1    0    0    0  501  0.00000000000E+00  0.00000000000E+00 -0.11181106387E+04  0.11181106387E+04  0.25500000920E-02 0. -1.
    10030    2    1    2    0    0  0.00000000000E+00  0.00000000000E+00  0.17704049997E+04  0.40066262772E+04  0.35942621304E+04 0.  0.
        1    1    3    3  502    0  0.87382433780E+03 -0.73654515753E+02 -0.86342456596E+03  0.12306485860E+04  0.50400001928E-02 0. -1.
       -1    1    3    3    0  502 -0.87382433780E+03  0.73654515753E+02  0.26338295657E+04  0.27759776912E+04  0.50400001928E-02 0.  1.
</event>
<event>
 5   0  0.2198900E-07  0.3602911E+04  0.7818609E-02  0.8089825E-01
       -2   -1    0    0    0  501  0.00000000000E+00  0.00000000000E+00  0.24309329166E+04  0.24309329166E+04  0.25500000920E-02 0. -1.
        2   -1    0    0  501    0  0.00000000000E+00  0.00000000000E+00 -0.13349778496E+04  0.13349778496E+04  0.25500000920E-02 0.  1.
    10030    2    1    2    0    0  0.00000000000E+00  0.00000000000E+00  0.10959550671E+04  0.37659107662E+04  0.36029108218E+04 0.  0.
        2    1    3    3  502    0 -0.98581959518E+03 -0.60681637333E+03 -0.89474884890E+03  0.14630932601E+04  0.25500000920E-02 0.  1.
       -2    1    3    3    0  502  0.98581959518E+03  0.60681637333E+03  0.19907039160E+04  0.23028175061E+04  0.25500000920E-02 0. -1.
</event>
<event>
 5   0  0.2199902E-07  0.3601939E+04  0.7818609E-02  0.8090048E-01
       -2   -1    0    0    0  501  0.00000000000E+00  0.00000000000E+00  0.14798713081E+04  0.14798713081E+04  0.25500000920E-02 0. -1.
        2   -1    0    0  501    0  0.00000000000E+00  0.00000000000E+00 -0.21917382869E+04  0.21917382869E+04  0.25500000920E-02 0.  1.
    10030    2    1    2    0    0  0.00000000000E+00  0.00000000000E+00 -0.71186697875E+03  0.36716095951E+04  0.36019387034E+04 0.  0.
        1    1    3    3  502    0  0.99787633328E+03  0.50958810673E+03 -0.17931897200E+04  0.21144660288E+04  0.50400001928E-02 0.  1.
       -1    1    3    3    0  502 -0.99787633328E+03 -0.50958810673E+03  0.10813227413E+04  0.15571435662E+04  0.50400001928E-02 0. -1.
</event>
<event>
 5   0  0.2238968E-07  0.3599308E+04  0.7818609E-02  0.8090650E-01
        2   -1    0    0  501    0  0.00000000000E+00  0.00000000000E+00  0.20408993816E+04  0.20408993816E+04  0.25500000920E-02 0.  1.
       -2   -1    0    0    0  501  0.00000000000E+00  0.00000000000E+00 -0.15869254837E+04  0.15869254837E+04  0.25500000920E-02 0. -1.
    10030    2    1    2    0    0  0.00000000000E+00  0.00000000000E+00  0.45397389786E+03  0.36278248653E+04  0.35993083993E+04 0.  0.
        3    1    3    3  502    0  0.53615731658E+03  0.16717668053E+04 -0.17173066945E+03  0.17640182404E+04  0.10100000352E+00 0. -1.
       -3    1    3    3    0  502 -0.53615731658E+03 -0.16717668053E+04  0.62570456731E+03  0.18638066249E+04  0.10100000352E+00 0.  1.
</event>
<event>
 5   0  0.7347303E-08  0.3598663E+04  0.7818609E-02  0.8090798E-01
       -1   -1    0    0    0  501  0.00000000000E+00  0.00000000000E+00  0.14129093965E+04  0.14129093965E+04  0.50400001928E-02 0. -1.
        1   -1    0    0  501    0  0.00000000000E+00  0.00000000000E+00 -0.22914378898E+04  0.22914378898E+04  0.50400001928E-02 0.  1.
    10030    2    1    2    0    0  0.00000000000E+00  0.00000000000E+00 -0.87852849331E+03  0.37043472863E+04  0.35986631551E+04 0.  0.
        2    1    3    3  502    0  0.13691950061E+04  0.77203321146E+03 -0.13406893324E+04  0.20659569527E+04  0.25500000920E-02 0.  1.
       -2    1    3    3    0  502 -0.13691950061E+04 -0.77203321146E+03  0.46216083906E+03  0.16383903337E+04  0.25500000920E-02 0. -1.
</event>
<event>
 5   0  0.2199902E-07  0.3601052E+04  0.7818609E-02  0.8090251E-01
        2   -1    0    0  501    0  0.00000000000E+00  0.00000000000E+00  0.23789177950E+04  0.23789177950E+04  0.25500000920E-02 0.  1.
       -2   -1    0    0    0  501  0.00000000000E+00  0.00000000000E+00 -0.13627596854E+04  0.13627596854E+04  0.25500000920E-02 0. -1.
    10030    2    1    2    0    0  0.00000000000E+00  0.00000000000E+00  0.10161581097E+04  0.37416774804E+04  0.36010516608E+04 0.  0.
        1    1    3    3  502    0  0.68172932706E+03 -0.16497857619E+04  0.26363611962E+03  0.18044533630E+04  0.50400001928E-02 0. -1.
       -1    1    3    3    0  502 -0.68172932706E+03  0.16497857619E+04  0.75252199005E+03  0.19372241174E+04  0.50400001928E-02 0.  1.
</event>
<event>
 5   0  0.2309391E-07  0.3537946E+04  0.7818609E-02  0.8104856E-01
       -2   -1    0    0    0  501  0.00000000000E+00  0.00000000000E+00  0.13693585174E+04  0.13693585174E+04  0.25500000920E-02 0. -1.
        2   -1    0    0  501    0  0.00000000000E+00  0.00000000000E+00 -0.22852053230E+04  0.22852053230E+04  0.25500000920E-02 0.  1.
    10030    2    1    2    0    0  0.00000000000E+00  0.00000000000E+00 -0.91584680565E+03  0.36545638404E+04  0.35379459425E+04 0.  0.
        4    1    3    3  502    0  0.55495690085E+03 -0.14085054078E+04 -0.14031819405E+04  0.20641670999E+04  0.12699999809E+01 0.  1.
       -4    1    3    3    0  502 -0.55495690085E+03  0.14085054078E+04  0.48733513482E+03  0.15903967404E+04  0.12699999809E+01 0. -1.
</event>
<event>
 5   0  0.7236375E-08  0.3681923E+04  0.7818609E-02  0.8071980E-01
        1   -1    0    0  501    0  0.00000000000E+00  0.00000000000E+00  0.20197818485E+04  0.20197818485E+04  0.50400001928E-02 0.  1.
       -1   -1    0    0    0  501  0.00000000000E+00  0.00000000000E+00 -0.16779727846E+04  0.16779727846E+04  0.50400001928E-02 0. -1.
    10030    2    1    2    0    0  0.00000000000E+00  0.00000000000E+00  0.34180906395E+03  0.36977546331E+04  0.36819228524E+04 0.  0.
        1    1    3    3  502    0 -0.35449864489E+03 -0.18569933271E+03  0.19755689222E+04  0.20156949416E+04  0.50400001928E-02 0.  1.
       -1    1    3    3    0  502  0.35449864489E+03  0.18569933271E+03 -0.16337598582E+04  0.16820596915E+04  0.50400001928E-02 0. -1.
</event>
<event>
 5   0  0.7347303E-08  0.3600634E+04  0.7818609E-02  0.8090347E-01
        1   -1    0    0  501    0  0.00000000000E+00  0.00000000000E+00  0.96411876920E+03  0.96411876921E+03  0.50400001928E-02 0. -1.
       -1   -1    0    0    0  501  0.00000000000E+00  0.00000000000E+00 -0.33617649106E+04  0.33617649106E+04  0.50400001928E-02 0.  1.
    10030    2    1    2    0    0  0.00000000000E+00  0.00000000000E+00 -0.23976461414E+04  0.43258836798E+04  0.36006336375E+04 0.  0.
        2    1    3    3  502    0  0.17166478238E+04  0.49997829098E+03 -0.94600245400E+03  0.20228145455E+04  0.25500000920E-02 0. -1.
       -2    1    3    3    0  502 -0.17166478238E+04 -0.49997829098E+03 -0.14516436874E+04  0.23030691343E+04  0.25500000920E-02 0.  1.
</event>
<event>
 5   0  0.7236375E-08  0.3595867E+04  0.7818609E-02  0.8091439E-01
       -1   -1    0    0    0  501  0.00000000000E+00  0.00000000000E+00  0.10730591295E+04  0.10730591295E+04  0.50400001928E-02 0. -1.
        1   -1    0    0  501    0  0.00000000000E+00  0.00000000000E+00 -0.30124755646E+04  0.30124755646E+04  0.50400001928E-02 0.  1.
    10030    2    1    2    0    0  0.00000000000E+00  0.00000000000E+00 -0.19394164351E+04  0.40855346941E+04  0.35958667422E+04 0.  0.
        5    1    3    3  502    0  0.84668559399E+03  0.15530528268E+04 -0.13355720565E+04  0.22164440859E+04  0.46999998093E+01 0.  1.
       -5    1    3    3    0  502 -0.84668559399E+03 -0.15530528268E+04 -0.60384437862E+03  0.18690906082E+04  0.46999998093E+01 0. -1.
</event>
<event>
 5   0  0.7261233E-08  0.3582530E+04  0.7818609E-02  0.8094505E-01
        1   -1    0    0  501    0  0.00000000000E+00  0.00000000000E+00  0.18256076626E+04  0.18256076626E+04  0.50400001928E-02 0.  1.
       -1   -1    0    0    0  501  0.00000000000E+00  0.00000000000E+00 -0.17575688223E+04  0.17575688223E+04  0.50400001928E-02 0. -1.
    10030    2    1    2    0    0  0.00000000000E+00  0.00000000000E+00  0.68038840235E+02  0.35831764849E+04  0.35825304518E+04 0.  0.
        3    1    3    3  502    0 -0.10583105673E+04 -0.22540552958E+03  0.14617929331E+04  0.18186993977E+04  0.10100000352E+00 0.  1.
       -3    1    3    3    0  502  0.10583105673E+04  0.22540552958E+03 -0.13937540929E+04  0.17644770872E+04  0.10100000352E+00 0. -1.
</event>
<event>
 5   0  0.2309391E-07  0.3620266E+04  0.7818609E-02  0.8085865E-01
       -2   -1    0    0    0  501  0.00000000000E+00  0.00000000000E+00  0.12104732549E+04  0.12104732549E+04  0.25500000920E-02 0. -1.
        2   -1    0    0  501    0  0.00000000000E+00  0.00000000000E+00 -0.27068606075E+04  0.27068606075E+04  0.25500000920E-02 0.  1.
    10030    2    1    2    0    0  0.00000000000E+00  0.00000000000E+00 -0.14963873526E+04  0.39173338623E+04  0.36202664929E+04 0.  0.
        4    1    3    3  502    0 -0.14567214469E+04  0.22205520590E+03 -0.18857615928E+04  0.23932079488E+04  0.12699999809E+01 0.  1.
       -4    1    3    3    0  502  0.14567214469E+04 -0.22205520590E+03  0.38937424020E+03  0.15241259135E+04  0.12699999809E+01 0. -1.
</event>
<event>
 5   0  0.7236375E-08  0.3605495E+04  0.7818609E-02  0.8089234E-01
       -1   -1    0    0    0  501  0.00000000000E+00  0.00000000000E+00  0.16762623998E+04  0.16762623998E+04  0.50400001928E-02 0.  1.
        1   -1    0    0  501    0  0.00000000000E+00  0.00000000000E+00 -0.19387763646E+04  0.19387763646E+04  0.50400001928E-02 0. -1.
    10030    2    1    2    0    0  0.00000000000E+00  0.00000000000E+00 -0.26251396477E+03  0.36150387644E+04  0.36054946522E+04 0.  0.
        1    1    3    3  502    0 -0.96242258356E+03 -0.12028991103E+04 -0.10700444232E+04  0.18756914902E+04  0.50400001928E-02 0. -1.
       -1    1    3    3    0  502  0.96242258356E+03  0.12028991103E+04  0.80753045841E+03  0.17393472742E+04  0.50400001928E-02 0.  1.
</event>
<event>
 5   0  0.2342606E-07  0.3560813E+04  0.7818609E-02  0.8099527E-01
       -2   -1    0    0    0  501  0.00000000000E+00  0.00000000000E+00  0.22147444596E+04  0.22147444596E+04  0.25500000920E-02 0.  1.
        2   -1    0    0  501    0  0.00000000000E+00  0.00000000000E+00 -0.14312473119E+04  0.14312473120E+04  0.25500000920E-02 0. -1.
    10030    2    1    2    0    0  0.00000000000E+00  0.00000000000E+00  0.78349714764E+03  0.36459917715E+04  0.35608128591E+04 0.  0.
        5    1    3    3  502    0  0.27742639467E+03 -0.16796879183E+04  0.92527740785E+03  0.19376473567E+04  0.46999998093E+01 0.  1.
       -5    1    3    3    0  502 -0.27742639467E+03  0.16796879183E+04 -0.14178026020E+03  0.17083444148E+04  0.46999998093E+01 0. -1.
</event>
<event>
 5   0  0.2342606E-07  0.3599993E+04  0.7818609E-02  0.8090493E-01
        2   -1    0    0  501    0  0.00000000000E+00  0.00000000000E+00  0.11146408842E+04  0.11146408842E+04  0.25500000920E-02 0.  1.
       -2   -1    0    0    0  501  0.00000000000E+00  0.00000000000E+00 -0.29067551506E+04  0.29067551506E+04  0.25500000920E-02 0. -1.
    10030    2    1    2    0    0  0.00000000000E+00  0.00000000000E+00 -0.17921142664E+04  0.40213960348E+04  0.35999934062E+04 0.  0.
        5    1    3    3  502    0  0.13777319945E+03 -0.54680514611E+03 -0.28055340273E+04  0.28616464825E+04  0.46999998093E+01 0. -1.
       -5    1    3    3    0  502 -0.13777319945E+03  0.54680514611E+03  0.10134197609E+04  0.11597495523E+04  0.46999998093E+01 0.  1.
</event>
<event>
 5   0  0.2342606E-07  0.3584695E+04  0.7818609E-02  0.8094007E-01
       -2   -1    0    0    0  501  0.00000000000E+00  0.00000000000E+00  0.16460716435E+04  0.16460716435E+04  0.25500000920E-02 0.  1.
        2   -1    0    0  501    0  0.00000000000E+00  0.00000000000E+00 -0.19516217770E+04  0.19516217770E+04  0.25500000920E-02 0. -1.
    10030    2    1    2    0    0  0.00000000000E+00  0.00000000000E+00 -0.30555013351E+03  0.35976934205E+04  0.35846948355E+04 0.  0.
        5    1    3    3  502    0  0.11151392648E+04 -0.50241478605E+03 -0.14676903846E+04  0.19105217487E+04  0.46999998093E+01 0. -1.
       -5    1    3    3    0  502 -0.11151392648E+04  0.50241478605E+03  0.11621402511E+04  0.16871716718E+04  0.46999998093E+01 0.  1.
</event>
<event>
 5   0  0.2198900E-07  0.3600508E+04  0.7818609E-02  0.8090375E-01
       -2   -1    0    0    0  501  0.00000000000E+00  0.00000000000E+00  0.11821260240E+04  0.11821260240E+04  0.25500000920E-02 0.  1.
        2   -1    0    0  501    0  0.00000000000E+00  0.00000000000E+00 -0.27415983173E+04  0.27415983173E+04  0.25500000920E-02 0. -1.
    10030    2    1    2    0    0  0.00000000000E+00  0.00000000000E+00 -0.15594722933E+04  0.39237243412E+04  0.36005081408E+04 0.  0.
        2    1    3    3  502    0 -0.90521699974E+03  0.80377339083E+03 -0.22318087520E+04  0.25389840066E+04  0.25500000920E-02 0. -1.
       -2    1    3    3    0  502  0.90521699974E+03 -0.80377339083E+03  0.67233645872E+03  0.13847403346E+04  0.25500000920E-02 0.  1.
</event>
<event>
 5   0  0.7514289E-08  0.3645328E+04  0.7818609E-02  0.8080187E-01
       -1   -1    0    0    0  501  0.00000000000E+00  0.00000000000E+00  0.19520466874E+04  0.19520466874E+04  0.50400001928E-02 0. -1.
        1   -1    0    0  501    0  0.00000000000E+00  0.00000000000E+00 -0.17018569967E+04  0.17018569967E+04  0.50400001928E-02 0.  1.
    10030    2    1    2    0    0  0.00000000000E+00  0.00000000000E+00  0.25018969077E+03  0.36539036841E+04  0.36453281404E+04 0.  0.
        4    1    3    3  502    0 -0.10354883290E+04  0.11065331824E+04 -0.88993289184E+03  0.17574509746E+04  0.12699999809E+01 0.  1.
       -4    1    3    3    0  502  0.10354883290E+04 -0.11065331824E+04  0.11401225826E+04  0.18964527095E+04  0.12699999809E+01 0. -1.
</event>
<event>
 5   0  0.2199902E-07  0.3594204E+04  0.7818609E-02  0.8091821E-01
        2   -1    0    0  501    0  0.00000000000E+00  0.00000000000E+00  0.21517434124E+04  0.21517434124E+04  0.25500000920E-02 0. -1.
       -2   -1    0    0    0  501  0.00000000000E+00  0.00000000000E+00 -0.15009112741E+04  0.15009112741E+04  0.25500000920E-02 0.  1.
    10030    2    1    2    0    0  0.00000000000E+00  0.00000000000E+00  0.65083213829E+03  0.36526546865E+04  0.35942041937E+04 0.  0.
        1    1    3    3  502    0  0.35131578025E+03 -0.10158904084E+04  0.17890173942E+04  0.20871126793E+04  0.50400001928E-02 0. -1.
       -1    1    3    3    0  502 -0.35131578025E+03  0.10158904084E+04 -0.11381852559E+04  0.15655420072E+04  0.50400001928E-02 0.  1.
</event>
<event>
 5   0  0.2342606E-07  0.3591540E+04  0.7818609E-02  0.8092432E-01
       -2   -1    0    0    0  501  0.00000000000E+00  0.00000000000E+00  0.23933728180E+04  0.23933728180E+04  0.25500000920E-02 0.  1.
        2   -1    0    0  501    0  0.00000000000E+00  0.00000000000E+00 -0.13473826795E+04  0.13473826795E+04  0.25500000920E-02 0. -1.
    10030    2    1    2    0    0  0.00000000000E+00  0.00000000000E+00  0.10459901385E+04  0.37407554975E+04  0.35915395477E+04 0.  0.
        5    1    3    3  502    0  0.81427723325E+03 -0.97023707173E+03  0.18488144814E+04  0.22411034034E+04  0.46999998093E+01 0.  1.
       -5    1    3    3    0  502 -0.81427723325E+03  0.97023707173E+03 -0.80282434294E+03  0.14996520942E+04  0.46999998093E+01 0. -1.
</event>
<event>
 5   0  0.2309391E-07  0.3602782E+04  0.7818609E-02  0.8089855E-01
       -2   -1    0    0    0  501  0.00000000000E+00  0.00000000000E+00  0.16073234073E+04  0.16073234073E+04  0.25500000920E-02 0. -1.
        2   -1    0    0  501    0  0.00000000000E+00  0.00000000000E+00 -0.20188906799E+04  0.20188906799E+04  0.25500000920E-02 0.  1.
    10030    2    1    2    0    0  0.00000000000E+00  0.00000000000E+00 -0.41156727255E+03  0.36262140872E+04  0.36027823951E+04 0.  0.
        4    1    3    3  502    0 -0.17998754860E+04 -0.42336031796E+02 -0.14485457411E+03  0.18061917299E+04  0.12699999809E+01 0. -1.
       -4    1    3    3    0  502  0.17998754860E+04  0.42336031796E+02 -0.26671269843E+03  0.18200223573E+04  0.12699999809E+01 0.  1.
</event>
<event>
 5   0  0.2238968E-07  0.3604745E+04  0.7818609E-02  0.8089406E-01
       -2   -1    0    0    0  501  0.00000000000E+00  0.00000000000E+00  0.15832443112E+04  0.15832443112E+04  0.25500000920E-02 0.  1.
        2   -1    0    0  501    0  0.00000000000E+00  0.00000000000E+00 -0.20518290867E+04  0.20518290867E+04  0.25500000920E-02 0. -1.
    10030    2    1    2    0    0  0.00000000000E+00  0.00000000000E+00 -0.46858477554E+03  0.36350733979E+04  0.36047450557E+04 0.  0.
        3    1    3    3  502    0 -0.17579977773E+04  0.37075925866E+03 -0.89810611977E+02  0.17989120515E+04  0.10100000352E+00 0.  1.
       -3    1    3    3    0  502  0.17579977773E+04 -0.37075925866E+03 -0.37877416357E+03  0.18361613464E+04  0.10100000352E+00 0. -1.
</event>
<event>
 5   0  0.2342606E-07  0.3606400E+04  0.7818609E-02  0.8089027E-01
        2   -1    0    0  501    0  0.00000000000E+00  0.00000000000E+00  0.28614908559E+04  0.28614908559E+04  0.25500000920E-02 0. -1.
       -2   -1    0    0    0  501  0.00000000000E+00  0.00000000000E+00 -0.11363063093E+04  0.11363063093E+04  0.25500000920E-02 0.  1.
    10030    2    1    2    0    0  0.00000000000E+00  0.00000000000E+00  0.17251845466E+04  0.39977971651E+04  0.36063999298E+04 0.  0.
        5    1    3    3  502    0 -0.59550711378E+03 -0.16295788604E+04  0.31799889597E+03  0.17638881406E+04  0.46999998093E+01 0. -1.
       -5    1    3    3    0  502  0.59550711378E+03  0.16295788604E+04  0.14071856506E+04  0.22339090245E+04  0.46999998093E+01 0.  1.
</event>
<event>
 5   0  0.7514289E-08  0.3611750E+04  0.7818609E-02  0.8087805E-01
       -1   -1    0    0    0  501  0.00000000000E+00  0.00000000000E+00  0.13237816632E+04  0.13237816632E+04  0.50400001928E-02 0.  1.
        1   -1    0    0  501    0  0.00000000000E+00  0.00000000000E+00 -0.24635371713E+04  0.24635371713E+04  0.50400001928E-02 0. -1.
    10030    2    1    2    0    0  0.00000000000E+00  0.00000000000E+00 -0.11397555082E+04  0.37873188345E+04  0.36117504532E+04 0.  0.
        4    1    3    3  502    0 -0.10804581164E+04  0.14426976037E+04 -0.45302659148E+03  0.18584942352E+04  0.12699999809E+01 0. -1.
       -4    1    3    3    0  502  0.10804581164E+04 -0.14426976037E+04 -0.68672891669E+03  0.19288245993E+04  0.12699999809E+01 0.  1.
</event>
<event>
 5   0  0.7261233E-08  0.3599731E+04  0.7818609E-02  0.8090553E-01
       -1   -1    0    0    0  501  0.00000000000E+00  0.00000000000E+00  0.15820929459E+04  0.15820929459E+04  0.50400001928E-02 0. -1.
        1   -1    0    0  501    0  0.00000000000E+00  0.00000000000E+00 -0.20476139381E+04  0.20476139381E+04  0.50400001928E-02 0.  1.
    10030    2    1    2    0    0  0.00000000000E+00  0.00000000000E+00 -0.46552099224E+03  0.36297068840E+04  0.35997308607E+04 0.  0.
        3    1    3    3  502    0 -0.39837387317E+03 -0.11772554557E+04  0.10799574959E+04  0.16464933507E+04  0.10100000352E+00 0. -1.
       -3    1    3    3    0  502  0.39837387317E+03  0.11772554557E+04 -0.15454784881E+04  0.19832135332E+04  0.10100000352E+00 0.  1.
</event>
<event>
 5   0  0.7236375E-08  0.3590655E+04  0.7818609E-02  0.8092636E-01
       -1   -1    0    0    0  501  0.00000000000E+00  0.00000000000E+00  0.15939210913E+04  0.15939210913E+04  0.50400001928E-02 0. -1.
        1   -1    0    0  501    0  0.00000000000E+00  0.00000000000E+00 -0.20221829319E+04  0.20221829319E+04  0.50400001928E-02 0.  1.
    10030    2    1    2    0    0  0.00000000000E+00  0.00000000000E+00 -0.42826184067E+03  0.36161040232E+04  0.35906545507E+04 0.  0.
        5    1    3    3  502    0 -0.98093353991E+03  0.78974600992E+03  0.10744882857E+04  0.16554384724E+04  0.46999998093E+01 0. -1.
       -5    1    3    3    0  502  0.98093353991E+03 -0.78974600992E+03 -0.15027501263E+04  0.19606655508E+04  0.46999998093E+01 0.  1.
</event>
<event>
 5   0  0.2199902E-07  0.3597006E+04  0.7818609E-02  0.8091178E-01
        2   -1    0    0  501    0  0.00000000000E+00  0.00000000000E+00  0.17960823160E+04  0.17960823160E+04  0.25500000920E-02 0. -1.
       -2   -1    0    0    0  501  0.00000000000E+00  0.00000000000E+00 -0.18009271657E+04  0.18009271657E+04  0.25500000920E-02 0.  1.
    10030    2    1    2    0    0  0.00000000000E+00  0.00000000000E+00 -0.48448496930E+01  0.35970094817E+04  0.35970062189E+04 0.  0.
        1    1    3    3  502    0  0.25481044609E+02  0.17680185784E+04 -0.33116952166E+03  0.17989475338E+04  0.50400001928E-02 0.  1.
       -1    1    3    3    0  502 -0.25481044609E+02 -0.17680185784E+04  0.32632467197E+03  0.17980619479E+04  0.50400001928E-02 0. -1.
</event>
<event>
 5   0  0.2342606E-07  0.3580841E+04  0.7818609E-02  0.8094894E-01
       -2   -1    0    0    0  501  0.00000000000E+00  0.00000000000E+00  0.18368433623E+04  0.18368433623E+04  0.25500000920E-02 0. -1.
        2   -1    0    0  501    0  0.00000000000E+00  0.00000000000E+00 -0.17451709596E+04  0.17451709596E+04  0.25500000920E-02 0.  1.
    10030    2    1    2    0    0  0.00000000000E+00  0.00000000000E+00  0.91672402690E+02  0.35820143218E+04  0.35808410705E+04 0.  0.
        5    1    3    3  502    0  0.29022876957E+03 -0.40168259615E+03  0.17668655285E+04  0.18350524604E+04  0.46999998093E+01 0. -1.
       -5    1    3    3    0  502 -0.29022876957E+03  0.40168259615E+03 -0.16751931258E+04  0.17469618615E+04  0.46999998093E+01 0.  1.
</event>
<event>
 5   0  0.7236375E-08  0.3591553E+04  0.7818609E-02  0.8092429E-01
        1   -1    0    0  501    0  0.00000000000E+00  0.00000000000E+00  0.21439055162E+04  0.21439055163E+04  0.50400001928E-02 0.  1.
       -1   -1    0    0    0  501  0.00000000000E+00  0.00000000000E+00 -0.15041772474E+04  0.15041772474E+04  0.50400001928E-02 0. -1.
    10030    2    1    2    0    0  0.00000000000E+00  0.00000000000E+00  0.63972826888E+03  0.36480827636E+04  0.35915533676E+04 0.  0.
        5    1    3    3  502    0  0.13562953883E+04 -0.76535000056E+03  0.12280818399E+04  0.19833065570E+04  0.46999998093E+01 0.  1.
       -5    1    3    3    0  502 -0.13562953883E+04  0.76535000056E+03 -0.58835357099E+03  0.16647762066E+04  0.46999998093E+01 0. -1.
</event>
<event>
 5   0  0.7236375E-08  0.3599101E+04  0.7818609E-02  0.8090698E-01
       -1   -1    0    0    0  501  0.00000000000E+00  0.00000000000E+00  0.13438380657E+04  0.13438380657E+04  0.50400001928E-02 0.  1.
        1   -1    0    0  501    0  0.00000000000E+00  0.00000000000E+00 -0.24098003243E+04  0.24098003243E+04  0.50400001928E-02 0. -1.
    10030    2    1    2    0    0  0.00000000000E+00  0.00000000000E+00 -0.10659622586E+04  0.37536383900E+04  0.35991006690E+04 0.  0.
        1    1    3    3  502    0 -0.10258423099E+04  0.54797669578E+02  0.10079666084E+04  0.14392192026E+04  0.50400001928E-02 0.  1.
       -1    1    3    3    0  502  0.10258423099E+04 -0.54797669578E+02 -0.20739288671E+04  0.23144191874E+04  0.50400001928E-02 0. -1.
</event>
<event>
 5   0  0.2198900E-07  0.3602482E+04  0.7818609E-02  0.8089923E-01
        2   -1    0    0  501    0  0.00000000000E+00  0.00000000000E+00  0.22866702916E+04  0.22866702916E+04  0.25500000920E-02 0. -1.
       -2   -1    0    0    0  501  0.00000000000E+00  0.00000000000E+00 -0.14188619571E+04  0.14188619571E+04  0.25500000920E-02 0.  1.
    10030    2    1    2    0    0  0.00000000000E+00  0.00000000000E+00  0.86780833448E+03  0.37055322487E+04  0.36024821916E+04 0.  0.
        2    1    3    3  502    0 -0.10152136554E+04  0.14862514051E+04  0.36214112446E+03  0.18359597488E+04  0.25500000920E-02 0. -1.
       -2    1    3    3    0  502  0.10152136554E+04 -0.14862514051E+04  0.50566721002E+03  0.18695724999E+04  0.25500000920E-02 0.  1.
</event>
<event>
 5   0  0.7236375E-08  0.3588120E+04  0.7818609E-02  0.8093218E-01
        1   -1    0    0  501    0  0.00000000000E+00  0.00000000000E+00  0.21544694633E+04  0.21544694633E+04  0.50400001928E-02 0. -1.
       -1   -1    0    0    0  501  0.00000000000E+00  0.00000000000E+00 -0.14939410698E+04  0.14939410698E+04  0.50400001928E-02 0.  1.
    10030    2    1    2    0    0  0.00000000000E+00  0.00000000000E+00  0.66052839357E+03  0.36484105331E+04  0.35881195157E+04 0.  0.
        1    1    3    3  502    0  0.52848390913E+03 -0.94809113507E+03  0.17827195729E+04  0.20871658099E+04  0.50400001928E-02 0. -1.
       -1    1    3    3    0  502 -0.52848390913E+03  0.94809113507E+03 -0.11221911793E+04  0.15612447231E+04  0.50400001928E-02 0.  1.
</event>
<event>
 5   0  0.2309391E-07  0.3570430E+04  0.7818609E-02  0.8097299E-01
        2   -1    0    0  501    0  0.00000000000E+00  0.00000000000E+00  0.27057297593E+04  0.27057297593E+04  0.25500000920E-02 0. -1.
       -2   -1    0    0    0  501  0.00000000000E+00  0.00000000000E+00 -0.11778678369E+04  0.11778678369E+04  0.25500000920E-02 0.  1.
    10030    2    1    2    0    0  0.00000000000E+00  0.00000000000E+00  0.15278619224E+04  0.38835975962E+04  0.35704296989E+04 0.  0.
        4    1    3    3  502    0  0.66015005010E+03 -0.15555330420E+04  0.13902009546E+04  0.21881822228E+04  0.12699999809E+01 0.  1.
       -4    1    3    3    0  502 -0.66015005010E+03  0.15555330420E+04  0.13766096787E+03  0.16954153734E+04  0.12699999809E+01 0. -1.
</event>
<event>
 5   0  0.2199902E-07  0.3591150E+04  0.7818609E-02  0.8092522E-01
        2   -1    0    0  501    0  0.00000000000E+00  0.00000000000E+00  0.19682894492E+04  0.19682894492E+04  0.25500000920E-02 0.  1.
       -2   -1    0    0    0  501  0.00000000000E+00  0.00000000000E+00 -0.16380160693E+04  0.16380160693E+04  0.25500000920E-02 0. -1.
    10030    2    1    2    0    0  0.00000000000E+00  0.00000000000E+00  0.33027337996E+03  0.36063055185E+04  0.35911500926E+04 0.  0.
        1    1    3    3  502    0 -0.13999580609E+04 -0.80918421519E+02 -0.96105022576E+03  0.17000140881E+04  0.50400001928E-02 0. -1.
       -1    1    3    3    0  502  0.13999580609E+04  0.80918421519E+02  0.12913236057E+04  0.19062914305E+04  0.50400001928E-02 0.  1.
</event>
<event>
 5   0  0.2342606E-07  0.3598546E+04  0.7818609E-02  0.8090825E-01
       -2   -1    0    0    0  501  0.00000000000E+00  0.00000000000E+00  0.14412652388E+04  0.14412652388E+04  0.25500000920E-02 0.  1.
        2   -1    0    0  501    0  0.00000000000E+00  0.00000000000E+00 -0.22462096316E+04  0.22462096316E+04  0.25500000920E-02 0. -1.
    10030    2    1    2    0    0  0.00000000000E+00  0.00000000000E+00 -0.80494439278E+03  0.36874748704E+04  0.35985462959E+04 0.  0.
        5    1    3    3  502    0  0.60892187227E+03 -0.85447581418E+03 -0.19002522323E+04  0.21706900746E+04  0.46999998093E+01 0. -1.
       -5    1    3    3    0  502 -0.60892187227E+03  0.85447581418E+03  0.10953078395E+04  0.15167847958E+04  0.46999998093E+01 0.  1.
</event>
<event>
 5   0  0.7236375E-08  0.3595426E+04  0.7818609E-02  0.8091540E-01
       -1   -1    0    0    0  501  0.00000000000E+00  0.00000000000E+00  0.21447128671E+04  0.21447128671E+04  0.50400001928E-02 0. -1.
        1   -1    0    0  501    0  0.00000000000E+00  0.00000000000E+00 -0.15068552436E+04  0.15068552436E+04  0.50400001928E-02 0.  1.
    10030    2    1    2    0    0  0.00000000000E+00  0.00000000000E+00  0.63785762354E+03  0.36515681107E+04  0.35954258884E+04 0.  0.
        1    1    3    3  502    0  0.47869751688E+03 -0.19136277042E+03 -0.14301714185E+04  0.15202504100E+04  0.50400001928E-02 0.  1.
       -1    1    3    3    0  502 -0.47869751688E+03  0.19136277042E+03  0.20680290421E+04  0.21313177007E+04  0.50400001928E-02 0. -1.
</event>
<event>
 5   0  0.7236375E-08  0.3614441E+04  0.7818609E-02  0.8087192E-01
       -3   -1    0    0    0  501  0.00000000000E+00  0.00000000000E+00  0.24583062606E+04  0.24583062627E+04  0.10100000352E+00 0.  1.
        3   -1    0    0  501    0  0.00000000000E+00  0.00000000000E+00 -0.13285758366E+04  0.13285758404E+04  0.10100000352E+00 0. -1.
    10030    2    1    2    0    0  0.00000000000E+00  0.00000000000E+00  0.11297304240E+04  0.37868821031E+04  0.36144412060E+04 0.  0.
        3    1    3    3  502    0  0.10300880700E+03 -0.13227529964E+04 -0.72077218523E+03  0.15099002804E+04  0.10100000352E+00 0. -1.
       -3    1    3    3    0  502 -0.10300880700E+03  0.13227529964E+04  0.18505026093E+04  0.22769818227E+04  0.10100000352E+00 0.  1.
</event>
<event>
 5   0  0.2309391E-07  0.3611900E+04  0.7818609E-02  0.8087771E-01
       -2   -1    0    0    0  501  0.00000000000E+00  0.00000000000E+00  0.16391388854E+04  0.16391388854E+04  0.25500000920E-02 0. -1.
        2   -1    0    0  501    0  0.00000000000E+00  0.00000000000E+00 -0.19897367188E+04  0.19897367188E+04  0.25500000920E-02 0.  1.
    10030    2    1    2    0    0  0.00000000000E+00  0.00000000000E+00 -0.35059783340E+03  0.36288756043E+04  0.36118996817E+04 0.  0.
        4    1    3    3  502    0 -0.15028073856E+03  0.75120205292E+03  0.14677970536E+04  0.16556927940E+04  0.12699999809E+01 0. -1.
       -4    1    3    3    0  502  0.15028073856E+03 -0.75120205292E+03 -0.18183948870E+04  0.19731828103E+04  0.12699999809E+01 0.  1.
</event>
<event>
 5   0  0.7514289E-08  0.3602508E+04  0.7818609E-02  0.8089918E-01
        1   -1    0    0  501    0  0.00000000000E+00  0.00000000000E+00  0.16940344802E+04  0.16940344802E+04  0.50400001928E-02 0. -1.
       -1   -1    0    0    0  501  0.00000000000E+00  0.00000000000E+00 -0.19152593952E+04  0.19152593952E+04  0.50400001928E-02 0.  1.
    10030    2    1    2    0    0  0.00000000000E+00  0.00000000000E+00 -0.22122491494E+03  0.36092938754E+04  0.36025077122E+04 0.  0.
        4    1    3    3  502    0 -0.93944470158E+03  0.23043417736E+03 -0.16329673175E+04  0.18979568305E+04  0.12699999809E+01 0.  1.
       -4    1    3    3    0  502  0.93944470158E+03 -0.23043417736E+03  0.14117424025E+04  0.17113370450E+04  0.12699999809E+01 0. -1.
</event>
<event>
 5   0  0.2309391E-07  0.3572839E+04  0.7818609E-02  0.8096742E-01
        2   -1    0    0  501    0  0.00000000000E+00  0.00000000000E+00  0.15563003326E+04  0.15563003326E+04  0.25500000920E-02 0. -1.
       -2   -1    0    0    0  501  0.00000000000E+00  0.00000000000E+00 -0.20505652241E+04  0.20505652241E+04  0.25500000920E-02 0.  1.
    10030    2    1    2    0    0  0.00000000000E+00  0.00000000000E+00 -0.49426489146E+03  0.36068655567E+04  0.35728393976E+04 0.  0.
        4    1    3    3  502    0  0.12052491613E+04 -0.10597799132E+04  0.54489957183E+03  0.16948970946E+04  0.12699999809E+01 0. -1.
       -4    1    3    3    0  502 -0.12052491613E+04  0.10597799132E+04 -0.10391644633E+04  0.19119684620E+04  0.12699999809E+01 0.  1.
</event>
<event>
 5   0  0.7347303E-08  0.3605020E+04  0.7818609E-02  0.8089343E-01
        1   -1    0    0  501    0  0.00000000000E+00  0.00000000000E+00  0.23406927220E+04  0.23406927220E+04  0.50400001928E-02 0.  1.
       -1   -1    0    0    0  501  0.00000000000E+00  0.00000000000E+00 -0.13880683202E+04  0.13880683202E+04  0.50400001928E-02 0. -1.
    10030    2    1    2    0    0  0.00000000000E+00  0.00000000000E+00  0.95262440176E+03  0.37287610422E+04  0.36050195088E+04 0.  0.
        2    1    3    3  502    0 -0.68486846462E+03 -0.34291710369E+03 -0.12113827431E+04  0.14332079766E+04  0.25500000920E-02 0. -1.
       -2    1    3    3    0  502  0.68486846462E+03  0.34291710369E+03  0.21640071449E+04  0.22955530656E+04  0.25500000920E-02 0.  1.
</event>
<event>
 5   0  0.2199902E-07  0.3622767E+04  0.7818609E-02  0.8085297E-01
       -2   -1    0    0    0  501  0.00000000000E+00  0.00000000000E+00  0.14549244528E+04  0.14549244528E+04  0.25500000920E-02 0. -1.
        2   -1    0    0  501    0  0.00000000000E+00  0.00000000000E+00 -0.22551752132E+04  0.22551752132E+04  0.25500000920E-02 0.  1.
    10030    2    1    2    0    0  0.00000000000E+00  0.00000000000E+00 -0.80025076039E+03  0.37100996659E+04  0.36227666571E+04 0.  0.
        1    1    3    3  502    0  0.17709377234E+04 -0.28736639421E+03 -0.14448877667E+03  0.17999102397E+04  0.50400001928E-02 0. -1.
       -1    1    3    3    0  502 -0.17709377234E+04  0.28736639421E+03 -0.65576198371E+03  0.19101894262E+04  0.50400001928E-02 0.  1.
</event>
<event>
 5   0  0.7261233E-08  0.3590807E+04  0.7818609E-02  0.8092601E-01
       -1   -1    0    0    0  501  0.00000000000E+00  0.00000000000E+00  0.23739851456E+04  0.23739851456E+04  0.50400001928E-02 0. -1.
        1   -1    0    0  501    0  0.00000000000E+00  0.00000000000E+00 -0.13578320643E+04  0.13578320643E+04  0.50400001928E-02 0.  1.
    10030    2    1    2    0    0  0.00000000000E+00  0.00000000000E+00  0.10161530813E+04  0.37318172100E+04  0.35908066788E+04 0.  0.
        3    1    3    3  502    0  0.14323885561E+04 -0.26030923796E+03  0.16000397608E+04  0.21632441197E+04  0.10100000352E+00 0.  1.
       -3    1    3    3    0  502 -0.14323885561E+04  0.26030923796E+03 -0.58388667947E+03  0.15685730903E+04  0.10100000352E+00 0. -1.
</event>
<event>
 5   0  0.7236375E-08  0.3564943E+04  0.7818609E-02  0.8098569E-01
        1   -1    0    0  501    0  0.00000000000E+00  0.00000000000E+00  0.18310684014E+04  0.18310684014E+04  0.50400001928E-02 0.  1.
       -1   -1    0    0    0  501  0.00000000000E+00  0.00000000000E+00 -0.17351646318E+04  0.17351646318E+04  0.50400001928E-02 0. -1.
    10030    2    1    2    0    0  0.00000000000E+00  0.00000000000E+00  0.95903769632E+02  0.35662330332E+04  0.35649432694E+04 0.  0.
        1    1    3    3  502    0 -0.13256870627E+03 -0.54114869485E+03  0.17417238552E+04  0.18286657321E+04  0.50400001928E-02 0.  1.
       -1    1    3    3    0  502  0.13256870627E+03  0.54114869485E+03 -0.16458200856E+04  0.17375673011E+04  0.50400001928E-02 0. -1.
</event>
<event>
 5   0  0.7261233E-08  0.3585421E+04  0.7818609E-02  0.8093839E-01
        1   -1    0    0  501    0  0.00000000000E+00  0.00000000000E+00  0.21861794151E+04  0.21861794151E+04  0.50400001928E-02 0. -1.
       -1   -1    0    0    0  501  0.00000000000E+00  0.00000000000E+00 -0.14700581077E+04  0.14700581077E+04  0.50400001928E-02 0.  1.
    10030    2    1    2    0    0  0.00000000000E+00  0.00000000000E+00  0.71612130743E+03  0.36562375228E+04  0.35854209092E+04 0.  0.
        3    1    3    3  502    0 -0.15245576554E+04  0.91237865362E+03  0.11438509379E+03  0.17803917580E+04  0.10100000352E+00 0. -1.
       -3    1    3    3    0  502  0.15245576554E+04 -0.91237865362E+03  0.60173621364E+03  0.18758457647E+04  0.10100000352E+00 0.  1.
</event>
<event>
 5   0  0.2238968E-07  0.3599857E+04  0.7818609E-02  0.8090524E-01
        2   -1    0    0  501    0  0.00000000000E+00  0.00000000000E+00  0.18468506411E+04  0.18468506411E+04  0.25500000920E-02 0.  1.
       -2   -1    0    0    0  501  0.00000000000E+00  0.00000000000E+00 -0.17541988234E+04  0.17541988234E+04  0.25500000920E-02 0. -1.
    10030    2    1    2    0    0  0.00000000000E+00  0.00000000000E+00  0.92651817721E+02  0.36010494645E+04  0.35998573425E+04 0.  0.
        3    1    3    3  502    0  0.43979899503E+03 -0.31617522847E+03  0.17633888142E+04  0.18447032421E+04  0.10100000352E+00 0.  1.
       -3    1    3    3    0  502 -0.43979899503E+03  0.31617522847E+03 -0.16707369965E+04  0.17563462224E+04  0.10100000352E+00 0. -1.
</event>
<event>
 5   0  0.2198900E-07  0.3607693E+04  0.7818609E-02  0.8088732E-01
       -2   -1    0    0    0  501  0.00000000000E+00  0.00000000000E+00  0.20482446362E+04  0.20482446362E+04  0.25500000920E-02 0.  1.
        2   -1    0    0  501    0  0.00000000000E+00  0.00000000000E+00 -0.15886097112E+04  0.15886097112E+04  0.25500000920E-02 0. -1.
    10030    2    1    2    0    0  0.00000000000E+00  0.00000000000E+00  0.45963492500E+03  0.36368543474E+04  0.36076925146E+04 0.  0.
        2    1    3    3  502    0  0.16407254456E+04  0.62013591134E+03 -0.19467151437E+03  0.17647791745E+04  0.25500000920E-02 0.  1.
       -2    1    3    3    0  502 -0.16407254456E+04 -0.62013591134E+03  0.65430643937E+03  0.18720751729E+04  0.25500000920E-02 0. -1.
</event>
<event>
 5   0  0.7514289E-08  0.3605144E+04  0.7818609E-02  0.8089314E-01
        1   -1    0    0  501    0  0.00000000000E+00  0.00000000000E+00  0.20875464001E+04  0.20875464001E+04  0.50400001928E-02 0. -1.
       -1   -1    0    0    0  501  0.00000000000E+00  0.00000000000E+00 -0.15565003456E+04  0.15565003456E+04  0.50400001928E-02 0.  1.
    10030    2    1    2    0    0  0.00000000000E+00  0.00000000000E+00  0.53104605454E+03  0.36440467458E+04  0.36051444871E+04 0.  0.
        4    1    3    3  502    0  0.69032174266E+03  0.40460000185E+03 -0.13671527622E+04  0.15840939233E+04  0.12699999809E+01 0.  1.
       -4    1    3    3    0  502 -0.69032174266E+03 -0.40460000185E+03  0.18981988167E+04  0.20599528224E+04  0.12699999809E+01 0. -1.
</event>
<event>
 5   0  0.2199902E-07  0.3611604E+04  0.7818609E-02  0.8087839E-01
       -2   -1    0    0    0  501  0.00000000000E+00  0.00000000000E+00  0.13814581926E+04  0.13814581926E+04  0.25500000920E-02 0.  1.
        2   -1    0    0  501    0  0.00000000000E+00  0.00000000000E+00 -0.23604920595E+04  0.23604920595E+04  0.25500000920E-02 0. -1.
    10030    2    1    2    0    0  0.00000000000E+00  0.00000000000E+00 -0.97903386689E+03  0.37419502521E+04  0.36116041279E+04 0.  0.
        1    1    3    3  502    0 -0.16720307637E+04  0.30793781977E+03 -0.11200942609E+04  0.20359576933E+04  0.50400001928E-02 0. -1.
       -1    1    3    3    0  502  0.16720307637E+04 -0.30793781977E+03  0.14106039401E+03  0.17059925587E+04  0.50400001928E-02 0.  1.
</event>
<event>
 5   0  0.2342606E-07  0.3679073E+04  0.7818609E-02  0.8072615E-01
        2   -1    0    0  501    0  0.00000000000E+00  0.00000000000E+00  0.11063703320E+04  0.11063703320E+04  0.25500000920E-02 0. -1.
       -2   -1    0    0    0  501  0.00000000000E+00  0.00000000000E+00 -0.30585551396E+04  0.30585551396E+04  0.25500000920E-02 0.  1.
    10030    2    1    2    0    0  0.00000000000E+00  0.00000000000E+00 -0.19521848076E+04  0.41649254717E+04  0.36790730710E+04 0.  0.
        5    1    3    3  502    0  0.15351654178E+04 -0.91291304009E+03 -0.14743646481E+04  0.23160130147E+04  0.46999998093E+01 0.  1.
       -5    1    3    3    0  502 -0.15351654178E+04  0.91291304009E+03 -0.47782015945E+03  0.18489124569E+04  0.46999998093E+01 0. -1.
</event>
<event>
 5   0  0.7514289E-08  0.3602597E+04  0.7818609E-02  0.8089897E-01
        1   -1    0    0  501    0  0.00000000000E+00  0.00000000000E+00  0.34166738400E+04  0.34166738400E+04  0.50400001928E-02 0.  1.
       -1   -1    0    0    0  501  0.00000000000E+00  0.00000000000E+00 -0.94965936433E+03  0.94965936434E+03  0.50400001928E-02 0. -1.
    10030    2    1    2    0    0  0.00000000000E+00  0.00000000000E+00  0.24670144757E+04  0.43663332043E+04  0.36025970116E+04 0.  0.
        4    1    3    3  502    0 -0.26171223726E+03  0.76473407098E+03 -0.71752898993E+03  0.10808149512E+04  0.12699999809E+01 0. -1.
       -4    1    3    3    0  502  0.26171223726E+03 -0.76473407098E+03  0.31845434656E+04  0.32855182531E+04  0.12699999809E+01 0.  1.
</event>
<event>
 5   0  0.2199902E-07  0.3622237E+04  0.7818609E-02  0.8085417E-01
       -2   -1    0    0    0  501  0.00000000000E+00  0.00000000000E+00  0.11570338118E+04  0.11570338118E+04  0.25500000920E-02 0. -1.
        2   -1    0    0  501    0  0.00000000000E+00  0.00000000000E+00 -0.28349647403E+04  0.28349647403E+04  0.25500000920E-02 0.  1.
    10030    2    1    2    0    0  0.00000000000E+00  0.00000000000E+00 -0.16779309285E+04  0.39919985520E+04  0.36222369109E+04 0.  0.
        1    1    3    3  502    0  0.59249597096E+03  0.11613769604E+04 -0.22243922736E+04  0.25783267650E+04  0.50400001928E-02 0.  1.
       -1    1    3    3    0  502 -0.59249597096E+03 -0.11613769604E+04  0.54646134512E+03  0.14136717871E+04  0.50400001928E-02 0. -1.
</event>
<event>
 5   0  0.7236375E-08  0.3636898E+04  0.7818609E-02  0.8082092E-01
       -1   -1    0    0    0  501  0.00000000000E+00  0.00000000000E+00  0.11556562297E+04  0.11556562297E+04  0.50400001928E-02 0.  1.
        1   -1    0    0  501    0  0.00000000000E+00  0.00000000000E+00 -0.28613673612E+04  0.28613673612E+04  0.50400001928E-02 0. -1.
    10030    2    1    2    0    0  0.00000000000E+00  0.00000000000E+00 -0.17057111315E+04  0.40170235909E+04  0.36368981380E+04 0.  0.
        1    1    3    3  502    0  0.10725492955E+03 -0.15001481831E+04 -0.19818496359E+04  0.24879059810E+04  0.50400001928E-02 0. -1.
       -1    1    3    3    0  502 -0.10725492955E+03  0.15001481831E+04  0.27613850442E+03  0.15291176099E+04  0.50400001928E-02 0.  1.
</event>
<event>
 5   0  0.2199902E-07  0.3604260E+04  0.7818609E-02  0.8089517E-01
       -2   -1    0    0    0  501  0.00000000000E+00  0.00000000000E+00  0.15724442125E+04  0.15724442125E+04  0.25500000920E-02 0. -1.
        2   -1    0    0  501    0  0.00000000000E+00  0.00000000000E+00 -0.20653656883E+04  0.20653656883E+04  0.25500000920E-02 0.  1.
    10030    2    1    2    0    0  0.00000000000E+00  0.00000000000E+00 -0.49292147578E+03  0.36378099008E+04  0.36042598815E+04 0.  0.
        1    1    3    3  502    0 -0.75542061119E+03 -0.14744547375E+04  0.46936258585E+03  0.17219112375E+04  0.50400001928E-02 0. -1.
       -1    1    3    3    0  502  0.75542061119E+03  0.14744547375E+04 -0.96228406163E+03  0.19158986633E+04  0.50400001928E-02 0.  1.
</event>
<event>
 5   0  0.7514289E-08  0.3591774E+04  0.7818609E-02  0.8092379E-01
        1   -1    0    0  501    0  0.00000000000E+00  0.00000000000E+00  0.12782002514E+04  0.12782002514E+04  0.50400001928E-02 0.  1.
       -1   -1    0    0    0  501  0.00000000000E+00  0.00000000000E+00 -0.25232432327E+04  0.25232432327E+04  0.50400001928E-02 0. -1.
    10030    2    1    2    0    0  0.00000000000E+00  0.00000000000E+00 -0.12450429812E+04  0.38014434841E+04  0.35917740098E+04 0.  0.
        4    1    3    3  502    0  0.11418229107E+04  0.11786098822E+04  0.14967721729E+03  0.16478123971E+04  0.12699999809E+01 0.  1.
       -4    1    3    3    0  502 -0.11418229107E+04 -0.11786098822E+04 -0.13947201985E+04  0.21536310870E+04  0.12699999809E+01 0. -1.
</event>
<event>
 5   0  0.2198900E-07  0.3636303E+04  0.7818609E-02  0.8082226E-01
       -2   -1    0    0    0  501  0.00000000000E+00  0.00000000000E+00  0.14781339697E+04  0.14781339697E+04  0.25500000920E-02 0.  1.
        2   -1    0    0  501    0  0.00000000000E+00  0.00000000000E+00 -0.22363833863E+04  0.22363833863E+04  0.25500000920E-02 0. -1.
    10030    2    1    2    0    0  0.00000000000E+00  0.00000000000E+00 -0.75824941663E+03  0.37145173560E+04  0.36363026566E+04 0.  0.
        2    1    3    3  502    0 -0.13938703842E+04 -0.64724955118E+03  0.61330078801E+03  0.16546735286E+04  0.25500000920E-02 0. -1.
       -2    1    3    3    0  502  0.13938703842E+04  0.64724955118E+03 -0.13715502046E+04  0.20598438274E+04  0.25500000920E-02 0.  1.
</event>
<event>
 5   0  0.2198900E-07  0.3578275E+04  0.7818609E-02  0.8095486E-01
       -2   -1    0    0    0  501  0.00000000000E+00  0.00000000000E+00  0.18195753095E+04  0.18195753095E+04  0.25500000920E-02 0. -1.
        2   -1    0    0  501    0  0.00000000000E+00  0.00000000000E+00 -0.17592085961E+04  0.17592085961E+04  0.25500000920E-02 0.  1.
    10030    2    1    2    0    0  0.00000000000E+00  0.00000000000E+00  0.60366713477E+02  0.35787839056E+04  0.35782747383E+04 0.  0.
        2    1    3    3  502    0  0.33123527581E+03  0.13436741895E+03  0.17834990113E+04  0.18189667767E+04  0.25500000920E-02 0. -1.
       -2    1    3    3    0  502 -0.33123527581E+03 -0.13436741895E+03 -0.17231322979E+04  0.17598171289E+04  0.25500000920E-02 0.  1.
</event>
<event>
 5   0  0.7514289E-08  0.3597216E+04  0.7818609E-02  0.8091130E-01
       -1   -1    0    0    0  501  0.00000000000E+00  0.00000000000E+00  0.13673799093E+04  0.13673799093E+04  0.50400001928E-02 0. -1.
        1   -1    0    0  501    0  0.00000000000E+00  0.00000000000E+00 -0.23658314802E+04  0.23658314803E+04  0.50400001928E-02 0.  1.
    10030    2    1    2    0    0  0.00000000000E+00  0.00000000000E+00 -0.99845157092E+03  0.37332113896E+04  0.35972158317E+04 0.  0.
        4    1    3    3  502    0 -0.84799108861E+03 -0.15498320087E+04 -0.14894414800E+03  0.17729224782E+04  0.12699999809E+01 0.  1.
       -4    1    3    3    0  502  0.84799108861E+03  0.15498320087E+04 -0.84950742293E+03  0.19602889114E+04  0.12699999809E+01 0. -1.
</event>
<event>
 5   0  0.7236375E-08  0.3581256E+04  0.7818609E-02  0.8094799E-01
        1   -1    0    0  501    0  0.00000000000E+00  0.00000000000E+00  0.19622854928E+04  0.19622854928E+04  0.50400001928E-02 0.  1.
       -1   -1    0    0    0  501  0.00000000000E+00  0.00000000000E+00 -0.16339867178E+04  0.16339867178E+04  0.50400001928E-02 0. -1.
    10030    2    1    2    0    0  0.00000000000E+00  0.00000000000E+00  0.32829877502E+03  0.35962722106E+04  0.35812558869E+04 0.  0.
        5    1    3    3  502    0  0.92330777626E+03  0.14371149009E+04 -0.37525264879E+03  0.17488948306E+04  0.46999998093E+01 0. -1.
       -5    1    3    3    0  502 -0.92330777626E+03 -0.14371149009E+04  0.70355142381E+03  0.18473773800E+04  0.46999998093E+01 0.  1.
</event>
<event>
 5   0  0.7347303E-08  0.3601194E+04  0.7818609E-02  0.8090218E-01
        1   -1    0    0  501    0  0.00000000000E+00  0.00000000000E+00  0.13432232822E+04  0.13432232822E+04  0.50400001928E-02 0. -1.
       -1   -1    0    0    0  501  0.00000000000E+00  0.00000000000E+00 -0.24137092050E+04  0.24137092050E+04  0.50400001928E-02 0.  1.
    10030    2    1    2    0    0  0.00000000000E+00  0.00000000000E+00 -0.10704859228E+04  0.37569324872E+04  0.36011944688E+04 0.  0.
        2    1    3    3  502    0  0.93176578432E+02 -0.63977120053E+02 -0.24100047205E+04  0.24126536634E+04  0.25500000920E-02 0.  1.
       -2    1    3    3    0  502 -0.93176578432E+02  0.63977120053E+02  0.13395187977E+04  0.13442788238E+04  0.25500000920E-02 0. -1.
</event>
<event>
 5   0  0.2238968E-07  0.3601708E+04  0.7818609E-02  0.8090101E-01
        2   -1    0    0  501    0  0.00000000000E+00  0.00000000000E+00  0.24943556538E+04  0.24943556538E+04  0.25500000920E-02 0. -1.
       -2   -1    0    0    0  501  0.00000000000E+00  0.00000000000E+00 -0.13001654724E+04  0.13001654724E+04  0.25500000920E-02 0.  1.
    10030    2    1    2    0    0  0.00000000000E+00  0.00000000000E+00  0.11941901814E+04  0.37945211263E+04  0.36017079821E+04 0.  0.
        3    1    3    3  502    0  0.21429583872E+03  0.17792706186E+04  0.78362843971E+03  0.19559652815E+04  0.10100000352E+00 0. -1.
       -3    1    3    3    0  502 -0.21429583872E+03 -0.17792706186E+04  0.41056174165E+03  0.18385558448E+04  0.10100000352E+00 0.  1.
</event>
<event>
 5   0  0.7347303E-08  0.3583245E+04  0.7818609E-02  0.8094340E-01
       -1   -1    0    0    0  501  0.00000000000E+00  0.00000000000E+00  0.19098258169E+04  0.19098258169E+04  0.50400001928E-02 0. -1.
        1   -1    0    0  501    0  0.00000000000E+00  0.00000000000E+00 -0.16807349320E+04  0.16807349320E+04  0.50400001928E-02 0.  1.
    10030    2    1    2    0    0  0.00000000000E+00  0.00000000000E+00  0.22909088490E+03  0.35905607489E+04  0.35832448784E+04 0.  0.
        2    1    3    3  502    0  0.17785290770E+03  0.54948321273E+03  0.18139879125E+04  0.19037110087E+04  0.25500000920E-02 0. -1.
       -2    1    3    3    0  502 -0.17785290770E+03 -0.54948321273E+03 -0.15848970276E+04  0.16868497402E+04  0.25500000920E-02 0.  1.
</event>
<event>
 5   0  0.7236375E-08  0.3603549E+04  0.7818609E-02  0.8089679E-01
        1   -1    0    0  501    0  0.00000000000E+00  0.00000000000E+00  0.15270994954E+04  0.15270994954E+04  0.50400001928E-02 0.  1.
       -1   -1    0    0    0  501  0.00000000000E+00  0.00000000000E+00 -0.21258546354E+04  0.21258546354E+04  0.50400001928E-02 0. -1.
    10030    2    1    2    0    0  0.00000000000E+00  0.00000000000E+00 -0.59875514006E+03  0.36529541308E+04  0.36035491067E+04 0.  0.
        1    1    3    3  502    0 -0.16193027384E+04  0.45766239882E+03 -0.95225355407E+03  0.19334898658E+04  0.50400001928E-02 0. -1.
       -1    1    3    3    0  502  0.16193027384E+04 -0.45766239882E+03  0.35349841401E+03  0.17194642650E+04  0.50400001928E-02 0.  1.
</event>
<event>
 5   0  0.2199902E-07  0.3617428E+04  0.7818609E-02  0.8086511E-01
       -2   -1    0    0    0  501  0.00000000000E+00  0.00000000000E+00  0.19996230388E+04  0.19996230388E+04  0.25500000920E-02 0.  1.
        2   -1    0    0  501    0  0.00000000000E+00  0.00000000000E+00 -0.16360311581E+04  0.16360311581E+04  0.25500000920E-02 0. -1.
    10030    2    1    2    0    0  0.00000000000E+00  0.00000000000E+00  0.36359188069E+03  0.36356541968E+04  0.36174275920E+04 0.  0.
        1    1    3    3  502    0 -0.15173044130E+04 -0.85833123585E+03  0.66640840201E+03  0.18662918717E+04  0.50400001928E-02 0.  1.
       -1    1    3    3    0  502  0.15173044130E+04  0.85833123585E+03 -0.30281652132E+03  0.17693623252E+04  0.50400001928E-02 0. -1.
</event>
<event>
 5   0  0.7236375E-08  0.3599227E+04  0.7818609E-02  0.8090669E-01
       -3   -1    0    0    0  501  0.00000000000E+00  0.00000000000E+00  0.16313144795E+04  0.16313144826E+04  0.10100000352E+00 0.  1.
        3   -1    0    0  501    0  0.00000000000E+00  0.00000000000E+00 -0.19852760780E+04  0.19852760806E+04  0.10100000352E+00 0. -1.
    10030    2    1    2    0    0  0.00000000000E+00  0.00000000000E+00 -0.35396159855E+03  0.36165905632E+04  0.35992274850E+04 0.  0.
        4    1    3    3  502    0  0.28510469839E+03 -0.17765306587E+04 -0.14128281863E+03  0.18048014622E+04  0.12699999809E+01 0.  1.
       -4    1    3    3    0  502 -0.28510469839E+03  0.17765306587E+04 -0.21267877992E+03  0.18117891010E+04  0.12699999809E+01 0. -1.
</event>
<event>
 5   0  0.7236375E-08  0.3603093E+04  0.7818609E-02  0.8089784E-01
        1   -1    0    0  501    0  0.00000000000E+00  0.00000000000E+00  0.20462745369E+04  0.20462745369E+04  0.50400001928E-02 0.  1.
       -1   -1    0    0    0  501  0.00000000000E+00  0.00000000000E+00 -0.15860869404E+04  0.15860869405E+04  0.50400001928E-02 0. -1.
    10030    2    1    2    0    0  0.00000000000E+00  0.00000000000E+00  0.46018759645E+03  0.36323614774E+04  0.36030927379E+04 0.  0.
        5    1    3    3  502    0  0.11038488605E+04 -0.33258076834E+03  0.16257001225E+04  0.19929915335E+04  0.46999998093E+01 0.  1.
       -5    1    3    3    0  502 -0.11038488605E+04  0.33258076834E+03 -0.11655125261E+04  0.16393699438E+04  0.46999998093E+01 0. -1.
</event>
<event>
 5   0  0.2198900E-07  0.3599145E+04  0.7818609E-02  0.8090688E-01
        2   -1    0    0  501    0  0.00000000000E+00  0.00000000000E+00  0.22214136169E+04  0.22214136169E+04  0.25500000920E-02 0.  1.
       -2   -1    0    0    0  501  0.00000000000E+00  0.00000000000E+00 -0.14578377373E+04  0.14578377373E+04  0.25500000920E-02 0. -1.
    10030    2    1    2    0    0  0.00000000000E+00  0.00000000000E+00  0.76357587956E+03  0.36792513542E+04  0.35991446766E+04 0.  0.
        2    1    3    3  502    0  0.71673199864E+03  0.14451796789E+04 -0.43359369343E+03  0.16704049069E+04  0.25500000920E-02 0.  1.
       -2    1    3    3    0  502 -0.71673199864E+03 -0.14451796789E+04  0.11971695730E+04  0.20088464472E+04  0.25500000920E-02 0. -1.
</event>
<event>
 5   0  0.2198900E-07  0.3611465E+04  0.7818609E-02  0.8087871E-01
        2   -1    0    0  501    0  0.00000000000E+00  0.00000000000E+00  0.21755402896E+04  0.21755402896E+04  0.25500000920E-02 0. -1.
       -2   -1    0    0    0  501  0.00000000000E+00  0.00000000000E+00 -0.14987861076E+04  0.14987861076E+04  0.25500000920E-02 0.  1.
    10030    2    1    2    0    0  0.00000000000E+00  0.00000000000E+00  0.67675418195E+03  0.36743263972E+04  0.36114648345E+04 0.  0.
        2    1    3    3  502    0  0.17938994854E+03 -0.37019053047E+03 -0.14504785711E+04  0.15076836099E+04  0.25500000920E-02 0.  1.
       -2    1    3    3    0  502 -0.17938994854E+03  0.37019053047E+03  0.21272327530E+04  0.21666427873E+04  0.25500000920E-02 0. -1.
</event>
<event>
 5   0  0.7261233E-08  0.3596926E+04  0.7818609E-02  0.8091196E-01
        1   -1    0    0  501    0  0.00000000000E+00  0.00000000000E+00  0.27537921197E+04  0.27537921197E+04  0.50400001928E-02 0.  1.
       -1   -1    0    0    0  501  0.00000000000E+00  0.00000000000E+00 -0.11745509337E+04  0.11745509337E+04  0.50400001928E-02 0. -1.
    10030    2    1    2    0    0  0.00000000000E+00  0.00000000000E+00  0.15792411860E+04  0.39283430535E+04  0.35969259684E+04 0.  0.
        3    1    3    3  502    0  0.14983893408E+04  0.54723060893E+01  0.18758836378E+04  0.24008623442E+04  0.10100000352E+00 0. -1.
       -3    1    3    3    0  502 -0.14983893408E+04 -0.54723060893E+01 -0.29664245182E+03  0.15274807093E+04  0.10100000352E+00 0.  1.
</event>
<event>
 5   0  0.2342606E-07  0.3607572E+04  0.7818609E-02  0.8088759E-01
       -2   -1    0    0    0  501  0.00000000000E+00  0.00000000000E+00  0.20530283783E+04  0.20530283783E+04  0.25500000920E-02 0. -1.
        2   -1    0    0  501    0  0.00000000000E+00  0.00000000000E+00 -0.15848024139E+04  0.15848024139E+04  0.25500000920E-02 0.  1.
    10030    2    1    2    0    0  0.00000000000E+00  0.00000000000E+00  0.46822596442E+03  0.36378307921E+04  0.36075722194E+04 0.  0.
        5    1    3    3  502    0 -0.11106341831E+03  0.68467254863E+03  0.19131646982E+04  0.20350264947E+04  0.46999998093E+01 0. -1.
       -5    1    3    3    0  502  0.11106341831E+03 -0.68467254863E+03 -0.14449387337E+04  0.16028042975E+04  0.46999998093E+01 0.  1.
</event>
<event>
 5   0  0.7514289E-08  0.3597333E+04  0.7818609E-02  0.8091103E-01
        1   -1    0    0  501    0  0.00000000000E+00  0.00000000000E+00  0.13069097854E+04  0.13069097854E+04  0.50400001928E-02 0. -1.
       -1   -1    0    0    0  501  0.00000000000E+00  0.00000000000E+00 -0.24754584231E+04  0.24754584231E+04  0.50400001928E-02 0.  1.
    10030    2    1    2    0    0  0.00000000000E+00  0.00000000000E+00 -0.11685486377E+04  0.37823682085E+04  0.35973328100E+04 0.  0.
        4    1    3    3  502    0 -0.16702244349E+04 -0.63904348246E+03 -0.78699447071E+03  0.19538137437E+04  0.12699999809E+01 0. -1.
       -4    1    3    3    0  502  0.16702244349E+04  0.63904348246E+03 -0.38155416700E+03  0.18285544648E+04  0.12699999809E+01 0.  1.
</event>
<event>
 5   0  0.2198900E-07  0.3599585E+04  0.7818609E-02  0.8090587E-01
       -2   -1    0    0    0  501  0.00000000000E+00  0.00000000000E+00  0.17381376342E+04  0.17381376342E+04  0.25500000920E-02 0.  1.
        2   -1    0    0  501    0  0.00000000000E+00  0.00000000000E+00 -0.18636348502E+04  0.18636348502E+04  0.25500000920E-02 0. -1.
    10030    2    1    2    0    0  0.00000000000E+00  0.00000000000E+00 -0.12549721601E+03  0.36017724844E+04  0.35995854593E+04 0.  0.
        2    1    3    3  502    0  0.12814866562E+04 -0.11941467708E+03 -0.13216012076E+04  0.18447486731E+04  0.25500000920E-02 0. -1.
       -2    1    3    3    0  502 -0.12814866562E+04  0.11941467708E+03  0.11961039915E+04  0.17570238114E+04  0.25500000920E-02 0.  1.
</event>
<event>
 5   0  0.7236375E-08  0.3690674E+04  0.7818609E-02  0.8070032E-01
        1   -1    0    0  501    0  0.00000000000E+00  0.00000000000E+00  0.13725633004E+04  0.13725633004E+04  0.50400001928E-02 0.  1.
       -1   -1    0    0    0  501  0.00000000000E+00  0.00000000000E+00 -0.24809556324E+04  0.24809556324E+04  0.50400001928E-02 0. -1.
    10030    2    1    2    0    0  0.00000000000E+00  0.00000000000E+00 -0.11083923320E+04  0.38535189327E+04  0.36906740039E+04 0.  0.
        5    1    3    3  502    0  0.68193902042E+03 -0.14461663510E+04 -0.15161554747E+04  0.22034489909E+04  0.46999998093E+01 0. -1.
       -5    1    3    3    0  502 -0.68193902042E+03  0.14461663510E+04  0.40776314267E+03  0.16500699418E+04  0.46999998093E+01 0.  1.
</event>
<event>
 5   0  0.7236375E-08  0.3604258E+04  0.7818609E-02  0.8089517E-01
        3   -1    0    0  501    0  0.00000000000E+00  0.00000000000E+00  0.15753498753E+04  0.15753498785E+04  0.10100000352E+00 0. -1.
       -3   -1    0    0    0  501  0.00000000000E+00  0.00000000000E+00 -0.20615537606E+04  0.20615537631E+04  0.10100000352E+00 0.  1.
    10030    2    1    2    0    0  0.00000000000E+00  0.00000000000E+00 -0.48620388535E+03  0.36369036416E+04  0.36042577433E+04 0.  0.
        4    1    3    3  502    0  0.28600020346E+03  0.13853373198E+03  0.15468533570E+04  0.15791594702E+04  0.12699999809E+01 0. -1.
       -4    1    3    3    0  502 -0.28600020346E+03 -0.13853373198E+03 -0.20330572424E+04  0.20577441714E+04  0.12699999809E+01 0.  1.
</event>
<event>
 5   0  0.7347303E-08  0.3593633E+04  0.7818609E-02  0.8091952E-01
       -1   -1    0    0    0  501  0.00000000000E+00  0.00000000000E+00  0.19967506876E+04  0.19967506876E+04  0.50400001928E-02 0. -1.
        1   -1    0    0  501    0  0.00000000000E+00  0.00000000000E+00 -0.16169020509E+04  0.16169020509E+04  0.50400001928E-02 0.  1.
    10030    2    1    2    0    0  0.00000000000E+00  0.00000000000E+00  0.37984863663E+03  0.36136527385E+04  0.35936334159E+04 0.  0.
        2    1    3    3  502    0 -0.41817686105E+03  0.12731694657E+04  0.13935542724E+04  0.19333457750E+04  0.25500000920E-02 0.  1.
       -2    1    3    3    0  502  0.41817686105E+03 -0.12731694657E+04 -0.10137056358E+04  0.16803069635E+04  0.25500000920E-02 0. -1.
</event>
<event>
 5   0  0.7236375E-08  0.3601354E+04  0.7818609E-02  0.8090182E-01
        1   -1    0    0  501    0  0.00000000000E+00  0.00000000000E+00  0.22055494547E+04  0.22055494547E+04  0.50400001928E-02 0.  1.
       -1   -1    0    0    0  501  0.00000000000E+00  0.00000000000E+00 -0.14701271362E+04  0.14701271363E+04  0.50400001928E-02 0. -1.
    10030    2    1    2    0    0  0.00000000000E+00  0.00000000000E+00  0.73542231841E+03  0.36756765909E+04  0.36013542473E+04 0.  0.
        5    1    3    3  502    0 -0.73599736218E+03  0.48028390563E+03  0.19717852836E+04  0.21587783679E+04  0.46999998093E+01 0.  1.
       -5    1    3    3    0  502  0.73599736218E+03 -0.48028390563E+03 -0.12363629652E+04  0.15168982230E+04  0.46999998093E+01 0. -1.
</event>
<event>
 5   0  0.2198900E-07  0.3597146E+04  0.7818609E-02  0.8091146E-01
        2   -1    0    0  501    0  0.00000000000E+00  0.00000000000E+00  0.21726374619E+04  0.21726374619E+04  0.25500000920E-02 0. -1.
       -2   -1    0    0    0  501  0.00000000000E+00  0.00000000000E+00 -0.14889115961E+04  0.14889115961E+04  0.25500000920E-02 0.  1.
    10030    2    1    2    0    0  0.00000000000E+00  0.00000000000E+00  0.68372586582E+03  0.36615490579E+04  0.35971461527E+04 0.  0.
        2    1    3    3  502    0  0.90139589529E+03 -0.38510331774E+03  0.18768559175E+04  0.21174057855E+04  0.25500000920E-02 0. -1.
       -2    1    3    3    0  502 -0.90139589529E+03  0.38510331774E+03 -0.11931300517E+04  0.15441432724E+04  0.25500000920E-02 0.  1.
</event>
<event>
 5   0  0.2198900E-07  0.3604842E+04  0.7818609E-02  0.8089383E-01
       -2   -1    0    0    0  501  0.00000000000E+00  0.00000000000E+00  0.11746427994E+04  0.11746427994E+04  0.25500000920E-02 0. -1.
        2   -1    0    0  501    0  0.00000000000E+00  0.00000000000E+00 -0.27657107849E+04  0.27657107849E+04  0.25500000920E-02 0.  1.
    10030    2    1    2    0    0  0.00000000000E+00  0.00000000000E+00 -0.15910679855E+04  0.39403535844E+04  0.36048424425E+04 0.  0.
        2    1    3    3  502    0 -0.51806374642E+03  0.85874741383E+01 -0.26825512518E+04  0.27321319530E+04  0.25500000920E-02 0.  1.
       -2    1    3    3    0  502  0.51806374642E+03 -0.85874741383E+01  0.10914832663E+04  0.12082216314E+04  0.25500000920E-02 0. -1.
</event>
<event>
 5   0  0.7514289E-08  0.3574684E+04  0.7818609E-02  0.8096315E-01
        1   -1    0    0  501    0  0.00000000000E+00  0.00000000000E+00  0.20461587221E+04  0.20461587221E+04  0.50400001928E-02 0.  1.
       -1   -1    0    0    0  501  0.00000000000E+00  0.00000000000E+00 -0.15612630962E+04  0.15612630962E+04  0.50400001928E-02 0. -1.
    10030    2    1    2    0    0  0.00000000000E+00  0.00000000000E+00  0.48489562588E+03  0.36074218183E+04  0.35746843786E+04 0.  0.
        4    1    3    3  502    0 -0.13536200985E+04 -0.83455103125E+03 -0.58100772122E+03  0.16930252154E+04  0.12699999809E+01 0. -1.
       -4    1    3    3    0  502  0.13536200985E+04  0.83455103125E+03  0.10659033471E+04  0.19143966029E+04  0.12699999809E+01 0.  1.
</event>
<event>
 5   0  0.2309391E-07  0.3597553E+04  0.7818609E-02  0.8091052E-01
        2   -1    0    0  501    0  0.00000000000E+00  0.00000000000E+00  0.25213786008E+04  0.25213786008E+04  0.25500000920E-02 0. -1.
       -2   -1    0    0    0  501  0.00000000000E+00  0.00000000000E+00 -0.12832648244E+04  0.12832648244E+04  0.25500000920E-02 0.  1.
    10030    2    1    2    0    0  0.00000000000E+00  0.00000000000E+00  0.12381137764E+04  0.38046434253E+04  0.35975527613E+04 0.  0.
        4    1    3    3  502    0  0.16078420962E+03  0.84485449231E+03  0.22898626440E+04  0.24460382697E+04  0.12699999809E+01 0. -1.
       -4    1    3    3    0  502 -0.16078420962E+03 -0.84485449231E+03 -0.10517488677E+04  0.13586051556E+04  0.12699999809E+01 0.  1.
</event>
<event>
 5   0  0.7236375E-08  0.3609808E+04  0.7818609E-02  0.8088249E-01
        3   -1    0    0  501    0  0.00000000000E+00  0.00000000000E+00  0.25484878134E+04  0.25484878154E+04  0.10100000352E+00 0.  1.
       -3   -1    0    0    0  501  0.00000000000E+00  0.00000000000E+00 -0.12782792948E+04  0.12782792988E+04  0.10100000352E+00 0. -1.
    10030    2    1    2    0    0  0.00000000000E+00  0.00000000000E+00  0.12702085185E+04  0.38267671142E+04  0.36098084251E+04 0.  0.
        5    1    3    3  502    0  0.12186724923E+04  0.17098508816E+03 -0.76457583074E+03  0.14487915084E+04  0.46999998093E+01 0. -1.
       -5    1    3    3    0  502 -0.12186724923E+04 -0.17098508816E+03  0.20347843493E+04  0.23779756058E+04  0.46999998093E+01 0.  1.
</event>
<event>
 5   0  0.7236375E-08  0.3616957E+04  0.7818609E-02  0.8086619E-01
        3   -1    0    0  501    0  0.00000000000E+00  0.00000000000E+00  0.10635855198E+04  0.10635855246E+04  0.10100000352E+00 0. -1.
       -3   -1    0    0    0  501  0.00000000000E+00  0.00000000000E+00 -0.30750640360E+04  0.30750640377E+04  0.10100000352E+00 0.  1.
    10030    2    1    2    0    0  0.00000000000E+00  0.00000000000E+00 -0.20114785162E+04  0.41386495623E+04  0.36169565077E+04 0.  0.
        4    1    3    3  502    0 -0.15427073905E+04  0.82147168016E+03 -0.47415581999E+03  0.18109630500E+04  0.12699999809E+01 0. -1.
       -4    1    3    3    0  502  0.15427073905E+04 -0.82147168016E+03 -0.15373226962E+04  0.23276865123E+04  0.12699999809E+01 0.  1.
</event>
<event>
 5   0  0.7261233E-08  0.3594331E+04  0.7818609E-02  0.8091791E-01
       -1   -1    0    0    0  501  0.00000000000E+00  0.00000000000E+00  0.22138968962E+04  0.22138968962E+04  0.50400001928E-02 0.  1.
        1   -1    0    0  501    0  0.00000000000E+00  0.00000000000E+00 -0.14588772055E+04  0.14588772055E+04  0.50400001928E-02 0. -1.
    10030    2    1    2    0    0  0.00000000000E+00  0.00000000000E+00  0.75501969068E+03  0.36727741018E+04  0.35943309348E+04 0.  0.
        3    1    3    3  502    0  0.97423283122E+03 -0.30033683583E+03 -0.11348146903E+04  0.15254954002E+04  0.10100000352E+00 0. -1.
       -3    1    3    3    0  502 -0.97423283122E+03  0.30033683583E+03  0.18898343810E+04  0.21472787016E+04  0.10100000352E+00 0.  1.
</event>
<event>
 5   0  0.2198900E-07  0.3605033E+04  0.7818609E-02  0.8089340E-01
        2   -1    0    0  501    0  0.00000000000E+00  0.00000000000E+00  0.25018207977E+04  0.25018207977E+04  0.25500000920E-02 0. -1.
       -2   -1    0    0    0  501  0.00000000000E+00  0.00000000000E+00 -0.12986803345E+04  0.12986803345E+04  0.25500000920E-02 0.  1.
    10030    2    1    2    0    0  0.00000000000E+00  0.00000000000E+00  0.12031404631E+04  0.38005011322E+04  0.36050328545E+04 0.  0.
        2    1    3    3  502    0  0.48824306212E+03  0.13618975640E+04  0.17350019957E+04  0.22590657776E+04  0.25500000920E-02 0. -1.
       -2    1    3    3    0  502 -0.48824306212E+03 -0.13618975640E+04 -0.53186153259E+03  0.15414353546E+04  0.25500000920E-02 0.  1.
</event>
<event>
 5   0  0.7236375E-08  0.3569367E+04  0.7818609E-02  0.8097545E-01
        1   -1    0    0  501    0  0.00000000000E+00  0.00000000000E+00  0.15541048484E+04  0.15541048484E+04  0.50400001928E-02 0.  1.
       -1   -1    0    0    0  501  0.00000000000E+00  0.00000000000E+00 -0.20494723018E+04  0.20494723018E+04  0.50400001928E-02 0. -1.
    10030    2    1    2    0    0  0.00000000000E+00  0.00000000000E+00 -0.49536745339E+03  0.36035771502E+04  0.35693668014E+04 0.  0.
        1    1    3    3  502    0  0.41741307316E+03  0.16466204558E+03 -0.19915921855E+04  0.20415157839E+04  0.50400001928E-02 0. -1.
       -1    1    3    3    0  502 -0.41741307316E+03 -0.16466204558E+03  0.14962247321E+04  0.15620613662E+04  0.50400001928E-02 0.  1.
</event>
<event>
 5   0  0.2198900E-07  0.3615001E+04  0.7818609E-02  0.8087064E-01
       -2   -1    0    0    0  501  0.00000000000E+00  0.00000000000E+00  0.11985466101E+04  0.11985466101E+04  0.25500000920E-02 0.  1.
        2   -1    0    0  501    0  0.00000000000E+00  0.00000000000E+00 -0.27258504338E+04  0.27258504338E+04  0.25500000920E-02 0. -1.
    10030    2    1    2    0    0  0.00000000000E+00  0.00000000000E+00 -0.15273038237E+04  0.39243970440E+04  0.36150014092E+04 0.  0.
        2    1    3    3  502    0 -0.25551383319E+02  0.66588880589E+03 -0.25876305845E+04  0.26720577869E+04  0.25500000920E-02 0. -1.
       -2    1    3    3    0  502  0.25551383319E+02 -0.66588880589E+03  0.10603267608E+04  0.12523392570E+04  0.25500000920E-02 0.  1.
</event>
<event>
 5   0  0.2198900E-07  0.3599118E+04  0.7818609E-02  0.8090694E-01
       -2   -1    0    0    0  501  0.00000000000E+00  0.00000000000E+00  0.29118276814E+04  0.29118276814E+04  0.25500000920E-02 0. -1.
        2   -1    0    0  501    0  0.00000000000E+00  0.00000000000E+00 -0.11121579501E+04  0.11121579501E+04  0.25500000920E-02 0.  1.
    10030    2    1    2    0    0  0.00000000000E+00  0.00000000000E+00  0.17996697313E+04  0.40239856316E+04  0.35991178393E+04 0.  0.
        2    1    3    3  502    0 -0.45811122212E+03 -0.17386019867E+04  0.98505288247E+03  0.20501053488E+04  0.25500000920E-02 0. -1.
       -2    1    3    3    0  502  0.45811122212E+03  0.17386019867E+04  0.81461684881E+03  0.19738802827E+04  0.25500000920E-02 0.  1.
</event>
<event>
 5   0  0.7261233E-08  0.3602880E+04  0.7818609E-02  0.8089832E-01
       -1   -1    0    0    0  501  0.00000000000E+00  0.00000000000E+00  0.17145945247E+04  0.17145945247E+04  0.50400001928E-02 0.  1.
        1   -1    0    0  501    0  0.00000000000E+00  0.00000000000E+00 -0.18926847514E+04  0.18926847515E+04  0.50400001928E-02 0. -1.
    10030    2    1    2    0    0  0.00000000000E+00  0.00000000000E+00 -0.17809022677E+03  0.36072792761E+04  0.36028804653E+04 0.  0.
        3    1    3    3  502    0  0.14958975589E+04  0.57555108529E+03  0.73428383739E+03  0.17629921505E+04  0.10100000352E+00 0.  1.
       -3    1    3    3    0  502 -0.14958975589E+04 -0.57555108529E+03 -0.91237406417E+03  0.18442871256E+04  0.10100000352E+00 0. -1.
</event>
<event>
 5   0  0.7236375E-08  0.3599030E+04  0.7818609E-02  0.8090714E-01
       -1   -1    0    0    0  501  0.00000000000E+00  0.00000000000E+00  0.14479373035E+04  0.14479373035E+04  0.50400001928E-02 0.  1.
        1   -1    0    0  501    0  0.00000000000E+00  0.00000000000E+00 -0.22364604070E+04  0.22364604070E+04  0.50400001928E-02 0. -1.
    10030    2    1    2    0    0  0.00000000000E+00  0.00000000000E+00 -0.78852310350E+03  0.36843977105E+04  0.35990301199E+04 0.  0.
        1    1    3    3  502    0 -0.25217263590E+03 -0.15054762275E+04  0.58134094910E+03  0.16334035046E+04  0.50400001928E-02 0.  1.
       -1    1    3    3    0  502  0.25217263590E+03  0.15054762275E+04 -0.13698640526E+04  0.20509942058E+04  0.50400001928E-02 0. -1.
</event>
<event>
 5   0  0.7261233E-08  0.3614906E+04  0.7818609E-02  0.8087086E-01
       -1   -1    0    0    0  501  0.00000000000E+00  0.00000000000E+00  0.24982166195E+04  0.24982166195E+04  0.50400001928E-02 0. -1.
        1   -1    0    0  501    0  0.00000000000E+00  0.00000000000E+00 -0.13076872948E+04  0.13076872948E+04  0.50400001928E-02 0.  1.
    10030    2    1    2    0    0  0.00000000000E+00  0.00000000000E+00  0.11905293246E+04  0.38059039143E+04  0.36149058815E+04 0.  0.
        3    1    3    3  502    0  0.12157790365E+04  0.27022820566E+03  0.19743371415E+04  0.23343412576E+04  0.10100000352E+00 0. -1.
       -3    1    3    3    0  502 -0.12157790365E+04 -0.27022820566E+03 -0.78380781682E+03  0.14715626567E+04  0.10100000352E+00 0.  1.
</event>
<event>
 5   0  0.7236375E-08  0.3595892E+04  0.7818609E-02  0.8091433E-01
       -3   -1    0    0    0  501  0.00000000000E+00  0.00000000000E+00  0.11469262970E+04  0.11469263015E+04  0.10100000352E+00 0.  1.
        3   -1    0    0  501    0  0.00000000000E+00  0.00000000000E+00 -0.28184981544E+04  0.28184981562E+04  0.10100000352E+00 0. -1.
    10030    2    1    2    0    0  0.00000000000E+00  0.00000000000E+00 -0.16715718574E+04  0.39654244577E+04  0.35958919137E+04 0.  0.
        3    1    3    3  502    0  0.60821681557E+03  0.12877887269E+04 -0.20459581425E+04  0.24928442050E+04  0.10100000352E+00 0. -1.
       -3    1    3    3    0  502 -0.60821681557E+03 -0.12877887269E+04  0.37438628508E+03  0.14725802526E+04  0.10100000352E+00 0.  1.
</event>
<event>
 5   0  0.7514289E-08  0.3600580E+04  0.7818609E-02  0.8090359E-01
       -1   -1    0    0    0  501  0.00000000000E+00  0.00000000000E+00  0.21277733228E+04  0.21277733228E+04  0.50400001928E-02 0.  1.
        1   -1    0    0  501    0  0.00000000000E+00  0.00000000000E+00 -0.15232092529E+04  0.15232092529E+04  0.50400001928E-02 0. -1.
    10030    2    1    2    0    0  0.00000000000E+00  0.00000000000E+00  0.60456406987E+03  0.36509825757E+04  0.36005799607E+04 0.  0.
        4    1    3    3  502    0  0.15928764779E+04  0.59640706785E+03  0.90052870362E+03  0.19245546039E+04  0.12699999809E+01 0.  1.
       -4    1    3    3    0  502 -0.15928764779E+04 -0.59640706785E+03 -0.29596463375E+03  0.17264279718E+04  0.12699999809E+01 0. -1.
</event>
<event>
 5   0  0.7514289E-08  0.3590635E+04  0.7818609E-02  0.8092640E-01
        1   -1    0    0  501    0  0.00000000000E+00  0.00000000000E+00  0.15495802625E+04  0.15495802625E+04  0.50400001928E-02 0. -1.
       -1   -1    0    0    0  501  0.00000000000E+00  0.00000000000E+00 -0.20800243314E+04  0.20800243314E+04  0.50400001928E-02 0.  1.
    10030    2    1    2    0    0  0.00000000000E+00  0.00000000000E+00 -0.53044406894E+03  0.36296045939E+04  0.35906348461E+04 0.  0.
        4    1    3    3  502    0 -0.12615810286E+04  0.57231434611E+03 -0.14195582060E+04  0.19835013274E+04  0.12699999809E+01 0.  1.
       -4    1    3    3    0  502  0.12615810286E+04 -0.57231434611E+03  0.88911413710E+03  0.16461032665E+04  0.12699999809E+01 0. -1.
</event>
<event>
 5   0  0.2199902E-07  0.3426019E+04  0.7818609E-02  0.8131550E-01
       -2   -1    0    0    0  501  0.00000000000E+00  0.00000000000E+00  0.12349231538E+04  0.12349231538E+04  0.25500000920E-02 0. -1.
        2   -1    0    0  501    0  0.00000000000E+00  0.00000000000E+00 -0.23761821401E+04  0.23761821401E+04  0.25500000920E-02 0.  1.
    10030    2    1    2    0    0  0.00000000000E+00  0.00000000000E+00 -0.11412589864E+04  0.36111052939E+04  0.34260194643E+04 0.  0.
        1    1    3    3  502    0  0.30396342290E+02 -0.11855007135E+04 -0.18735605858E+04  0.22173328907E+04  0.50400001928E-02 0.  1.
       -1    1    3    3    0  502 -0.30396342290E+02  0.11855007135E+04  0.73230159944E+03  0.13937724032E+04  0.50400001928E-02 0. -1.
</event>
<event>
 5   0  0.2238968E-07  0.3631903E+04  0.7818609E-02  0.8083223E-01
       -2   -1    0    0    0  501  0.00000000000E+00  0.00000000000E+00  0.17443146785E+04  0.17443146785E+04  0.25500000920E-02 0. -1.
        2   -1    0    0  501    0  0.00000000000E+00  0.00000000000E+00 -0.18905305808E+04  0.18905305808E+04  0.25500000920E-02 0.  1.
    10030    2    1    2    0    0  0.00000000000E+00  0.00000000000E+00 -0.14621590232E+03  0.36348452593E+04  0.36319032158E+04 0.  0.
        3    1    3    3  502    0 -0.49981726198E+03  0.13002540802E+04 -0.12390418999E+04  0.18643236865E+04  0.10100000352E+00 0.  1.
       -3    1    3    3    0  502  0.49981726198E+03 -0.13002540802E+04  0.10928259975E+04  0.17705215727E+04  0.10100000352E+00 0. -1.
</event>
<event>
 5   0  0.7236375E-08  0.3596768E+04  0.7818609E-02  0.8091232E-01
        3   -1    0    0  501    0  0.00000000000E+00  0.00000000000E+00  0.13219573723E+04  0.13219573762E+04  0.10100000352E+00 0.  1.
       -3   -1    0    0    0  501  0.00000000000E+00  0.00000000000E+00 -0.24465122408E+04  0.24465122428E+04  0.10100000352E+00 0. -1.
    10030    2    1    2    0    0  0.00000000000E+00  0.00000000000E+00 -0.11245548684E+04  0.37684696190E+04  0.35967679404E+04 0.  0.
        4    1    3    3  502    0 -0.92609041621E+03  0.86304109715E+03  0.77608193311E+03  0.14848529133E+04  0.12699999809E+01 0.  1.
       -4    1    3    3    0  502  0.92609041621E+03 -0.86304109715E+03 -0.19006368015E+04  0.22836167057E+04  0.12699999809E+01 0. -1.
</event>
<event>
 5   0  0.2198900E-07  0.3599166E+04  0.7818609E-02  0.8090683E-01
        2   -1    0    0  501    0  0.00000000000E+00  0.00000000000E+00  0.16059586047E+04  0.16059586047E+04  0.25500000920E-02 0.  1.
       -2   -1    0    0    0  501  0.00000000000E+00  0.00000000000E+00 -0.20165520488E+04  0.20165520488E+04  0.25500000920E-02 0. -1.
    10030    2    1    2    0    0  0.00000000000E+00  0.00000000000E+00 -0.41059344406E+03  0.36225106535E+04  0.35991660782E+04 0.  0.
        2    1    3    3  502    0  0.53804098921E+03 -0.14163141000E+04 -0.11827110142E+04  0.19220403427E+04  0.25500000920E-02 0. -1.
       -2    1    3    3    0  502 -0.53804098921E+03  0.14163141000E+04  0.77211757010E+03  0.17004703108E+04  0.25500000920E-02 0.  1.
</event>
<event>
 5   0  0.2309391E-07  0.3610481E+04  0.7818609E-02  0.8088095E-01
        2   -1    0    0  501    0  0.00000000000E+00  0.00000000000E+00  0.17582000866E+04  0.17582000866E+04  0.25500000920E-02 0. -1.
       -2   -1    0    0    0  501  0.00000000000E+00  0.00000000000E+00 -0.18535399511E+04  0.18535399511E+04  0.25500000920E-02 0.  1.
    10030    2    1    2    0    0  0.00000000000E+00  0.00000000000E+00 -0.95339864518E+02  0.36117400378E+04  0.36104814652E+04 0.  0.
        4    1    3    3  502    0 -0.10547984460E+04  0.58915829214E+02  0.14166783323E+04  0.17672153085E+04  0.12699999809E+01 0. -1.
       -4    1    3    3    0  502  0.10547984460E+04 -0.58915829214E+02 -0.15120181968E+04  0.18445247293E+04  0.12699999809E+01 0.  1.
</event>
<event>
 5   0  0.7514289E-08  0.3591332E+04  0.7818609E-02  0.8092480E-01
       -1   -1    0    0    0  501  0.00000000000E+00  0.00000000000E+00  0.11261028064E+04  0.11261028064E+04  0.50400001928E-02 0.  1.
        1   -1    0    0  501    0  0.00000000000E+00  0.00000000000E+00 -0.28633409086E+04  0.28633409086E+04  0.50400001928E-02 0. -1.
    10030    2    1    2    0    0  0.00000000000E+00  0.00000000000E+00 -0.17372381022E+04  0.39894437151E+04  0.35913319162E+04 0.  0.
        4    1    3    3  502    0  0.63458278219E+02  0.10371426091E+04 -0.24954498623E+04  0.27031395400E+04  0.12699999809E+01 0. -1.
       -4    1    3    3    0  502 -0.63458278219E+02 -0.10371426091E+04  0.75821176010E+03  0.12863041751E+04  0.12699999809E+01 0.  1.
</event>
<event>
 5   0  0.2342606E-07  0.3518537E+04  0.7818609E-02  0.8109411E-01
       -2   -1    0    0    0  501  0.00000000000E+00  0.00000000000E+00  0.19727914387E+04  0.19727914387E+04  0.25500000920E-02 0. -1.
        2   -1    0    0  501    0  0.00000000000E+00  0.00000000000E+00 -0.15688560432E+04  0.15688560432E+04  0.25500000920E-02 0.  1.
    10030    2    1    2    0    0  0.00000000000E+00  0.00000000000E+00  0.40393539547E+03  0.35416474819E+04  0.35185370656E+04 0.  0.
        5    1    3    3  502    0  0.14420313473E+04 -0.26613971539E+03 -0.77638288704E+03  0.16592399562E+04  0.46999998093E+01 0.  1.
       -5    1    3    3    0  502 -0.14420313473E+04  0.26613971539E+03  0.11803182825E+04  0.18824075257E+04  0.46999998093E+01 0. -1.
</event>
<event>
 5   0  0.2199902E-07  0.3597048E+04  0.7818609E-02  0.8091168E-01
       -2   -1    0    0    0  501  0.00000000000E+00  0.00000000000E+00  0.17706386699E+04  0.17706386699E+04  0.25500000920E-02 0. -1.
        2   -1    0    0  501    0  0.00000000000E+00  0.00000000000E+00 -0.18268487274E+04  0.18268487274E+04  0.25500000920E-02 0.  1.
    10030    2    1    2    0    0  0.00000000000E+00  0.00000000000E+00 -0.56210057459E+02  0.35974873973E+04  0.35970482347E+04 0.  0.
        1    1    3    3  502    0 -0.29335656478E+03 -0.16816975452E+03  0.17385618420E+04  0.17711398643E+04  0.50400001928E-02 0. -1.
       -1    1    3    3    0  502  0.29335656478E+03  0.16816975452E+03 -0.17947718994E+04  0.18263475330E+04  0.50400001928E-02 0.  1.
</event>
<event>
 5   0  0.7514289E-08  0.3482810E+04  0.7818609E-02  0.8117876E-01
        1   -1    0    0  501    0  0.00000000000E+00  0.00000000000E+00  0.15096144975E+04  0.15096144975E+04  0.50400001928E-02 0. -1.
       -1   -1    0    0    0  501  0.00000000000E+00  0.00000000000E+00 -0.20087854963E+04  0.20087854963E+04  0.50400001928E-02 0.  1.
    10030    2    1    2    0    0  0.00000000000E+00  0.00000000000E+00 -0.49917099882E+03  0.35183999938E+04  0.34828101916E+04 0.  0.
        4    1    3    3  502    0  0.10423215950E+04  0.27603568809E+03 -0.16309871172E+04  0.19551855661E+04  0.12699999809E+01 0.  1.
       -4    1    3    3    0  502 -0.10423215950E+04 -0.27603568809E+03  0.11318161184E+04  0.15632144278E+04  0.12699999809E+01 0. -1.
</event>
<event>
 5   0  0.7261233E-08  0.3602929E+04  0.7818609E-02  0.8089821E-01
       -1   -1    0    0    0  501  0.00000000000E+00  0.00000000000E+00  0.12876662860E+04  0.12876662860E+04  0.50400001928E-02 0. -1.
        1   -1    0    0  501    0  0.00000000000E+00  0.00000000000E+00 -0.25202756760E+04  0.25202756760E+04  0.50400001928E-02 0.  1.
    10030    2    1    2    0    0  0.00000000000E+00  0.00000000000E+00 -0.12326093901E+04  0.38079419620E+04  0.36029288194E+04 0.  0.
        3    1    3    3  502    0 -0.11852386577E+04  0.10325154432E+04  0.31376600408E+03  0.16029123282E+04  0.10100000352E+00 0. -1.
       -3    1    3    3    0  502  0.11852386577E+04 -0.10325154432E+04 -0.15463753941E+04  0.22050296338E+04  0.10100000352E+00 0.  1.
</event>
<event>
 5   0  0.2309391E-07  0.3621287E+04  0.7818609E-02  0.8085633E-01
       -2   -1    0    0    0  501  0.00000000000E+00  0.00000000000E+00  0.13661253755E+04  0.13661253755E+04  0.25500000920E-02 0.  1.
        2   -1    0    0  501    0  0.00000000000E+00  0.00000000000E+00 -0.23998010080E+04  0.23998010080E+04  0.25500000920E-02 0. -1.
    10030    2    1    2    0    0  0.00000000000E+00  0.00000000000E+00 -0.10336756326E+04  0.37659263835E+04  0.36212865411E+04 0.  0.
        4    1    3    3  502    0 -0.10367741308E+04  0.12489580563E+04  0.31747186394E+03  0.16539609494E+04  0.12699999809E+01 0.  1.
       -4    1    3    3    0  502  0.10367741308E+04 -0.12489580563E+04 -0.13511474965E+04  0.21119654341E+04  0.12699999809E+01 0. -1.
</event>
<event>
 5   0  0.2238968E-07  0.3613147E+04  0.7818609E-02  0.8087487E-01
        2   -1    0    0  501    0  0.00000000000E+00  0.00000000000E+00  0.18757680811E+04  0.18757680811E+04  0.25500000920E-02 0.  1.
       -2   -1    0    0    0  501  0.00000000000E+00  0.00000000000E+00 -0.17399313125E+04  0.17399313125E+04  0.25500000920E-02 0. -1.
    10030    2    1    2    0    0  0.00000000000E+00  0.00000000000E+00  0.13583676864E+03  0.36156993937E+04  0.36131468940E+04 0.  0.
        3    1    3    3  502    0 -0.93149641819E+02  0.10628092937E+04 -0.13910097436E+04  0.17530398078E+04  0.10100000352E+00 0. -1.
       -3    1    3    3    0  502  0.93149641819E+02 -0.10628092937E+04  0.15268465123E+04  0.18626595859E+04  0.10100000352E+00 0.  1.
</event>
<event>
 5   0  0.2198900E-07  0.3595658E+04  0.7818609E-02  0.8091487E-01
       -2   -1    0    0    0  501  0.00000000000E+00  0.00000000000E+00  0.12193252547E+04  0.12193252547E+04  0.25500000920E-02 0.  1.
        2   -1    0    0  501    0  0.00000000000E+00  0.00000000000E+00 -0.26508016941E+04  0.26508016941E+04  0.25500000920E-02 0. -1.
    10030    2    1    2    0    0  0.00000000000E+00  0.00000000000E+00 -0.14314764394E+04  0.38701269488E+04  0.35956581878E+04 0.  0.
        2    1    3    3  502    0 -0.48386164124E+03  0.10474208538E+04  0.76826633196E+03  0.13861622162E+04  0.25500000920E-02 0.  1.
       -2    1    3    3    0  502  0.48386164124E+03 -0.10474208538E+04 -0.21997427714E+04  0.24839647327E+04  0.25500000920E-02 0. -1.
</event>
<event>
 5   0  0.2198900E-07  0.3661965E+04  0.7818609E-02  0.8076443E-01
       -2   -1    0    0    0  501  0.00000000000E+00  0.00000000000E+00  0.14989801252E+04  0.14989801252E+04  0.25500000920E-02 0.  1.
        2   -1    0    0  501    0  0.00000000000E+00  0.00000000000E+00 -0.22365188632E+04  0.22365188632E+04  0.25500000920E-02 0. -1.
    10030    2    1    2    0    0  0.00000000000E+00  0.00000000000E+00 -0.73753873799E+03  0.37354989884E+04  0.36619652240E+04 0.  0.
        2    1    3    3  502    0  0.22231426427E+03 -0.16155045405E+04 -0.12180858763E+04  0.20354389587E+04  0.25500000920E-02 0. -1.
       -2    1    3    3    0  502 -0.22231426427E+03  0.16155045405E+04  0.48054713827E+03  0.17000600297E+04  0.25500000920E-02 0.  1.
</event>
<event>
 5   0  0.2309391E-07  0.3599696E+04  0.7818609E-02  0.8090561E-01
       -2   -1    0    0    0  501  0.00000000000E+00  0.00000000000E+00  0.12147111689E+04  0.12147111689E+04  0.25500000920E-02 0.  1.
        2   -1    0    0  501    0  0.00000000000E+00  0.00000000000E+00 -0.26668496772E+04  0.26668496772E+04  0.25500000920E-02 0. -1.
    10030    2    1    2    0    0  0.00000000000E+00  0.00000000000E+00 -0.14521385083E+04  0.38815608461E+04  0.35996955920E+04 0.  0.
        4    1    3    3  502    0 -0.15237146046E+04 -0.29905735322E+03  0.25530985044E+03  0.15736347192E+04  0.12699999809E+01 0.  1.
       -4    1    3    3    0  502  0.15237146046E+04  0.29905735322E+03 -0.17074483587E+04  0.23079261269E+04  0.12699999809E+01 0. -1.
</event>
<event>
 5   0  0.2342606E-07  0.3558699E+04  0.7818609E-02  0.8100018E-01
        2   -1    0    0  501    0  0.00000000000E+00  0.00000000000E+00  0.30345707458E+04  0.30345707458E+04  0.25500000920E-02 0.  1.
       -2   -1    0    0    0  501  0.00000000000E+00  0.00000000000E+00 -0.10433383352E+04  0.10433383352E+04  0.25500000920E-02 0. -1.
    10030    2    1    2    0    0  0.00000000000E+00  0.00000000000E+00  0.19912324107E+04  0.40779090810E+04  0.35586986329E+04 0.  0.
        5    1    3    3  502    0  0.95489640148E+03  0.11706569349E+04 -0.81648953755E+02  0.15129287618E+04  0.46999998093E+01 0. -1.
       -5    1    3    3    0  502 -0.95489640148E+03 -0.11706569349E+04  0.20728813644E+04  0.25649803192E+04  0.46999998093E+01 0.  1.
</event>
<event>
 5   0  0.2342606E-07  0.3608366E+04  0.7818609E-02  0.8088578E-01
       -2   -1    0    0    0  501  0.00000000000E+00  0.00000000000E+00  0.13560650493E+04  0.13560650493E+04  0.25500000920E-02 0. -1.
        2   -1    0    0  501    0  0.00000000000E+00  0.00000000000E+00 -0.24003841418E+04  0.24003841418E+04  0.25500000920E-02 0.  1.
    10030    2    1    2    0    0  0.00000000000E+00  0.00000000000E+00 -0.10443190925E+04  0.37564491911E+04  0.36083664114E+04 0.  0.
        5    1    3    3  502    0 -0.13302716723E+04  0.49796826826E+03 -0.16802232303E+04  0.22001743822E+04  0.46999998093E+01 0.  1.
       -5    1    3    3    0  502  0.13302716723E+04 -0.49796826826E+03  0.63590413785E+03  0.15562748089E+04  0.46999998093E+01 0. -1.
</event>
<event>
 5   0  0.2238968E-07  0.3586762E+04  0.7818609E-02  0.8093531E-01
        2   -1    0    0  501    0  0.00000000000E+00  0.00000000000E+00  0.17317709799E+04  0.17317709799E+04  0.25500000920E-02 0. -1.
       -2   -1    0    0    0  501  0.00000000000E+00  0.00000000000E+00 -0.18571831680E+04  0.18571831680E+04  0.25500000920E-02 0.  1.
    10030    2    1    2    0    0  0.00000000000E+00  0.00000000000E+00 -0.12541218816E+03  0.35889541479E+04  0.35867622808E+04 0.  0.
        3    1    3    3  502    0  0.13718922716E+04 -0.67617329358E+03  0.87430472265E+03  0.17617342269E+04  0.10100000352E+00 0.  1.
       -3    1    3    3    0  502 -0.13718922716E+04  0.67617329358E+03 -0.99971691081E+03  0.18272199210E+04  0.10100000352E+00 0. -1.
</event>
<event>
 5   0  0.7236375E-08  0.3601897E+04  0.7818609E-02  0.8090057E-01
        1   -1    0    0  501    0  0.00000000000E+00  0.00000000000E+00  0.90415794952E+03  0.90415794954E+03  0.50400001928E-02 0. -1.
       -1   -1    0    0    0  501  0.00000000000E+00  0.00000000000E+00 -0.35872231239E+04  0.35872231239E+04  0.50400001928E-02 0.  1.
    10030    2    1    2    0    0  0.00000000000E+00  0.00000000000E+00 -0.26830651743E+04  0.44913810734E+04  0.36018974467E+04 0.  0.
        1    1    3    3  502    0 -0.70722147633E+03 -0.72074241818E+03 -0.32010271211E+04  0.33565170162E+04  0.50400001928E-02 0.  1.
       -1    1    3    3    0  502  0.70722147633E+03  0.72074241818E+03  0.51796194679E+03  0.11348640572E+04  0.50400001928E-02 0. -1.
</event>
<event>
 5   0  0.7236375E-08  0.3418480E+04  0.7818609E-02  0.8133386E-01
       -1   -1    0    0    0  501  0.00000000000E+00  0.00000000000E+00  0.21431934115E+04  0.21431934115E+04  0.50400001928E-02 0. -1.
        1   -1    0    0  501    0  0.00000000000E+00  0.00000000000E+00 -0.13631533055E+04  0.13631533055E+04  0.50400001928E-02 0.  1.
    10030    2    1    2    0    0  0.00000000000E+00  0.00000000000E+00  0.78004010601E+03  0.35063467170E+04  0.34184798863E+04 0.  0.
        1    1    3    3  502    0 -0.34252073103E+03 -0.16742388602E+04  0.35592453667E+03  0.17455882928E+04  0.50400001928E-02 0. -1.
       -1    1    3    3    0  502  0.34252073103E+03  0.16742388602E+04  0.42411556933E+03  0.17607584242E+04  0.50400001928E-02 0.  1.
</event>
<event>
 5   0  0.2198900E-07  0.3604401E+04  0.7818609E-02  0.8089484E-01
       -2   -1    0    0    0  501  0.00000000000E+00  0.00000000000E+00  0.16417331488E+04  0.16417331488E+04  0.25500000920E-02 0.  1.
        2   -1    0    0  501    0  0.00000000000E+00  0.00000000000E+00 -0.19783527770E+04  0.19783527770E+04  0.25500000920E-02 0. -1.
    10030    2    1    2    0    0  0.00000000000E+00  0.00000000000E+00 -0.33661962826E+03  0.36200859258E+04  0.36044013839E+04 0.  0.
        2    1    3    3  502    0 -0.74496855723E+03 -0.19747282390E+03 -0.18044947864E+04  0.19621863066E+04  0.25500000920E-02 0. -1.
       -2    1    3    3    0  502  0.74496855723E+03  0.19747282390E+03  0.14678751582E+04  0.16578996192E+04  0.25500000920E-02 0.  1.
</event>
<event>
 5   0  0.2309391E-07  0.3607922E+04  0.7818609E-02  0.8088680E-01
        2   -1    0    0  501    0  0.00000000000E+00  0.00000000000E+00  0.19361885884E+04  0.19361885884E+04  0.25500000920E-02 0. -1.
       -2   -1    0    0    0  501  0.00000000000E+00  0.00000000000E+00 -0.16807632532E+04  0.16807632532E+04  0.25500000920E-02 0.  1.
    10030    2    1    2    0    0  0.00000000000E+00  0.00000000000E+00  0.25542533522E+03  0.36169518417E+04  0.36079216348E+04 0.  0.
        4    1    3    3  502    0 -0.78813970010E+03  0.10729267758E+03  0.17508998529E+04  0.19231036928E+04  0.12699999809E+01 0. -1.
       -4    1    3    3    0  502  0.78813970010E+03 -0.10729267758E+03 -0.14954745177E+04  0.16938481489E+04  0.12699999809E+01 0.  1.
</event>
<event>
 5   0  0.7236375E-08  0.3591332E+04  0.7818609E-02  0.8092480E-01
       -1   -1    0    0    0  501  0.00000000000E+00  0.00000000000E+00  0.16802874403E+04  0.16802874403E+04  0.50400001928E-02 0.  1.
        1   -1    0    0  501    0  0.00000000000E+00  0.00000000000E+00 -0.19189670102E+04  0.19189670102E+04  0.50400001928E-02 0. -1.
    10030    2    1    2    0    0  0.00000000000E+00  0.00000000000E+00 -0.23867956989E+03  0.35992544505E+04  0.35913318786E+04 0.  0.
        5    1    3    3  502    0  0.15854705026E+04 -0.79177434625E+03  0.17073047250E+03  0.17803916182E+04  0.46999998093E+01 0.  1.
       -5    1    3    3    0  502 -0.15854705026E+04  0.79177434625E+03 -0.40941004239E+03  0.18188628323E+04  0.46999998093E+01 0. -1.
</event>
<event>
 5   0  0.2309391E-07  0.3584788E+04  0.7818609E-02  0.8093985E-01
       -2   -1    0    0    0  501  0.00000000000E+00  0.00000000000E+00  0.13418413311E+04  0.13418413311E+04  0.25500000920E-02 0.  1.
        2   -1    0    0  501    0  0.00000000000E+00  0.00000000000E+00 -0.23942292240E+04  0.23942292240E+04  0.25500000920E-02 0. -1.
    10030    2    1    2    0    0  0.00000000000E+00  0.00000000000E+00 -0.10523878929E+04  0.37360705551E+04  0.35847877086E+04 0.  0.
        4    1    3    3  502    0  0.12905436100E+04  0.12437798986E+04 -0.54028759595E+03  0.18720052203E+04  0.12699999809E+01 0. -1.
       -4    1    3    3    0  502 -0.12905436100E+04 -0.12437798986E+04 -0.51210029692E+03  0.18640653348E+04  0.12699999809E+01 0.  1.
</event>
<event>
 5   0  0.7236375E-08  0.3607162E+04  0.7818609E-02  0.8088853E-01
       -1   -1    0    0    0  501  0.00000000000E+00  0.00000000000E+00  0.18496491037E+04  0.18496491037E+04  0.50400001928E-02 0. -1.
        1   -1    0    0  501    0  0.00000000000E+00  0.00000000000E+00 -0.17586604685E+04  0.17586604686E+04  0.50400001928E-02 0.  1.
    10030    2    1    2    0    0  0.00000000000E+00  0.00000000000E+00  0.90988635173E+02  0.36083095723E+04  0.36071621862E+04 0.  0.
        5    1    3    3  502    0 -0.15977028588E+03  0.16328903001E+04  0.79474885230E+03  0.18230483002E+04  0.46999998093E+01 0. -1.
       -5    1    3    3    0  502  0.15977028588E+03 -0.16328903001E+04 -0.70376021713E+03  0.17852612721E+04  0.46999998093E+01 0.  1.
</event>
<event>
 5   0  0.7514289E-08  0.3556441E+04  0.7818609E-02  0.8100543E-01
        1   -1    0    0  501    0  0.00000000000E+00  0.00000000000E+00  0.18150293427E+04  0.18150293427E+04  0.50400001928E-02 0.  1.
       -1   -1    0    0    0  501  0.00000000000E+00  0.00000000000E+00 -0.17421583650E+04  0.17421583651E+04  0.50400001928E-02 0. -1.
    10030    2    1    2    0    0  0.00000000000E+00  0.00000000000E+00  0.72870977602E+02  0.35571877077E+04  0.35564412280E+04 0.  0.
        4    1    3    3  502    0  0.15057861485E+03  0.95134649325E+03  0.15315177338E+04  0.18092214490E+04  0.12699999809E+01 0.  1.
       -4    1    3    3    0  502 -0.15057861485E+03 -0.95134649325E+03 -0.14586467562E+04  0.17479662588E+04  0.12699999809E+01 0. -1.
</event>
<event>
 5   0  0.7236375E-08  0.3616150E+04  0.7818609E-02  0.8086802E-01
       -1   -1    0    0    0  501  0.00000000000E+00  0.00000000000E+00  0.15358598953E+04  0.15358598953E+04  0.50400001928E-02 0.  1.
        1   -1    0    0  501    0  0.00000000000E+00  0.00000000000E+00 -0.21285374224E+04  0.21285374224E+04  0.50400001928E-02 0. -1.
    10030    2    1    2    0    0  0.00000000000E+00  0.00000000000E+00 -0.59267752713E+03  0.36643973177E+04  0.36161500316E+04 0.  0.
        1    1    3    3  502    0 -0.19182983967E+03  0.18596837755E+03 -0.21084236091E+04  0.21252842258E+04  0.50400001928E-02 0. -1.
       -1    1    3    3    0  502  0.19182983967E+03 -0.18596837755E+03  0.15157460820E+04  0.15391130920E+04  0.50400001928E-02 0.  1.
</event>
<event>
 5   0  0.7236375E-08  0.3639419E+04  0.7818609E-02  0.8081521E-01
       -1   -1    0    0    0  501  0.00000000000E+00  0.00000000000E+00  0.13208829988E+04  0.13208829988E+04  0.50400001928E-02 0. -1.
        1   -1    0    0  501    0  0.00000000000E+00  0.00000000000E+00 -0.25069165410E+04  0.25069165410E+04  0.50400001928E-02 0.  1.
    10030    2    1    2    0    0  0.00000000000E+00  0.00000000000E+00 -0.11860335422E+04  0.38277995398E+04  0.36394194253E+04 0.  0.
        1    1    3    3  502    0 -0.50388671868E+03 -0.16504955592E+04  0.14192868349E+02  0.17257574724E+04  0.50400001928E-02 0. -1.
       -1    1    3    3    0  502  0.50388671868E+03  0.16504955592E+04 -0.12002264106E+04  0.21020420673E+04  0.50400001928E-02 0.  1.
</event>
<event>
 5   0  0.7236375E-08  0.3592733E+04  0.7818609E-02  0.8092158E-01
       -1   -1    0    0    0  501  0.00000000000E+00  0.00000000000E+00  0.26499901925E+04  0.26499901925E+04  0.50400001928E-02 0. -1.
        1   -1    0    0  501    0  0.00000000000E+00  0.00000000000E+00 -0.12177150189E+04  0.12177150189E+04  0.50400001928E-02 0.  1.
    10030    2    1    2    0    0  0.00000000000E+00  0.00000000000E+00  0.14322751736E+04  0.38677052114E+04  0.35927331419E+04 0.  0.
        1    1    3    3  502    0  0.40156844445E+03  0.12479190346E+04  0.20382941485E+04  0.24234690359E+04  0.50400001928E-02 0. -1.
       -1    1    3    3    0  502 -0.40156844445E+03 -0.12479190346E+04 -0.60601897491E+03  0.14442361754E+04  0.50400001928E-02 0.  1.
</event>
<event>
 5   0  0.7347303E-08  0.3647174E+04  0.7818609E-02  0.8079771E-01
        1   -1    0    0  501    0  0.00000000000E+00  0.00000000000E+00  0.16909515232E+04  0.16909515233E+04  0.50400001928E-02 0.  1.
       -1   -1    0    0    0  501  0.00000000000E+00  0.00000000000E+00 -0.19666261891E+04  0.19666261891E+04  0.50400001928E-02 0. -1.
    10030    2    1    2    0    0  0.00000000000E+00  0.00000000000E+00 -0.27567466588E+03  0.36575777124E+04  0.36471740020E+04 0.  0.
        2    1    3    3  502    0 -0.15646033969E+04 -0.79345791002E+03  0.36148888429E+03  0.17911542250E+04  0.25500000920E-02 0.  1.
       -2    1    3    3    0  502  0.15646033969E+04  0.79345791002E+03 -0.63716355017E+03  0.18664234873E+04  0.25500000920E-02 0. -1.
</event>
<event>
 5   0  0.7236375E-08  0.3609522E+04  0.7818609E-02  0.8088314E-01
       -1   -1    0    0    0  501  0.00000000000E+00  0.00000000000E+00  0.13206879677E+04  0.13206879677E+04  0.50400001928E-02 0.  1.
        1   -1    0    0  501    0  0.00000000000E+00  0.00000000000E+00 -0.24662614575E+04  0.24662614575E+04  0.50400001928E-02 0. -1.
    10030    2    1    2    0    0  0.00000000000E+00  0.00000000000E+00 -0.11455734898E+04  0.37869494251E+04  0.36095217589E+04 0.  0.
        5    1    3    3  502    0 -0.13543361310E+04  0.10576914539E+04 -0.11514434611E+04  0.20685216222E+04  0.46999998093E+01 0. -1.
       -5    1    3    3    0  502  0.13543361310E+04 -0.10576914539E+04  0.58699713187E+01  0.17184278029E+04  0.46999998093E+01 0.  1.
</event>
<event>
 5   0  0.2238968E-07  0.3617817E+04  0.7818609E-02  0.8086423E-01
        2   -1    0    0  501    0  0.00000000000E+00  0.00000000000E+00  0.30375588373E+04  0.30375588373E+04  0.25500000920E-02 0. -1.
       -2   -1    0    0    0  501  0.00000000000E+00  0.00000000000E+00 -0.10772304354E+04  0.10772304354E+04  0.25500000920E-02 0.  1.
    10030    2    1    2    0    0  0.00000000000E+00  0.00000000000E+00  0.19603284019E+04  0.41147892726E+04  0.36178174795E+04 0.  0.
        3    1    3    3  502    0 -0.15285708958E+04  0.70454469428E+03  0.22637276350E+03  0.16982805563E+04  0.10100000352E+00 0.  1.
       -3    1    3    3    0  502  0.15285708958E+04 -0.70454469428E+03  0.17339556384E+04  0.24165087163E+04  0.10100000352E+00 0. -1.
</event>
<event>
 5   0  0.7261233E-08  0.3577878E+04  0.7818609E-02  0.8095578E-01
        1   -1    0    0  501    0  0.00000000000E+00  0.00000000000E+00  0.16523433135E+04  0.16523433136E+04  0.50400001928E-02 0. -1.
       -1   -1    0    0    0  501  0.00000000000E+00  0.00000000000E+00 -0.19368264748E+04  0.19368264748E+04  0.50400001928E-02 0.  1.
    10030    2    1    2    0    0  0.00000000000E+00  0.00000000000E+00 -0.28448316124E+03  0.35891697883E+04  0.35778777369E+04 0.  0.
        3    1    3    3  502    0 -0.10012865787E+04 -0.43398083749E+03 -0.15642442740E+04  0.19072950320E+04  0.10100000352E+00 0.  1.
       -3    1    3    3    0  502  0.10012865787E+04  0.43398083749E+03  0.12797611128E+04  0.16818747564E+04  0.10100000352E+00 0. -1.
</event>
<event>
 5   0  0.7347303E-08  0.3557441E+04  0.7818609E-02  0.8100310E-01
        1   -1    0    0  501    0  0.00000000000E+00  0.00000000000E+00  0.25300052639E+04  0.25300052640E+04  0.50400001928E-02 0. -1.
       -1   -1    0    0    0  501  0.00000000000E+00  0.00000000000E+00 -0.12505297730E+04  0.12505297730E+04  0.50400001928E-02 0.  1.
    10030    2    1    2    0    0  0.00000000000E+00  0.00000000000E+00  0.12794754909E+04  0.37805350370E+04  0.35574411638E+04 0.  0.
        2    1    3    3  502    0 -0.87349907553E+03  0.10638110333E+04 -0.55747800558E+03  0.14850846024E+04  0.25500000920E-02 0.  1.
       -2    1    3    3    0  502  0.87349907553E+03 -0.10638110333E+04  0.18369534965E+04  0.22954504346E+04  0.25500000920E-02 0. -1.
</event>
<event>
 5   0  0.2342606E-07  0.3580879E+04  0.7818609E-02  0.8094886E-01
       -2   -1    0    0    0  501  0.00000000000E+00  0.00000000000E+00  0.18889151496E+04  0.18889151496E+04  0.25500000920E-02 0. -1.
        2   -1    0    0  501    0  0.00000000000E+00  0.00000000000E+00 -0.16970976751E+04  0.16970976751E+04  0.25500000920E-02 0.  1.
    10030    2    1    2    0    0  0.00000000000E+00  0.00000000000E+00  0.19181747452E+03  0.35860128247E+04  0.35808789474E+04 0.  0.
        5    1    3    3  502    0 -0.65350615333E+03 -0.39650770522E+03 -0.15254748101E+04  0.17062778611E+04  0.46999998093E+01 0.  1.
       -5    1    3    3    0  502  0.65350615333E+03  0.39650770522E+03  0.17172922847E+04  0.18797349637E+04  0.46999998093E+01 0. -1.
</event>
<event>
 5   0  0.2238968E-07  0.3511841E+04  0.7818609E-02  0.8110989E-01
        2   -1    0    0  501    0  0.00000000000E+00  0.00000000000E+00  0.17377715508E+04  0.17377715508E+04  0.25500000920E-02 0. -1.
       -2   -1    0    0    0  501  0.00000000000E+00  0.00000000000E+00 -0.17742593446E+04  0.17742593446E+04  0.25500000920E-02 0.  1.
    10030    2    1    2    0    0  0.00000000000E+00  0.00000000000E+00 -0.36487793814E+02  0.35120308953E+04  0.35118413476E+04 0.  0.
        3    1    3    3  502    0  0.13181886450E+04 -0.40100841865E+03  0.10703130606E+04  0.17447060250E+04  0.10100000352E+00 0. -1.
       -3    1    3    3    0  502 -0.13181886450E+04  0.40100841865E+03 -0.11068008545E+04  0.17673248703E+04  0.10100000352E+00 0.  1.
</event>
<event>
 5   0  0.7236375E-08  0.3749177E+04  0.7818609E-02  0.8057150E-01
       -1   -1    0    0    0  501  0.00000000000E+00  0.00000000000E+00  0.21827351231E+04  0.21827351231E+04  0.50400001928E-02 0.  1.
        1   -1    0    0  501    0  0.00000000000E+00  0.00000000000E+00 -0.16099446745E+04  0.16099446745E+04  0.50400001928E-02 0. -1.
    10030    2    1    2    0    0  0.00000000000E+00  0.00000000000E+00  0.57279044866E+03  0.37926797976E+04  0.37491773963E+04 0.  0.
        1    1    3    3  502    0 -0.15877818275E+04  0.46055341399E+03 -0.60755651805E+03  0.17613306054E+04  0.50400001928E-02 0. -1.
       -1    1    3    3    0  502  0.15877818275E+04 -0.46055341399E+03  0.11803469667E+04  0.20313491922E+04  0.50400001928E-02 0.  1.
</event>
<event>
 5   0  0.2309391E-07  0.3599325E+04  0.7818609E-02  0.8090646E-01
       -2   -1    0    0    0  501  0.00000000000E+00  0.00000000000E+00  0.15345476837E+04  0.15345476837E+04  0.25500000920E-02 0.  1.
        2   -1    0    0  501    0  0.00000000000E+00  0.00000000000E+00 -0.21105792963E+04  0.21105792963E+04  0.25500000920E-02 0. -1.
    10030    2    1    2    0    0  0.00000000000E+00  0.00000000000E+00 -0.57603161251E+03  0.36451269800E+04  0.35993246980E+04 0.  0.
        4    1    3    3  502    0  0.19020524379E+03 -0.17883313784E+04 -0.22026302079E+03  0.18118566624E+04  0.12699999809E+01 0.  1.
       -4    1    3    3    0  502 -0.19020524379E+03  0.17883313784E+04 -0.35576859172E+03  0.18332703176E+04  0.12699999809E+01 0. -1.
</event>
<event>
 5   0  0.2199902E-07  0.3601586E+04  0.7818609E-02  0.8090128E-01
        2   -1    0    0  501    0  0.00000000000E+00  0.00000000000E+00  0.21651488534E+04  0.21651488534E+04  0.25500000920E-02 0.  1.
       -2   -1    0    0    0  501  0.00000000000E+00  0.00000000000E+00 -0.14977520919E+04  0.14977520919E+04  0.25500000920E-02 0. -1.
    10030    2    1    2    0    0  0.00000000000E+00  0.00000000000E+00  0.66739676149E+03  0.36629009453E+04  0.36015864418E+04 0.  0.
        1    1    3    3  502    0  0.15287218536E+04 -0.51311512259E+03  0.11489552319E+04  0.19799938787E+04  0.50400001928E-02 0.  1.
       -1    1    3    3    0  502 -0.15287218536E+04  0.51311512259E+03 -0.48155847042E+03  0.16829070667E+04  0.50400001928E-02 0. -1.
</event>
<event>
 5   0  0.2238968E-07  0.3580188E+04  0.7818609E-02  0.8095045E-01
        2   -1    0    0  501    0  0.00000000000E+00  0.00000000000E+00  0.18762590012E+04  0.18762590012E+04  0.25500000920E-02 0. -1.
       -2   -1    0    0    0  501  0.00000000000E+00  0.00000000000E+00 -0.17078859052E+04  0.17078859052E+04  0.25500000920E-02 0.  1.
    10030    2    1    2    0    0  0.00000000000E+00  0.00000000000E+00  0.16837309605E+03  0.35841449064E+04  0.35801878736E+04 0.  0.
        3    1    3    3  502    0  0.11657053537E+04 -0.11390766719E+04 -0.65695031349E+03  0.17572559178E+04  0.10100000352E+00 0.  1.
       -3    1    3    3    0  502 -0.11657053537E+04  0.11390766719E+04  0.82532340954E+03  0.18268889886E+04  0.10100000352E+00 0. -1.
</event>
<event>
 5   0  0.7236375E-08  0.3596988E+04  0.7818609E-02  0.8091182E-01
        1   -1    0    0  501    0  0.00000000000E+00  0.00000000000E+00  0.12785753901E+04  0.12785753901E+04  0.50400001928E-02 0.  1.
       -1   -1    0    0    0  501  0.00000000000E+00  0.00000000000E+00 -0.25298320605E+04  0.25298320605E+04  0.50400001928E-02 0. -1.
    10030    2    1    2    0    0  0.00000000000E+00  0.00000000000E+00 -0.12512566704E+04  0.38084074506E+04  0.35969881921E+04 0.  0.
        5    1    3    3  502    0  0.11212232320E+04 -0.12025822752E+04  0.14605451248E+03  0.16506664336E+04  0.46999998093E+01 0.  1.
       -5    1    3    3    0  502 -0.11212232320E+04  0.12025822752E+04 -0.13973111829E+04  0.21577410170E+04  0.46999998093E+01 0. -1.
</event>
<event>
 5   0  0.7347303E-08  0.3604992E+04  0.7818609E-02  0.8089349E-01
       -1   -1    0    0    0  501  0.00000000000E+00  0.00000000000E+00  0.12010245058E+04  0.12010245058E+04  0.50400001928E-02 0.  1.
        1   -1    0    0  501    0  0.00000000000E+00  0.00000000000E+00 -0.27051839996E+04  0.27051839996E+04  0.50400001928E-02 0. -1.
    10030    2    1    2    0    0  0.00000000000E+00  0.00000000000E+00 -0.15041594938E+04  0.39062085054E+04  0.36049922475E+04 0.  0.
        2    1    3    3  502    0 -0.93930616438E+03 -0.11426211038E+04 -0.18682538669E+04  0.23829082166E+04  0.25500000920E-02 0. -1.
       -2    1    3    3    0  502  0.93930616438E+03  0.11426211038E+04  0.36409437305E+03  0.15233002888E+04  0.25500000920E-02 0.  1.
</event>
<event>
 5   0  0.7261233E-08  0.3589791E+04  0.7818609E-02  0.8092834E-01
       -1   -1    0    0    0  501  0.00000000000E+00  0.00000000000E+00  0.24262321557E+04  0.24262321557E+04  0.50400001928E-02 0. -1.
        1   -1    0    0  501    0  0.00000000000E+00  0.00000000000E+00 -0.13278410880E+04  0.13278410881E+04  0.50400001928E-02 0.  1.
    10030    2    1    2    0    0  0.00000000000E+00  0.00000000000E+00  0.10983910677E+04  0.37540732438E+04  0.35897914956E+04 0.  0.
        3    1    3    3  502    0 -0.18056267500E+03 -0.17180227489E+04  0.39611675370E+02  0.17279392756E+04  0.10100000352E+00 0.  1.
       -3    1    3    3    0  502  0.18056267500E+03  0.17180227489E+04  0.10587793923E+04  0.20261339682E+04  0.10100000352E+00 0. -1.
</event>
<event>
 5   0  0.2198900E-07  0.3607249E+04  0.7818609E-02  0.8088833E-01
        2   -1    0    0  501    0  0.00000000000E+00  0.00000000000E+00  0.19891155986E+04  0.19891155986E+04  0.25500000920E-02 0.  1.
       -2   -1    0    0    0  501  0.00000000000E+00  0.00000000000E+00 -0.16354305843E+04  0.16354305843E+04  0.25500000920E-02 0. -1.
    10030    2    1    2    0    0  0.00000000000E+00  0.00000000000E+00  0.35368501434E+03  0.36245461829E+04  0.36072485280E+04 0.  0.
        2    1    3    3  502    0 -0.92333256935E+02 -0.17504129959E+04  0.60383840167E+03  0.18539395626E+04  0.25500000920E-02 0. -1.
       -2    1    3    3    0  502  0.92333256935E+02  0.17504129959E+04 -0.25015338733E+03  0.17706066203E+04  0.25500000920E-02 0.  1.
</event>
<event>
 5   0  0.2309391E-07  0.3599721E+04  0.7818609E-02  0.8090556E-01
       -2   -1    0    0    0  501  0.00000000000E+00  0.00000000000E+00  0.11013712710E+04  0.11013712710E+04  0.25500000920E-02 0.  1.
        2   -1    0    0  501    0  0.00000000000E+00  0.00000000000E+00 -0.29413307027E+04  0.29413307027E+04  0.25500000920E-02 0. -1.
    10030    2    1    2    0    0  0.00000000000E+00  0.00000000000E+00 -0.18399594316E+04  0.40427019737E+04  0.35997206194E+04 0.  0.
        4    1    3    3  502    0 -0.11726023949E+04 -0.22609603622E+03 -0.24323122983E+04  0.27096605919E+04  0.12699999809E+01 0. -1.
       -4    1    3    3    0  502  0.11726023949E+04  0.22609603622E+03  0.59235286662E+03  0.13330413818E+04  0.12699999809E+01 0.  1.
</event>
<event>
 5   0  0.7347303E-08  0.3595113E+04  0.7818609E-02  0.8091612E-01
       -1   -1    0    0    0  501  0.00000000000E+00  0.00000000000E+00  0.17702458194E+04  0.17702458194E+04  0.50400001928E-02 0. -1.
        1   -1    0    0  501    0  0.00000000000E+00  0.00000000000E+00 -0.18252886541E+04  0.18252886541E+04  0.50400001928E-02 0.  1.
    10030    2    1    2    0    0  0.00000000000E+00  0.00000000000E+00 -0.55042834742E+02  0.35955344735E+04  0.35951131326E+04 0.  0.
        2    1    3    3  502    0  0.10255190439E+04 -0.15121770729E+03 -0.14962484329E+04  0.18202514874E+04  0.25500000920E-02 0.  1.
       -2    1    3    3    0  502 -0.10255190439E+04  0.15121770729E+03  0.14412055982E+04  0.17752829861E+04  0.25500000920E-02 0. -1.
</event>
<event>
 5   0  0.7236375E-08  0.3597294E+04  0.7818609E-02  0.8091112E-01
       -1   -1    0    0    0  501  0.00000000000E+00  0.00000000000E+00  0.18987875355E+04  0.18987875355E+04  0.50400001928E-02 0. -1.
        1   -1    0    0  501    0  0.00000000000E+00  0.00000000000E+00 -0.17037882436E+04  0.17037882436E+04  0.50400001928E-02 0.  1.
    10030    2    1    2    0    0  0.00000000000E+00  0.00000000000E+00  0.19499929191E+03  0.36025757791E+04  0.35972944723E+04 0.  0.
        5    1    3    3  502    0  0.17107803870E+04 -0.54329650055E+03 -0.17425836921E+02  0.17950672327E+04  0.46999998093E+01 0. -1.
       -5    1    3    3    0  502 -0.17107803870E+04  0.54329650055E+03  0.21242512883E+03  0.18075085464E+04  0.46999998093E+01 0.  1.
</event>
<event>
 5   0  0.7347303E-08  0.3583684E+04  0.7818609E-02  0.8094239E-01
        1   -1    0    0  501    0  0.00000000000E+00  0.00000000000E+00  0.15601579310E+04  0.15601579310E+04  0.50400001928E-02 0.  1.
       -1   -1    0    0    0  501  0.00000000000E+00  0.00000000000E+00 -0.20579314321E+04  0.20579314321E+04  0.50400001928E-02 0. -1.
    10030    2    1    2    0    0  0.00000000000E+00  0.00000000000E+00 -0.49777350110E+03  0.36180893631E+04  0.35836841632E+04 0.  0.
        2    1    3    3  502    0 -0.16662599250E+04  0.65755426016E+03 -0.29287455539E+03  0.18150964844E+04  0.25500000920E-02 0. -1.
       -2    1    3    3    0  502  0.16662599250E+04 -0.65755426016E+03 -0.20489894571E+03  0.18029928787E+04  0.25500000920E-02 0.  1.
</event>
<event>
 5   0  0.2198900E-07  0.3612892E+04  0.7818609E-02  0.8087545E-01
        2   -1    0    0  501    0  0.00000000000E+00  0.00000000000E+00  0.21652520207E+04  0.21652520208E+04  0.25500000920E-02 0.  1.
       -2   -1    0    0    0  501  0.00000000000E+00  0.00000000000E+00 -0.15070984153E+04  0.15070984153E+04  0.25500000920E-02 0. -1.
    10030    2    1    2    0    0  0.00000000000E+00  0.00000000000E+00  0.65815360544E+03  0.36723504361E+04  0.36128924087E+04 0.  0.
        2    1    3    3  502    0 -0.58985041640E+03 -0.14141079976E+04  0.13017062694E+04  0.20104885363E+04  0.25500000920E-02 0.  1.
       -2    1    3    3    0  502  0.58985041640E+03  0.14141079976E+04 -0.64355266395E+03  0.16618618998E+04  0.25500000920E-02 0. -1.
</event>
<event>
 5   0  0.2238968E-07  0.3600366E+04  0.7818609E-02  0.8090408E-01
       -2   -1    0    0    0  501  0.00000000000E+00  0.00000000000E+00  0.12228777665E+04  0.12228777665E+04  0.25500000920E-02 0. -1.
        2   -1    0    0  501    0  0.00000000000E+00  0.00000000000E+00 -0.26500272365E+04  0.26500272365E+04  0.25500000920E-02 0.  1.
    10030    2    1    2    0    0  0.00000000000E+00  0.00000000000E+00 -0.14271494700E+04  0.38729050030E+04  0.36003663081E+04 0.  0.
        3    1    3    3  502    0 -0.96046551867E+03  0.90726097171E+02  0.92132059913E+03  0.13340003350E+04  0.10100000352E+00 0. -1.
       -3    1    3    3    0  502  0.96046551867E+03 -0.90726097171E+02 -0.23484700691E+04  0.25389046679E+04  0.10100000352E+00 0.  1.
</event>
<event>
 5   0  0.2198900E-07  0.3609205E+04  0.7818609E-02  0.8088386E-01
        2   -1    0    0  501    0  0.00000000000E+00  0.00000000000E+00  0.26999822494E+04  0.26999822494E+04  0.25500000920E-02 0.  1.
       -2   -1    0    0    0  501  0.00000000000E+00  0.00000000000E+00 -0.12061526290E+04  0.12061526290E+04  0.25500000920E-02 0. -1.
    10030    2    1    2    0    0  0.00000000000E+00  0.00000000000E+00  0.14938296203E+04  0.39061348784E+04  0.36092052800E+04 0.  0.
        2    1    3    3  502    0  0.99572033613E+03  0.14490736241E+04  0.30687208486E+03  0.17847811721E+04  0.25500000920E-02 0.  1.
       -2    1    3    3    0  502 -0.99572033613E+03 -0.14490736241E+04  0.11869575355E+04  0.21213537062E+04  0.25500000920E-02 0. -1.
</event>
<event>
 5   0  0.7261233E-08  0.3604096E+04  0.7818609E-02  0.8089554E-01
        1   -1    0    0  501    0  0.00000000000E+00  0.00000000000E+00  0.16282190128E+04  0.16282190128E+04  0.50400001928E-02 0.  1.
       -1   -1    0    0    0  501  0.00000000000E+00  0.00000000000E+00 -0.19944346158E+04  0.19944346158E+04  0.50400001928E-02 0. -1.
    10030    2    1    2    0    0  0.00000000000E+00  0.00000000000E+00 -0.36621560303E+03  0.36226536286E+04  0.36040956487E+04 0.  0.
        3    1    3    3  502    0  0.10871699917E+04  0.11230489345E+04  0.71828114453E+03  0.17202050206E+04  0.10100000352E+00 0.  1.
       -3    1    3    3    0  502 -0.10871699917E+04 -0.11230489345E+04 -0.10844967476E+04  0.19024486079E+04  0.10100000352E+00 0. -1.
</event>
<event>
 5   0  0.7236375E-08  0.3591369E+04  0.7818609E-02  0.8092472E-01
       -1   -1    0    0    0  501  0.00000000000E+00  0.00000000000E+00  0.20178918368E+04  0.20178918368E+04  0.50400001928E-02 0.  1.
        1   -1    0    0  501    0  0.00000000000E+00  0.00000000000E+00 -0.15979462558E+04  0.15979462558E+04  0.50400001928E-02 0. -1.
    10030    2    1    2    0    0  0.00000000000E+00  0.00000000000E+00  0.41994558101E+03  0.36158380926E+04  0.35913689341E+04 0.  0.
        5    1    3    3  502    0 -0.14144900607E+04 -0.10598444510E+04  0.52900431198E+03  0.18449715564E+04  0.46999998093E+01 0.  1.
       -5    1    3    3    0  502  0.14144900607E+04  0.10598444510E+04 -0.10905873097E+03  0.17708665361E+04  0.46999998093E+01 0. -1.
</event>
<event>
 5   0  0.2238968E-07  0.3505717E+04  0.7818609E-02  0.8112436E-01
        2   -1    0    0  501    0  0.00000000000E+00  0.00000000000E+00  0.22570397984E+04  0.22570397984E+04  0.25500000920E-02 0.  1.
       -2   -1    0    0    0  501  0.00000000000E+00  0.00000000000E+00 -0.13613021988E+04  0.13613021988E+04  0.25500000920E-02 0. -1.
    10030    2    1    2    0    0  0.00000000000E+00  0.00000000000E+00  0.89573759952E+03  0.36183419972E+04  0.35057171822E+04 0.  0.
        3    1    3    3  502    0  0.86344620321E+02  0.11129981690E+04  0.18426881144E+04  0.21544650879E+04  0.10100000352E+00 0.  1.
       -3    1    3    3    0  502 -0.86344620321E+02 -0.11129981690E+04 -0.94695051491E+03  0.14638769093E+04  0.10100000352E+00 0. -1.
</event>
<event>
 5   0  0.7236375E-08  0.3628166E+04  0.7818609E-02  0.8084070E-01
        1   -1    0    0  501    0  0.00000000000E+00  0.00000000000E+00  0.15233453650E+04  0.15233453650E+04  0.50400001928E-02 0.  1.
       -1   -1    0    0    0  501  0.00000000000E+00  0.00000000000E+00 -0.21603091645E+04  0.21603091645E+04  0.50400001928E-02 0. -1.
    10030    2    1    2    0    0  0.00000000000E+00  0.00000000000E+00 -0.63696379951E+03  0.36836545295E+04  0.36281659018E+04 0.  0.
        5    1    3    3  502    0 -0.92398278571E+03 -0.97369753887E+03  0.92044444745E+03  0.16275967425E+04  0.46999998093E+01 0.  1.
       -5    1    3    3    0  502  0.92398278571E+03  0.97369753887E+03 -0.15574082470E+04  0.20560577869E+04  0.46999998093E+01 0. -1.
</event>
<event>
 5   0  0.7347303E-08  0.3506088E+04  0.7818609E-02  0.8112349E-01
        1   -1    0    0  501    0  0.00000000000E+00  0.00000000000E+00  0.24456201321E+04  0.24456201321E+04  0.50400001928E-02 0. -1.
       -1   -1    0    0    0  501  0.00000000000E+00  0.00000000000E+00 -0.12565985471E+04  0.12565985471E+04  0.50400001928E-02 0.  1.
    10030    2    1    2    0    0  0.00000000000E+00  0.00000000000E+00  0.11890215850E+04  0.37022186792E+04  0.35060876798E+04 0.  0.
        2    1    3    3  502    0  0.32234675939E+03 -0.12337968344E+04  0.18647153218E+04  0.22590540705E+04  0.25500000920E-02 0. -1.
       -2    1    3    3    0  502 -0.32234675939E+03  0.12337968344E+04 -0.67569373682E+03  0.14431646087E+04  0.25500000920E-02 0.  1.
</event>
<event>
 5   0  0.2342606E-07  0.3615687E+04  0.7818609E-02  0.8086908E-01
        2   -1    0    0  501    0  0.00000000000E+00  0.00000000000E+00  0.24530807075E+04  0.24530807075E+04  0.25500000920E-02 0. -1.
       -2   -1    0    0    0  501  0.00000000000E+00  0.00000000000E+00 -0.13323239537E+04  0.13323239537E+04  0.25500000920E-02 0.  1.
    10030    2    1    2    0    0  0.00000000000E+00  0.00000000000E+00  0.11207567538E+04  0.37854046612E+04  0.36156870367E+04 0.  0.
        5    1    3    3  502    0  0.13306990683E+04 -0.10702388504E+04 -0.60858901437E+02  0.17087706409E+04  0.46999998093E+01 0.  1.
       -5    1    3    3    0  502 -0.13306990683E+04  0.10702388504E+04  0.11816156553E+04  0.20766340203E+04  0.46999998093E+01 0. -1.
</event>
<event>
 5   0  0.7236375E-08  0.3605709E+04  0.7818609E-02  0.8089185E-01
        1   -1    0    0  501    0  0.00000000000E+00  0.00000000000E+00  0.22868563467E+04  0.22868563467E+04  0.50400001928E-02 0. -1.
       -1   -1    0    0    0  501  0.00000000000E+00  0.00000000000E+00 -0.14212893136E+04  0.14212893136E+04  0.50400001928E-02 0.  1.
    10030    2    1    2    0    0  0.00000000000E+00  0.00000000000E+00  0.86556703314E+03  0.37081456604E+04  0.36057090772E+04 0.  0.
        1    1    3    3  502    0 -0.30215144781E+03 -0.60202675357E+03 -0.12870151670E+04  0.14526320076E+04  0.50400001928E-02 0.  1.
       -1    1    3    3    0  502  0.30215144781E+03  0.60202675357E+03  0.21525822001E+04  0.22555136528E+04  0.50400001928E-02 0. -1.
</event>
<event>
 5   0  0.2238968E-07  0.3540144E+04  0.7818609E-02  0.8104342E-01
       -2   -1    0    0    0  501  0.00000000000E+00  0.00000000000E+00  0.27730889664E+04  0.27730889664E+04  0.25500000920E-02 0. -1.
        2   -1    0    0  501    0  0.00000000000E+00  0.00000000000E+00 -0.11298425929E+04  0.11298425929E+04  0.25500000920E-02 0.  1.
    10030    2    1    2    0    0  0.00000000000E+00  0.00000000000E+00  0.16432463735E+04  0.39029315594E+04  0.35401435159E+04 0.  0.
        3    1    3    3  502    0 -0.13297636760E+04  0.90797293205E+03  0.11119574166E+02  0.16102204614E+04  0.10100000352E+00 0.  1.
       -3    1    3    3    0  502  0.13297636760E+04 -0.90797293205E+03  0.16321267993E+04  0.22927110979E+04  0.10100000352E+00 0. -1.
</event>
<event>
 5   0  0.2199902E-07  0.3644771E+04  0.7818609E-02  0.8080313E-01
        2   -1    0    0  501    0  0.00000000000E+00  0.00000000000E+00  0.19019480224E+04  0.19019480224E+04  0.25500000920E-02 0.  1.
       -2   -1    0    0    0  501  0.00000000000E+00  0.00000000000E+00 -0.17461509241E+04  0.17461509241E+04  0.25500000920E-02 0. -1.
    10030    2    1    2    0    0  0.00000000000E+00  0.00000000000E+00  0.15579709838E+03  0.36480989465E+04  0.36447706633E+04 0.  0.
        1    1    3    3  502    0  0.34315982906E+03 -0.11439828563E+04 -0.12998150148E+04  0.17652123148E+04  0.50400001928E-02 0. -1.
       -1    1    3    3    0  502 -0.34315982906E+03  0.11439828563E+04  0.14556121131E+04  0.18828866317E+04  0.50400001928E-02 0.  1.
</event>
<event>
 5   0  0.2238968E-07  0.3596921E+04  0.7818609E-02  0.8091197E-01
        2   -1    0    0  501    0  0.00000000000E+00  0.00000000000E+00  0.26555287295E+04  0.26555287295E+04  0.25500000920E-02 0.  1.
       -2   -1    0    0    0  501  0.00000000000E+00  0.00000000000E+00 -0.12180099863E+04  0.12180099863E+04  0.25500000920E-02 0. -1.
    10030    2    1    2    0    0  0.00000000000E+00  0.00000000000E+00  0.14375187432E+04  0.38735387158E+04  0.35969211898E+04 0.  0.
        3    1    3    3  502    0 -0.50986349540E+03 -0.15105812513E+04  0.16150152500E+04  0.22693811422E+04  0.10100000352E+00 0.  1.
       -3    1    3    3    0  502  0.50986349540E+03  0.15105812513E+04 -0.17749650674E+03  0.16041575736E+04  0.10100000352E+00 0. -1.
</event>
<event>
 5   0  0.7347303E-08  0.3596035E+04  0.7818609E-02  0.8091400E-01
        1   -1    0    0  501    0  0.00000000000E+00  0.00000000000E+00  0.12333667705E+04  0.12333667705E+04  0.50400001928E-02 0.  1.
       -1   -1    0    0    0  501  0.00000000000E+00  0.00000000000E+00 -0.26211728249E+04  0.26211728249E+04  0.50400001928E-02 0. -1.
    10030    2    1    2    0    0  0.00000000000E+00  0.00000000000E+00 -0.13878060545E+04  0.38545395954E+04  0.35960352957E+04 0.  0.
        2    1    3    3  502    0  0.11080064240E+04  0.12031250261E+04 -0.14943652969E+04  0.22154718921E+04  0.25500000920E-02 0. -1.
       -2    1    3    3    0  502 -0.11080064240E+04 -0.12031250261E+04  0.10655924247E+03  0.16390677033E+04  0.25500000920E-02 0.  1.
</event>
<event>
 5   0  0.2309391E-07  0.3590795E+04  0.7818609E-02  0.8092603E-01
        2   -1    0    0  501    0  0.00000000000E+00  0.00000000000E+00  0.19462526883E+04  0.19462526883E+04  0.25500000920E-02 0.  1.
       -2   -1    0    0    0  501  0.00000000000E+00  0.00000000000E+00 -0.16562355598E+04  0.16562355598E+04  0.25500000920E-02 0. -1.
    10030    2    1    2    0    0  0.00000000000E+00  0.00000000000E+00  0.29001712855E+03  0.36024882481E+04  0.35907954053E+04 0.  0.
        4    1    3    3  502    0 -0.16133853974E+04  0.63334609058E+03 -0.32482355210E+03  0.17634204445E+04  0.12699999809E+01 0. -1.
       -4    1    3    3    0  502  0.16133853974E+04 -0.63334609058E+03  0.61484068065E+03  0.18390678037E+04  0.12699999809E+01 0.  1.
</event>
<event>
 5   0  0.7236375E-08  0.3600526E+04  0.7818609E-02  0.8090371E-01
        1   -1    0    0  501    0  0.00000000000E+00  0.00000000000E+00  0.20803940941E+04  0.20803940942E+04  0.50400001928E-02 0.  1.
       -1   -1    0    0    0  501  0.00000000000E+00  0.00000000000E+00 -0.15578525457E+04  0.15578525457E+04  0.50400001928E-02 0. -1.
    10030    2    1    2    0    0  0.00000000000E+00  0.00000000000E+00  0.52254154848E+03  0.36382466398E+04  0.36005262035E+04 0.  0.
        5    1    3    3  502    0  0.72450826677E+03  0.34307845866E+03 -0.13675438154E+04  0.15851855521E+04  0.46999998093E+01 0. -1.
       -5    1    3    3    0  502 -0.72450826677E+03 -0.34307845866E+03  0.18900853639E+04  0.20530610878E+04  0.46999998093E+01 0.  1.
</event>
<event>
 5   0  0.7347303E-08  0.3602341E+04  0.7818609E-02  0.8089956E-01
       -1   -1    0    0    0  501  0.00000000000E+00  0.00000000000E+00  0.16377783811E+04  0.16377783811E+04  0.50400001928E-02 0. -1.
        1   -1    0    0  501    0  0.00000000000E+00  0.00000000000E+00 -0.19808633851E+04  0.19808633851E+04  0.50400001928E-02 0.  1.
    10030    2    1    2    0    0  0.00000000000E+00  0.00000000000E+00 -0.34308500407E+03  0.36186417662E+04  0.36023410322E+04 0.  0.
        2    1    3    3  502    0  0.16455159276E+04  0.31241446698E+03 -0.83702783949E+03  0.18724158382E+04  0.25500000920E-02 0.  1.
       -2    1    3    3    0  502 -0.16455159276E+04 -0.31241446698E+03  0.49394283542E+03  0.17462259280E+04  0.25500000920E-02 0. -1.
</event>
<event>
 5   0  0.7347303E-08  0.3605018E+04  0.7818609E-02  0.8089343E-01
        1   -1    0    0  501    0  0.00000000000E+00  0.00000000000E+00  0.18255411940E+04  0.18255411941E+04  0.50400001928E-02 0.  1.
       -1   -1    0    0    0  501  0.00000000000E+00  0.00000000000E+00 -0.17797676710E+04  0.17797676710E+04  0.50400001928E-02 0. -1.
    10030    2    1    2    0    0  0.00000000000E+00  0.00000000000E+00  0.45773523014E+02  0.36053088651E+04  0.36050182797E+04 0.  0.
        2    1    3    3  502    0  0.50887056252E+03 -0.13541658874E+04 -0.10525253082E+04  0.17890008453E+04  0.25500000920E-02 0. -1.
       -2    1    3    3    0  502 -0.50887056252E+03  0.13541658874E+04  0.10982988312E+04  0.18163080198E+04  0.25500000920E-02 0.  1.
</event>
<event>
 5   0  0.7261233E-08  0.3611673E+04  0.7818609E-02  0.8087823E-01
        1   -1    0    0  501    0  0.00000000000E+00  0.00000000000E+00  0.26622138952E+04  0.26622138952E+04  0.50400001928E-02 0.  1.
       -1   -1    0    0    0  501  0.00000000000E+00  0.00000000000E+00 -0.12249376731E+04  0.12249376731E+04  0.50400001928E-02 0. -1.
    10030    2    1    2    0    0  0.00000000000E+00  0.00000000000E+00  0.14372762221E+04  0.38871515684E+04  0.36116733486E+04 0.  0.
        3    1    3    3  502    0 -0.42698596835E+03 -0.13832725556E+04 -0.44318308217E+03  0.15139918212E+04  0.10100000352E+00 0. -1.
       -3    1    3    3    0  502  0.42698596835E+03  0.13832725556E+04  0.18804593043E+04  0.23731597471E+04  0.10100000352E+00 0.  1.
</event>
<event>
 5   0  0.7236375E-08  0.3603950E+04  0.7818609E-02  0.8089588E-01
       -1   -1    0    0    0  501  0.00000000000E+00  0.00000000000E+00  0.20764030548E+04  0.20764030548E+04  0.50400001928E-02 0. -1.
        1   -1    0    0  501    0  0.00000000000E+00  0.00000000000E+00 -0.15638165429E+04  0.15638165429E+04  0.50400001928E-02 0.  1.
    10030    2    1    2    0    0  0.00000000000E+00  0.00000000000E+00  0.51258651188E+03  0.36402195977E+04  0.36039497481E+04 0.  0.
        5    1    3    3  502    0  0.11559838522E+04  0.12417010186E+04 -0.35724992358E+03  0.17337155718E+04  0.46999998093E+01 0.  1.
       -5    1    3    3    0  502 -0.11559838522E+04 -0.12417010186E+04  0.86983643546E+03  0.19065040258E+04  0.46999998093E+01 0. -1.
</event>
<event>
 5   0  0.2342606E-07  0.3570534E+04  0.7818609E-02  0.8097275E-01
        2   -1    0    0  501    0  0.00000000000E+00  0.00000000000E+00  0.30411149195E+04  0.30411149195E+04  0.25500000920E-02 0.  1.
       -2   -1    0    0    0  501  0.00000000000E+00  0.00000000000E+00 -0.10480297701E+04  0.10480297701E+04  0.25500000920E-02 0. -1.
    10030    2    1    2    0    0  0.00000000000E+00  0.00000000000E+00  0.19930851494E+04  0.40891446896E+04  0.35705343970E+04 0.  0.
        5    1    3    3  502    0 -0.46279644589E+03 -0.77459014142E+03  0.27607387860E+04  0.29044571218E+04  0.46999998093E+01 0.  1.
       -5    1    3    3    0  502  0.46279644589E+03  0.77459014142E+03 -0.76765363665E+03  0.11846875678E+04  0.46999998093E+01 0. -1.
</event>
<event>
 5   0  0.7236375E-08  0.3604391E+04  0.7818609E-02  0.8089487E-01
        1   -1    0    0  501    0  0.00000000000E+00  0.00000000000E+00  0.17923818497E+04  0.17923818497E+04  0.50400001928E-02 0.  1.
       -1   -1    0    0    0  501  0.00000000000E+00  0.00000000000E+00 -0.18120629223E+04  0.18120629223E+04  0.50400001928E-02 0. -1.
    10030    2    1    2    0    0  0.00000000000E+00  0.00000000000E+00 -0.19681072517E+02  0.36044447720E+04  0.36043910401E+04 0.  0.
        1    1    3    3  502    0 -0.62931347090E+03  0.16886210518E+04  0.10948980374E+02  0.18021088706E+04  0.50400001928E-02 0. -1.
       -1    1    3    3    0  502  0.62931347090E+03 -0.16886210518E+04 -0.30630052892E+02  0.18023359014E+04  0.50400001928E-02 0.  1.
</event>
<event>
 5   0  0.7236375E-08  0.3604424E+04  0.7818609E-02  0.8089479E-01
       -1   -1    0    0    0  501  0.00000000000E+00  0.00000000000E+00  0.21483339344E+04  0.21483339344E+04  0.50400001928E-02 0. -1.
        1   -1    0    0  501    0  0.00000000000E+00  0.00000000000E+00 -0.15118540930E+04  0.15118540930E+04  0.50400001928E-02 0.  1.
    10030    2    1    2    0    0  0.00000000000E+00  0.00000000000E+00  0.63647984142E+03  0.36601880275E+04  0.36044236443E+04 0.  0.
        5    1    3    3  502    0  0.11270475608E+04  0.93289390902E+03 -0.75038027433E+03  0.16442688028E+04  0.46999998093E+01 0.  1.
       -5    1    3    3    0  502 -0.11270475608E+04 -0.93289390902E+03  0.13868601158E+04  0.20159192247E+04  0.46999998093E+01 0. -1.
</event>
<event>
 5   0  0.7514289E-08  0.3571936E+04  0.7818609E-02  0.8096951E-01
        1   -1    0    0  501    0  0.00000000000E+00  0.00000000000E+00  0.24136543584E+04  0.24136543584E+04  0.50400001928E-02 0.  1.
       -1   -1    0    0    0  501  0.00000000000E+00  0.00000000000E+00 -0.13215151673E+04  0.13215151673E+04  0.50400001928E-02 0. -1.
    10030    2    1    2    0    0  0.00000000000E+00  0.00000000000E+00  0.10921391911E+04  0.37351695257E+04  0.35719355219E+04 0.  0.
        4    1    3    3  502    0 -0.59512362876E+03  0.72245061670E+03 -0.10444837365E+04  0.14025173496E+04  0.12699999809E+01 0. -1.
       -4    1    3    3    0  502  0.59512362876E+03 -0.72245061670E+03  0.21366229276E+04  0.23326521761E+04  0.12699999809E+01 0.  1.
</event>
<event>
 5   0  0.7347303E-08  0.3456398E+04  0.7818609E-02  0.8124201E-01
       -1   -1    0    0    0  501  0.00000000000E+00  0.00000000000E+00  0.14433993776E+04  0.14433993776E+04  0.50400001928E-02 0. -1.
        1   -1    0    0  501    0  0.00000000000E+00  0.00000000000E+00 -0.20691930314E+04  0.20691930314E+04  0.50400001928E-02 0.  1.
    10030    2    1    2    0    0  0.00000000000E+00  0.00000000000E+00 -0.62579365372E+03  0.35125924090E+04  0.34563980868E+04 0.  0.
        2    1    3    3  502    0 -0.97655628635E+03  0.57610741519E+03  0.10125740842E+04  0.15201540087E+04  0.25500000920E-02 0. -1.
       -2    1    3    3    0  502  0.97655628635E+03 -0.57610741519E+03 -0.16383677379E+04  0.19924384003E+04  0.25500000920E-02 0.  1.
</event>
<event>
 5   0  0.2198900E-07  0.3618098E+04  0.7818609E-02  0.8086359E-01
        2   -1    0    0  501    0  0.00000000000E+00  0.00000000000E+00  0.26728460189E+04  0.26728460189E+04  0.25500000920E-02 0. -1.
       -2   -1    0    0    0  501  0.00000000000E+00  0.00000000000E+00 -0.12244098835E+04  0.12244098835E+04  0.25500000920E-02 0.  1.
    10030    2    1    2    0    0  0.00000000000E+00  0.00000000000E+00  0.14484361354E+04  0.38972559024E+04  0.36180984413E+04 0.  0.
        2    1    3    3  502    0  0.94110837306E+03 -0.10806445630E+04  0.19135763906E+04  0.23906593743E+04  0.25500000920E-02 0. -1.
       -2    1    3    3    0  502 -0.94110837306E+03  0.10806445630E+04 -0.46514025518E+03  0.15065965281E+04  0.25500000920E-02 0.  1.
</event>
<event>
 5   0  0.2238968E-07  0.3581951E+04  0.7818609E-02  0.8094639E-01
        2   -1    0    0  501    0  0.00000000000E+00  0.00000000000E+00  0.18415740659E+04  0.18415740659E+04  0.25500000920E-02 0.  1.
       -2   -1    0    0    0  501  0.00000000000E+00  0.00000000000E+00 -0.17417668081E+04  0.17417668081E+04  0.25500000920E-02 0. -1.
    10030    2    1    2    0    0  0.00000000000E+00  0.00000000000E+00  0.99807257845E+02  0.35833408740E+04  0.35819506321E+04 0.  0.
        3    1    3    3  502    0  0.45884463991E+02  0.15584427234E+04  0.93157620379E+03  0.18162277775E+04  0.10100000352E+00 0. -1.
       -3    1    3    3    0  502 -0.45884463991E+02 -0.15584427234E+04 -0.83176894595E+03  0.17671130965E+04  0.10100000352E+00 0.  1.
</event>
<event>
 5   0  0.2309391E-07  0.3590949E+04  0.7818609E-02  0.8092568E-01
        2   -1    0    0  501    0  0.00000000000E+00  0.00000000000E+00  0.26065817881E+04  0.26065817881E+04  0.25500000920E-02 0. -1.
       -2   -1    0    0    0  501  0.00000000000E+00  0.00000000000E+00 -0.12367647678E+04  0.12367647678E+04  0.25500000920E-02 0.  1.
    10030    2    1    2    0    0  0.00000000000E+00  0.00000000000E+00  0.13698170203E+04  0.38433465559E+04  0.35909489108E+04 0.  0.
        4    1    3    3  502    0  0.30787693980E+03  0.17498084816E+04  0.40764633755E+03  0.18228535547E+04  0.12699999809E+01 0. -1.
       -4    1    3    3    0  502 -0.30787693980E+03 -0.17498084816E+04  0.96217068276E+03  0.20204930012E+04  0.12699999809E+01 0.  1.
</event>
<event>
 5   0  0.7236375E-08  0.3626648E+04  0.7818609E-02  0.8084415E-01
       -1   -1    0    0    0  501  0.00000000000E+00  0.00000000000E+00  0.24299139097E+04  0.24299139097E+04  0.50400001928E-02 0. -1.
        1   -1    0    0  501    0  0.00000000000E+00  0.00000000000E+00 -0.13531938762E+04  0.13531938762E+04  0.50400001928E-02 0.  1.
    10030    2    1    2    0    0  0.00000000000E+00  0.00000000000E+00  0.10767200334E+04  0.37831077859E+04  0.36266483823E+04 0.  0.
        5    1    3    3  502    0 -0.25579785519E+03  0.10053099528E+04  0.20898177103E+04  0.23331182560E+04  0.46999998093E+01 0. -1.
       -5    1    3    3    0  502  0.25579785519E+03 -0.10053099528E+04 -0.10130976769E+04  0.14499895299E+04  0.46999998093E+01 0.  1.
</event>
<event>
 5   0  0.2199902E-07  0.3578940E+04  0.7818609E-02  0.8095333E-01
        2   -1    0    0  501    0  0.00000000000E+00  0.00000000000E+00  0.23226094455E+04  0.23226094455E+04  0.25500000920E-02 0. -1.
       -2   -1    0    0    0  501  0.00000000000E+00  0.00000000000E+00 -0.13787092798E+04  0.13787092798E+04  0.25500000920E-02 0.  1.
    10030    2    1    2    0    0  0.00000000000E+00  0.00000000000E+00  0.94390016575E+03  0.37013187253E+04  0.35789401760E+04 0.  0.
        1    1    3    3  502    0  0.14741292427E+02  0.15060314940E+04 -0.52745551201E+03  0.15957936846E+04  0.50400001928E-02 0.  1.
       -1    1    3    3    0  502 -0.14741292427E+02 -0.15060314940E+04  0.14713556778E+04  0.21055250407E+04  0.50400001928E-02 0. -1.
</event>
<event>
 5   0  0.2342606E-07  0.3596216E+04  0.7818609E-02  0.8091359E-01
        2   -1    0    0  501    0  0.00000000000E+00  0.00000000000E+00  0.11934218433E+04  0.11934218434E+04  0.25500000920E-02 0. -1.
       -2   -1    0    0    0  501  0.00000000000E+00  0.00000000000E+00 -0.27091784517E+04  0.27091784517E+04  0.25500000920E-02 0.  1.
    10030    2    1    2    0    0  0.00000000000E+00  0.00000000000E+00 -0.15157566083E+04  0.39026002950E+04  0.35962162014E+04 0.  0.
        5    1    3    3  502    0  0.60786962038E+03 -0.76179649405E+03 -0.23976853295E+04  0.25881955883E+04  0.46999998093E+01 0.  1.
       -5    1    3    3    0  502 -0.60786962038E+03  0.76179649405E+03  0.88192872123E+03  0.13144047067E+04  0.46999998093E+01 0. -1.
</event>
<event>
 5   0  0.7514289E-08  0.3585589E+04  0.7818609E-02  0.8093801E-01
       -1   -1    0    0    0  501  0.00000000000E+00  0.00000000000E+00  0.28308795443E+04  0.28308795443E+04  0.50400001928E-02 0.  1.
        1   -1    0    0  501    0  0.00000000000E+00  0.00000000000E+00 -0.11353759946E+04  0.11353759946E+04  0.50400001928E-02 0. -1.
    10030    2    1    2    0    0  0.00000000000E+00  0.00000000000E+00  0.16955035497E+04  0.39662555389E+04  0.35855893118E+04 0.  0.
        4    1    3    3  502    0  0.16195023564E+04  0.70992263013E+03  0.11746476507E+04  0.21228699299E+04  0.12699999809E+01 0.  1.
       -4    1    3    3    0  502 -0.16195023564E+04 -0.70992263013E+03  0.52085589906E+03  0.18433856090E+04  0.12699999809E+01 0. -1.
</event>
<event>
 5   0  0.7347303E-08  0.3603457E+04  0.7818609E-02  0.8089700E-01
        1   -1    0    0  501    0  0.00000000000E+00  0.00000000000E+00  0.23770431177E+04  0.23770431177E+04  0.50400001928E-02 0.  1.
       -1   -1    0    0    0  501  0.00000000000E+00  0.00000000000E+00 -0.13656570490E+04  0.13656570490E+04  0.50400001928E-02 0. -1.
    10030    2    1    2    0    0  0.00000000000E+00  0.00000000000E+00  0.10113860687E+04  0.37427001667E+04  0.36034570565E+04 0.  0.
        2    1    3    3  502    0 -0.14484293208E+04  0.10689146155E+04  0.58410694082E+03  0.18925397937E+04  0.25500000920E-02 0. -1.
       -2    1    3    3    0  502  0.14484293208E+04 -0.10689146155E+04  0.42727912788E+03  0.18501603730E+04  0.25500000920E-02 0.  1.
</event>
<event>
 5   0  0.7347303E-08  0.3567938E+04  0.7818609E-02  0.8097876E-01
       -1   -1    0    0    0  501  0.00000000000E+00  0.00000000000E+00  0.15428292587E+04  0.15428292587E+04  0.50400001928E-02 0. -1.
        1   -1    0    0  501    0  0.00000000000E+00  0.00000000000E+00 -0.20627983042E+04  0.20627983042E+04  0.50400001928E-02 0.  1.
    10030    2    1    2    0    0  0.00000000000E+00  0.00000000000E+00 -0.51996904547E+03  0.36056275629E+04  0.35679381040E+04 0.  0.
        2    1    3    3  502    0  0.83119446455E+03 -0.11239683564E+04  0.86003543877E+03  0.16412952385E+04  0.25500000920E-02 0. -1.
       -2    1    3    3    0  502 -0.83119446455E+03  0.11239683564E+04 -0.13800044842E+04  0.19643323244E+04  0.25500000920E-02 0.  1.
</event>
<event>
 5   0  0.7236375E-08  0.3608427E+04  0.7818609E-02  0.8088564E-01
       -1   -1    0    0    0  501  0.00000000000E+00  0.00000000000E+00  0.16359347719E+04  0.16359347719E+04  0.50400001928E-02 0. -1.
        1   -1    0    0  501    0  0.00000000000E+00  0.00000000000E+00 -0.19898022978E+04  0.19898022978E+04  0.50400001928E-02 0.  1.
    10030    2    1    2    0    0  0.00000000000E+00  0.00000000000E+00 -0.35386752584E+03  0.36257370697E+04  0.36084272298E+04 0.  0.
        5    1    3    3  502    0 -0.27784507811E+03  0.15532863745E+04 -0.10559263192E+04  0.18986571387E+04  0.46999998093E+01 0. -1.
       -5    1    3    3    0  502  0.27784507811E+03 -0.15532863745E+04  0.70205879341E+03  0.17270799310E+04  0.46999998093E+01 0.  1.
</event>
<event>
 5   0  0.7347303E-08  0.3596876E+04  0.7818609E-02  0.8091208E-01
        1   -1    0    0  501    0  0.00000000000E+00  0.00000000000E+00  0.14733843547E+04  0.14733843548E+04  0.50400001928E-02 0. -1.
       -1   -1    0    0    0  501  0.00000000000E+00  0.00000000000E+00 -0.21952038452E+04  0.21952038452E+04  0.50400001928E-02 0.  1.
    10030    2    1    2    0    0  0.00000000000E+00  0.00000000000E+00 -0.72181949042E+03  0.36685881999E+04  0.35968758672E+04 0.  0.
        2    1    3    3  502    0 -0.10554946917E+04  0.14550884847E+04 -0.41702909171E+03  0.18453359602E+04  0.25500000920E-02 0. -1.
       -2    1    3    3    0  502  0.10554946917E+04 -0.14550884847E+04 -0.30479039871E+03  0.18232522397E+04  0.25500000920E-02 0.  1.
</event>
<event>
 5   0  0.2198900E-07  0.3605042E+04  0.7818609E-02  0.8089338E-01
       -2   -1    0    0    0  501  0.00000000000E+00  0.00000000000E+00  0.14452448796E+04  0.14452448796E+04  0.25500000920E-02 0.  1.
        2   -1    0    0  501    0  0.00000000000E+00  0.00000000000E+00 -0.22481182273E+04  0.22481182273E+04  0.25500000920E-02 0. -1.
    10030    2    1    2    0    0  0.00000000000E+00  0.00000000000E+00 -0.80287334772E+03  0.36933631068E+04  0.36050416678E+04 0.  0.
        2    1    3    3  502    0  0.27084307291E+03  0.13839659174E+04 -0.15516003973E+04  0.20967072813E+04  0.25500000920E-02 0.  1.
       -2    1    3    3    0  502 -0.27084307291E+03 -0.13839659174E+04  0.74872704953E+03  0.15966558256E+04  0.25500000920E-02 0. -1.
</event>
<event>
 5   0  0.2198900E-07  0.3628830E+04  0.7818609E-02  0.8083920E-01
       -2   -1    0    0    0  501  0.00000000000E+00  0.00000000000E+00  0.17903473365E+04  0.17903473365E+04  0.25500000920E-02 0. -1.
        2   -1    0    0  501    0  0.00000000000E+00  0.00000000000E+00 -0.18388058363E+04  0.18388058363E+04  0.25500000920E-02 0.  1.
    10030    2    1    2    0    0  0.00000000000E+00  0.00000000000E+00 -0.48458499815E+02  0.36291531728E+04  0.36288296358E+04 0.  0.
        2    1    3    3  502    0  0.16631914869E+04  0.26609251437E+03  0.65043447072E+03  0.18055680959E+04  0.25500000920E-02 0. -1.
       -2    1    3    3    0  502 -0.16631914869E+04 -0.26609251437E+03 -0.69889297054E+03  0.18235850769E+04  0.25500000920E-02 0.  1.
</event>
<event>
 5   0  0.2238968E-07  0.3596483E+04  0.7818609E-02  0.8091298E-01
        2   -1    0    0  501    0  0.00000000000E+00  0.00000000000E+00  0.96264957224E+03  0.96264957224E+03  0.25500000920E-02 0. -1.
       -2   -1    0    0    0  501  0.00000000000E+00  0.00000000000E+00 -0.33591373418E+04  0.33591373418E+04  0.25500000920E-02 0.  1.
    10030    2    1    2    0    0  0.00000000000E+00  0.00000000000E+00 -0.23964877696E+04  0.43217869140E+04  0.35964827958E+04 0.  0.
        3    1    3    3  502    0  0.98403863590E+03  0.62356846158E+03  0.44787020069E+03  0.12481015143E+04  0.10100000352E+00 0. -1.
       -3    1    3    3    0  502 -0.98403863590E+03 -0.62356846158E+03 -0.28443579702E+04  0.30736853997E+04  0.10100000352E+00 0.  1.
</event>
<event>
 5   0  0.7236375E-08  0.3586683E+04  0.7818609E-02  0.8093549E-01
       -1   -1    0    0    0  501  0.00000000000E+00  0.00000000000E+00  0.16798647416E+04  0.16798647416E+04  0.50400001928E-02 0.  1.
        1   -1    0    0  501    0  0.00000000000E+00  0.00000000000E+00 -0.19144833734E+04  0.19144833734E+04  0.50400001928E-02 0. -1.
    10030    2    1    2    0    0  0.00000000000E+00  0.00000000000E+00 -0.23461863175E+03  0.35943481150E+04  0.35866826553E+04 0.  0.
        1    1    3    3  502    0 -0.10889114066E+04  0.26786301975E+03 -0.15197982580E+04  0.18887205706E+04  0.50400001928E-02 0. -1.
       -1    1    3    3    0  502  0.10889114066E+04 -0.26786301975E+03  0.12851796262E+04  0.17056275444E+04  0.50400001928E-02 0.  1.
</event>
<event>
 5   0  0.7347303E-08  0.3677348E+04  0.7818609E-02  0.8073000E-01
        1   -1    0    0  501    0  0.00000000000E+00  0.00000000000E+00  0.15243833972E+04  0.15243833972E+04  0.50400001928E-02 0.  1.
       -1   -1    0    0    0  501  0.00000000000E+00  0.00000000000E+00 -0.22177636969E+04  0.22177636969E+04  0.50400001928E-02 0. -1.
    10030    2    1    2    0    0  0.00000000000E+00  0.00000000000E+00 -0.69338029977E+03  0.37421470941E+04  0.36773480436E+04 0.  0.
        2    1    3    3  502    0  0.70316636076E+02 -0.10062473847E+04  0.12176831476E+04  0.15812117114E+04  0.25500000920E-02 0.  1.
       -2    1    3    3    0  502 -0.70316636076E+02  0.10062473847E+04 -0.19110634473E+04  0.21609353827E+04  0.25500000920E-02 0. -1.
</event>
<event>
 5   0  0.7347303E-08  0.3577737E+04  0.7818609E-02  0.8095610E-01
       -1   -1    0    0    0  501  0.00000000000E+00  0.00000000000E+00  0.14577037607E+04  0.14577037607E+04  0.50400001928E-02 0.  1.
        1   -1    0    0  501    0  0.00000000000E+00  0.00000000000E+00 -0.21952681263E+04  0.21952681263E+04  0.50400001928E-02 0. -1.
    10030    2    1    2    0    0  0.00000000000E+00  0.00000000000E+00 -0.73756436556E+03  0.36529718870E+04  0.35777370520E+04 0.  0.
        2    1    3    3  502    0 -0.75801588175E+03 -0.14192687259E+04  0.42941068602E+03  0.16653243920E+04  0.25500000920E-02 0.  1.
       -2    1    3    3    0  502  0.75801588175E+03  0.14192687259E+04 -0.11669750516E+04  0.19876474950E+04  0.25500000920E-02 0. -1.
</event>
<event>
 5   0  0.2238968E-07  0.3627784E+04  0.7818609E-02  0.8084157E-01
       -2   -1    0    0    0  501  0.00000000000E+00  0.00000000000E+00  0.13397778255E+04  0.13397778255E+04  0.25500000920E-02 0. -1.
        2   -1    0    0  501    0  0.00000000000E+00  0.00000000000E+00 -0.24557831339E+04  0.24557831339E+04  0.25500000920E-02 0.  1.
    10030    2    1    2    0    0  0.00000000000E+00  0.00000000000E+00 -0.11160053084E+04  0.37955609594E+04  0.36277837792E+04 0.  0.
        3    1    3    3  502    0  0.12675468879E+03  0.15078227416E+04 -0.16045683036E+04  0.22055012179E+04  0.10100000352E+00 0.  1.
       -3    1    3    3    0  502 -0.12675468879E+03 -0.15078227416E+04  0.48856299522E+03  0.15900597415E+04  0.10100000352E+00 0. -1.
</event>
<event>
 5   0  0.2198900E-07  0.3600070E+04  0.7818609E-02  0.8090476E-01
       -2   -1    0    0    0  501  0.00000000000E+00  0.00000000000E+00  0.21279485940E+04  0.21279485940E+04  0.25500000920E-02 0.  1.
        2   -1    0    0  501    0  0.00000000000E+00  0.00000000000E+00 -0.15226527795E+04  0.15226527795E+04  0.25500000920E-02 0. -1.
    10030    2    1    2    0    0  0.00000000000E+00  0.00000000000E+00  0.60529581457E+03  0.36506013735E+04  0.36000704667E+04 0.  0.
        2    1    3    3  502    0  0.38405746273E+03  0.17537857114E+04  0.43432581309E+03  0.18471338252E+04  0.25500000920E-02 0.  1.
       -2    1    3    3    0  502 -0.38405746273E+03 -0.17537857114E+04  0.17097000148E+03  0.18034675483E+04  0.25500000920E-02 0. -1.
</event>
<event>
 5   0  0.2198900E-07  0.3603426E+04  0.7818609E-02  0.8089707E-01
        2   -1    0    0  501    0  0.00000000000E+00  0.00000000000E+00  0.21994654707E+04  0.21994654707E+04  0.25500000920E-02 0.  1.
       -2   -1    0    0    0  501  0.00000000000E+00  0.00000000000E+00 -0.14758900579E+04  0.14758900579E+04  0.25500000920E-02 0. -1.
    10030    2    1    2    0    0  0.00000000000E+00  0.00000000000E+00  0.72357541278E+03  0.36753555287E+04  0.36034257151E+04 0.  0.
        2    1    3    3  502    0  0.19335233285E+03 -0.44464167127E+03 -0.14080961866E+04  0.14892367881E+04  0.25500000920E-02 0. -1.
       -2    1    3    3    0  502 -0.19335233285E+03  0.44464167127E+03  0.21316715993E+04  0.21861187406E+04  0.25500000920E-02 0.  1.
</event>
<event>
 5   0  0.7514289E-08  0.3616310E+04  0.7818609E-02  0.8086766E-01
        1   -1    0    0  501    0  0.00000000000E+00  0.00000000000E+00  0.23028834175E+04  0.23028834175E+04  0.50400001928E-02 0.  1.
       -1   -1    0    0    0  501  0.00000000000E+00  0.00000000000E+00 -0.14197090450E+04  0.14197090450E+04  0.50400001928E-02 0. -1.
    10030    2    1    2    0    0  0.00000000000E+00  0.00000000000E+00  0.88317437251E+03  0.37225924624E+04  0.36163099520E+04 0.  0.
        4    1    3    3  502    0  0.72099271850E+03  0.13830971218E+04 -0.49997231957E+03  0.16379139421E+04  0.12699999809E+01 0.  1.
       -4    1    3    3    0  502 -0.72099271850E+03 -0.13830971218E+04  0.13831466921E+04  0.20846785203E+04  0.12699999809E+01 0. -1.
</event>
<event>
 5   0  0.7236375E-08  0.3604001E+04  0.7818609E-02  0.8089576E-01
       -3   -1    0    0    0  501  0.00000000000E+00  0.00000000000E+00  0.18264655417E+04  0.18264655445E+04  0.10100000352E+00 0. -1.
        3   -1    0    0  501    0  0.00000000000E+00  0.00000000000E+00 -0.17778632024E+04  0.17778632053E+04  0.10100000352E+00 0.  1.
    10030    2    1    2    0    0  0.00000000000E+00  0.00000000000E+00  0.48602339278E+02  0.36043287497E+04  0.36040010473E+04 0.  0.
        3    1    3    3  502    0 -0.78940414124E+03  0.19044713733E+03  0.16331042924E+04  0.18238581771E+04  0.10100000352E+00 0. -1.
       -3    1    3    3    0  502  0.78940414124E+03 -0.19044713733E+03 -0.15845019531E+04  0.17804705726E+04  0.10100000352E+00 0.  1.
</event>
<event>
 5   0  0.2199902E-07  0.3558903E+04  0.7818609E-02  0.8099971E-01
        2   -1    0    0  501    0  0.00000000000E+00  0.00000000000E+00  0.19864014034E+04  0.19864014034E+04  0.25500000920E-02 0.  1.
       -2   -1    0    0    0  501  0.00000000000E+00  0.00000000000E+00 -0.15940627479E+04  0.15940627479E+04  0.25500000920E-02 0. -1.
    10030    2    1    2    0    0  0.00000000000E+00  0.00000000000E+00  0.39233865550E+03  0.35804641513E+04  0.35589034713E+04 0.  0.
        1    1    3    3  502    0 -0.16471556059E+04  0.51816816597E+03  0.62869088362E+03  0.18376267481E+04  0.50400001928E-02 0.  1.
       -1    1    3    3    0  502  0.16471556059E+04 -0.51816816597E+03 -0.23635222811E+03  0.17428374032E+04  0.50400001928E-02 0. -1.
</event>
<event>
 5   0  0.2238968E-07  0.3592653E+04  0.7818609E-02  0.8092177E-01
       -2   -1    0    0    0  501  0.00000000000E+00  0.00000000000E+00  0.16344281797E+04  0.16344281797E+04  0.25500000920E-02 0. -1.
        2   -1    0    0  501    0  0.00000000000E+00  0.00000000000E+00 -0.19742618344E+04  0.19742618344E+04  0.25500000920E-02 0.  1.
    10030    2    1    2    0    0  0.00000000000E+00  0.00000000000E+00 -0.33983365467E+03  0.36086900141E+04  0.35926531568E+04 0.  0.
        3    1    3    3  502    0  0.11773192373E+04 -0.12377173834E+04  0.38822914782E+03  0.17517838877E+04  0.10100000352E+00 0.  1.
       -3    1    3    3    0  502 -0.11773192373E+04  0.12377173834E+04 -0.72806280249E+03  0.18569061264E+04  0.10100000352E+00 0. -1.
</event>
<event>
 5   0  0.7347303E-08  0.3614864E+04  0.7818609E-02  0.8087095E-01
        1   -1    0    0  501    0  0.00000000000E+00  0.00000000000E+00  0.22107726428E+04  0.22107726428E+04  0.50400001928E-02 0.  1.
       -1   -1    0    0    0  501  0.00000000000E+00  0.00000000000E+00 -0.14776779531E+04  0.14776779531E+04  0.50400001928E-02 0. -1.
    10030    2    1    2    0    0  0.00000000000E+00  0.00000000000E+00  0.73309468967E+03  0.36884505959E+04  0.36148637560E+04 0.  0.
        2    1    3    3  502    0 -0.92780210599E+03 -0.69598182044E+03  0.17809850362E+04  0.21253505926E+04  0.25500000920E-02 0.  1.
       -2    1    3    3    0  502  0.92780210599E+03  0.69598182044E+03 -0.10478903465E+04  0.15631000034E+04  0.25500000920E-02 0. -1.
</event>
<event>
 5   0  0.2238968E-07  0.3589504E+04  0.7818609E-02  0.8092900E-01
        2   -1    0    0  501    0  0.00000000000E+00  0.00000000000E+00  0.16774182261E+04  0.16774182262E+04  0.25500000920E-02 0. -1.
       -2   -1    0    0    0  501  0.00000000000E+00  0.00000000000E+00 -0.19202935637E+04  0.19202935637E+04  0.25500000920E-02 0.  1.
    10030    2    1    2    0    0  0.00000000000E+00  0.00000000000E+00 -0.24287533757E+03  0.35977117899E+04  0.35895043799E+04 0.  0.
        3    1    3    3  502    0 -0.53673583106E+03 -0.86345349243E+03 -0.16038387625E+04  0.18989302442E+04  0.10100000352E+00 0.  1.
       -3    1    3    3    0  502  0.53673583106E+03  0.86345349243E+03  0.13609634249E+04  0.16987815457E+04  0.10100000352E+00 0. -1.
</event>
<event>
 5   0  0.2198900E-07  0.3610644E+04  0.7818609E-02  0.8088058E-01
        2   -1    0    0  501    0  0.00000000000E+00  0.00000000000E+00  0.28389291304E+04  0.28389291304E+04  0.25500000920E-02 0.  1.
       -2   -1    0    0    0  501  0.00000000000E+00  0.00000000000E+00 -0.11480342627E+04  0.11480342627E+04  0.25500000920E-02 0. -1.
    10030    2    1    2    0    0  0.00000000000E+00  0.00000000000E+00  0.16908948677E+04  0.39869633931E+04  0.36106442146E+04 0.  0.
        2    1    3    3  502    0  0.19741578778E+03  0.16048812319E+04 -0.41081641134E+02  0.16174994476E+04  0.25500000920E-02 0. -1.
       -2    1    3    3    0  502 -0.19741578778E+03 -0.16048812319E+04  0.17319765088E+04  0.23694639455E+04  0.25500000920E-02 0.  1.
</event>
<event>
 5   0  0.2238968E-07  0.3596710E+04  0.7818609E-02  0.8091246E-01
       -2   -1    0    0    0  501  0.00000000000E+00  0.00000000000E+00  0.18470599321E+04  0.18470599321E+04  0.25500000920E-02 0. -1.
        2   -1    0    0  501    0  0.00000000000E+00  0.00000000000E+00 -0.17509343827E+04  0.17509343827E+04  0.25500000920E-02 0.  1.
    10030    2    1    2    0    0  0.00000000000E+00  0.00000000000E+00  0.96125549430E+02  0.35979943148E+04  0.35967100200E+04 0.  0.
        3    1    3    3  502    0 -0.11277269088E+03  0.11522183126E+04 -0.13285666885E+04  0.17622185380E+04  0.10100000352E+00 0.  1.
       -3    1    3    3    0  502  0.11277269088E+03 -0.11522183126E+04  0.14246922379E+04  0.18357757768E+04  0.10100000352E+00 0. -1.
</event>
<event>
 5   0  0.7236375E-08  0.3591451E+04  0.7818609E-02  0.8092453E-01
       -1   -1    0    0    0  501  0.00000000000E+00  0.00000000000E+00  0.20096536022E+04  0.20096536022E+04  0.50400001928E-02 0.  1.
        1   -1    0    0  501    0  0.00000000000E+00  0.00000000000E+00 -0.16045704302E+04  0.16045704302E+04  0.50400001928E-02 0. -1.
    10030    2    1    2    0    0  0.00000000000E+00  0.00000000000E+00  0.40508317206E+03  0.36142240324E+04  0.35914513752E+04 0.  0.
        5    1    3    3  502    0  0.15688491854E+04  0.84794922240E+03 -0.92758317404E+01  0.17833714648E+04  0.46999998093E+01 0. -1.
       -5    1    3    3    0  502 -0.15688491854E+04 -0.84794922240E+03  0.41435900380E+03  0.18308525676E+04  0.46999998093E+01 0.  1.
</event>
<event>
 5   0  0.7236375E-08  0.3598803E+04  0.7818609E-02  0.8090766E-01
        1   -1    0    0  501    0  0.00000000000E+00  0.00000000000E+00  0.16815805969E+04  0.16815805969E+04  0.50400001928E-02 0. -1.
       -1   -1    0    0    0  501  0.00000000000E+00  0.00000000000E+00 -0.19254778899E+04  0.19254778899E+04  0.50400001928E-02 0.  1.
    10030    2    1    2    0    0  0.00000000000E+00  0.00000000000E+00 -0.24389729305E+03  0.36070584869E+04  0.35988032786E+04 0.  0.
        5    1    3    3  502    0 -0.56045183759E+03 -0.10678240955E+04 -0.14604781041E+04  0.18940361516E+04  0.46999998093E+01 0.  1.
       -5    1    3    3    0  502  0.56045183759E+03  0.10678240955E+04  0.12165808111E+04  0.17130223352E+04  0.46999998093E+01 0. -1.
</event>
<event>
 5   0  0.2199902E-07  0.3595014E+04  0.7818609E-02  0.8091635E-01
       -2   -1    0    0    0  501  0.00000000000E+00  0.00000000000E+00  0.10049692363E+04  0.10049692363E+04  0.25500000920E-02 0. -1.
        2   -1    0    0  501    0  0.00000000000E+00  0.00000000000E+00 -0.32150554002E+04  0.32150554002E+04  0.25500000920E-02 0.  1.
    10030    2    1    2    0    0  0.00000000000E+00  0.00000000000E+00 -0.22100861639E+04  0.42200246365E+04  0.35950141976E+04 0.  0.
        1    1    3    3  502    0  0.14782207991E+04  0.95720294063E+03 -0.15277246548E+04  0.23313765937E+04  0.50400001928E-02 0.  1.
       -1    1    3    3    0  502 -0.14782207991E+04 -0.95720294063E+03 -0.68236150904E+03  0.18886480428E+04  0.50400001928E-02 0. -1.
</event>
<event>
 5   0  0.7514289E-08  0.3588096E+04  0.7818609E-02  0.8093224E-01
        1   -1    0    0  501    0  0.00000000000E+00  0.00000000000E+00  0.20292026728E+04  0.20292026729E+04  0.50400001928E-02 0. -1.
       -1   -1    0    0    0  501  0.00000000000E+00  0.00000000000E+00 -0.15861441753E+04  0.15861441754E+04  0.50400001928E-02 0.  1.
    10030    2    1    2    0    0  0.00000000000E+00  0.00000000000E+00  0.44305849750E+03  0.36153468482E+04  0.35880958739E+04 0.  0.
        4    1    3    3  502    0  0.81940911250E+03 -0.11855198543E+04  0.12981563554E+04  0.19396134034E+04  0.12699999809E+01 0. -1.
       -4    1    3    3    0  502 -0.81940911250E+03  0.11855198543E+04 -0.85509785790E+03  0.16757334448E+04  0.12699999809E+01 0.  1.
</event>
<event>
 5   0  0.2198900E-07  0.3612621E+04  0.7818609E-02  0.8087607E-01
       -2   -1    0    0    0  501  0.00000000000E+00  0.00000000000E+00  0.21141439295E+04  0.21141439295E+04  0.25500000920E-02 0.  1.
        2   -1    0    0  501    0  0.00000000000E+00  0.00000000000E+00 -0.15432992521E+04  0.15432992521E+04  0.25500000920E-02 0. -1.
    10030    2    1    2    0    0  0.00000000000E+00  0.00000000000E+00  0.57084467741E+03  0.36574431816E+04  0.36126205143E+04 0.  0.
        2    1    3    3  502    0  0.67494929411E+03  0.13862708097E+04  0.12380827291E+04  0.19774104661E+04  0.25500000920E-02 0.  1.
       -2    1    3    3    0  502 -0.67494929411E+03 -0.13862708097E+04 -0.66723805172E+03  0.16800327154E+04  0.25500000920E-02 0. -1.
</event>
<event>
 5   0  0.7236375E-08  0.3558828E+04  0.7818609E-02  0.8099988E-01
        1   -1    0    0  501    0  0.00000000000E+00  0.00000000000E+00  0.22122644788E+04  0.22122644788E+04  0.50400001928E-02 0.  1.
       -1   -1    0    0    0  501  0.00000000000E+00  0.00000000000E+00 -0.14312550236E+04  0.14312550236E+04  0.50400001928E-02 0. -1.
    10030    2    1    2    0    0  0.00000000000E+00  0.00000000000E+00  0.78100945518E+03  0.36435195025E+04  0.35588282616E+04 0.  0.
        1    1    3    3  502    0  0.78512671822E+03  0.40218357104E+03 -0.11916314951E+04  0.14826197114E+04  0.50400001928E-02 0. -1.
       -1    1    3    3    0  502 -0.78512671822E+03 -0.40218357104E+03  0.19726409503E+04  0.21608997911E+04  0.50400001928E-02 0.  1.
</event>
<event>
 5   0  0.2309391E-07  0.3572571E+04  0.7818609E-02  0.8096804E-01
        2   -1    0    0  501    0  0.00000000000E+00  0.00000000000E+00  0.18919070652E+04  0.18919070652E+04  0.25500000920E-02 0. -1.
       -2   -1    0    0    0  501  0.00000000000E+00  0.00000000000E+00 -0.16865601195E+04  0.16865601195E+04  0.25500000920E-02 0.  1.
    10030    2    1    2    0    0  0.00000000000E+00  0.00000000000E+00  0.20534694565E+03  0.35784671847E+04  0.35725705065E+04 0.  0.
        4    1    3    3  502    0 -0.51272901638E+03  0.16454602920E+04 -0.36755081272E+03  0.17622502177E+04  0.12699999809E+01 0.  1.
       -4    1    3    3    0  502  0.51272901638E+03 -0.16454602920E+04  0.57289775837E+03  0.18162169670E+04  0.12699999809E+01 0. -1.
</event>
<event>
 5   0  0.7514289E-08  0.3613831E+04  0.7818609E-02  0.8087331E-01
       -1   -1    0    0    0  501  0.00000000000E+00  0.00000000000E+00  0.18467778376E+04  0.18467778376E+04  0.50400001928E-02 0.  1.
        1   -1    0    0  501    0  0.00000000000E+00  0.00000000000E+00 -0.17679137101E+04  0.17679137101E+04  0.50400001928E-02 0. -1.
    10030    2    1    2    0    0  0.00000000000E+00  0.00000000000E+00  0.78864127512E+02  0.36146915478E+04  0.36138311298E+04 0.  0.
        4    1    3    3  502    0 -0.19773949162E+02  0.10801640416E+04  0.14881542348E+04  0.18389535082E+04  0.12699999809E+01 0.  1.
       -4    1    3    3    0  502  0.19773949162E+02 -0.10801640416E+04 -0.14092901073E+04  0.17757380396E+04  0.12699999809E+01 0. -1.
</event>
<event>
 5   0  0.2342606E-07  0.3600217E+04  0.7818609E-02  0.8090442E-01
       -2   -1    0    0    0  501  0.00000000000E+00  0.00000000000E+00  0.24776057282E+04  0.24776057282E+04  0.25500000920E-02 0. -1.
        2   -1    0    0  501    0  0.00000000000E+00  0.00000000000E+00 -0.13078719934E+04  0.13078719934E+04  0.25500000920E-02 0.  1.
    10030    2    1    2    0    0  0.00000000000E+00  0.00000000000E+00  0.11697337349E+04  0.37854777216E+04  0.36002172949E+04 0.  0.
        5    1    3    3  502    0 -0.14387892140E+04 -0.39884045800E+03  0.16421867962E+04  0.22194566175E+04  0.46999998093E+01 0. -1.
       -5    1    3    3    0  502  0.14387892140E+04  0.39884045800E+03 -0.47245306134E+03  0.15660211041E+04  0.46999998093E+01 0.  1.
</event>
<event>
 5   0  0.7514289E-08  0.3616780E+04  0.7818609E-02  0.8086659E-01
        1   -1    0    0  501    0  0.00000000000E+00  0.00000000000E+00  0.23522832272E+04  0.23522832272E+04  0.50400001928E-02 0.  1.
       -1   -1    0    0    0  501  0.00000000000E+00  0.00000000000E+00 -0.13902550824E+04  0.13902550824E+04  0.50400001928E-02 0. -1.
    10030    2    1    2    0    0  0.00000000000E+00  0.00000000000E+00  0.96202814485E+03  0.37425383096E+04  0.36167796238E+04 0.  0.
        4    1    3    3  502    0  0.15410261049E+04  0.65416418204E+02 -0.49586190763E+03  0.16201609205E+04  0.12699999809E+01 0.  1.
       -4    1    3    3    0  502 -0.15410261049E+04 -0.65416418204E+02  0.14578900525E+04  0.21223773891E+04  0.12699999809E+01 0. -1.
</event>
<event>
 5   0  0.7236375E-08  0.3598280E+04  0.7818609E-02  0.8090886E-01
       -1   -1    0    0    0  501  0.00000000000E+00  0.00000000000E+00  0.15056077249E+04  0.15056077249E+04  0.50400001928E-02 0.  1.
        1   -1    0    0  501    0  0.00000000000E+00  0.00000000000E+00 -0.21498991512E+04  0.21498991512E+04  0.50400001928E-02 0. -1.
    10030    2    1    2    0    0  0.00000000000E+00  0.00000000000E+00 -0.64429142631E+03  0.36555068762E+04  0.35982800168E+04 0.  0.
        5    1    3    3  502    0  0.17006980310E+03  0.75589959053E+03 -0.19717230928E+04  0.21184952145E+04  0.46999998093E+01 0. -1.
       -5    1    3    3    0  502 -0.17006980310E+03 -0.75589959053E+03  0.13274316665E+04  0.15370116617E+04  0.46999998093E+01 0.  1.
</event>
<event>
 5   0  0.2199902E-07  0.3652485E+04  0.7818609E-02  0.8078574E-01
       -2   -1    0    0    0  501  0.00000000000E+00  0.00000000000E+00  0.11170737675E+04  0.11170737675E+04  0.25500000920E-02 0. -1.
        2   -1    0    0  501    0  0.00000000000E+00  0.00000000000E+00 -0.29856237830E+04  0.29856237830E+04  0.25500000920E-02 0.  1.
    10030    2    1    2    0    0  0.00000000000E+00  0.00000000000E+00 -0.18685500155E+04  0.41026975504E+04  0.36524851854E+04 0.  0.
        1    1    3    3  502    0 -0.15131066371E+04 -0.12914930225E+03  0.20515270641E+03  0.15324029727E+04  0.50400001928E-02 0. -1.
       -1    1    3    3    0  502  0.15131066371E+04  0.12914930225E+03 -0.20737027219E+04  0.25702945778E+04  0.50400001928E-02 0.  1.
</event>
<event>
 5   0  0.7236375E-08  0.3600353E+04  0.7818609E-02  0.8090411E-01
        1   -1    0    0  501    0  0.00000000000E+00  0.00000000000E+00  0.19908350687E+04  0.19908350687E+04  0.50400001928E-02 0. -1.
       -1   -1    0    0    0  501  0.00000000000E+00  0.00000000000E+00 -0.16277769644E+04  0.16277769644E+04  0.50400001928E-02 0.  1.
    10030    2    1    2    0    0  0.00000000000E+00  0.00000000000E+00  0.36305810427E+03  0.36186120331E+04  0.36003530187E+04 0.  0.
        5    1    3    3  502    0 -0.11731328633E+04  0.28350988134E+03  0.15239654848E+04  0.19439936874E+04  0.46999998093E+01 0. -1.
       -5    1    3    3    0  502  0.11731328633E+04 -0.28350988134E+03 -0.11609073805E+04  0.16746183457E+04  0.46999998093E+01 0.  1.
</event>
<event>
 5   0  0.2199902E-07  0.3555516E+04  0.7818609E-02  0.8100758E-01
       -2   -1    0    0    0  501  0.00000000000E+00  0.00000000000E+00  0.17737118300E+04  0.17737118300E+04  0.25500000920E-02 0. -1.
        2   -1    0    0  501    0  0.00000000000E+00  0.00000000000E+00 -0.17818135894E+04  0.17818135894E+04  0.25500000920E-02 0.  1.
    10030    2    1    2    0    0  0.00000000000E+00  0.00000000000E+00 -0.81017593295E+01  0.35555254194E+04  0.35555161889E+04 0.  0.
        1    1    3    3  502    0  0.15723902067E+04  0.30269466564E+03 -0.77631502883E+03  0.17795224210E+04  0.50400001928E-02 0.  1.
       -1    1    3    3    0  502 -0.15723902067E+04 -0.30269466564E+03  0.76821326950E+03  0.17760029984E+04  0.50400001928E-02 0. -1.
</event>
<event>
 5   0  0.7261233E-08  0.3587272E+04  0.7818609E-02  0.8093413E-01
       -1   -1    0    0    0  501  0.00000000000E+00  0.00000000000E+00  0.11778658572E+04  0.11778658573E+04  0.50400001928E-02 0.  1.
        1   -1    0    0  501    0  0.00000000000E+00  0.00000000000E+00 -0.27313214345E+04  0.27313214345E+04  0.50400001928E-02 0. -1.
    10030    2    1    2    0    0  0.00000000000E+00  0.00000000000E+00 -0.15534555773E+04  0.39091872918E+04  0.35872720906E+04 0.  0.
        3    1    3    3  502    0  0.34503305281E+03  0.13077091496E+03 -0.26895151729E+04  0.27147082192E+04  0.10100000352E+00 0. -1.
       -3    1    3    3    0  502 -0.34503305281E+03 -0.13077091496E+03  0.11360595957E+04  0.11944790726E+04  0.10100000352E+00 0.  1.
</event>
<event>
 5   0  0.7236375E-08  0.3583604E+04  0.7818609E-02  0.8094258E-01
        1   -1    0    0  501    0  0.00000000000E+00  0.00000000000E+00  0.16013581366E+04  0.16013581366E+04  0.50400001928E-02 0. -1.
       -1   -1    0    0    0  501  0.00000000000E+00  0.00000000000E+00 -0.20048942314E+04  0.20048942315E+04  0.50400001928E-02 0.  1.
    10030    2    1    2    0    0  0.00000000000E+00  0.00000000000E+00 -0.40353609486E+03  0.36062523681E+04  0.35836036000E+04 0.  0.
        5    1    3    3  502    0 -0.45673272010E+02  0.13611592241E+04  0.96993221463E+03  0.16720140765E+04  0.46999998093E+01 0. -1.
       -5    1    3    3    0  502  0.45673272010E+02 -0.13611592241E+04 -0.13734683095E+04  0.19342382915E+04  0.46999998093E+01 0.  1.
</event>
<event>
 5   0  0.2309391E-07  0.3598610E+04  0.7818609E-02  0.8090810E-01
       -2   -1    0    0    0  501  0.00000000000E+00  0.00000000000E+00  0.17447806162E+04  0.17447806162E+04  0.25500000920E-02 0.  1.
        2   -1    0    0  501    0  0.00000000000E+00  0.00000000000E+00 -0.18555333624E+04  0.18555333624E+04  0.25500000920E-02 0. -1.
    10030    2    1    2    0    0  0.00000000000E+00  0.00000000000E+00 -0.11075274623E+03  0.36003139786E+04  0.35986100892E+04 0.  0.
        4    1    3    3  502    0 -0.13403855974E+04 -0.97047715607E+03 -0.76213676836E+03  0.18218983305E+04  0.12699999809E+01 0. -1.
       -4    1    3    3    0  502  0.13403855974E+04  0.97047715607E+03  0.65138402214E+03  0.17784156481E+04  0.12699999809E+01 0.  1.
</event>
<event>
 5   0  0.2198900E-07  0.3600274E+04  0.7818609E-02  0.8090429E-01
       -2   -1    0    0    0  501  0.00000000000E+00  0.00000000000E+00  0.17943476688E+04  0.17943476688E+04  0.25500000920E-02 0.  1.
        2   -1    0    0  501    0  0.00000000000E+00  0.00000000000E+00 -0.18059446420E+04  0.18059446420E+04  0.25500000920E-02 0. -1.
    10030    2    1    2    0    0  0.00000000000E+00  0.00000000000E+00 -0.11596973206E+02  0.36002923107E+04  0.36002736330E+04 0.  0.
        2    1    3    3  502    0  0.28475816084E+03 -0.90116237939E+03 -0.15379003334E+04  0.18050812391E+04  0.25500000920E-02 0. -1.
       -2    1    3    3    0  502 -0.28475816084E+03  0.90116237939E+03  0.15263033602E+04  0.17952110716E+04  0.25500000920E-02 0.  1.
</event>
<event>
 5   0  0.7514289E-08  0.3593969E+04  0.7818609E-02  0.8091874E-01
       -1   -1    0    0    0  501  0.00000000000E+00  0.00000000000E+00  0.12057068431E+04  0.12057068431E+04  0.50400001928E-02 0. -1.
        1   -1    0    0  501    0  0.00000000000E+00  0.00000000000E+00 -0.26782247464E+04  0.26782247464E+04  0.50400001928E-02 0.  1.
    10030    2    1    2    0    0  0.00000000000E+00  0.00000000000E+00 -0.14725179033E+04  0.38839315895E+04  0.35939693400E+04 0.  0.
        4    1    3    3  502    0 -0.85221484359E+03  0.14370006847E+04 -0.21120347857E+02  0.16708347583E+04  0.12699999809E+01 0. -1.
       -4    1    3    3    0  502  0.85221484359E+03 -0.14370006847E+04 -0.14513975555E+04  0.22130968313E+04  0.12699999809E+01 0.  1.
</event>
<event>
 5   0  0.2342606E-07  0.3597359E+04  0.7818609E-02  0.8091097E-01
        2   -1    0    0  501    0  0.00000000000E+00  0.00000000000E+00  0.17706560274E+04  0.17706560274E+04  0.25500000920E-02 0.  1.
       -2   -1    0    0    0  501  0.00000000000E+00  0.00000000000E+00 -0.18271460283E+04  0.18271460283E+04  0.25500000920E-02 0. -1.
    10030    2    1    2    0    0  0.00000000000E+00  0.00000000000E+00 -0.56490000929E+02  0.35978020557E+04  0.35973585465E+04 0.  0.
        5    1    3    3  502    0  0.45382380347E+03 -0.16917279023E+04 -0.43735007127E+03  0.18053244902E+04  0.46999998093E+01 0. -1.
       -5    1    3    3    0  502 -0.45382380347E+03  0.16917279023E+04  0.38086007034E+03  0.17924775656E+04  0.46999998093E+01 0.  1.
</event>
<event>
 5   0  0.7236375E-08  0.3419600E+04  0.7818609E-02  0.8133113E-01
       -1   -1    0    0    0  501  0.00000000000E+00  0.00000000000E+00  0.16323699255E+04  0.16323699255E+04  0.50400001928E-02 0. -1.
        1   -1    0    0  501    0  0.00000000000E+00  0.00000000000E+00 -0.17909023805E+04  0.17909023805E+04  0.50400001928E-02 0.  1.
    10030    2    1    2    0    0  0.00000000000E+00  0.00000000000E+00 -0.15853245505E+03  0.34232723060E+04  0.34195995002E+04 0.  0.
        1    1    3    3  502    0 -0.61544660153E+02  0.67002681866E+03 -0.16527978044E+04  0.17845067288E+04  0.50400001928E-02 0.  1.
       -1    1    3    3    0  502  0.61544660153E+02 -0.67002681866E+03  0.14942653493E+04  0.16387655772E+04  0.50400001928E-02 0. -1.
</event>
<event>
 5   0  0.2309391E-07  0.3598999E+04  0.7818609E-02  0.8090721E-01
        2   -1    0    0  501    0  0.00000000000E+00  0.00000000000E+00  0.19282485385E+04  0.19282485385E+04  0.25500000920E-02 0. -1.
       -2   -1    0    0    0  501  0.00000000000E+00  0.00000000000E+00 -0.16793472165E+04  0.16793472165E+04  0.25500000920E-02 0.  1.
    10030    2    1    2    0    0  0.00000000000E+00  0.00000000000E+00  0.24890132203E+03  0.36075957551E+04  0.35989992031E+04 0.  0.
        4    1    3    3  502    0 -0.29686281632E+02 -0.16086531733E+04  0.93232294662E+03  0.18595359628E+04  0.12699999809E+01 0. -1.
       -4    1    3    3    0  502  0.29686281632E+02  0.16086531733E+04 -0.68342162459E+03  0.17480597922E+04  0.12699999809E+01 0.  1.
</event>
<event>
 5   0  0.7347303E-08  0.3582519E+04  0.7818609E-02  0.8094508E-01
       -1   -1    0    0    0  501  0.00000000000E+00  0.00000000000E+00  0.23587558387E+04  0.23587558387E+04  0.50400001928E-02 0. -1.
        1   -1    0    0  501    0  0.00000000000E+00  0.00000000000E+00 -0.13602977045E+04  0.13602977046E+04  0.50400001928E-02 0.  1.
    10030    2    1    2    0    0  0.00000000000E+00  0.00000000000E+00  0.99845813414E+03  0.37190535432E+04  0.35825187525E+04 0.  0.
        2    1    3    3  502    0  0.36189019653E+03 -0.12783103174E+04 -0.74804713916E+03  0.15246692443E+04  0.25500000920E-02 0.  1.
       -2    1    3    3    0  502 -0.36189019653E+03  0.12783103174E+04  0.17465052733E+04  0.21943842990E+04  0.25500000920E-02 0. -1.
</event>
<event>
 5   0  0.7347303E-08  0.3557417E+04  0.7818609E-02  0.8100316E-01
       -1   -1    0    0    0  501  0.00000000000E+00  0.00000000000E+00  0.13720320474E+04  0.13720320474E+04  0.50400001928E-02 0.  1.
        1   -1    0    0  501    0  0.00000000000E+00  0.00000000000E+00 -0.23059251421E+04  0.23059251421E+04  0.50400001928E-02 0. -1.
    10030    2    1    2    0    0  0.00000000000E+00  0.00000000000E+00 -0.93389309466E+03  0.36779571895E+04  0.35574165873E+04 0.  0.
        2    1    3    3  502    0 -0.14335912236E+04 -0.44472214372E+02  0.62066909206E+03  0.15628153109E+04  0.25500000920E-02 0.  1.
       -2    1    3    3    0  502  0.14335912236E+04  0.44472214372E+02 -0.15545621867E+04  0.21151418786E+04  0.25500000920E-02 0. -1.
</event>
<event>
 5   0  0.2198900E-07  0.3656627E+04  0.7818609E-02  0.8077642E-01
        2   -1    0    0  501    0  0.00000000000E+00  0.00000000000E+00  0.25393543088E+04  0.25393543088E+04  0.25500000920E-02 0. -1.
       -2   -1    0    0    0  501  0.00000000000E+00  0.00000000000E+00 -0.13163702542E+04  0.13163702542E+04  0.25500000920E-02 0.  1.
    10030    2    1    2    0    0  0.00000000000E+00  0.00000000000E+00  0.12229840546E+04  0.38557245630E+04  0.36566271218E+04 0.  0.
        2    1    3    3  502    0  0.63685615975E+03 -0.56395427958E+03 -0.10949887063E+04  0.13865895084E+04  0.25500000920E-02 0.  1.
       -2    1    3    3    0  502 -0.63685615975E+03  0.56395427958E+03  0.23179727609E+04  0.24691350547E+04  0.25500000920E-02 0. -1.
</event>
<event>
 5   0  0.7236375E-08  0.3602600E+04  0.7818609E-02  0.8089896E-01
        1   -1    0    0  501    0  0.00000000000E+00  0.00000000000E+00  0.21458146297E+04  0.21458146297E+04  0.50400001928E-02 0.  1.
       -1   -1    0    0    0  501  0.00000000000E+00  0.00000000000E+00 -0.15120979525E+04  0.15120979525E+04  0.50400001928E-02 0. -1.
    10030    2    1    2    0    0  0.00000000000E+00  0.00000000000E+00  0.63371667718E+03  0.36579125822E+04  0.36026001210E+04 0.  0.
        5    1    3    3  502    0  0.12709333984E+04 -0.35465514166E+03  0.15619019227E+04  0.20446544155E+04  0.46999998093E+01 0.  1.
       -5    1    3    3    0  502 -0.12709333984E+04  0.35465514166E+03 -0.92818524550E+03  0.16132581667E+04  0.46999998093E+01 0. -1.
</event>
<event>
 5   0  0.7236375E-08  0.3595306E+04  0.7818609E-02  0.8091568E-01
        1   -1    0    0  501    0  0.00000000000E+00  0.00000000000E+00  0.11435605485E+04  0.11435605485E+04  0.50400001928E-02 0. -1.
       -1   -1    0    0    0  501  0.00000000000E+00  0.00000000000E+00 -0.28258725432E+04  0.28258725432E+04  0.50400001928E-02 0.  1.
    10030    2    1    2    0    0  0.00000000000E+00  0.00000000000E+00 -0.16823119948E+04  0.39694330917E+04  0.35953060262E+04 0.  0.
        1    1    3    3  502    0  0.73361171195E+03  0.15876992623E+04 -0.12998144968E+04  0.21791036730E+04  0.50400001928E-02 0.  1.
       -1    1    3    3    0  502 -0.73361171195E+03 -0.15876992623E+04 -0.38249749793E+03  0.17903294187E+04  0.50400001928E-02 0. -1.
</event>
<event>
 5   0  0.7236375E-08  0.3720975E+04  0.7818609E-02  0.8063329E-01
        1   -1    0    0  501    0  0.00000000000E+00  0.00000000000E+00  0.14359922517E+04  0.14359922518E+04  0.50400001928E-02 0. -1.
       -1   -1    0    0    0  501  0.00000000000E+00  0.00000000000E+00 -0.24104688562E+04  0.24104688562E+04  0.50400001928E-02 0.  1.
    10030    2    1    2    0    0  0.00000000000E+00  0.00000000000E+00 -0.97447660443E+03  0.38464611079E+04  0.37209754638E+04 0.  0.
        5    1    3    3  502    0 -0.29599574329E+03  0.37883080001E+03  0.13706675368E+04  0.14525418553E+04  0.46999998093E+01 0. -1.
       -5    1    3    3    0  502  0.29599574329E+03 -0.37883080001E+03 -0.23451441412E+04  0.23939192526E+04  0.46999998093E+01 0.  1.
</event>
<event>
 5   0  0.2198900E-07  0.3636585E+04  0.7818609E-02  0.8082162E-01
        2   -1    0    0  501    0  0.00000000000E+00  0.00000000000E+00  0.25048768269E+04  0.25048768269E+04  0.25500000920E-02 0. -1.
       -2   -1    0    0    0  501  0.00000000000E+00  0.00000000000E+00 -0.13199002776E+04  0.13199002776E+04  0.25500000920E-02 0.  1.
    10030    2    1    2    0    0  0.00000000000E+00  0.00000000000E+00  0.11849765492E+04  0.38247771045E+04  0.36365850021E+04 0.  0.
        2    1    3    3  502    0  0.88477646034E+03  0.10032067346E+04 -0.70288758536E+03  0.15110605861E+04  0.25500000920E-02 0.  1.
       -2    1    3    3    0  502 -0.88477646034E+03 -0.10032067346E+04  0.18878641346E+04  0.23137165185E+04  0.25500000920E-02 0. -1.
</event>
<event>
 5   0  0.2198900E-07  0.3595017E+04  0.7818609E-02  0.8091634E-01
        2   -1    0    0  501    0  0.00000000000E+00  0.00000000000E+00  0.21581872346E+04  0.21581872346E+04  0.25500000920E-02 0. -1.
       -2   -1    0    0    0  501  0.00000000000E+00  0.00000000000E+00 -0.14971067998E+04  0.14971067998E+04  0.25500000920E-02 0.  1.
    10030    2    1    2    0    0  0.00000000000E+00  0.00000000000E+00  0.66108043483E+03  0.36552940344E+04  0.35950169870E+04 0.  0.
        2    1    3    3  502    0  0.74539482921E+03 -0.13524312920E+04 -0.60485925930E+03  0.16584747736E+04  0.25500000920E-02 0.  1.
       -2    1    3    3    0  502 -0.74539482921E+03  0.13524312920E+04  0.12659396941E+04  0.19968192608E+04  0.25500000920E-02 0. -1.
</event>
<event>
 5   0  0.7236375E-08  0.3620293E+04  0.7818609E-02  0.8085859E-01
       -1   -1    0    0    0  501  0.00000000000E+00  0.00000000000E+00  0.13226481732E+04  0.13226481732E+04  0.50400001928E-02 0. -1.
        1   -1    0    0  501    0  0.00000000000E+00  0.00000000000E+00 -0.24773252556E+04  0.24773252556E+04  0.50400001928E-02 0.  1.
    10030    2    1    2    0    0  0.00000000000E+00  0.00000000000E+00 -0.11546770824E+04  0.37999734288E+04  0.36202926532E+04 0.  0.
        1    1    3    3  502    0 -0.46926573225E+03  0.17387592568E+04 -0.76840505615E+03  0.19580450483E+04  0.50400001928E-02 0.  1.
       -1    1    3    3    0  502  0.46926573225E+03 -0.17387592568E+04 -0.38627202626E+03  0.18419283805E+04  0.50400001928E-02 0. -1.
</event>
<event>
 5   0  0.2238968E-07  0.3590246E+04  0.7818609E-02  0.8092730E-01
        2   -1    0    0  501    0  0.00000000000E+00  0.00000000000E+00  0.10234630388E+04  0.10234630388E+04  0.25500000920E-02 0. -1.
       -2   -1    0    0    0  501  0.00000000000E+00  0.00000000000E+00 -0.31485918377E+04  0.31485918377E+04  0.25500000920E-02 0.  1.
    10030    2    1    2    0    0  0.00000000000E+00  0.00000000000E+00 -0.21251287990E+04  0.41720548765E+04  0.35902464373E+04 0.  0.
        3    1    3    3  502    0  0.89950382684E+03  0.51499076338E+02  0.74169120590E+03  0.11669897791E+04  0.10100000352E+00 0. -1.
       -3    1    3    3    0  502 -0.89950382684E+03 -0.51499076338E+02 -0.28668200049E+04  0.30050650974E+04  0.10100000352E+00 0.  1.
</event>
<event>
 5   0  0.2238968E-07  0.3492777E+04  0.7818609E-02  0.8115504E-01
        2   -1    0    0  501    0  0.00000000000E+00  0.00000000000E+00  0.18010633094E+04  0.18010633094E+04  0.25500000920E-02 0. -1.
       -2   -1    0    0    0  501  0.00000000000E+00  0.00000000000E+00 -0.16933734189E+04  0.16933734189E+04  0.25500000920E-02 0.  1.
    10030    2    1    2    0    0  0.00000000000E+00  0.00000000000E+00  0.10768989055E+03  0.34944367283E+04  0.34927769662E+04 0.  0.
        3    1    3    3  502    0  0.81400474106E+03  0.14881905068E+04  0.46944337913E+03  0.17600260792E+04  0.10100000352E+00 0. -1.
       -3    1    3    3    0  502 -0.81400474106E+03 -0.14881905068E+04 -0.36175348858E+03  0.17344106491E+04  0.10100000352E+00 0.  1.
</event>
<event>
 5   0  0.2309391E-07  0.3618857E+04  0.7818609E-02  0.8086186E-01
        2   -1    0    0  501    0  0.00000000000E+00  0.00000000000E+00  0.26403701869E+04  0.26403701869E+04  0.25500000920E-02 0. -1.
       -2   -1    0    0    0  501  0.00000000000E+00  0.00000000000E+00 -0.12399898000E+04  0.12399898000E+04  0.25500000920E-02 0.  1.
    10030    2    1    2    0    0  0.00000000000E+00  0.00000000000E+00  0.14003803869E+04  0.38803599869E+04  0.36188573335E+04 0.  0.
        4    1    3    3  502    0  0.79908746735E+03 -0.10051877536E+04 -0.66671659952E+03  0.14468779622E+04  0.12699999809E+01 0.  1.
       -4    1    3    3    0  502 -0.79908746735E+03  0.10051877536E+04  0.20670969864E+04  0.24334820247E+04  0.12699999809E+01 0. -1.
</event>
<event>
 5   0  0.7514289E-08  0.3599945E+04  0.7818609E-02  0.8090504E-01
       -1   -1    0    0    0  501  0.00000000000E+00  0.00000000000E+00  0.18664902431E+04  0.18664902431E+04  0.50400001928E-02 0. -1.
        1   -1    0    0  501    0  0.00000000000E+00  0.00000000000E+00 -0.17358255082E+04  0.17358255082E+04  0.50400001928E-02 0.  1.
    10030    2    1    2    0    0  0.00000000000E+00  0.00000000000E+00  0.13066473491E+03  0.36023157514E+04  0.35999452079E+04 0.  0.
        4    1    3    3  502    0 -0.42285458267E+03  0.17306551449E+04 -0.19159833594E+03  0.17918383755E+04  0.12699999809E+01 0.  1.
       -4    1    3    3    0  502  0.42285458267E+03 -0.17306551449E+04  0.32226307085E+03  0.18104773759E+04  0.12699999809E+01 0. -1.
</event>
<event>
 5   0  0.7514289E-08  0.3607317E+04  0.7818609E-02  0.8088818E-01
       -1   -1    0    0    0  501  0.00000000000E+00  0.00000000000E+00  0.13805964397E+04  0.13805964397E+04  0.50400001928E-02 0.  1.
        1   -1    0    0  501    0  0.00000000000E+00  0.00000000000E+00 -0.23563613852E+04  0.23563613852E+04  0.50400001928E-02 0. -1.
    10030    2    1    2    0    0  0.00000000000E+00  0.00000000000E+00 -0.97576494552E+03  0.37369578250E+04  0.36073170857E+04 0.  0.
        4    1    3    3  502    0  0.11953775477E+04  0.13292587621E+04 -0.23984893356E+03  0.18037143515E+04  0.12699999809E+01 0. -1.
       -4    1    3    3    0  502 -0.11953775477E+04 -0.13292587621E+04 -0.73591601196E+03  0.19332434734E+04  0.12699999809E+01 0.  1.
</event>
<event>
 5   0  0.2238968E-07  0.3598460E+04  0.7818609E-02  0.8090845E-01
        2   -1    0    0  501    0  0.00000000000E+00  0.00000000000E+00  0.13903859692E+04  0.13903859692E+04  0.25500000920E-02 0.  1.
       -2   -1    0    0    0  501  0.00000000000E+00  0.00000000000E+00 -0.23282949205E+04  0.23282949205E+04  0.25500000920E-02 0. -1.
    10030    2    1    2    0    0  0.00000000000E+00  0.00000000000E+00 -0.93790895129E+03  0.37186808897E+04  0.35984599982E+04 0.  0.
        3    1    3    3  502    0  0.14579022422E+04  0.98133542477E+03 -0.70414280804E+02  0.17588224313E+04  0.10100000352E+00 0.  1.
       -3    1    3    3    0  502 -0.14579022422E+04 -0.98133542477E+03 -0.86749467049E+03  0.19598584584E+04  0.10100000352E+00 0. -1.
</event>
<event>
 5   0  0.7514289E-08  0.3600597E+04  0.7818609E-02  0.8090355E-01
       -1   -1    0    0    0  501  0.00000000000E+00  0.00000000000E+00  0.15778740041E+04  0.15778740041E+04  0.50400001928E-02 0. -1.
        1   -1    0    0  501    0  0.00000000000E+00  0.00000000000E+00 -0.20540773272E+04  0.20540773272E+04  0.50400001928E-02 0.  1.
    10030    2    1    2    0    0  0.00000000000E+00  0.00000000000E+00 -0.47620332318E+03  0.36319513313E+04  0.36005972932E+04 0.  0.
        4    1    3    3  502    0  0.11102914732E+04 -0.84800866490E+03 -0.13834218707E+04  0.19661443326E+04  0.12699999809E+01 0.  1.
       -4    1    3    3    0  502 -0.11102914732E+04  0.84800866490E+03  0.90721854753E+03  0.16658069988E+04  0.12699999809E+01 0. -1.
</event>
<event>
 5   0  0.2238968E-07  0.3600492E+04  0.7818609E-02  0.8090379E-01
       -2   -1    0    0    0  501  0.00000000000E+00  0.00000000000E+00  0.14717593219E+04  0.14717593219E+04  0.25500000920E-02 0.  1.
        2   -1    0    0  501    0  0.00000000000E+00  0.00000000000E+00 -0.22020487527E+04  0.22020487527E+04  0.25500000920E-02 0. -1.
    10030    2    1    2    0    0  0.00000000000E+00  0.00000000000E+00 -0.73028943073E+03  0.36738080746E+04  0.36004920659E+04 0.  0.
        3    1    3    3  502    0 -0.67319495272E+03  0.83393818933E+03  0.11107674211E+04  0.15435182610E+04  0.10100000352E+00 0.  1.
       -3    1    3    3    0  502  0.67319495272E+03 -0.83393818933E+03 -0.18410568519E+04  0.21302898136E+04  0.10100000352E+00 0. -1.
</event>
<event>
 5   0  0.2238968E-07  0.3583710E+04  0.7818609E-02  0.8094233E-01
        2   -1    0    0  501    0  0.00000000000E+00  0.00000000000E+00  0.20538660631E+04  0.20538660631E+04  0.25500000920E-02 0.  1.
       -2   -1    0    0    0  501  0.00000000000E+00  0.00000000000E+00 -0.15632687255E+04  0.15632687255E+04  0.25500000920E-02 0. -1.
    10030    2    1    2    0    0  0.00000000000E+00  0.00000000000E+00  0.49059733761E+03  0.36171347886E+04  0.35837101349E+04 0.  0.
        3    1    3    3  502    0  0.16704267697E+04 -0.64243623867E+03  0.15676132313E+03  0.17965589432E+04  0.10100000352E+00 0. -1.
       -3    1    3    3    0  502 -0.16704267697E+04  0.64243623867E+03  0.33383601448E+03  0.18205758453E+04  0.10100000352E+00 0.  1.
</event>
<event>
 5   0  0.7514289E-08  0.3593694E+04  0.7818609E-02  0.8091938E-01
        1   -1    0    0  501    0  0.00000000000E+00  0.00000000000E+00  0.29340787297E+04  0.29340787297E+04  0.50400001928E-02 0.  1.
       -1   -1    0    0    0  501  0.00000000000E+00  0.00000000000E+00 -0.11003997683E+04  0.11003997683E+04  0.50400001928E-02 0. -1.
    10030    2    1    2    0    0  0.00000000000E+00  0.00000000000E+00  0.18336789614E+04  0.40344784980E+04  0.35936942298E+04 0.  0.
        4    1    3    3  502    0  0.73675704807E+03  0.15908781465E+04  0.13587631687E+04  0.22180944945E+04  0.12699999809E+01 0. -1.
       -4    1    3    3    0  502 -0.73675704807E+03 -0.15908781465E+04  0.47491579267E+03  0.18163840035E+04  0.12699999809E+01 0.  1.
</event>
<event>
 5   0  0.7261233E-08  0.3594013E+04  0.7818609E-02  0.8091865E-01
        1   -1    0    0  501    0  0.00000000000E+00  0.00000000000E+00  0.26164362164E+04  0.26164362164E+04  0.50400001928E-02 0.  1.
       -1   -1    0    0    0  501  0.00000000000E+00  0.00000000000E+00 -0.12342099726E+04  0.12342099726E+04  0.50400001928E-02 0. -1.
    10030    2    1    2    0    0  0.00000000000E+00  0.00000000000E+00  0.13822262438E+04  0.38506461890E+04  0.35940126160E+04 0.  0.
        3    1    3    3  502    0 -0.35725631011E+03 -0.17383295655E+04  0.99379222113E+03  0.20339726494E+04  0.10100000352E+00 0.  1.
       -3    1    3    3    0  502  0.35725631011E+03  0.17383295655E+04  0.38843402266E+03  0.18166735396E+04  0.10100000352E+00 0. -1.
</event>
<event>
 5   0  0.7514289E-08  0.3634677E+04  0.7818609E-02  0.8082594E-01
       -1   -1    0    0    0  501  0.00000000000E+00  0.00000000000E+00  0.20160360828E+04  0.20160360828E+04  0.50400001928E-02 0.  1.
        1   -1    0    0  501    0  0.00000000000E+00  0.00000000000E+00 -0.16382243342E+04  0.16382243342E+04  0.50400001928E-02 0. -1.
    10030    2    1    2    0    0  0.00000000000E+00  0.00000000000E+00  0.37781174859E+03  0.36542604170E+04  0.36346770803E+04 0.  0.
        4    1    3    3  502    0  0.13024367791E+03 -0.13542801472E+04  0.14002542234E+04  0.19523707731E+04  0.12699999809E+01 0.  1.
       -4    1    3    3    0  502 -0.13024367791E+03  0.13542801472E+04 -0.10224424748E+04  0.17018896439E+04  0.12699999809E+01 0. -1.
</event>
<event>
 5   0  0.2342606E-07  0.3642927E+04  0.7818609E-02  0.8080729E-01
        2   -1    0    0  501    0  0.00000000000E+00  0.00000000000E+00  0.10859640648E+04  0.10859640648E+04  0.25500000920E-02 0. -1.
       -2   -1    0    0    0  501  0.00000000000E+00  0.00000000000E+00 -0.30551003890E+04  0.30551003890E+04  0.25500000920E-02 0.  1.
    10030    2    1    2    0    0  0.00000000000E+00  0.00000000000E+00 -0.19691363242E+04  0.41410644538E+04  0.36429269753E+04 0.  0.
        5    1    3    3  502    0  0.48514416143E+03 -0.14735511470E+04 -0.20695392469E+04  0.25864517441E+04  0.46999998093E+01 0. -1.
       -5    1    3    3    0  502 -0.48514416143E+03  0.14735511470E+04  0.10040292270E+03  0.15546127097E+04  0.46999998093E+01 0.  1.
</event>
<event>
 5   0  0.7514289E-08  0.3595421E+04  0.7818609E-02  0.8091541E-01
       -1   -1    0    0    0  501  0.00000000000E+00  0.00000000000E+00  0.12657676403E+04  0.12657676403E+04  0.50400001928E-02 0. -1.
        1   -1    0    0  501    0  0.00000000000E+00  0.00000000000E+00 -0.25532043735E+04  0.25532043735E+04  0.50400001928E-02 0.  1.
    10030    2    1    2    0    0  0.00000000000E+00  0.00000000000E+00 -0.12874367332E+04  0.38189720138E+04  0.35954212410E+04 0.  0.
        4    1    3    3  502    0  0.93300701545E+03  0.23183886205E+03 -0.22572167707E+04  0.24534222041E+04  0.12699999809E+01 0.  1.
       -4    1    3    3    0  502 -0.93300701545E+03 -0.23183886205E+03  0.96978003743E+03  0.13655498097E+04  0.12699999809E+01 0. -1.
</event>
<event>
 5   0  0.7347303E-08  0.3590902E+04  0.7818609E-02  0.8092579E-01
       -1   -1    0    0    0  501  0.00000000000E+00  0.00000000000E+00  0.14836206505E+04  0.14836206505E+04  0.50400001928E-02 0.  1.
        1   -1    0    0  501    0  0.00000000000E+00  0.00000000000E+00 -0.21728228851E+04  0.21728228851E+04  0.50400001928E-02 0. -1.
    10030    2    1    2    0    0  0.00000000000E+00  0.00000000000E+00 -0.68920223461E+03  0.36564435357E+04  0.35909023391E+04 0.  0.
        2    1    3    3  502    0  0.67726902737E+02 -0.35947510347E+03  0.14452749663E+04  0.14908484201E+04  0.25500000920E-02 0.  1.
       -2    1    3    3    0  502 -0.67726902737E+02  0.35947510347E+03 -0.21344772009E+04  0.21655951156E+04  0.25500000920E-02 0. -1.
</event>
<event>
 5   0  0.7236375E-08  0.3603367E+04  0.7818609E-02  0.8089721E-01
       -1   -1    0    0    0  501  0.00000000000E+00  0.00000000000E+00  0.14395303599E+04  0.14395303599E+04  0.50400001928E-02 0.  1.
        1   -1    0    0  501    0  0.00000000000E+00  0.00000000000E+00 -0.22549464227E+04  0.22549464227E+04  0.50400001928E-02 0. -1.
    10030    2    1    2    0    0  0.00000000000E+00  0.00000000000E+00 -0.81541606284E+03  0.36944767826E+04  0.36033672227E+04 0.  0.
        5    1    3    3  502    0  0.72163791950E+03 -0.16390222998E+04 -0.60989029756E+03  0.18918624821E+04  0.46999998093E+01 0.  1.
       -5    1    3    3    0  502 -0.72163791950E+03  0.16390222998E+04 -0.20552576528E+03  0.18026143005E+04  0.46999998093E+01 0. -1.
</event>
<event>
 5   0  0.2198900E-07  0.3592605E+04  0.7818609E-02  0.8092188E-01
       -2   -1    0    0    0  501  0.00000000000E+00  0.00000000000E+00  0.14525778914E+04  0.14525778914E+04  0.25500000920E-02 0.  1.
        2   -1    0    0  501    0  0.00000000000E+00  0.00000000000E+00 -0.22213633081E+04  0.22213633081E+04  0.25500000920E-02 0. -1.
    10030    2    1    2    0    0  0.00000000000E+00  0.00000000000E+00 -0.76878541672E+03  0.36739411996E+04  0.35926053110E+04 0.  0.
        2    1    3    3  502    0 -0.44668836577E+02  0.64337366397E+03 -0.20988867735E+04  0.21957346525E+04  0.25500000920E-02 0. -1.
       -2    1    3    3    0  502  0.44668836577E+02 -0.64337366397E+03  0.13301013568E+04  0.14782065470E+04  0.25500000920E-02 0.  1.
</event>
<event>
 5   0  0.2309391E-07  0.3584864E+04  0.7818609E-02  0.8093968E-01
        2   -1    0    0  501    0  0.00000000000E+00  0.00000000000E+00  0.29202638749E+04  0.29202638749E+04  0.25500000920E-02 0. -1.
       -2   -1    0    0    0  501  0.00000000000E+00  0.00000000000E+00 -0.11001785670E+04  0.11001785670E+04  0.25500000920E-02 0.  1.
    10030    2    1    2    0    0  0.00000000000E+00  0.00000000000E+00  0.18200853079E+04  0.40204424419E+04  0.35848635819E+04 0.  0.
        4    1    3    3  502    0  0.26179170414E+03  0.98118506052E+03 -0.74642862310E+03  0.12603238955E+04  0.12699999809E+01 0.  1.
       -4    1    3    3    0  502 -0.26179170414E+03 -0.98118506052E+03  0.25665139310E+04  0.27601185464E+04  0.12699999809E+01 0. -1.
</event>
<event>
 5   0  0.2238968E-07  0.3608278E+04  0.7818609E-02  0.8088598E-01
        2   -1    0    0  501    0  0.00000000000E+00  0.00000000000E+00  0.16039414198E+04  0.16039414198E+04  0.25500000920E-02 0. -1.
       -2   -1    0    0    0  501  0.00000000000E+00  0.00000000000E+00 -0.20293238867E+04  0.20293238867E+04  0.25500000920E-02 0.  1.
    10030    2    1    2    0    0  0.00000000000E+00  0.00000000000E+00 -0.42538246690E+03  0.36332653064E+04  0.36082775037E+04 0.  0.
        3    1    3    3  502    0  0.54954945975E+03  0.37335283347E+03  0.14762796383E+04  0.16188880529E+04  0.10100000352E+00 0. -1.
       -3    1    3    3    0  502 -0.54954945975E+03 -0.37335283347E+03 -0.19016621052E+04  0.20143772536E+04  0.10100000352E+00 0.  1.
</event>
<event>
 5   0  0.7236375E-08  0.3618662E+04  0.7818609E-02  0.8086230E-01
       -1   -1    0    0    0  501  0.00000000000E+00  0.00000000000E+00  0.29951535192E+04  0.29951535192E+04  0.50400001928E-02 0. -1.
        1   -1    0    0  501    0  0.00000000000E+00  0.00000000000E+00 -0.10929918572E+04  0.10929918572E+04  0.50400001928E-02 0.  1.
    10030    2    1    2    0    0  0.00000000000E+00  0.00000000000E+00  0.19021616621E+04  0.40881453764E+04  0.36186618563E+04 0.  0.
        1    1    3    3  502    0 -0.16444523005E+04  0.75111467865E+03  0.10331856074E+04  0.20822749887E+04  0.50400001928E-02 0.  1.
       -1    1    3    3    0  502  0.16444523005E+04 -0.75111467865E+03  0.86897605462E+03  0.20058703878E+04  0.50400001928E-02 0. -1.
</event>
<event>
 5   0  0.7261233E-08  0.3607186E+04  0.7818609E-02  0.8088848E-01
       -1   -1    0    0    0  501  0.00000000000E+00  0.00000000000E+00  0.18593551852E+04  0.18593551852E+04  0.50400001928E-02 0.  1.
        1   -1    0    0  501    0  0.00000000000E+00  0.00000000000E+00 -0.17495028908E+04  0.17495028908E+04  0.50400001928E-02 0. -1.
    10030    2    1    2    0    0  0.00000000000E+00  0.00000000000E+00  0.10985229447E+03  0.36088580760E+04  0.36071857571E+04 0.  0.
        3    1    3    3  502    0  0.16274372975E+04  0.36274553605E+03 -0.63300501137E+03  0.17834886700E+04  0.10100000352E+00 0. -1.
       -3    1    3    3    0  502 -0.16274372975E+04 -0.36274553605E+03  0.74285730583E+03  0.18253694060E+04  0.10100000352E+00 0.  1.
</event>
<event>
 5   0  0.7236375E-08  0.3617904E+04  0.7818609E-02  0.8086403E-01
        1   -1    0    0  501    0  0.00000000000E+00  0.00000000000E+00  0.27262206537E+04  0.27262206537E+04  0.50400001928E-02 0.  1.
       -1   -1    0    0    0  501  0.00000000000E+00  0.00000000000E+00 -0.12003092239E+04  0.12003092239E+04  0.50400001928E-02 0. -1.
    10030    2    1    2    0    0  0.00000000000E+00  0.00000000000E+00  0.15259114298E+04  0.39265298776E+04  0.36179042536E+04 0.  0.
        5    1    3    3  502    0  0.88048338144E+03  0.11051699679E+04  0.19887423763E+04  0.24396249654E+04  0.46999998093E+01 0.  1.
       -5    1    3    3    0  502 -0.88048338144E+03 -0.11051699679E+04 -0.46283094645E+03  0.14869049122E+04  0.46999998093E+01 0. -1.
</event>
<event>
 5   0  0.7236375E-08  0.3571144E+04  0.7818609E-02  0.8097134E-01
        1   -1    0    0  501    0  0.00000000000E+00  0.00000000000E+00  0.21696427315E+04  0.21696427315E+04  0.50400001928E-02 0.  1.
       -1   -1    0    0    0  501  0.00000000000E+00  0.00000000000E+00 -0.14694895569E+04  0.14694895569E+04  0.50400001928E-02 0. -1.
    10030    2    1    2    0    0  0.00000000000E+00  0.00000000000E+00  0.70015317462E+03  0.36391322884E+04  0.35711439826E+04 0.  0.
        5    1    3    3  502    0  0.86165068065E+03  0.12408476671E+04 -0.61993885454E+03  0.16329394054E+04  0.46999998093E+01 0. -1.
       -5    1    3    3    0  502 -0.86165068065E+03 -0.12408476671E+04  0.13200920292E+04  0.20061928830E+04  0.46999998093E+01 0.  1.
</event>
<event>
 5   0  0.2198900E-07  0.3580988E+04  0.7818609E-02  0.8094860E-01
        2   -1    0    0  501    0  0.00000000000E+00  0.00000000000E+00  0.17385883976E+04  0.17385883976E+04  0.25500000920E-02 0.  1.
       -2   -1    0    0    0  501  0.00000000000E+00  0.00000000000E+00 -0.18439497048E+04  0.18439497048E+04  0.25500000920E-02 0. -1.
    10030    2    1    2    0    0  0.00000000000E+00  0.00000000000E+00 -0.10536130718E+03  0.35825381024E+04  0.35809884460E+04 0.  0.
        2    1    3    3  502    0 -0.55645711550E+03  0.76220267729E+03  0.14695796397E+04  0.17464998597E+04  0.25500000920E-02 0.  1.
       -2    1    3    3    0  502  0.55645711550E+03 -0.76220267729E+03 -0.15749409468E+04  0.18360382427E+04  0.25500000920E-02 0. -1.
</event>
<event>
 5   0  0.2198900E-07  0.3605528E+04  0.7818609E-02  0.8089227E-01
        2   -1    0    0  501    0  0.00000000000E+00  0.00000000000E+00  0.32608361929E+04  0.32608361929E+04  0.25500000920E-02 0. -1.
       -2   -1    0    0    0  501  0.00000000000E+00  0.00000000000E+00 -0.99666424386E+03  0.99666424386E+03  0.25500000920E-02 0.  1.
    10030    2    1    2    0    0  0.00000000000E+00  0.00000000000E+00  0.22641719490E+04  0.42575004367E+04  0.36055284431E+04 0.  0.
        2    1    3    3  502    0 -0.56576118338E+03 -0.17052335144E+04  0.95673522232E+03  0.20354973203E+04  0.25500000920E-02 0. -1.
       -2    1    3    3    0  502  0.56576118338E+03  0.17052335144E+04  0.13074367267E+04  0.22220031164E+04  0.25500000920E-02 0.  1.
</event>
<event>
 5   0  0.7261233E-08  0.3480157E+04  0.7818609E-02  0.8118509E-01
       -1   -1    0    0    0  501  0.00000000000E+00  0.00000000000E+00  0.10160251407E+04  0.10160251407E+04  0.50400001928E-02 0.  1.
        1   -1    0    0  501    0  0.00000000000E+00  0.00000000000E+00 -0.29801162051E+04  0.29801162052E+04  0.50400001928E-02 0. -1.
    10030    2    1    2    0    0  0.00000000000E+00  0.00000000000E+00 -0.19640910644E+04  0.39961413459E+04  0.34801568854E+04 0.  0.
        3    1    3    3  502    0  0.98050187932E+03 -0.11178674067E+04  0.55760601233E+02  0.14879921805E+04  0.10100000352E+00 0.  1.
       -3    1    3    3    0  502 -0.98050187932E+03  0.11178674067E+04 -0.20198516657E+04  0.25081491654E+04  0.10100000352E+00 0. -1.
</event>
<event>
 5   0  0.7236375E-08  0.3595625E+04  0.7818609E-02  0.8091495E-01
       -1   -1    0    0    0  501  0.00000000000E+00  0.00000000000E+00  0.16152501792E+04  0.16152501792E+04  0.50400001928E-02 0.  1.
        1   -1    0    0  501    0  0.00000000000E+00  0.00000000000E+00 -0.20010083870E+04  0.20010083871E+04  0.50400001928E-02 0. -1.
    10030    2    1    2    0    0  0.00000000000E+00  0.00000000000E+00 -0.38575820787E+03  0.36162585662E+04  0.35956246499E+04 0.  0.
        1    1    3    3  502    0  0.28978099078E+03 -0.78558296258E+03 -0.17929253393E+04  0.19788114832E+04  0.50400001928E-02 0. -1.
       -1    1    3    3    0  502 -0.28978099078E+03  0.78558296258E+03  0.14071671315E+04  0.16374470830E+04  0.50400001928E-02 0.  1.
</event>
<event>
 5   0  0.2199902E-07  0.3581540E+04  0.7818609E-02  0.8094733E-01
        2   -1    0    0  501    0  0.00000000000E+00  0.00000000000E+00  0.16551579380E+04  0.16551579380E+04  0.25500000920E-02 0. -1.
       -2   -1    0    0    0  501  0.00000000000E+00  0.00000000000E+00 -0.19374931549E+04  0.19374931549E+04  0.25500000920E-02 0.  1.
    10030    2    1    2    0    0  0.00000000000E+00  0.00000000000E+00 -0.28233521697E+03  0.35926510929E+04  0.35815399901E+04 0.  0.
        1    1    3    3  502    0 -0.15091629979E+04 -0.83301903955E+03  0.34548022547E+03  0.17580814147E+04  0.50400001928E-02 0. -1.
       -1    1    3    3    0  502  0.15091629979E+04  0.83301903955E+03 -0.62781544244E+03  0.18345696782E+04  0.50400001928E-02 0.  1.
</event>
<event>
 5   0  0.2342606E-07  0.3586480E+04  0.7818609E-02  0.8093596E-01
       -2   -1    0    0    0  501  0.00000000000E+00  0.00000000000E+00  0.15379017235E+04  0.15379017235E+04  0.25500000920E-02 0. -1.
        2   -1    0    0  501    0  0.00000000000E+00  0.00000000000E+00 -0.20909717322E+04  0.20909717322E+04  0.25500000920E-02 0.  1.
    10030    2    1    2    0    0  0.00000000000E+00  0.00000000000E+00 -0.55307000868E+03  0.36288734557E+04  0.35864796282E+04 0.  0.
        5    1    3    3  502    0  0.37601691036E+03  0.39033217166E+03  0.14530385241E+04  0.15508355695E+04  0.46999998093E+01 0. -1.
       -5    1    3    3    0  502 -0.37601691036E+03 -0.39033217166E+03 -0.20061085328E+04  0.20780378862E+04  0.46999998093E+01 0.  1.
</event>
<event>
 5   0  0.7347303E-08  0.3609211E+04  0.7818609E-02  0.8088385E-01
        1   -1    0    0  501    0  0.00000000000E+00  0.00000000000E+00  0.25615463002E+04  0.25615463002E+04  0.50400001928E-02 0.  1.
       -1   -1    0    0    0  501  0.00000000000E+00  0.00000000000E+00 -0.12713416676E+04  0.12713416676E+04  0.50400001928E-02 0. -1.
    10030    2    1    2    0    0  0.00000000000E+00  0.00000000000E+00  0.12902046326E+04  0.38328879678E+04  0.36092107419E+04 0.  0.
        2    1    3    3  502    0  0.37097847881E+03 -0.47302167034E+03  0.24520896992E+04  0.25247016507E+04  0.25500000920E-02 0.  1.
       -2    1    3    3    0  502 -0.37097847881E+03  0.47302167034E+03 -0.11618850666E+04  0.13081863171E+04  0.25500000920E-02 0. -1.
</event>
<event>
 5   0  0.7347303E-08  0.3592780E+04  0.7818609E-02  0.8092147E-01
       -1   -1    0    0    0  501  0.00000000000E+00  0.00000000000E+00  0.12597404477E+04  0.12597404477E+04  0.50400001928E-02 0. -1.
        1   -1    0    0  501    0  0.00000000000E+00  0.00000000000E+00 -0.25616529677E+04  0.25616529677E+04  0.50400001928E-02 0.  1.
    10030    2    1    2    0    0  0.00000000000E+00  0.00000000000E+00 -0.13019125200E+04  0.38213934155E+04  0.35927804589E+04 0.  0.
        2    1    3    3  502    0 -0.76638506349E+03  0.94965510828E+03  0.75119329022E+03  0.14329976446E+04  0.25500000920E-02 0. -1.
       -2    1    3    3    0  502  0.76638506349E+03 -0.94965510828E+03 -0.20531058102E+04  0.23883957708E+04  0.25500000920E-02 0.  1.
</event>
<event>
 5   0  0.7261233E-08  0.3608678E+04  0.7818609E-02  0.8088507E-01
        1   -1    0    0  501    0  0.00000000000E+00  0.00000000000E+00  0.23112332970E+04  0.23112332970E+04  0.50400001928E-02 0. -1.
       -1   -1    0    0    0  501  0.00000000000E+00  0.00000000000E+00 -0.14086158382E+04  0.14086158382E+04  0.50400001928E-02 0.  1.
    10030    2    1    2    0    0  0.00000000000E+00  0.00000000000E+00  0.90261745876E+03  0.37198491353E+04  0.36086783332E+04 0.  0.
        3    1    3    3  502    0  0.89008918795E+03 -0.14963376709E+04 -0.36943992345E+02  0.17414505610E+04  0.10100000352E+00 0.  1.
       -3    1    3    3    0  502 -0.89008918795E+03  0.14963376709E+04  0.93956145110E+03  0.19783985742E+04  0.10100000352E+00 0. -1.
</event>
<event>
 5   0  0.2238968E-07  0.3492996E+04  0.7818609E-02  0.8115452E-01
       -2   -1    0    0    0  501  0.00000000000E+00  0.00000000000E+00  0.19502208912E+04  0.19502208912E+04  0.25500000920E-02 0.  1.
        2   -1    0    0  501    0  0.00000000000E+00  0.00000000000E+00 -0.15640559793E+04  0.15640559793E+04  0.25500000920E-02 0. -1.
    10030    2    1    2    0    0  0.00000000000E+00  0.00000000000E+00  0.38616491190E+03  0.35142768704E+04  0.34929956460E+04 0.  0.
        3    1    3    3  502    0  0.78477575536E+03 -0.80416152266E+03  0.15382796910E+04  0.19049548967E+04  0.10100000352E+00 0.  1.
       -3    1    3    3    0  502 -0.78477575536E+03  0.80416152266E+03 -0.11521147791E+04  0.16093219737E+04  0.10100000352E+00 0. -1.
</event>
<event>
 5   0  0.7236375E-08  0.3769545E+04  0.7818609E-02  0.8052722E-01
        1   -1    0    0  501    0  0.00000000000E+00  0.00000000000E+00  0.23618665534E+04  0.23618665534E+04  0.50400001928E-02 0. -1.
       -1   -1    0    0    0  501  0.00000000000E+00  0.00000000000E+00 -0.15040512239E+04  0.15040512239E+04  0.50400001928E-02 0.  1.
    10030    2    1    2    0    0  0.00000000000E+00  0.00000000000E+00  0.85781532948E+03  0.38659177773E+04  0.37695454794E+04 0.  0.
        5    1    3    3  502    0  0.42706908687E+02 -0.58395921205E+03 -0.14084058064E+04  0.15252741547E+04  0.46999998093E+01 0.  1.
       -5    1    3    3    0  502 -0.42706908687E+02  0.58395921205E+03  0.22662211359E+04  0.23406436226E+04  0.46999998093E+01 0. -1.
</event>
<event>
 5   0  0.7347303E-08  0.3595529E+04  0.7818609E-02  0.8091516E-01
       -1   -1    0    0    0  501  0.00000000000E+00  0.00000000000E+00  0.16636203002E+04  0.16636203002E+04  0.50400001928E-02 0.  1.
        1   -1    0    0  501    0  0.00000000000E+00  0.00000000000E+00 -0.19427257487E+04  0.19427257487E+04  0.50400001928E-02 0. -1.
    10030    2    1    2    0    0  0.00000000000E+00  0.00000000000E+00 -0.27910544850E+03  0.36063460489E+04  0.35955294427E+04 0.  0.
        2    1    3    3  502    0 -0.11321405164E+04 -0.13888530979E+04  0.68415479420E+01  0.17918431525E+04  0.25500000920E-02 0.  1.
       -2    1    3    3    0  502  0.11321405164E+04  0.13888530979E+04 -0.28594699644E+03  0.18145028964E+04  0.25500000920E-02 0. -1.
</event>
<event>
 5   0  0.2199902E-07  0.3607004E+04  0.7818609E-02  0.8088889E-01
        2   -1    0    0  501    0  0.00000000000E+00  0.00000000000E+00  0.26471544736E+04  0.26471544736E+04  0.25500000920E-02 0. -1.
       -2   -1    0    0    0  501  0.00000000000E+00  0.00000000000E+00 -0.12287232095E+04  0.12287232095E+04  0.25500000920E-02 0.  1.
    10030    2    1    2    0    0  0.00000000000E+00  0.00000000000E+00  0.14184312641E+04  0.38758776831E+04  0.36070043753E+04 0.  0.
        1    1    3    3  502    0 -0.10980884286E+04 -0.23083675248E+02 -0.82790123419E+03  0.13754095778E+04  0.50400001928E-02 0.  1.
       -1    1    3    3    0  502  0.10980884286E+04  0.23083675248E+02  0.22463324983E+04  0.25004681054E+04  0.50400001928E-02 0. -1.
</event>
<event>
 5   0  0.2342606E-07  0.3551182E+04  0.7818609E-02  0.8101766E-01
       -2   -1    0    0    0  501  0.00000000000E+00  0.00000000000E+00  0.14931980894E+04  0.14931980894E+04  0.25500000920E-02 0.  1.
        2   -1    0    0  501    0  0.00000000000E+00  0.00000000000E+00 -0.21113899406E+04  0.21113899406E+04  0.25500000920E-02 0. -1.
    10030    2    1    2    0    0  0.00000000000E+00  0.00000000000E+00 -0.61819185121E+03  0.36045880300E+04  0.35511820146E+04 0.  0.
        5    1    3    3  502    0 -0.10965447695E+03  0.14626970240E+04 -0.13247409917E+04  0.19764785538E+04  0.46999998093E+01 0. -1.
       -5    1    3    3    0  502  0.10965447695E+03 -0.14626970240E+04  0.70654914054E+03  0.16281094762E+04  0.46999998093E+01 0.  1.
</event>
<event>
 5   0  0.2342606E-07  0.3596124E+04  0.7818609E-02  0.8091380E-01
        2   -1    0    0  501    0  0.00000000000E+00  0.00000000000E+00  0.18537429293E+04  0.18537429293E+04  0.25500000920E-02 0. -1.
       -2   -1    0    0    0  501  0.00000000000E+00  0.00000000000E+00 -0.17440537919E+04  0.17440537919E+04  0.25500000920E-02 0.  1.
    10030    2    1    2    0    0  0.00000000000E+00  0.00000000000E+00  0.10968913743E+03  0.35977967212E+04  0.35961242387E+04 0.  0.
        5    1    3    3  502    0  0.12877864402E+04  0.78865665789E+03 -0.92163807835E+03  0.17691274904E+04  0.46999998093E+01 0.  1.
       -5    1    3    3    0  502 -0.12877864402E+04 -0.78865665789E+03  0.10313272158E+04  0.18286692308E+04  0.46999998093E+01 0. -1.
</event>
<event>
 5   0  0.2342606E-07  0.3602874E+04  0.7818609E-02  0.8089834E-01
        2   -1    0    0  501    0  0.00000000000E+00  0.00000000000E+00  0.21956930811E+04  0.21956930811E+04  0.25500000920E-02 0. -1.
       -2   -1    0    0    0  501  0.00000000000E+00  0.00000000000E+00 -0.14779728902E+04  0.14779728902E+04  0.25500000920E-02 0.  1.
    10030    2    1    2    0    0  0.00000000000E+00  0.00000000000E+00  0.71772019087E+03  0.36736659714E+04  0.36028737692E+04 0.  0.
        5    1    3    3  502    0  0.85880491652E+03 -0.14174367680E+04 -0.36104365704E+03  0.16961861597E+04  0.46999998093E+01 0.  1.
       -5    1    3    3    0  502 -0.85880491652E+03  0.14174367680E+04  0.10787638479E+04  0.19774798117E+04  0.46999998093E+01 0. -1.
</event>
<event>
 5   0  0.2198900E-07  0.3591935E+04  0.7818609E-02  0.8092342E-01
       -2   -1    0    0    0  501  0.00000000000E+00  0.00000000000E+00  0.12336823315E+04  0.12336823316E+04  0.25500000920E-02 0.  1.
        2   -1    0    0  501    0  0.00000000000E+00  0.00000000000E+00 -0.26145300732E+04  0.26145300732E+04  0.25500000920E-02 0. -1.
    10030    2    1    2    0    0  0.00000000000E+00  0.00000000000E+00 -0.13808477417E+04  0.38482124048E+04  0.35919351646E+04 0.  0.
        2    1    3    3  502    0  0.30227067297E+03  0.15334543013E+04 -0.16382186544E+04  0.22642018491E+04  0.25500000920E-02 0. -1.
       -2    1    3    3    0  502 -0.30227067297E+03 -0.15334543013E+04  0.25737091270E+03  0.15840105557E+04  0.25500000920E-02 0.  1.
</event>
<event>
 5   0  0.2309391E-07  0.3592106E+04  0.7818609E-02  0.8092302E-01
        2   -1    0    0  501    0  0.00000000000E+00  0.00000000000E+00  0.16724429482E+04  0.16724429482E+04  0.25500000920E-02 0. -1.
       -2   -1    0    0    0  501  0.00000000000E+00  0.00000000000E+00 -0.19287985869E+04  0.19287985869E+04  0.25500000920E-02 0.  1.
    10030    2    1    2    0    0  0.00000000000E+00  0.00000000000E+00 -0.25635563875E+03  0.36012415351E+04  0.35921055637E+04 0.  0.
        4    1    3    3  502    0 -0.14232376780E+04 -0.11526526878E+03  0.96404814178E+03  0.17228702804E+04  0.12699999809E+01 0. -1.
       -4    1    3    3    0  502  0.14232376780E+04  0.11526526878E+03 -0.12204037805E+04  0.18783712548E+04  0.12699999809E+01 0.  1.
</event>
<event>
 5   0  0.2238968E-07  0.3621689E+04  0.7818609E-02  0.8085542E-01
        2   -1    0    0  501    0  0.00000000000E+00  0.00000000000E+00  0.22369905386E+04  0.22369905386E+04  0.25500000920E-02 0.  1.
       -2   -1    0    0    0  501  0.00000000000E+00  0.00000000000E+00 -0.14658789543E+04  0.14658789543E+04  0.25500000920E-02 0. -1.
    10030    2    1    2    0    0  0.00000000000E+00  0.00000000000E+00  0.77111158425E+03  0.37028694929E+04  0.36216887506E+04 0.  0.
        3    1    3    3  502    0 -0.14609804438E+04  0.10683037195E+04  0.44535306981E+03  0.18638873521E+04  0.10100000352E+00 0. -1.
       -3    1    3    3    0  502  0.14609804438E+04 -0.10683037195E+04  0.32575851444E+03  0.18389821408E+04  0.10100000352E+00 0.  1.
</event>
<event>
 5   0  0.2342606E-07  0.3585972E+04  0.7818609E-02  0.8093713E-01
        2   -1    0    0  501    0  0.00000000000E+00  0.00000000000E+00  0.32036466170E+04  0.32036466170E+04  0.25500000920E-02 0. -1.
       -2   -1    0    0    0  501  0.00000000000E+00  0.00000000000E+00 -0.10034810936E+04  0.10034810936E+04  0.25500000920E-02 0.  1.
    10030    2    1    2    0    0  0.00000000000E+00  0.00000000000E+00  0.22001655234E+04  0.42071277105E+04  0.35859720080E+04 0.  0.
        5    1    3    3  502    0 -0.15865423043E+04 -0.83225075441E+03  0.11831986211E+04  0.21470302440E+04  0.46999998093E+01 0. -1.
       -5    1    3    3    0  502  0.15865423043E+04  0.83225075441E+03  0.10169669023E+04  0.20600974666E+04  0.46999998093E+01 0.  1.
</event>
<event>
 5   0  0.2309391E-07  0.3594770E+04  0.7818609E-02  0.8091691E-01
        2   -1    0    0  501    0  0.00000000000E+00  0.00000000000E+00  0.22286776038E+04  0.22286776038E+04  0.25500000920E-02 0.  1.
       -2   -1    0    0    0  501  0.00000000000E+00  0.00000000000E+00 -0.14495559374E+04  0.14495559374E+04  0.25500000920E-02 0. -1.
    10030    2    1    2    0    0  0.00000000000E+00  0.00000000000E+00  0.77912166641E+03  0.36782335412E+04  0.35947700083E+04 0.  0.
        4    1    3    3  502    0  0.37986075641E+03 -0.92500847859E+03  0.19177760728E+04  0.21628225905E+04  0.12699999809E+01 0.  1.
       -4    1    3    3    0  502 -0.37986075641E+03  0.92500847859E+03 -0.11386544063E+04  0.15154109508E+04  0.12699999809E+01 0. -1.
</event>
<event>
 5   0  0.2199902E-07  0.3602228E+04  0.7818609E-02  0.8089981E-01
        2   -1    0    0  501    0  0.00000000000E+00  0.00000000000E+00  0.17144049479E+04  0.17144049479E+04  0.25500000920E-02 0.  1.
       -2   -1    0    0    0  501  0.00000000000E+00  0.00000000000E+00 -0.18922090244E+04  0.18922090244E+04  0.25500000920E-02 0. -1.
    10030    2    1    2    0    0  0.00000000000E+00  0.00000000000E+00 -0.17780407653E+03  0.36066139722E+04  0.36022284846E+04 0.  0.
        1    1    3    3  502    0  0.15540447462E+04  0.83569787540E+03  0.27287774051E+03  0.17854714429E+04  0.50400001928E-02 0. -1.
       -1    1    3    3    0  502 -0.15540447462E+04 -0.83569787540E+03 -0.45068181704E+03  0.18211425294E+04  0.50400001928E-02 0.  1.
</event>
<event>
 5   0  0.7347303E-08  0.3604774E+04  0.7818609E-02  0.8089399E-01
        1   -1    0    0  501    0  0.00000000000E+00  0.00000000000E+00  0.22932863669E+04  0.22932863669E+04  0.50400001928E-02 0.  1.
       -1   -1    0    0    0  501  0.00000000000E+00  0.00000000000E+00 -0.14165693990E+04  0.14165693991E+04  0.50400001928E-02 0. -1.
    10030    2    1    2    0    0  0.00000000000E+00  0.00000000000E+00  0.87671696786E+03  0.37098557660E+04  0.36047742180E+04 0.  0.
        2    1    3    3  502    0  0.17058486447E+04  0.24388293549E+03 -0.10543912104E+03  0.17264170682E+04  0.25500000920E-02 0.  1.
       -2    1    3    3    0  502 -0.17058486447E+04 -0.24388293549E+03  0.98215608890E+03  0.19834386978E+04  0.25500000920E-02 0. -1.
</event>
<event>
 5   0  0.2238968E-07  0.3594675E+04  0.7818609E-02  0.8091713E-01
       -2   -1    0    0    0  501  0.00000000000E+00  0.00000000000E+00  0.14273616024E+04  0.14273616024E+04  0.25500000920E-02 0.  1.
        2   -1    0    0  501    0  0.00000000000E+00  0.00000000000E+00 -0.22632118143E+04  0.22632118143E+04  0.25500000920E-02 0. -1.
    10030    2    1    2    0    0  0.00000000000E+00  0.00000000000E+00 -0.83585021191E+03  0.36905734168E+04  0.35946747513E+04 0.  0.
        3    1    3    3  502    0  0.58990932259E+03  0.13259796365E+04 -0.15064975047E+04  0.20918292825E+04  0.10100000352E+00 0. -1.
       -3    1    3    3    0  502 -0.58990932259E+03 -0.13259796365E+04  0.67064729281E+03  0.15987441343E+04  0.10100000352E+00 0.  1.
</event>
<event>
 5   0  0.7514289E-08  0.3614090E+04  0.7818609E-02  0.8087272E-01
       -1   -1    0    0    0  501  0.00000000000E+00  0.00000000000E+00  0.14569155235E+04  0.14569155235E+04  0.50400001928E-02 0. -1.
        1   -1    0    0  501    0  0.00000000000E+00  0.00000000000E+00 -0.22413184425E+04  0.22413184425E+04  0.50400001928E-02 0.  1.
    10030    2    1    2    0    0  0.00000000000E+00  0.00000000000E+00 -0.78440291897E+03  0.36982339660E+04  0.36140900000E+04 0.  0.
        4    1    3    3  502    0 -0.11194794128E+02 -0.15572351141E+04 -0.13302244969E+04  0.20480735702E+04  0.12699999809E+01 0.  1.
       -4    1    3    3    0  502  0.11194794128E+02  0.15572351141E+04  0.54582157797E+03  0.16501603958E+04  0.12699999809E+01 0. -1.
</event>
<event>
 5   0  0.7236375E-08  0.3599384E+04  0.7818609E-02  0.8090633E-01
        1   -1    0    0  501    0  0.00000000000E+00  0.00000000000E+00  0.20849675923E+04  0.20849675923E+04  0.50400001928E-02 0. -1.
       -1   -1    0    0    0  501  0.00000000000E+00  0.00000000000E+00 -0.15534493308E+04  0.15534493308E+04  0.50400001928E-02 0.  1.
    10030    2    1    2    0    0  0.00000000000E+00  0.00000000000E+00  0.53151826145E+03  0.36384169231E+04  0.35993841201E+04 0.  0.
        1    1    3    3  502    0 -0.88532008278E+03  0.71044211493E+03  0.16774609625E+04  0.20254369722E+04  0.50400001928E-02 0. -1.
       -1    1    3    3    0  502  0.88532008278E+03 -0.71044211493E+03 -0.11459427011E+04  0.16129799509E+04  0.50400001928E-02 0.  1.
</event>
<event>
 5   0  0.7236375E-08  0.3595922E+04  0.7818609E-02  0.8091426E-01
        1   -1    0    0  501    0  0.00000000000E+00  0.00000000000E+00  0.17831968891E+04  0.17831968891E+04  0.50400001928E-02 0. -1.
       -1   -1    0    0    0  501  0.00000000000E+00  0.00000000000E+00 -0.18128474981E+04  0.18128474982E+04  0.50400001928E-02 0.  1.
    10030    2    1    2    0    0  0.00000000000E+00  0.00000000000E+00 -0.29650609060E+02  0.35960443872E+04  0.35959221455E+04 0.  0.
        5    1    3    3  502    0 -0.86006275381E+03  0.12242715661E+04 -0.10119013847E+04  0.18062434250E+04  0.46999998093E+01 0.  1.
       -5    1    3    3    0  502  0.86006275381E+03 -0.12242715661E+04  0.98225077564E+03  0.17898009622E+04  0.46999998093E+01 0. -1.
</event>
<event>
 5   0  0.2309391E-07  0.3593235E+04  0.7818609E-02  0.8092043E-01
       -2   -1    0    0    0  501  0.00000000000E+00  0.00000000000E+00  0.17163493326E+04  0.17163493326E+04  0.25500000920E-02 0. -1.
        2   -1    0    0  501    0  0.00000000000E+00  0.00000000000E+00 -0.18806395364E+04  0.18806395365E+04  0.25500000920E-02 0.  1.
    10030    2    1    2    0    0  0.00000000000E+00  0.00000000000E+00 -0.16429020386E+03  0.35969888690E+04  0.35932349844E+04 0.  0.
        4    1    3    3  502    0 -0.10494124379E+04 -0.65152274579E+03  0.12238574519E+04  0.17388435894E+04  0.12699999809E+01 0. -1.
       -4    1    3    3    0  502  0.10494124379E+04  0.65152274579E+03 -0.13881476558E+04  0.18581452796E+04  0.12699999809E+01 0.  1.
</event>
<event>
 5   0  0.7347303E-08  0.3605672E+04  0.7818609E-02  0.8089194E-01
        1   -1    0    0  501    0  0.00000000000E+00  0.00000000000E+00  0.29977909374E+04  0.29977909374E+04  0.50400001928E-02 0.  1.
       -1   -1    0    0    0  501  0.00000000000E+00  0.00000000000E+00 -0.10842042996E+04  0.10842042996E+04  0.50400001928E-02 0. -1.
    10030    2    1    2    0    0  0.00000000000E+00  0.00000000000E+00  0.19135866377E+04  0.40819952370E+04  0.36056721003E+04 0.  0.
        2    1    3    3  502    0  0.93321611540E+03  0.15211719041E+04  0.66736073956E+03  0.19053153641E+04  0.25500000920E-02 0. -1.
       -2    1    3    3    0  502 -0.93321611540E+03 -0.15211719041E+04  0.12462258982E+04  0.21766798729E+04  0.25500000920E-02 0.  1.
</event>
<event>
 5   0  0.2198900E-07  0.3590905E+04  0.7818609E-02  0.8092578E-01
       -2   -1    0    0    0  501  0.00000000000E+00  0.00000000000E+00  0.25824102013E+04  0.25824102013E+04  0.25500000920E-02 0.  1.
        2   -1    0    0  501    0  0.00000000000E+00  0.00000000000E+00 -0.12483103860E+04  0.12483103860E+04  0.25500000920E-02 0. -1.
    10030    2    1    2    0    0  0.00000000000E+00  0.00000000000E+00  0.13340998152E+04  0.38307205873E+04  0.35909048861E+04 0.  0.
        2    1    3    3  502    0 -0.39134329844E+03 -0.15322184364E+04  0.15740088284E+04  0.22312209003E+04  0.25500000920E-02 0.  1.
       -2    1    3    3    0  502  0.39134329844E+03  0.15322184364E+04 -0.23990901319E+03  0.15994996870E+04  0.25500000920E-02 0. -1.
</event>
<event>
 5   0  0.2199902E-07  0.3604341E+04  0.7818609E-02  0.8089498E-01
        2   -1    0    0  501    0  0.00000000000E+00  0.00000000000E+00  0.20020343129E+04  0.20020343129E+04  0.25500000920E-02 0.  1.
       -2   -1    0    0    0  501  0.00000000000E+00  0.00000000000E+00 -0.16222591406E+04  0.16222591406E+04  0.25500000920E-02 0. -1.
    10030    2    1    2    0    0  0.00000000000E+00  0.00000000000E+00  0.37977517229E+03  0.36242934535E+04  0.36043409738E+04 0.  0.
        1    1    3    3  502    0 -0.10132099258E+04 -0.13550576430E+04 -0.43406565105E+03  0.17467651700E+04  0.50400001928E-02 0. -1.
       -1    1    3    3    0  502  0.10132099258E+04  0.13550576430E+04  0.81384082334E+03  0.18775282835E+04  0.50400001928E-02 0.  1.
</event>
<event>
 5   0  0.2342606E-07  0.3647725E+04  0.7818609E-02  0.8079646E-01
       -2   -1    0    0    0  501  0.00000000000E+00  0.00000000000E+00  0.23449778724E+04  0.23449778724E+04  0.25500000920E-02 0. -1.
        2   -1    0    0  501    0  0.00000000000E+00  0.00000000000E+00 -0.14185523985E+04  0.14185523985E+04  0.25500000920E-02 0.  1.
    10030    2    1    2    0    0  0.00000000000E+00  0.00000000000E+00  0.92642547383E+03  0.37635302709E+04  0.36477247623E+04 0.  0.
        5    1    3    3  502    0 -0.39558482379E+03  0.86583987317E+03  0.20683296969E+04  0.22768785351E+04  0.46999998093E+01 0. -1.
       -5    1    3    3    0  502  0.39558482379E+03 -0.86583987317E+03 -0.11419042230E+04  0.14866517357E+04  0.46999998093E+01 0.  1.
</event>
<event>
 5   0  0.7347303E-08  0.3608174E+04  0.7818609E-02  0.8088622E-01
        1   -1    0    0  501    0  0.00000000000E+00  0.00000000000E+00  0.17999928666E+04  0.17999928666E+04  0.50400001928E-02 0. -1.
       -1   -1    0    0    0  501  0.00000000000E+00  0.00000000000E+00 -0.18081904521E+04  0.18081904521E+04  0.50400001928E-02 0.  1.
    10030    2    1    2    0    0  0.00000000000E+00  0.00000000000E+00 -0.81975854707E+01  0.36081833187E+04  0.36081740064E+04 0.  0.
        2    1    3    3  502    0 -0.20774360979E+03  0.30983295651E+03 -0.17692027921E+04  0.18081018743E+04  0.25500000920E-02 0.  1.
       -2    1    3    3    0  502  0.20774360979E+03 -0.30983295651E+03  0.17610052066E+04  0.18000814443E+04  0.25500000920E-02 0. -1.
</event>
<event>
 5   0  0.7514289E-08  0.3605343E+04  0.7818609E-02  0.8089269E-01
        1   -1    0    0  501    0  0.00000000000E+00  0.00000000000E+00  0.15160386849E+04  0.15160386849E+04  0.50400001928E-02 0. -1.
       -1   -1    0    0    0  501  0.00000000000E+00  0.00000000000E+00 -0.21434975543E+04  0.21434975543E+04  0.50400001928E-02 0.  1.
    10030    2    1    2    0    0  0.00000000000E+00  0.00000000000E+00 -0.62745886944E+03  0.36595362392E+04  0.36053433752E+04 0.  0.
        4    1    3    3  502    0 -0.15314904015E+04 -0.69995872891E+03 -0.96700163795E+03  0.19417772408E+04  0.12699999809E+01 0. -1.
       -4    1    3    3    0  502  0.15314904015E+04  0.69995872891E+03  0.33954276851E+03  0.17177589984E+04  0.12699999809E+01 0.  1.
</event>
<event>
 5   0  0.2309391E-07  0.3607704E+04  0.7818609E-02  0.8088729E-01
        2   -1    0    0  501    0  0.00000000000E+00  0.00000000000E+00  0.15952485583E+04  0.15952485583E+04  0.25500000920E-02 0.  1.
       -2   -1    0    0    0  501  0.00000000000E+00  0.00000000000E+00 -0.20397340189E+04  0.20397340189E+04  0.25500000920E-02 0. -1.
    10030    2    1    2    0    0  0.00000000000E+00  0.00000000000E+00 -0.44448546059E+03  0.36349825771E+04  0.36077043963E+04 0.  0.
        4    1    3    3  502    0  0.54312375710E+03  0.88419875833E+03 -0.17088957159E+04  0.19992791302E+04  0.12699999809E+01 0. -1.
       -4    1    3    3    0  502 -0.54312375710E+03 -0.88419875833E+03  0.12644102553E+04  0.16357034469E+04  0.12699999809E+01 0.  1.
</event>
<event>
 5   0  0.2238968E-07  0.3562693E+04  0.7818609E-02  0.8099091E-01
       -2   -1    0    0    0  501  0.00000000000E+00  0.00000000000E+00  0.11801815530E+04  0.11801815530E+04  0.25500000920E-02 0.  1.
        2   -1    0    0  501    0  0.00000000000E+00  0.00000000000E+00 -0.26887345286E+04  0.26887345286E+04  0.25500000920E-02 0. -1.
    10030    2    1    2    0    0  0.00000000000E+00  0.00000000000E+00 -0.15085529756E+04  0.38689160815E+04  0.35626927409E+04 0.  0.
        3    1    3    3  502    0 -0.14581200806E+04  0.18221527081E+03  0.33918591844E+03  0.15080993574E+04  0.10100000352E+00 0.  1.
       -3    1    3    3    0  502  0.14581200806E+04 -0.18221527081E+03 -0.18477388940E+04  0.23608167241E+04  0.10100000352E+00 0. -1.
</event>
<event>
 5   0  0.7236375E-08  0.3605504E+04  0.7818609E-02  0.8089232E-01
        1   -1    0    0  501    0  0.00000000000E+00  0.00000000000E+00  0.13388751150E+04  0.13388751150E+04  0.50400001928E-02 0. -1.
       -1   -1    0    0    0  501  0.00000000000E+00  0.00000000000E+00 -0.24273469912E+04  0.24273469912E+04  0.50400001928E-02 0.  1.
    10030    2    1    2    0    0  0.00000000000E+00  0.00000000000E+00 -0.10884718762E+04  0.37662221062E+04  0.36055038383E+04 0.  0.
        1    1    3    3  502    0 -0.11325671638E+04  0.59449467761E+03 -0.18712099688E+04  0.22666184173E+04  0.50400001928E-02 0.  1.
       -1    1    3    3    0  502  0.11325671638E+04 -0.59449467761E+03  0.78273809264E+03  0.14996036889E+04  0.50400001928E-02 0. -1.
</event>
<event>
 5   0  0.7261233E-08  0.3651486E+04  0.7818609E-02  0.8078799E-01
        1   -1    0    0  501    0  0.00000000000E+00  0.00000000000E+00  0.23368638895E+04  0.23368638895E+04  0.50400001928E-02 0.  1.
       -1   -1    0    0    0  501  0.00000000000E+00  0.00000000000E+00 -0.14264146657E+04  0.14264146657E+04  0.50400001928E-02 0. -1.
    10030    2    1    2    0    0  0.00000000000E+00  0.00000000000E+00  0.91044922374E+03  0.37632785552E+04  0.36514856833E+04 0.  0.
        3    1    3    3  502    0 -0.69140928138E+03  0.16450901120E+04  0.57443466811E+02  0.17854041652E+04  0.10100000352E+00 0. -1.
       -3    1    3    3    0  502  0.69140928138E+03 -0.16450901120E+04  0.85300575693E+03  0.19778743900E+04  0.10100000352E+00 0.  1.
</event>
<event>
 5   0  0.7347303E-08  0.3592669E+04  0.7818609E-02  0.8092173E-01
        1   -1    0    0  501    0  0.00000000000E+00  0.00000000000E+00  0.21300188389E+04  0.21300188389E+04  0.50400001928E-02 0.  1.
       -1   -1    0    0    0  501  0.00000000000E+00  0.00000000000E+00 -0.15149246551E+04  0.15149246551E+04  0.50400001928E-02 0. -1.
    10030    2    1    2    0    0  0.00000000000E+00  0.00000000000E+00  0.61509418383E+03  0.36449434941E+04  0.35926692333E+04 0.  0.
        2    1    3    3  502    0 -0.43463745475E+03 -0.18749396689E+03 -0.14505119966E+04  0.15257944674E+04  0.25500000920E-02 0. -1.
       -2    1    3    3    0  502  0.43463745475E+03  0.18749396689E+03  0.20656061804E+04  0.21191490266E+04  0.25500000920E-02 0.  1.
</event>
<event>
 5   0  0.7347303E-08  0.3602568E+04  0.7818609E-02  0.8089904E-01
       -1   -1    0    0    0  501  0.00000000000E+00  0.00000000000E+00  0.16155357116E+04  0.16155357116E+04  0.50400001928E-02 0. -1.
        1   -1    0    0  501    0  0.00000000000E+00  0.00000000000E+00 -0.20083888066E+04  0.20083888067E+04  0.50400001928E-02 0.  1.
    10030    2    1    2    0    0  0.00000000000E+00  0.00000000000E+00 -0.39285309509E+03  0.36239245182E+04  0.36025678841E+04 0.  0.
        2    1    3    3  502    0 -0.10042082790E+04  0.33969887743E+03  0.12685013119E+04  0.16531561248E+04  0.25500000920E-02 0. -1.
       -2    1    3    3    0  502  0.10042082790E+04 -0.33969887743E+03 -0.16613544070E+04  0.19707683934E+04  0.25500000920E-02 0.  1.
</event>
<event>
 5   0  0.2342606E-07  0.3595971E+04  0.7818609E-02  0.8091415E-01
        2   -1    0    0  501    0  0.00000000000E+00  0.00000000000E+00  0.26640026809E+04  0.26640026809E+04  0.25500000920E-02 0.  1.
       -2   -1    0    0    0  501  0.00000000000E+00  0.00000000000E+00 -0.12134940459E+04  0.12134940459E+04  0.25500000920E-02 0. -1.
    10030    2    1    2    0    0  0.00000000000E+00  0.00000000000E+00  0.14505086350E+04  0.38774967268E+04  0.35959707404E+04 0.  0.
        5    1    3    3  502    0  0.49044482427E+02  0.96896105995E+03  0.23575144918E+04  0.25493504204E+04  0.46999998093E+01 0.  1.
       -5    1    3    3    0  502 -0.49044482427E+02 -0.96896105995E+03 -0.90700585675E+03  0.13281463064E+04  0.46999998093E+01 0. -1.
</event>
<event>
 5   0  0.7236375E-08  0.3600320E+04  0.7818609E-02  0.8090418E-01
        1   -1    0    0  501    0  0.00000000000E+00  0.00000000000E+00  0.21313581414E+04  0.21313581414E+04  0.50400001928E-02 0. -1.
       -1   -1    0    0    0  501  0.00000000000E+00  0.00000000000E+00 -0.15204275274E+04  0.15204275274E+04  0.50400001928E-02 0.  1.
    10030    2    1    2    0    0  0.00000000000E+00  0.00000000000E+00  0.61093061398E+03  0.36517856689E+04  0.36003197575E+04 0.  0.
        5    1    3    3  502    0 -0.12738385899E+04 -0.12371823086E+04  0.58297057859E+01  0.17757648756E+04  0.46999998093E+01 0.  1.
       -5    1    3    3    0  502  0.12738385899E+04  0.12371823086E+04  0.60510090820E+03  0.18760207933E+04  0.46999998093E+01 0. -1.
</event>
<event>
 5   0  0.7261233E-08  0.3591359E+04  0.7818609E-02  0.8092474E-01
       -1   -1    0    0    0  501  0.00000000000E+00  0.00000000000E+00  0.17113521440E+04  0.17113521440E+04  0.50400001928E-02 0.  1.
        1   -1    0    0  501    0  0.00000000000E+00  0.00000000000E+00 -0.18841624945E+04  0.18841624945E+04  0.50400001928E-02 0. -1.
    10030    2    1    2    0    0  0.00000000000E+00  0.00000000000E+00 -0.17281035054E+03  0.35955146385E+04  0.35913593664E+04 0.  0.
        3    1    3    3  502    0 -0.14805807711E+04  0.87422793226E+03  0.43195020866E+03  0.17728437298E+04  0.10100000352E+00 0.  1.
       -3    1    3    3    0  502  0.14805807711E+04 -0.87422793226E+03 -0.60476055920E+03  0.18226709087E+04  0.10100000352E+00 0. -1.
</event>
<event>
 5   0  0.7236375E-08  0.3618622E+04  0.7818609E-02  0.8086239E-01
       -1   -1    0    0    0  501  0.00000000000E+00  0.00000000000E+00  0.18535335124E+04  0.18535335124E+04  0.50400001928E-02 0. -1.
        1   -1    0    0  501    0  0.00000000000E+00  0.00000000000E+00 -0.17661440096E+04  0.17661440096E+04  0.50400001928E-02 0.  1.
    10030    2    1    2    0    0  0.00000000000E+00  0.00000000000E+00  0.87389502773E+02  0.36196775220E+04  0.36186224504E+04 0.  0.
        5    1    3    3  502    0  0.69453553838E+03  0.16021283495E+04  0.51753124829E+03  0.18212785469E+04  0.46999998093E+01 0. -1.
       -5    1    3    3    0  502 -0.69453553838E+03 -0.16021283495E+04 -0.43014174552E+03  0.17983989751E+04  0.46999998093E+01 0.  1.
</event>
<event>
 5   0  0.7236375E-08  0.3591856E+04  0.7818609E-02  0.8092360E-01
        1   -1    0    0  501    0  0.00000000000E+00  0.00000000000E+00  0.29325405766E+04  0.29325405766E+04  0.50400001928E-02 0. -1.
       -1   -1    0    0    0  501  0.00000000000E+00  0.00000000000E+00 -0.10998510286E+04  0.10998510286E+04  0.50400001928E-02 0.  1.
    10030    2    1    2    0    0  0.00000000000E+00  0.00000000000E+00  0.18326895480E+04  0.40323916052E+04  0.35918562163E+04 0.  0.
        1    1    3    3  502    0 -0.53455610998E+02 -0.94868557343E+03 -0.79454189078E+03  0.12386115758E+04  0.50400001928E-02 0.  1.
       -1    1    3    3    0  502  0.53455610998E+02  0.94868557343E+03  0.26272314387E+04  0.27937800293E+04  0.50400001928E-02 0. -1.
</event>
<event>
 5   0  0.2198900E-07  0.3572362E+04  0.7818609E-02  0.8096852E-01
        2   -1    0    0  501    0  0.00000000000E+00  0.00000000000E+00  0.23229674662E+04  0.23229674662E+04  0.25500000920E-02 0.  1.
       -2   -1    0    0    0  501  0.00000000000E+00  0.00000000000E+00 -0.13734340559E+04  0.13734340559E+04  0.25500000920E-02 0. -1.
    10030    2    1    2    0    0  0.00000000000E+00  0.00000000000E+00  0.94953341027E+03  0.36964015221E+04  0.35723620359E+04 0.  0.
        2    1    3    3  502    0  0.15721065728E+04 -0.37519427910E+03 -0.31199822612E+03  0.16460962051E+04  0.25500000920E-02 0.  1.
       -2    1    3    3    0  502 -0.15721065728E+04  0.37519427910E+03  0.12615316364E+04  0.20503053170E+04  0.25500000920E-02 0. -1.
</event>
<event>
 5   0  0.2199902E-07  0.3638752E+04  0.7818609E-02  0.8081672E-01
       -2   -1    0    0    0  501  0.00000000000E+00  0.00000000000E+00  0.19126100844E+04  0.19126100844E+04  0.25500000920E-02 0.  1.
        2   -1    0    0  501    0  0.00000000000E+00  0.00000000000E+00 -0.17306870751E+04  0.17306870751E+04  0.25500000920E-02 0. -1.
    10030    2    1    2    0    0  0.00000000000E+00  0.00000000000E+00  0.18192300927E+03  0.36432971595E+04  0.36387522877E+04 0.  0.
        1    1    3    3  502    0  0.16588362546E+04  0.16218861745E+03  0.82131531523E+03  0.18581177881E+04  0.50400001928E-02 0.  1.
       -1    1    3    3    0  502 -0.16588362546E+04 -0.16218861745E+03 -0.63939230596E+03  0.17851793714E+04  0.50400001928E-02 0. -1.
</event>
<event>
 5   0  0.7236375E-08  0.3613352E+04  0.7818609E-02  0.8087440E-01
       -3   -1    0    0    0  501  0.00000000000E+00  0.00000000000E+00  0.24297154944E+04  0.24297154965E+04  0.10100000352E+00 0. -1.
        3   -1    0    0  501    0  0.00000000000E+00  0.00000000000E+00 -0.13433992160E+04  0.13433992198E+04  0.10100000352E+00 0.  1.
    10030    2    1    2    0    0  0.00000000000E+00  0.00000000000E+00  0.10863162784E+04  0.37731147163E+04  0.36133518519E+04 0.  0.
        2    1    3    3  502    0  0.12909360116E+04 -0.50924005598E+03  0.17511283404E+04  0.22343436811E+04  0.25500000920E-02 0. -1.
       -2    1    3    3    0  502 -0.12909360116E+04  0.50924005598E+03 -0.66481206203E+03  0.15387710351E+04  0.25500000920E-02 0.  1.
</event>
<event>
 5   0  0.7347303E-08  0.3615331E+04  0.7818609E-02  0.8086989E-01
        1   -1    0    0  501    0  0.00000000000E+00  0.00000000000E+00  0.19700091391E+04  0.19700091391E+04  0.50400001928E-02 0. -1.
       -1   -1    0    0    0  501  0.00000000000E+00  0.00000000000E+00 -0.16587003980E+04  0.16587003981E+04  0.50400001928E-02 0.  1.
    10030    2    1    2    0    0  0.00000000000E+00  0.00000000000E+00  0.31130874104E+03  0.36287095371E+04  0.36153312120E+04 0.  0.
        2    1    3    3  502    0 -0.78103298551E+03  0.15566755377E+04 -0.33028975530E+03  0.17726653877E+04  0.25500000920E-02 0.  1.
       -2    1    3    3    0  502  0.78103298551E+03 -0.15566755377E+04  0.64159849634E+03  0.18560441495E+04  0.25500000920E-02 0. -1.
</event>
<event>
 5   0  0.7261233E-08  0.3586774E+04  0.7818609E-02  0.8093528E-01
        1   -1    0    0  501    0  0.00000000000E+00  0.00000000000E+00  0.24950737866E+04  0.24950737866E+04  0.50400001928E-02 0.  1.
       -1   -1    0    0    0  501  0.00000000000E+00  0.00000000000E+00 -0.12890351084E+04  0.12890351084E+04  0.50400001928E-02 0. -1.
    10030    2    1    2    0    0  0.00000000000E+00  0.00000000000E+00  0.12060386782E+04  0.37841088949E+04  0.35867744333E+04 0.  0.
        3    1    3    3  502    0 -0.15760528285E+04 -0.55922499173E+03  0.12863925320E+04  0.21098532807E+04  0.10100000352E+00 0.  1.
       -3    1    3    3    0  502  0.15760528285E+04  0.55922499173E+03 -0.80353853811E+02  0.16742556142E+04  0.10100000352E+00 0. -1.
</event>
<event>
 5   0  0.2198900E-07  0.3611267E+04  0.7818609E-02  0.8087916E-01
        2   -1    0    0  501    0  0.00000000000E+00  0.00000000000E+00  0.21827378172E+04  0.21827378172E+04  0.25500000920E-02 0.  1.
       -2   -1    0    0    0  501  0.00000000000E+00  0.00000000000E+00 -0.14936801490E+04  0.14936801490E+04  0.25500000920E-02 0. -1.
    10030    2    1    2    0    0  0.00000000000E+00  0.00000000000E+00  0.68905766817E+03  0.36764179662E+04  0.36112668957E+04 0.  0.
        2    1    3    3  502    0  0.74744462097E+03 -0.16124499911E+04  0.66909672471E+03  0.18990415641E+04  0.25500000920E-02 0.  1.
       -2    1    3    3    0  502 -0.74744462097E+03  0.16124499911E+04  0.19960943464E+02  0.17773764020E+04  0.25500000920E-02 0. -1.
</event>
<event>
 5   0  0.2199902E-07  0.3601634E+04  0.7818609E-02  0.8090117E-01
        2   -1    0    0  501    0  0.00000000000E+00  0.00000000000E+00  0.13254635789E+04  0.13254635789E+04  0.25500000920E-02 0. -1.
       -2   -1    0    0    0  501  0.00000000000E+00  0.00000000000E+00 -0.24466473531E+04  0.24466473531E+04  0.25500000920E-02 0.  1.
    10030    2    1    2    0    0  0.00000000000E+00  0.00000000000E+00 -0.11211837741E+04  0.37721109320E+04  0.36016340497E+04 0.  0.
        1    1    3    3  502    0 -0.74550168532E+03  0.15952904079E+04 -0.95555970551E+03  0.20034516713E+04  0.50400001928E-02 0. -1.
       -1    1    3    3    0  502  0.74550168532E+03 -0.15952904079E+04 -0.16562406864E+03  0.17686592607E+04  0.50400001928E-02 0.  1.
</event>
<event>
 5   0  0.7236375E-08  0.3599113E+04  0.7818609E-02  0.8090695E-01
        1   -1    0    0  501    0  0.00000000000E+00  0.00000000000E+00  0.18424905689E+04  0.18424905689E+04  0.50400001928E-02 0. -1.
       -1   -1    0    0    0  501  0.00000000000E+00  0.00000000000E+00 -0.17576233667E+04  0.17576233667E+04  0.50400001928E-02 0.  1.
    10030    2    1    2    0    0  0.00000000000E+00  0.00000000000E+00  0.84867202206E+02  0.36001139357E+04  0.35991134892E+04 0.  0.
        1    1    3    3  502    0  0.15486195379E+04  0.42085915693E+03 -0.77207744652E+03  0.17808561106E+04  0.50400001928E-02 0.  1.
       -1    1    3    3    0  502 -0.15486195379E+04 -0.42085915693E+03  0.85694464872E+03  0.18192578251E+04  0.50400001928E-02 0. -1.
</event>
<event>
 5   0  0.2198900E-07  0.3612943E+04  0.7818609E-02  0.8087533E-01
       -2   -1    0    0    0  501  0.00000000000E+00  0.00000000000E+00  0.28289592189E+04  0.28289592189E+04  0.25500000920E-02 0. -1.
        2   -1    0    0  501    0  0.00000000000E+00  0.00000000000E+00 -0.11535477111E+04  0.11535477111E+04  0.25500000920E-02 0.  1.
    10030    2    1    2    0    0  0.00000000000E+00  0.00000000000E+00  0.16754115078E+04  0.39825069301E+04  0.36129430839E+04 0.  0.
        2    1    3    3  502    0  0.45505820131E+03 -0.16169532389E+04  0.15703122499E+04  0.22994556542E+04  0.25500000920E-02 0. -1.
       -2    1    3    3    0  502 -0.45505820131E+03  0.16169532389E+04  0.10509925792E+03  0.16830512759E+04  0.25500000920E-02 0.  1.
</event>
<event>
 5   0  0.7514289E-08  0.3623818E+04  0.7818609E-02  0.8085058E-01
       -1   -1    0    0    0  501  0.00000000000E+00  0.00000000000E+00  0.11498851243E+04  0.11498851243E+04  0.50400001928E-02 0.  1.
        1   -1    0    0  501    0  0.00000000000E+00  0.00000000000E+00 -0.28550799102E+04  0.28550799102E+04  0.50400001928E-02 0. -1.
    10030    2    1    2    0    0  0.00000000000E+00  0.00000000000E+00 -0.17051947859E+04  0.40049650345E+04  0.36238178306E+04 0.  0.
        4    1    3    3  502    0  0.18039407146E+03 -0.49608629070E+03  0.10630209364E+04  0.11868693074E+04  0.12699999809E+01 0.  1.
       -4    1    3    3    0  502 -0.18039407146E+03  0.49608629070E+03 -0.27682157223E+04  0.28180957271E+04  0.12699999809E+01 0. -1.
</event>
<event>
 5   0  0.7261233E-08  0.3603487E+04  0.7818609E-02  0.8089693E-01
        1   -1    0    0  501    0  0.00000000000E+00  0.00000000000E+00  0.32071784760E+04  0.32071784760E+04  0.50400001928E-02 0.  1.
       -1   -1    0    0    0  501  0.00000000000E+00  0.00000000000E+00 -0.10121917744E+04  0.10121917744E+04  0.50400001928E-02 0. -1.
    10030    2    1    2    0    0  0.00000000000E+00  0.00000000000E+00  0.21949867016E+04  0.42193702504E+04  0.36034870182E+04 0.  0.
        3    1    3    3  502    0 -0.39685683949E+02  0.77857822872E+03  0.29994688731E+04  0.30991244800E+04  0.10100000352E+00 0.  1.
       -3    1    3    3    0  502  0.39685683949E+02 -0.77857822872E+03 -0.80448217150E+03  0.11202457704E+04  0.10100000352E+00 0. -1.
</event>
<event>
 5   0  0.2342606E-07  0.3602794E+04  0.7818609E-02  0.8089852E-01
        2   -1    0    0  501    0  0.00000000000E+00  0.00000000000E+00  0.27343871140E+04  0.27343871140E+04  0.25500000920E-02 0.  1.
       -2   -1    0    0    0  501  0.00000000000E+00  0.00000000000E+00 -0.11867492485E+04  0.11867492485E+04  0.25500000920E-02 0. -1.
    10030    2    1    2    0    0  0.00000000000E+00  0.00000000000E+00  0.15476378654E+04  0.39211363625E+04  0.36027943892E+04 0.  0.
        5    1    3    3  502    0  0.65105484368E+03  0.28724716529E+02 -0.10539490455E+04  0.12391643149E+04  0.46999998093E+01 0. -1.
       -5    1    3    3    0  502 -0.65105484368E+03 -0.28724716529E+02  0.26015869110E+04  0.26819720476E+04  0.46999998093E+01 0.  1.
</event>
<event>
 5   0  0.2198900E-07  0.3587336E+04  0.7818609E-02  0.8093399E-01
        2   -1    0    0  501    0  0.00000000000E+00  0.00000000000E+00  0.25030489079E+04  0.25030489079E+04  0.25500000920E-02 0.  1.
       -2   -1    0    0    0  501  0.00000000000E+00  0.00000000000E+00 -0.12853306466E+04  0.12853306466E+04  0.25500000920E-02 0. -1.
    10030    2    1    2    0    0  0.00000000000E+00  0.00000000000E+00  0.12177182614E+04  0.37883795545E+04  0.35873363217E+04 0.  0.
        2    1    3    3  502    0 -0.73490602376E+03 -0.29696070816E+02 -0.11187556062E+04  0.13388737158E+04  0.25500000920E-02 0. -1.
       -2    1    3    3    0  502  0.73490602376E+03  0.29696070816E+02  0.23364738676E+04  0.24495058388E+04  0.25500000920E-02 0.  1.
</event>
<event>
 5   0  0.7236375E-08  0.3597161E+04  0.7818609E-02  0.8091142E-01
        3   -1    0    0  501    0  0.00000000000E+00  0.00000000000E+00  0.13859513515E+04  0.13859513552E+04  0.10100000352E+00 0.  1.
       -3   -1    0    0    0  501  0.00000000000E+00  0.00000000000E+00 -0.23340591213E+04  0.23340591235E+04  0.10100000352E+00 0. -1.
    10030    2    1    2    0    0  0.00000000000E+00  0.00000000000E+00 -0.94810776981E+03  0.37200104786E+04  0.35971613278E+04 0.  0.
        5    1    3    3  502    0 -0.16022991785E+04  0.81386474337E+03 -0.54813724131E+03  0.18788866393E+04  0.46999998093E+01 0. -1.
       -5    1    3    3    0  502  0.16022991785E+04 -0.81386474337E+03 -0.39997052850E+03  0.18411238393E+04  0.46999998093E+01 0.  1.
</event>
<event>
 5   0  0.7236375E-08  0.3594691E+04  0.7818609E-02  0.8091709E-01
        1   -1    0    0  501    0  0.00000000000E+00  0.00000000000E+00  0.10885811538E+04  0.10885811538E+04  0.50400001928E-02 0. -1.
       -1   -1    0    0    0  501  0.00000000000E+00  0.00000000000E+00 -0.29675789000E+04  0.29675789000E+04  0.50400001928E-02 0.  1.
    10030    2    1    2    0    0  0.00000000000E+00  0.00000000000E+00 -0.18789977463E+04  0.40561600538E+04  0.35946907866E+04 0.  0.
        5    1    3    3  502    0 -0.83705843371E+02 -0.11081300706E+04  0.65445623888E+03  0.12896875514E+04  0.46999998093E+01 0. -1.
       -5    1    3    3    0  502  0.83705843371E+02  0.11081300706E+04 -0.25334539851E+04  0.27664725024E+04  0.46999998093E+01 0.  1.
</event>
<event>
 5   0  0.7347303E-08  0.3607381E+04  0.7818609E-02  0.8088803E-01
        1   -1    0    0  501    0  0.00000000000E+00  0.00000000000E+00  0.26842225933E+04  0.26842225933E+04  0.50400001928E-02 0.  1.
       -1   -1    0    0    0  501  0.00000000000E+00  0.00000000000E+00 -0.12120077817E+04  0.12120077817E+04  0.50400001928E-02 0. -1.
    10030    2    1    2    0    0  0.00000000000E+00  0.00000000000E+00  0.14722148115E+04  0.38962303750E+04  0.36073805848E+04 0.  0.
        2    1    3    3  502    0  0.13271821579E+04 -0.10712437248E+04  0.13698833150E+04  0.21875913455E+04  0.25500000920E-02 0.  1.
       -2    1    3    3    0  502 -0.13271821579E+04  0.10712437248E+04  0.10233149657E+03  0.17086390295E+04  0.25500000920E-02 0. -1.
</event>
<event>
 5   0  0.7236375E-08  0.3590262E+04  0.7818609E-02  0.8092726E-01
       -1   -1    0    0    0  501  0.00000000000E+00  0.00000000000E+00  0.14224702009E+04  0.14224702009E+04  0.50400001928E-02 0.  1.
        1   -1    0    0  501    0  0.00000000000E+00  0.00000000000E+00 -0.22654218444E+04  0.22654218444E+04  0.50400001928E-02 0. -1.
    10030    2    1    2    0    0  0.00000000000E+00  0.00000000000E+00 -0.84295164354E+03  0.36878920453E+04  0.35902618658E+04 0.  0.
        1    1    3    3  502    0 -0.17414693643E+04  0.18693030876E+03 -0.17282757211E+02  0.17515585005E+04  0.50400001928E-02 0. -1.
       -1    1    3    3    0  502  0.17414693643E+04 -0.18693030876E+03 -0.82566888633E+03  0.19363335448E+04  0.50400001928E-02 0.  1.
</event>
<event>
 5   0  0.2198900E-07  0.3655798E+04  0.7818609E-02  0.8077829E-01
       -2   -1    0    0    0  501  0.00000000000E+00  0.00000000000E+00  0.35502247030E+04  0.35502247030E+04  0.25500000920E-02 0. -1.
        2   -1    0    0  501    0  0.00000000000E+00  0.00000000000E+00 -0.94112744873E+03  0.94112744874E+03  0.25500000920E-02 0.  1.
    10030    2    1    2    0    0  0.00000000000E+00  0.00000000000E+00  0.26090972542E+04  0.44913521517E+04  0.36557975421E+04 0.  0.
        2    1    3    3  502    0 -0.13255112627E+04  0.63159178886E+02  0.28489392159E+04  0.31428369104E+04  0.25500000920E-02 0. -1.
       -2    1    3    3    0  502  0.13255112627E+04 -0.63159178886E+02 -0.23984196167E+03  0.13485152413E+04  0.25500000920E-02 0.  1.
</event>
<event>
 5   0  0.7236375E-08  0.3599948E+04  0.7818609E-02  0.8090504E-01
       -1   -1    0    0    0  501  0.00000000000E+00  0.00000000000E+00  0.14540672128E+04  0.14540672128E+04  0.50400001928E-02 0. -1.
        1   -1    0    0  501    0  0.00000000000E+00  0.00000000000E+00 -0.22281684937E+04  0.22281684937E+04  0.50400001928E-02 0.  1.
    10030    2    1    2    0    0  0.00000000000E+00  0.00000000000E+00 -0.77410128085E+03  0.36822357065E+04  0.35999481948E+04 0.  0.
        1    1    3    3  502    0  0.41831094453E+03 -0.11891067371E+04  0.92721155136E+03  0.15648259135E+04  0.50400001928E-02 0. -1.
       -1    1    3    3    0  502 -0.41831094453E+03  0.11891067371E+04 -0.17013128322E+04  0.21174097930E+04  0.50400001928E-02 0.  1.
</event>
<event>
 5   0  0.2342606E-07  0.3593484E+04  0.7818609E-02  0.8091986E-01
        2   -1    0    0  501    0  0.00000000000E+00  0.00000000000E+00  0.16769060236E+04  0.16769060236E+04  0.25500000920E-02 0.  1.
       -2   -1    0    0    0  501  0.00000000000E+00  0.00000000000E+00 -0.19251416283E+04  0.19251416283E+04  0.25500000920E-02 0. -1.
    10030    2    1    2    0    0  0.00000000000E+00  0.00000000000E+00 -0.24823560470E+03  0.36020476520E+04  0.35934838766E+04 0.  0.
        5    1    3    3  502    0  0.56075144948E+03  0.45258198697E+03 -0.17739402278E+04  0.19147215632E+04  0.46999998093E+01 0. -1.
       -5    1    3    3    0  502 -0.56075144948E+03 -0.45258198697E+03  0.15257046230E+04  0.16873260888E+04  0.46999998093E+01 0.  1.
</event>
<event>
 5   0  0.7261233E-08  0.3597790E+04  0.7818609E-02  0.8090998E-01
        1   -1    0    0  501    0  0.00000000000E+00  0.00000000000E+00  0.12962116683E+04  0.12962116683E+04  0.50400001928E-02 0.  1.
       -1   -1    0    0    0  501  0.00000000000E+00  0.00000000000E+00 -0.24965237454E+04  0.24965237454E+04  0.50400001928E-02 0. -1.
    10030    2    1    2    0    0  0.00000000000E+00  0.00000000000E+00 -0.12003120772E+04  0.37927354137E+04  0.35977899933E+04 0.  0.
        3    1    3    3  502    0 -0.40082399459E+03 -0.17268651762E+04 -0.27815480963E+03  0.17944618469E+04  0.10100000352E+00 0. -1.
       -3    1    3    3    0  502  0.40082399459E+03  0.17268651762E+04 -0.92215726753E+03  0.19982735668E+04  0.10100000352E+00 0.  1.
</event>
<event>
 5   0  0.7236375E-08  0.3615136E+04  0.7818609E-02  0.8087033E-01
        3   -1    0    0  501    0  0.00000000000E+00  0.00000000000E+00  0.11365425441E+04  0.11365425485E+04  0.10100000352E+00 0.  1.
       -3   -1    0    0    0  501  0.00000000000E+00  0.00000000000E+00 -0.28747729908E+04  0.28747729926E+04  0.10100000352E+00 0. -1.
    10030    2    1    2    0    0  0.00000000000E+00  0.00000000000E+00 -0.17382304467E+04  0.40113155411E+04  0.36151358597E+04 0.  0.
        3    1    3    3  502    0  0.51772531391E+03 -0.14167069686E+04 -0.19743705554E+04  0.24846000153E+04  0.10100000352E+00 0. -1.
       -3    1    3    3    0  502 -0.51772531391E+03  0.14167069686E+04  0.23614010866E+03  0.15267155258E+04  0.10100000352E+00 0.  1.
</event>
<event>
 5   0  0.7236375E-08  0.3509925E+04  0.7818609E-02  0.8111442E-01
        1   -1    0    0  501    0  0.00000000000E+00  0.00000000000E+00  0.25886322662E+04  0.25886322662E+04  0.50400001928E-02 0.  1.
       -1   -1    0    0    0  501  0.00000000000E+00  0.00000000000E+00 -0.11897763354E+04  0.11897763354E+04  0.50400001928E-02 0. -1.
    10030    2    1    2    0    0  0.00000000000E+00  0.00000000000E+00  0.13988559308E+04  0.37784086016E+04  0.35099250199E+04 0.  0.
        5    1    3    3  502    0 -0.59364519752E+03 -0.15711879813E+04  0.15176393628E+03  0.16864461674E+04  0.46999998093E+01 0. -1.
       -5    1    3    3    0  502  0.59364519752E+03  0.15711879813E+04  0.12470919945E+04  0.20919624342E+04  0.46999998093E+01 0.  1.
</event>
<event>
 5   0  0.2198900E-07  0.3613581E+04  0.7818609E-02  0.8087388E-01
       -2   -1    0    0    0  501  0.00000000000E+00  0.00000000000E+00  0.20286119735E+04  0.20286119735E+04  0.25500000920E-02 0. -1.
        2   -1    0    0  501    0  0.00000000000E+00  0.00000000000E+00 -0.16092240754E+04  0.16092240754E+04  0.25500000920E-02 0.  1.
    10030    2    1    2    0    0  0.00000000000E+00  0.00000000000E+00  0.41938789817E+03  0.36378360489E+04  0.36135806217E+04 0.  0.
        2    1    3    3  502    0  0.63792937473E+03  0.12662840171E+04  0.13370598637E+04  0.19488863944E+04  0.25500000920E-02 0. -1.
       -2    1    3    3    0  502 -0.63792937473E+03 -0.12662840171E+04 -0.91767196554E+03  0.16889496545E+04  0.25500000920E-02 0.  1.
</event>
<event>
 5   0  0.7236375E-08  0.3595228E+04  0.7818609E-02  0.8091586E-01
        3   -1    0    0  501    0  0.00000000000E+00  0.00000000000E+00  0.22514762602E+04  0.22514762624E+04  0.10100000352E+00 0. -1.
       -3   -1    0    0    0  501  0.00000000000E+00  0.00000000000E+00 -0.14352432510E+04  0.14352432546E+04  0.10100000352E+00 0.  1.
    10030    2    1    2    0    0  0.00000000000E+00  0.00000000000E+00  0.81623300913E+03  0.36867195170E+04  0.35952280139E+04 0.  0.
        5    1    3    3  502    0  0.13114254147E+04 -0.57772482956E+03 -0.70476225639E+03  0.15969704209E+04  0.46999998093E+01 0.  1.
       -5    1    3    3    0  502 -0.13114254147E+04  0.57772482956E+03  0.15209952655E+04  0.20897490961E+04  0.46999998093E+01 0. -1.
</event>
<event>
 5   0  0.7236375E-08  0.3631298E+04  0.7818609E-02  0.8083360E-01
        1   -1    0    0  501    0  0.00000000000E+00  0.00000000000E+00  0.20873503423E+04  0.20873503423E+04  0.50400001928E-02 0.  1.
       -1   -1    0    0    0  501  0.00000000000E+00  0.00000000000E+00 -0.15793142188E+04  0.15793142188E+04  0.50400001928E-02 0. -1.
    10030    2    1    2    0    0  0.00000000000E+00  0.00000000000E+00  0.50803612357E+03  0.36666645611E+04  0.36312984318E+04 0.  0.
        1    1    3    3  502    0 -0.17961825795E+04 -0.23839503341E+03  0.37124363303E+03  0.18495745148E+04  0.50400001928E-02 0.  1.
       -1    1    3    3    0  502  0.17961825795E+04  0.23839503341E+03  0.13679249054E+03  0.18170900463E+04  0.50400001928E-02 0. -1.
</event>
<event>
 5   0  0.2198900E-07  0.3598705E+04  0.7818609E-02  0.8090788E-01
        2   -1    0    0  501    0  0.00000000000E+00  0.00000000000E+00  0.10812230324E+04  0.10812230324E+04  0.25500000920E-02 0.  1.
       -2   -1    0    0    0  501  0.00000000000E+00  0.00000000000E+00 -0.29944516381E+04  0.29944516381E+04  0.25500000920E-02 0. -1.
    10030    2    1    2    0    0  0.00000000000E+00  0.00000000000E+00 -0.19132286057E+04  0.40756746705E+04  0.35987053675E+04 0.  0.
        2    1    3    3  502    0  0.13071567793E+03  0.39732017295E+02  0.10753404589E+04  0.10839844668E+04  0.25500000920E-02 0.  1.
       -2    1    3    3    0  502 -0.13071567793E+03 -0.39732017295E+02 -0.29885690645E+04  0.29916902037E+04  0.25500000920E-02 0. -1.
</event>
<event>
 5   0  0.7347303E-08  0.3611761E+04  0.7818609E-02  0.8087803E-01
        1   -1    0    0  501    0  0.00000000000E+00  0.00000000000E+00  0.15209935116E+04  0.15209935116E+04  0.50400001928E-02 0. -1.
       -1   -1    0    0    0  501  0.00000000000E+00  0.00000000000E+00 -0.21441272449E+04  0.21441272449E+04  0.50400001928E-02 0.  1.
    10030    2    1    2    0    0  0.00000000000E+00  0.00000000000E+00 -0.62313373337E+03  0.36651207565E+04  0.36117605832E+04 0.  0.
        2    1    3    3  502    0 -0.23008920379E+03 -0.15788230636E+04  0.54685056473E+03  0.16866146116E+04  0.25500000920E-02 0. -1.
       -2    1    3    3    0  502  0.23008920379E+03  0.15788230636E+04 -0.11699842981E+04  0.19785061450E+04  0.25500000920E-02 0.  1.
</event>
<event>
 5   0  0.7347303E-08  0.3616018E+04  0.7818609E-02  0.8086832E-01
       -1   -1    0    0    0  501  0.00000000000E+00  0.00000000000E+00  0.13532654572E+04  0.13532654572E+04  0.50400001928E-02 0.  1.
        1   -1    0    0  501    0  0.00000000000E+00  0.00000000000E+00 -0.24155623315E+04  0.24155623315E+04  0.50400001928E-02 0. -1.
    10030    2    1    2    0    0  0.00000000000E+00  0.00000000000E+00 -0.10622968744E+04  0.37688277887E+04  0.36160182869E+04 0.  0.
        2    1    3    3  502    0  0.72606431936E+03 -0.10137763479E+04 -0.18956662422E+04  0.22690223404E+04  0.25500000920E-02 0. -1.
       -2    1    3    3    0  502 -0.72606431936E+03  0.10137763479E+04  0.83336936783E+03  0.14998054483E+04  0.25500000920E-02 0.  1.
</event>
<event>
 5   0  0.7514289E-08  0.3599660E+04  0.7818609E-02  0.8090570E-01
       -1   -1    0    0    0  501  0.00000000000E+00  0.00000000000E+00  0.12381751841E+04  0.12381751841E+04  0.50400001928E-02 0.  1.
        1   -1    0    0  501    0  0.00000000000E+00  0.00000000000E+00 -0.26162593861E+04  0.26162593861E+04  0.50400001928E-02 0. -1.
    10030    2    1    2    0    0  0.00000000000E+00  0.00000000000E+00 -0.13780842020E+04  0.38544345702E+04  0.35996596767E+04 0.  0.
        4    1    3    3  502    0  0.17987072518E+04  0.97450933293E+01 -0.75628052961E+03  0.19512571837E+04  0.12699999809E+01 0. -1.
       -4    1    3    3    0  502 -0.17987072518E+04 -0.97450933293E+01 -0.62180367240E+03  0.19031773865E+04  0.12699999809E+01 0.  1.
</event>
<event>
 5   0  0.7514289E-08  0.3580316E+04  0.7818609E-02  0.8095015E-01
        1   -1    0    0  501    0  0.00000000000E+00  0.00000000000E+00  0.16482382848E+04  0.16482382848E+04  0.50400001928E-02 0.  1.
       -1   -1    0    0    0  501  0.00000000000E+00  0.00000000000E+00 -0.19442977304E+04  0.19442977304E+04  0.50400001928E-02 0. -1.
    10030    2    1    2    0    0  0.00000000000E+00  0.00000000000E+00 -0.29605944563E+03  0.35925360153E+04  0.35803161628E+04 0.  0.
        4    1    3    3  502    0 -0.29848749473E+03  0.15313504455E+04  0.73276771298E+03  0.17236818458E+04  0.12699999809E+01 0.  1.
       -4    1    3    3    0  502  0.29848749473E+03 -0.15313504455E+04 -0.10288271586E+04  0.18688541694E+04  0.12699999809E+01 0. -1.
</event>
<event>
 5   0  0.7236375E-08  0.3604202E+04  0.7818609E-02  0.8089530E-01
        1   -1    0    0  501    0  0.00000000000E+00  0.00000000000E+00  0.21120545272E+04  0.21120545272E+04  0.50400001928E-02 0. -1.
       -1   -1    0    0    0  501  0.00000000000E+00  0.00000000000E+00 -0.15376345332E+04  0.15376345332E+04  0.50400001928E-02 0.  1.
    10030    2    1    2    0    0  0.00000000000E+00  0.00000000000E+00  0.57441999394E+03  0.36496890604E+04  0.36042019794E+04 0.  0.
        5    1    3    3  502    0 -0.28463205385E+03  0.67249827088E+03  0.19555086256E+04  0.20874159636E+04  0.46999998093E+01 0. -1.
       -5    1    3    3    0  502  0.28463205385E+03 -0.67249827088E+03 -0.13810886317E+04  0.15622730968E+04  0.46999998093E+01 0.  1.
</event>
<event>
 5   0  0.7261233E-08  0.3609323E+04  0.7818609E-02  0.8088359E-01
        1   -1    0    0  501    0  0.00000000000E+00  0.00000000000E+00  0.11759742473E+04  0.11759742473E+04  0.50400001928E-02 0.  1.
       -1   -1    0    0    0  501  0.00000000000E+00  0.00000000000E+00 -0.27694509920E+04  0.27694509920E+04  0.50400001928E-02 0. -1.
    10030    2    1    2    0    0  0.00000000000E+00  0.00000000000E+00 -0.15934767447E+04  0.39454252393E+04  0.36093229536E+04 0.  0.
        3    1    3    3  502    0 -0.44037611187E+03  0.14945089323E+04  0.19873082603E+03  0.15706629238E+04  0.10100000352E+00 0.  1.
       -3    1    3    3    0  502  0.44037611187E+03 -0.14945089323E+04 -0.17922075707E+04  0.23747623156E+04  0.10100000352E+00 0. -1.
</event>
<event>
 5   0  0.2342606E-07  0.3637236E+04  0.7818609E-02  0.8082015E-01
        2   -1    0    0  501    0  0.00000000000E+00  0.00000000000E+00  0.33223321340E+04  0.33223321341E+04  0.25500000920E-02 0. -1.
       -2   -1    0    0    0  501  0.00000000000E+00  0.00000000000E+00 -0.99549718071E+03  0.99549718071E+03  0.25500000920E-02 0.  1.
    10030    2    1    2    0    0  0.00000000000E+00  0.00000000000E+00  0.23268349533E+04  0.43178293148E+04  0.36372364635E+04 0.  0.
        5    1    3    3  502    0 -0.10803476585E+04 -0.69232548817E+03 -0.36648467453E+03  0.13344657176E+04  0.46999998093E+01 0.  1.
       -5    1    3    3    0  502  0.10803476585E+04  0.69232548817E+03  0.26933196279E+04  0.29833635971E+04  0.46999998093E+01 0. -1.
</event>
<event>
 5   0  0.7236375E-08  0.3539631E+04  0.7818609E-02  0.8104462E-01
       -1   -1    0    0    0  501  0.00000000000E+00  0.00000000000E+00  0.17997900490E+04  0.17997900490E+04  0.50400001928E-02 0. -1.
        1   -1    0    0  501    0  0.00000000000E+00  0.00000000000E+00 -0.17403396967E+04  0.17403396967E+04  0.50400001928E-02 0.  1.
    10030    2    1    2    0    0  0.00000000000E+00  0.00000000000E+00  0.59450352286E+02  0.35401297456E+04  0.35396305276E+04 0.  0.
        5    1    3    3  502    0  0.11773072762E+04  0.13124268829E+04 -0.12426807124E+03  0.17674788227E+04  0.46999998093E+01 0. -1.
       -5    1    3    3    0  502 -0.11773072762E+04 -0.13124268829E+04  0.18371842352E+03  0.17726509229E+04  0.46999998093E+01 0.  1.
</event>
<event>
 5   0  0.2199902E-07  0.3601400E+04  0.7818609E-02  0.8090171E-01
       -2   -1    0    0    0  501  0.00000000000E+00  0.00000000000E+00  0.13726036471E+04  0.13726036471E+04  0.25500000920E-02 0. -1.
        2   -1    0    0  501    0  0.00000000000E+00  0.00000000000E+00 -0.23623142714E+04  0.23623142714E+04  0.25500000920E-02 0.  1.
    10030    2    1    2    0    0  0.00000000000E+00  0.00000000000E+00 -0.98971062439E+03  0.37349179185E+04  0.36014003857E+04 0.  0.
        1    1    3    3  502    0 -0.45535925590E+03  0.23759051028E+03 -0.22847376693E+04  0.23417573572E+04  0.50400001928E-02 0.  1.
       -1    1    3    3    0  502  0.45535925590E+03 -0.23759051028E+03  0.12950270449E+04  0.13931605613E+04  0.50400001928E-02 0. -1.
</event>
<event>
 5   0  0.7261233E-08  0.3626369E+04  0.7818609E-02  0.8084478E-01
       -1   -1    0    0    0  501  0.00000000000E+00  0.00000000000E+00  0.16673273611E+04  0.16673273611E+04  0.50400001928E-02 0.  1.
        1   -1    0    0  501    0  0.00000000000E+00  0.00000000000E+00 -0.19718010803E+04  0.19718010803E+04  0.50400001928E-02 0. -1.
    10030    2    1    2    0    0  0.00000000000E+00  0.00000000000E+00 -0.30447371918E+03  0.36391284414E+04  0.36263689232E+04 0.  0.
        3    1    3    3  502    0 -0.29800157285E+03 -0.83753089077E+03  0.14336320152E+04  0.16868798700E+04  0.10100000352E+00 0.  1.
       -3    1    3    3    0  502  0.29800157285E+03  0.83753089077E+03 -0.17381057344E+04  0.19522485714E+04  0.10100000352E+00 0. -1.
</event>
<event>
 5   0  0.7514289E-08  0.3589095E+04  0.7818609E-02  0.8092994E-01
        1   -1    0    0  501    0  0.00000000000E+00  0.00000000000E+00  0.13121916425E+04  0.13121916425E+04  0.50400001928E-02 0. -1.
       -1   -1    0    0    0  501  0.00000000000E+00  0.00000000000E+00 -0.24542146544E+04  0.24542146544E+04  0.50400001928E-02 0.  1.
    10030    2    1    2    0    0  0.00000000000E+00  0.00000000000E+00 -0.11420230119E+04  0.37664062969E+04  0.35890945702E+04 0.  0.
        4    1    3    3  502    0  0.95744438349E+03  0.77205600722E+03  0.80030882327E+03  0.14674011215E+04  0.12699999809E+01 0. -1.
       -4    1    3    3    0  502 -0.95744438349E+03 -0.77205600722E+03 -0.19423318352E+04  0.22990051754E+04  0.12699999809E+01 0.  1.
</event>
<event>
 5   0  0.2199902E-07  0.3620016E+04  0.7818609E-02  0.8085922E-01
       -2   -1    0    0    0  501  0.00000000000E+00  0.00000000000E+00  0.22410305377E+04  0.22410305377E+04  0.25500000920E-02 0.  1.
        2   -1    0    0  501    0  0.00000000000E+00  0.00000000000E+00 -0.14618851392E+04  0.14618851392E+04  0.25500000920E-02 0. -1.
    10030    2    1    2    0    0  0.00000000000E+00  0.00000000000E+00  0.77914539849E+03  0.37029156770E+04  0.36200161545E+04 0.  0.
        1    1    3    3  502    0 -0.68512569442E+03 -0.20616949415E+03  0.20902428932E+04  0.22093027023E+04  0.50400001928E-02 0.  1.
       -1    1    3    3    0  502  0.68512569442E+03  0.20616949415E+03 -0.13110974947E+04  0.14936129747E+04  0.50400001928E-02 0. -1.
</event>
<event>
 5   0  0.2238968E-07  0.3615426E+04  0.7818609E-02  0.8086967E-01
       -2   -1    0    0    0  501  0.00000000000E+00  0.00000000000E+00  0.17431594104E+04  0.17431594104E+04  0.25500000920E-02 0.  1.
        2   -1    0    0  501    0  0.00000000000E+00  0.00000000000E+00 -0.18746571485E+04  0.18746571485E+04  0.25500000920E-02 0. -1.
    10030    2    1    2    0    0  0.00000000000E+00  0.00000000000E+00 -0.13149773813E+03  0.36178165589E+04  0.36154259775E+04 0.  0.
        3    1    3    3  502    0  0.91640964657E+03  0.80345008422E+03 -0.14017299929E+04  0.18574675398E+04  0.10100000352E+00 0. -1.
       -3    1    3    3    0  502 -0.91640964657E+03 -0.80345008422E+03  0.12702322547E+04  0.17603490192E+04  0.10100000352E+00 0.  1.
</event>
<event>
 5   0  0.2199902E-07  0.3598094E+04  0.7818609E-02  0.8090928E-01
       -2   -1    0    0    0  501  0.00000000000E+00  0.00000000000E+00  0.19127754352E+04  0.19127754352E+04  0.25500000920E-02 0. -1.
        2   -1    0    0  501    0  0.00000000000E+00  0.00000000000E+00 -0.16920802459E+04  0.16920802459E+04  0.25500000920E-02 0.  1.
    10030    2    1    2    0    0  0.00000000000E+00  0.00000000000E+00  0.22069518925E+03  0.36048556811E+04  0.35980936779E+04 0.  0.
        1    1    3    3  502    0 -0.20081959289E+03 -0.17804887532E+04 -0.51513505472E+02  0.17925184380E+04  0.50400001928E-02 0.  1.
       -1    1    3    3    0  502  0.20081959289E+03  0.17804887532E+04  0.27220869472E+03  0.18123372431E+04  0.50400001928E-02 0. -1.
</event>
<event>
 5   0  0.2238968E-07  0.3445516E+04  0.7818609E-02  0.8126825E-01
        2   -1    0    0  501    0  0.00000000000E+00  0.00000000000E+00  0.10911834789E+04  0.10911834789E+04  0.25500000920E-02 0.  1.
       -2   -1    0    0    0  501  0.00000000000E+00  0.00000000000E+00 -0.27198871333E+04  0.27198871333E+04  0.25500000920E-02 0. -1.
    10030    2    1    2    0    0  0.00000000000E+00  0.00000000000E+00 -0.16287036544E+04  0.38110706122E+04  0.34455164515E+04 0.  0.
        3    1    3    3  502    0 -0.67217731067E+03 -0.15211690342E+04 -0.13116255545E+04  0.21180507957E+04  0.10100000352E+00 0.  1.
       -3    1    3    3    0  502  0.67217731067E+03  0.15211690342E+04 -0.31707809985E+03  0.16930198165E+04  0.10100000352E+00 0. -1.
</event>
<event>
 5   0  0.2198900E-07  0.3585033E+04  0.7818609E-02  0.8093929E-01
        2   -1    0    0  501    0  0.00000000000E+00  0.00000000000E+00  0.16177083669E+04  0.16177083669E+04  0.25500000920E-02 0.  1.
       -2   -1    0    0    0  501  0.00000000000E+00  0.00000000000E+00 -0.19862144132E+04  0.19862144132E+04  0.25500000920E-02 0. -1.
    10030    2    1    2    0    0  0.00000000000E+00  0.00000000000E+00 -0.36850604630E+03  0.36039227801E+04  0.35850331517E+04 0.  0.
        2    1    3    3  502    0  0.11836905873E+04  0.10148214251E+04 -0.10732938429E+04  0.18928670330E+04  0.25500000920E-02 0. -1.
       -2    1    3    3    0  502 -0.11836905873E+04 -0.10148214251E+04  0.70478779660E+03  0.17110557471E+04  0.25500000920E-02 0.  1.
</event>
<event>
 5   0  0.2199902E-07  0.3607698E+04  0.7818609E-02  0.8088731E-01
       -2   -1    0    0    0  501  0.00000000000E+00  0.00000000000E+00  0.32257692307E+04  0.32257692307E+04  0.25500000920E-02 0.  1.
        2   -1    0    0  501    0  0.00000000000E+00  0.00000000000E+00 -0.10087114473E+04  0.10087114473E+04  0.25500000920E-02 0. -1.
    10030    2    1    2    0    0  0.00000000000E+00  0.00000000000E+00  0.22170577834E+04  0.42344806780E+04  0.36076975202E+04 0.  0.
        1    1    3    3  502    0  0.82753478742E+03  0.13373391373E+04  0.21455292401E+04  0.26601852403E+04  0.50400001928E-02 0.  1.
       -1    1    3    3    0  502 -0.82753478742E+03 -0.13373391373E+04  0.71528543328E+02  0.15742954377E+04  0.50400001928E-02 0. -1.
</event>
<event>
 5   0  0.7236375E-08  0.3606504E+04  0.7818609E-02  0.8089003E-01
        1   -1    0    0  501    0  0.00000000000E+00  0.00000000000E+00  0.18239037095E+04  0.18239037095E+04  0.50400001928E-02 0.  1.
       -1   -1    0    0    0  501  0.00000000000E+00  0.00000000000E+00 -0.17828342033E+04  0.17828342033E+04  0.50400001928E-02 0. -1.
    10030    2    1    2    0    0  0.00000000000E+00  0.00000000000E+00  0.41069506256E+02  0.36067379128E+04  0.36065040784E+04 0.  0.
        5    1    3    3  502    0  0.12163883117E+03  0.10418993673E+04 -0.14463069261E+04  0.17866662003E+04  0.46999998093E+01 0. -1.
       -5    1    3    3    0  502 -0.12163883117E+03 -0.10418993673E+04  0.14873764324E+04  0.18200717125E+04  0.46999998093E+01 0.  1.
</event>
<event>
 5   0  0.7236375E-08  0.3599250E+04  0.7818609E-02  0.8090663E-01
       -1   -1    0    0    0  501  0.00000000000E+00  0.00000000000E+00  0.17511828203E+04  0.17511828203E+04  0.50400001928E-02 0. -1.
        1   -1    0    0  501    0  0.00000000000E+00  0.00000000000E+00 -0.18494076241E+04  0.18494076242E+04  0.50400001928E-02 0.  1.
    10030    2    1    2    0    0  0.00000000000E+00  0.00000000000E+00 -0.98224803873E+02  0.36005904444E+04  0.35992503992E+04 0.  0.
        5    1    3    3  502    0 -0.16268736488E+04 -0.88091484035E+01  0.72048104556E+03  0.17793005641E+04  0.46999998093E+01 0. -1.
       -5    1    3    3    0  502  0.16268736488E+04  0.88091484035E+01 -0.81870584943E+03  0.18212898803E+04  0.46999998093E+01 0.  1.
</event>
<event>
 5   0  0.2198900E-07  0.3607387E+04  0.7818609E-02  0.8088802E-01
       -2   -1    0    0    0  501  0.00000000000E+00  0.00000000000E+00  0.12152746100E+04  0.12152746100E+04  0.25500000920E-02 0. -1.
        2   -1    0    0  501    0  0.00000000000E+00  0.00000000000E+00 -0.26770170012E+04  0.26770170012E+04  0.25500000920E-02 0.  1.
    10030    2    1    2    0    0  0.00000000000E+00  0.00000000000E+00 -0.14617423912E+04  0.38922916112E+04  0.36073873051E+04 0.  0.
        2    1    3    3  502    0  0.83499611875E+03  0.11953362529E+04 -0.18764509328E+04  0.23763660028E+04  0.25500000920E-02 0.  1.
       -2    1    3    3    0  502 -0.83499611875E+03 -0.11953362529E+04  0.41470854160E+03  0.15159256085E+04  0.25500000920E-02 0. -1.
</event>
<event>
 5   0  0.7261233E-08  0.3629494E+04  0.7818609E-02  0.8083769E-01
       -1   -1    0    0    0  501  0.00000000000E+00  0.00000000000E+00  0.23632556947E+04  0.23632556947E+04  0.50400001928E-02 0. -1.
        1   -1    0    0  501    0  0.00000000000E+00  0.00000000000E+00 -0.13935465225E+04  0.13935465225E+04  0.50400001928E-02 0.  1.
    10030    2    1    2    0    0  0.00000000000E+00  0.00000000000E+00  0.96970917224E+03  0.37568022172E+04  0.36294940446E+04 0.  0.
        3    1    3    3  502    0 -0.46227792300E+03  0.52013737671E+03 -0.12499596655E+04  0.14306092913E+04  0.10100000352E+00 0.  1.
       -3    1    3    3    0  502  0.46227792300E+03 -0.52013737671E+03  0.22196688378E+04  0.23261929259E+04  0.10100000352E+00 0. -1.
</event>
<event>
 5   0  0.7236375E-08  0.3622840E+04  0.7818609E-02  0.8085280E-01
        1   -1    0    0  501    0  0.00000000000E+00  0.00000000000E+00  0.18091321159E+04  0.18091321159E+04  0.50400001928E-02 0.  1.
       -1   -1    0    0    0  501  0.00000000000E+00  0.00000000000E+00 -0.18137107605E+04  0.18137107605E+04  0.50400001928E-02 0. -1.
    10030    2    1    2    0    0  0.00000000000E+00  0.00000000000E+00 -0.45786446136E+01  0.36228428763E+04  0.36228399830E+04 0.  0.
        5    1    3    3  502    0  0.95817105723E+03 -0.14731953502E+04 -0.44140694768E+03  0.18119764066E+04  0.46999998093E+01 0.  1.
       -5    1    3    3    0  502 -0.95817105723E+03  0.14731953502E+04  0.43682830307E+03  0.18108664697E+04  0.46999998093E+01 0. -1.
</event>
<event>
 5   0  0.2342606E-07  0.3581249E+04  0.7818609E-02  0.8094800E-01
       -2   -1    0    0    0  501  0.00000000000E+00  0.00000000000E+00  0.18693538114E+04  0.18693538114E+04  0.25500000920E-02 0. -1.
        2   -1    0    0  501    0  0.00000000000E+00  0.00000000000E+00 -0.17152107433E+04  0.17152107433E+04  0.25500000920E-02 0.  1.
    10030    2    1    2    0    0  0.00000000000E+00  0.00000000000E+00  0.15414306804E+03  0.35845645547E+04  0.35812487991E+04 0.  0.
        5    1    3    3  502    0 -0.14492027134E+04 -0.63067655648E+03 -0.76535623684E+03  0.17560562869E+04  0.46999998093E+01 0.  1.
       -5    1    3    3    0  502  0.14492027134E+04  0.63067655648E+03  0.91949930489E+03  0.18285082678E+04  0.46999998093E+01 0. -1.
</event>
<event>
 5   0  0.2238968E-07  0.3611812E+04  0.7818609E-02  0.8087791E-01
       -2   -1    0    0    0  501  0.00000000000E+00  0.00000000000E+00  0.27293614649E+04  0.27293614649E+04  0.25500000920E-02 0.  1.
        2   -1    0    0  501    0  0.00000000000E+00  0.00000000000E+00 -0.11948933226E+04  0.11948933227E+04  0.25500000920E-02 0. -1.
    10030    2    1    2    0    0  0.00000000000E+00  0.00000000000E+00  0.15344681423E+04  0.39242547876E+04  0.36118116172E+04 0.  0.
        3    1    3    3  502    0 -0.15580890953E+04 -0.63024388803E+03  0.49443483589E+02  0.16814558143E+04  0.10100000352E+00 0. -1.
       -3    1    3    3    0  502  0.15580890953E+04  0.63024388803E+03  0.14850246587E+04  0.22427989732E+04  0.10100000352E+00 0.  1.
</event>
<event>
 5   0  0.7236375E-08  0.3605321E+04  0.7818609E-02  0.8089274E-01
        1   -1    0    0  501    0  0.00000000000E+00  0.00000000000E+00  0.19307894078E+04  0.19307894078E+04  0.50400001928E-02 0. -1.
       -1   -1    0    0    0  501  0.00000000000E+00  0.00000000000E+00 -0.16830343475E+04  0.16830343475E+04  0.50400001928E-02 0.  1.
    10030    2    1    2    0    0  0.00000000000E+00  0.00000000000E+00  0.24775506029E+03  0.36138237552E+04  0.36053210071E+04 0.  0.
        5    1    3    3  502    0 -0.12857908577E+04 -0.97786258990E+02 -0.11387529207E+04  0.17203489723E+04  0.46999998093E+01 0.  1.
       -5    1    3    3    0  502  0.12857908577E+04  0.97786258990E+02  0.13865079810E+04  0.18934747829E+04  0.46999998093E+01 0. -1.
</event>
<event>
 5   0  0.2198900E-07  0.3604210E+04  0.7818609E-02  0.8089528E-01
        2   -1    0    0  501    0  0.00000000000E+00  0.00000000000E+00  0.18857938333E+04  0.18857938333E+04  0.25500000920E-02 0. -1.
       -2   -1    0    0    0  501  0.00000000000E+00  0.00000000000E+00 -0.17221302463E+04  0.17221302463E+04  0.25500000920E-02 0.  1.
    10030    2    1    2    0    0  0.00000000000E+00  0.00000000000E+00  0.16366358699E+03  0.36079240796E+04  0.36042100930E+04 0.  0.
        2    1    3    3  502    0 -0.39288522169E+02 -0.98042372991E+03  0.15949476331E+04  0.18726003926E+04  0.25500000920E-02 0. -1.
       -2    1    3    3    0  502  0.39288522169E+02  0.98042372991E+03 -0.14312840461E+04  0.17353236870E+04  0.25500000920E-02 0.  1.
</event>
<event>
 5   0  0.7236375E-08  0.3595121E+04  0.7818609E-02  0.8091610E-01
       -1   -1    0    0    0  501  0.00000000000E+00  0.00000000000E+00  0.20348281775E+04  0.20348281775E+04  0.50400001928E-02 0.  1.
        1   -1    0    0  501    0  0.00000000000E+00  0.00000000000E+00 -0.15879590295E+04  0.15879590295E+04  0.50400001928E-02 0. -1.
    10030    2    1    2    0    0  0.00000000000E+00  0.00000000000E+00  0.44686914805E+03  0.36227872070E+04  0.35951210149E+04 0.  0.
        1    1    3    3  502    0 -0.11904805258E+04 -0.61144484471E+03  0.14327174789E+04  0.19605580978E+04  0.50400001928E-02 0.  1.
       -1    1    3    3    0  502  0.11904805258E+04  0.61144484471E+03 -0.98584833081E+03  0.16622291093E+04  0.50400001928E-02 0. -1.
</event>
<event>
 5   0  0.2199902E-07  0.3593735E+04  0.7818609E-02  0.8091928E-01
        2   -1    0    0  501    0  0.00000000000E+00  0.00000000000E+00  0.21878344320E+04  0.21878344320E+04  0.25500000920E-02 0. -1.
       -2   -1    0    0    0  501  0.00000000000E+00  0.00000000000E+00 -0.14757661621E+04  0.14757661621E+04  0.25500000920E-02 0.  1.
    10030    2    1    2    0    0  0.00000000000E+00  0.00000000000E+00  0.71206826990E+03  0.36636005941E+04  0.35937345606E+04 0.  0.
        1    1    3    3  502    0 -0.88690784702E+03 -0.78499602018E+03  0.17335656380E+04  0.20995414028E+04  0.50400001928E-02 0. -1.
       -1    1    3    3    0  502  0.88690784702E+03  0.78499602018E+03 -0.10214973681E+04  0.15640591913E+04  0.50400001928E-02 0.  1.
</event>
<event>
 5   0  0.7347303E-08  0.3483567E+04  0.7818609E-02  0.8117695E-01
       -1   -1    0    0    0  501  0.00000000000E+00  0.00000000000E+00  0.11027648859E+04  0.11027648859E+04  0.50400001928E-02 0.  1.
        1   -1    0    0  501    0  0.00000000000E+00  0.00000000000E+00 -0.27510944444E+04  0.27510944444E+04  0.50400001928E-02 0. -1.
    10030    2    1    2    0    0  0.00000000000E+00  0.00000000000E+00 -0.16483295585E+04  0.38538593303E+04  0.34835673388E+04 0.  0.
        2    1    3    3  502    0  0.86646326281E+03 -0.88249833609E+02  0.84457077998E+03  0.12131967777E+04  0.25500000920E-02 0.  1.
       -2    1    3    3    0  502 -0.86646326281E+03  0.88249833609E+02 -0.24929003385E+04  0.26406625526E+04  0.25500000920E-02 0. -1.
</event>
<event>
 5   0  0.7261233E-08  0.3604116E+04  0.7818609E-02  0.8089550E-01
       -1   -1    0    0    0  501  0.00000000000E+00  0.00000000000E+00  0.16593015924E+04  0.16593015924E+04  0.50400001928E-02 0.  1.
        1   -1    0    0  501    0  0.00000000000E+00  0.00000000000E+00 -0.19570962769E+04  0.19570962769E+04  0.50400001928E-02 0. -1.
    10030    2    1    2    0    0  0.00000000000E+00  0.00000000000E+00 -0.29779468443E+03  0.36163978693E+04  0.36041159630E+04 0.  0.
        3    1    3    3  502    0 -0.97963045663E+03  0.12613406755E+04 -0.98646146335E+03  0.18771687085E+04  0.10100000352E+00 0. -1.
       -3    1    3    3    0  502  0.97963045663E+03 -0.12613406755E+04  0.68866677892E+03  0.17392291608E+04  0.10100000352E+00 0.  1.
</event>
<event>
 5   0  0.7236375E-08  0.3600655E+04  0.7818609E-02  0.8090342E-01
        1   -1    0    0  501    0  0.00000000000E+00  0.00000000000E+00  0.14502022461E+04  0.14502022461E+04  0.50400001928E-02 0. -1.
       -1   -1    0    0    0  501  0.00000000000E+00  0.00000000000E+00 -0.22349843481E+04  0.22349843481E+04  0.50400001928E-02 0.  1.
    10030    2    1    2    0    0  0.00000000000E+00  0.00000000000E+00 -0.78478210208E+03  0.36851865942E+04  0.36006551191E+04 0.  0.
        5    1    3    3  502    0 -0.46271340338E+02  0.23418401464E+03  0.14339267661E+04  0.14536682050E+04  0.46999998093E+01 0. -1.
       -5    1    3    3    0  502  0.46271340338E+02 -0.23418401464E+03 -0.22187088682E+04  0.22315183892E+04  0.46999998093E+01 0.  1.
</event>
<event>
 5   0  0.7347303E-08  0.3552733E+04  0.7818609E-02  0.8101405E-01
        1   -1    0    0  501    0  0.00000000000E+00  0.00000000000E+00  0.21153426164E+04  0.21153426164E+04  0.50400001928E-02 0.  1.
       -1   -1    0    0    0  501  0.00000000000E+00  0.00000000000E+00 -0.14917096953E+04  0.14917096953E+04  0.50400001928E-02 0. -1.
    10030    2    1    2    0    0  0.00000000000E+00  0.00000000000E+00  0.62363292116E+03  0.36070523117E+04  0.35527325201E+04 0.  0.
        2    1    3    3  502    0 -0.92986979119E+03  0.10010419487E+04  0.14643978944E+04  0.20027990425E+04  0.25500000920E-02 0.  1.
       -2    1    3    3    0  502  0.92986979119E+03 -0.10010419487E+04 -0.84076497322E+03  0.16042532692E+04  0.25500000920E-02 0. -1.
</event>
<event>
 5   0  0.2309391E-07  0.3577373E+04  0.7818609E-02  0.8095694E-01
       -2   -1    0    0    0  501  0.00000000000E+00  0.00000000000E+00  0.10686357815E+04  0.10686357815E+04  0.25500000920E-02 0. -1.
        2   -1    0    0  501    0  0.00000000000E+00  0.00000000000E+00 -0.29939101996E+04  0.29939101996E+04  0.25500000920E-02 0.  1.
    10030    2    1    2    0    0  0.00000000000E+00  0.00000000000E+00 -0.19252744181E+04  0.40625459810E+04  0.35773730953E+04 0.  0.
        4    1    3    3  502    0 -0.11391497878E+04 -0.50958977928E+01  0.60341475705E+03  0.12891079044E+04  0.12699999809E+01 0. -1.
       -4    1    3    3    0  502  0.11391497878E+04  0.50958977928E+01 -0.25286891752E+04  0.27734380766E+04  0.12699999809E+01 0.  1.
</event>
<event>
 5   0  0.7514289E-08  0.3599160E+04  0.7818609E-02  0.8090684E-01
       -1   -1    0    0    0  501  0.00000000000E+00  0.00000000000E+00  0.15333971593E+04  0.15333971593E+04  0.50400001928E-02 0. -1.
        1   -1    0    0  501    0  0.00000000000E+00  0.00000000000E+00 -0.21119696111E+04  0.21119696111E+04  0.50400001928E-02 0.  1.
    10030    2    1    2    0    0  0.00000000000E+00  0.00000000000E+00 -0.57857245184E+03  0.36453667705E+04  0.35991600144E+04 0.  0.
        4    1    3    3  502    0  0.12530273693E+04 -0.30484199790E+00 -0.15975379783E+04  0.20303218676E+04  0.12699999809E+01 0.  1.
       -4    1    3    3    0  502 -0.12530273693E+04  0.30484199790E+00  0.10189655264E+04  0.16150449028E+04  0.12699999809E+01 0. -1.
</event>
<event>
 5   0  0.7236375E-08  0.3592242E+04  0.7818609E-02  0.8092271E-01
       -1   -1    0    0    0  501  0.00000000000E+00  0.00000000000E+00  0.19214898840E+04  0.19214898840E+04  0.50400001928E-02 0. -1.
        1   -1    0    0  501    0  0.00000000000E+00  0.00000000000E+00 -0.16789319714E+04  0.16789319714E+04  0.50400001928E-02 0.  1.
    10030    2    1    2    0    0  0.00000000000E+00  0.00000000000E+00  0.24255791254E+03  0.36004218554E+04  0.35922420848E+04 0.  0.
        5    1    3    3  502    0  0.55367782220E+02 -0.46053948219E+03 -0.16178570347E+04  0.16830465474E+04  0.46999998093E+01 0.  1.
       -5    1    3    3    0  502 -0.55367782220E+02  0.46053948219E+03  0.18604149472E+04  0.19173753080E+04  0.46999998093E+01 0. -1.
</event>
<event>
 5   0  0.7347303E-08  0.3611862E+04  0.7818609E-02  0.8087780E-01
        1   -1    0    0  501    0  0.00000000000E+00  0.00000000000E+00  0.10264373253E+04  0.10264373253E+04  0.50400001928E-02 0. -1.
       -1   -1    0    0    0  501  0.00000000000E+00  0.00000000000E+00 -0.31773847639E+04  0.31773847639E+04  0.50400001928E-02 0.  1.
    10030    2    1    2    0    0  0.00000000000E+00  0.00000000000E+00 -0.21509474386E+04  0.42038220893E+04  0.36118617463E+04 0.  0.
        2    1    3    3  502    0 -0.51811386262E+03  0.10033674872E+04  0.56483080613E+03  0.12626250942E+04  0.25500000920E-02 0. -1.
       -2    1    3    3    0  502  0.51811386262E+03 -0.10033674872E+04 -0.27157782448E+04  0.29411969951E+04  0.25500000920E-02 0.  1.
</event>
<event>
 5   0  0.2199902E-07  0.3603371E+04  0.7818609E-02  0.8089720E-01
        2   -1    0    0  501    0  0.00000000000E+00  0.00000000000E+00  0.28793144443E+04  0.28793144444E+04  0.25500000920E-02 0.  1.
       -2   -1    0    0    0  501  0.00000000000E+00  0.00000000000E+00 -0.11273765166E+04  0.11273765166E+04  0.25500000920E-02 0. -1.
    10030    2    1    2    0    0  0.00000000000E+00  0.00000000000E+00  0.17519379277E+04  0.40066909610E+04  0.36033714705E+04 0.  0.
        1    1    3    3  502    0  0.14419210228E+04 -0.22718444873E+03  0.20502634947E+04  0.25168093705E+04  0.50400001928E-02 0.  1.
       -1    1    3    3    0  502 -0.14419210228E+04  0.22718444873E+03 -0.29832556700E+03  0.14898815905E+04  0.50400001928E-02 0. -1.
</event>
<event>
 5   0  0.2238968E-07  0.3604394E+04  0.7818609E-02  0.8089486E-01
       -2   -1    0    0    0  501  0.00000000000E+00  0.00000000000E+00  0.22813156121E+04  0.22813156121E+04  0.25500000920E-02 0. -1.
        2   -1    0    0  501    0  0.00000000000E+00  0.00000000000E+00 -0.14237022515E+04  0.14237022515E+04  0.25500000920E-02 0.  1.
    10030    2    1    2    0    0  0.00000000000E+00  0.00000000000E+00  0.85761336066E+03  0.37050178636E+04  0.36043940813E+04 0.  0.
        3    1    3    3  502    0 -0.10144628520E+03 -0.13611206078E+04  0.16385097177E+04  0.21325230979E+04  0.10100000352E+00 0. -1.
       -3    1    3    3    0  502  0.10144628520E+03  0.13611206078E+04 -0.78089635706E+03  0.15724947658E+04  0.10100000352E+00 0.  1.
</event>
<event>
 5   0  0.2238968E-07  0.3565067E+04  0.7818609E-02  0.8098541E-01
       -2   -1    0    0    0  501  0.00000000000E+00  0.00000000000E+00  0.21425655813E+04  0.21425655813E+04  0.25500000920E-02 0.  1.
        2   -1    0    0  501    0  0.00000000000E+00  0.00000000000E+00 -0.14830003694E+04  0.14830003694E+04  0.25500000920E-02 0. -1.
    10030    2    1    2    0    0  0.00000000000E+00  0.00000000000E+00  0.65956521188E+03  0.36255659507E+04  0.35650669271E+04 0.  0.
        3    1    3    3  502    0 -0.43452251010E+03 -0.17087198992E+04  0.59670967771E+03  0.18613425142E+04  0.10100000352E+00 0. -1.
       -3    1    3    3    0  502  0.43452251010E+03  0.17087198992E+04  0.62855534166E+02  0.17642234365E+04  0.10100000352E+00 0.  1.
</event>
<event>
 5   0  0.7514289E-08  0.3601222E+04  0.7818609E-02  0.8090212E-01
        1   -1    0    0  501    0  0.00000000000E+00  0.00000000000E+00  0.16597620852E+04  0.16597620852E+04  0.50400001928E-02 0. -1.
       -1   -1    0    0    0  501  0.00000000000E+00  0.00000000000E+00 -0.19534120198E+04  0.19534120198E+04  0.50400001928E-02 0.  1.
    10030    2    1    2    0    0  0.00000000000E+00  0.00000000000E+00 -0.29364993456E+03  0.36131741050E+04  0.36012215745E+04 0.  0.
        4    1    3    3  502    0  0.10528934895E+04  0.14444033183E+04 -0.36505999691E+03  0.18243234528E+04  0.12699999809E+01 0. -1.
       -4    1    3    3    0  502 -0.10528934895E+04 -0.14444033183E+04  0.71410062352E+02  0.17888506522E+04  0.12699999809E+01 0.  1.
</event>
<event>
 5   0  0.2199902E-07  0.3615216E+04  0.7818609E-02  0.8087015E-01
       -2   -1    0    0    0  501  0.00000000000E+00  0.00000000000E+00  0.20120903592E+04  0.20120903592E+04  0.25500000920E-02 0. -1.
        2   -1    0    0  501    0  0.00000000000E+00  0.00000000000E+00 -0.16239066026E+04  0.16239066026E+04  0.25500000920E-02 0.  1.
    10030    2    1    2    0    0  0.00000000000E+00  0.00000000000E+00  0.38818375659E+03  0.36359969618E+04  0.36152160761E+04 0.  0.
        1    1    3    3  502    0  0.48641634571E+03 -0.15148580730E+04 -0.66877380814E+03  0.17258778199E+04  0.50400001928E-02 0.  1.
       -1    1    3    3    0  502 -0.48641634571E+03  0.15148580730E+04  0.10569575647E+04  0.19101191419E+04  0.50400001928E-02 0. -1.
</event>
<event>
 5   0  0.7347303E-08  0.3595139E+04  0.7818609E-02  0.8091606E-01
       -1   -1    0    0    0  501  0.00000000000E+00  0.00000000000E+00  0.94815958703E+03  0.94815958704E+03  0.50400001928E-02 0. -1.
        1   -1    0    0  501    0  0.00000000000E+00  0.00000000000E+00 -0.34079238919E+04  0.34079238919E+04  0.50400001928E-02 0.  1.
    10030    2    1    2    0    0  0.00000000000E+00  0.00000000000E+00 -0.24597643048E+04  0.43560834789E+04  0.35951387789E+04 0.  0.
        2    1    3    3  502    0  0.19014556000E+03 -0.17812667010E+04 -0.14103718799E+04  0.22799594807E+04  0.25500000920E-02 0.  1.
       -2    1    3    3    0  502 -0.19014556000E+03  0.17812667010E+04 -0.10493924249E+04  0.20761239982E+04  0.25500000920E-02 0. -1.
</event>
<event>
 5   0  0.7261233E-08  0.3387548E+04  0.7818609E-02  0.8140969E-01
       -1   -1    0    0    0  501  0.00000000000E+00  0.00000000000E+00  0.12723962250E+04  0.12723962250E+04  0.50400001928E-02 0. -1.
        1   -1    0    0  501    0  0.00000000000E+00  0.00000000000E+00 -0.22546989787E+04  0.22546989787E+04  0.50400001928E-02 0.  1.
    10030    2    1    2    0    0  0.00000000000E+00  0.00000000000E+00 -0.98230275377E+03  0.35270952037E+04  0.33875480625E+04 0.  0.
        3    1    3    3  502    0 -0.14132002121E+03 -0.83990462701E+03  0.10332149274E+04  0.13390086734E+04  0.10100000352E+00 0. -1.
       -3    1    3    3    0  502  0.14132002121E+03  0.83990462701E+03 -0.20155176812E+04  0.21880865303E+04  0.10100000352E+00 0.  1.
</event>
<event>
 5   0  0.7236375E-08  0.3602584E+04  0.7818609E-02  0.8089900E-01
        1   -1    0    0  501    0  0.00000000000E+00  0.00000000000E+00  0.19306170221E+04  0.19306170221E+04  0.50400001928E-02 0.  1.
       -1   -1    0    0    0  501  0.00000000000E+00  0.00000000000E+00 -0.16806301125E+04  0.16806301125E+04  0.50400001928E-02 0. -1.
    10030    2    1    2    0    0  0.00000000000E+00  0.00000000000E+00  0.24998690964E+03  0.36112471346E+04  0.36025841298E+04 0.  0.
        5    1    3    3  502    0  0.59705688342E+03 -0.92111442439E+03 -0.13066223109E+04  0.17065206293E+04  0.46999998093E+01 0. -1.
       -5    1    3    3    0  502 -0.59705688342E+03  0.92111442439E+03  0.15566092205E+04  0.19047265054E+04  0.46999998093E+01 0.  1.
</event>
<event>
 5   0  0.2198900E-07  0.3578424E+04  0.7818609E-02  0.8095452E-01
       -2   -1    0    0    0  501  0.00000000000E+00  0.00000000000E+00  0.14045593472E+04  0.14045593472E+04  0.25500000920E-02 0.  1.
        2   -1    0    0  501    0  0.00000000000E+00  0.00000000000E+00 -0.22792050094E+04  0.22792050094E+04  0.25500000920E-02 0. -1.
    10030    2    1    2    0    0  0.00000000000E+00  0.00000000000E+00 -0.87464566223E+03  0.36837643566E+04  0.35784235077E+04 0.  0.
        2    1    3    3  502    0  0.11844026948E+04  0.35703977466E+03 -0.17680445064E+04  0.21578388542E+04  0.25500000920E-02 0. -1.
       -2    1    3    3    0  502 -0.11844026948E+04 -0.35703977466E+03  0.89339884413E+03  0.15259255024E+04  0.25500000920E-02 0.  1.
</event>
<event>
 5   0  0.2199902E-07  0.3599301E+04  0.7818609E-02  0.8090652E-01
       -2   -1    0    0    0  501  0.00000000000E+00  0.00000000000E+00  0.17520120055E+04  0.17520120055E+04  0.25500000920E-02 0.  1.
        2   -1    0    0  501    0  0.00000000000E+00  0.00000000000E+00 -0.18485840397E+04  0.18485840397E+04  0.25500000920E-02 0. -1.
    10030    2    1    2    0    0  0.00000000000E+00  0.00000000000E+00 -0.96572034201E+02  0.36005960452E+04  0.35993007270E+04 0.  0.
        1    1    3    3  502    0 -0.17362730607E+04  0.23948410859E+03 -0.45677676263E+03  0.18112542037E+04  0.50400001928E-02 0.  1.
       -1    1    3    3    0  502  0.17362730607E+04 -0.23948410859E+03  0.36020472843E+03  0.17893418415E+04  0.50400001928E-02 0. -1.
</event>
<event>
 5   0  0.2238968E-07  0.3599807E+04  0.7818609E-02  0.8090536E-01
        2   -1    0    0  501    0  0.00000000000E+00  0.00000000000E+00  0.22987750767E+04  0.22987750767E+04  0.25500000920E-02 0.  1.
       -2   -1    0    0    0  501  0.00000000000E+00  0.00000000000E+00 -0.14092954312E+04  0.14092954312E+04  0.25500000920E-02 0. -1.
    10030    2    1    2    0    0  0.00000000000E+00  0.00000000000E+00  0.88947964547E+03  0.37080705078E+04  0.35998073353E+04 0.  0.
        3    1    3    3  502    0  0.59160149541E+03  0.10675070047E+04 -0.91795584869E+03  0.15271563394E+04  0.10100000352E+00 0. -1.
       -3    1    3    3    0  502 -0.59160149541E+03 -0.10675070047E+04  0.18074354942E+04  0.21809141685E+04  0.10100000352E+00 0.  1.
</event>
<event>
 5   0  0.7236375E-08  0.3602864E+04  0.7818609E-02  0.8089836E-01
       -4   -1    0    0    0  501  0.00000000000E+00  0.00000000000E+00  0.19796505081E+04  0.19796509155E+04  0.12699999809E+01 0. -1.
        4   -1    0    0  501    0  0.00000000000E+00  0.00000000000E+00 -0.16392569027E+04  0.16392573946E+04  0.12699999809E+01 0.  1.
    10030    2    1    2    0    0  0.00000000000E+00  0.00000000000E+00  0.34039360542E+03  0.36189083101E+04  0.36028640760E+04 0.  0.
        3    1    3    3  502    0 -0.15105000577E+04 -0.47273772986E+03  0.10342986341E+04  0.18907313560E+04  0.10100000352E+00 0. -1.
       -3    1    3    3    0  502  0.15105000577E+04  0.47273772986E+03 -0.69390502869E+03  0.17281769541E+04  0.10100000352E+00 0.  1.
</event>
<event>
 5   0  0.2309391E-07  0.3613684E+04  0.7818609E-02  0.8087364E-01
        2   -1    0    0  501    0  0.00000000000E+00  0.00000000000E+00  0.29933809199E+04  0.29933809199E+04  0.25500000920E-02 0.  1.
       -2   -1    0    0    0  501  0.00000000000E+00  0.00000000000E+00 -0.10906324640E+04  0.10906324640E+04  0.25500000920E-02 0. -1.
    10030    2    1    2    0    0  0.00000000000E+00  0.00000000000E+00  0.19027484559E+04  0.40840133839E+04  0.36136842188E+04 0.  0.
        4    1    3    3  502    0  0.16444358057E+03 -0.15105798544E+04  0.20562583855E+04  0.25567740120E+04  0.12699999809E+01 0.  1.
       -4    1    3    3    0  502 -0.16444358057E+03  0.15105798544E+04 -0.15350992955E+03  0.15272393719E+04  0.12699999809E+01 0. -1.
</event>
<event>
 5   0  0.2199902E-07  0.3603433E+04  0.7818609E-02  0.8089706E-01
       -2   -1    0    0    0  501  0.00000000000E+00  0.00000000000E+00  0.17132183279E+04  0.17132183279E+04  0.25500000920E-02 0.  1.
        2   -1    0    0  501    0  0.00000000000E+00  0.00000000000E+00 -0.18947865581E+04  0.18947865581E+04  0.25500000920E-02 0. -1.
    10030    2    1    2    0    0  0.00000000000E+00  0.00000000000E+00 -0.18156823025E+03  0.36080048860E+04  0.36034333954E+04 0.  0.
        1    1    3    3  502    0  0.88104455573E+03  0.48435100529E+03  0.14062205583E+04  0.17286675979E+04  0.50400001928E-02 0.  1.
       -1    1    3    3    0  502 -0.88104455573E+03 -0.48435100529E+03 -0.15877887885E+04  0.18793372881E+04  0.50400001928E-02 0. -1.
</event>
<event>
 5   0  0.7236375E-08  0.3608098E+04  0.7818609E-02  0.8088639E-01
       -1   -1    0    0    0  501  0.00000000000E+00  0.00000000000E+00  0.24321034164E+04  0.24321034164E+04  0.50400001928E-02 0.  1.
        1   -1    0    0  501    0  0.00000000000E+00  0.00000000000E+00 -0.13381805021E+04  0.13381805021E+04  0.50400001928E-02 0. -1.
    10030    2    1    2    0    0  0.00000000000E+00  0.00000000000E+00  0.10939229143E+04  0.37702839186E+04  0.36080983196E+04 0.  0.
        1    1    3    3  502    0  0.33508668948E+03 -0.54492661222E+03  0.23096058561E+04  0.23965615604E+04  0.50400001928E-02 0.  1.
       -1    1    3    3    0  502 -0.33508668948E+03  0.54492661222E+03 -0.12156829418E+04  0.13737223581E+04  0.50400001928E-02 0. -1.
</event>
<event>
 5   0  0.7236375E-08  0.3651669E+04  0.7818609E-02  0.8078758E-01
        1   -1    0    0  501    0  0.00000000000E+00  0.00000000000E+00  0.17428070213E+04  0.17428070213E+04  0.50400001928E-02 0.  1.
       -1   -1    0    0    0  501  0.00000000000E+00  0.00000000000E+00 -0.19128171398E+04  0.19128171398E+04  0.50400001928E-02 0. -1.
    10030    2    1    2    0    0  0.00000000000E+00  0.00000000000E+00 -0.17001011847E+03  0.36556241611E+04  0.36516687372E+04 0.  0.
        5    1    3    3  502    0 -0.57670208035E+03  0.11549841761E+04 -0.13775563212E+04  0.18879240569E+04  0.46999998093E+01 0. -1.
       -5    1    3    3    0  502  0.57670208035E+03 -0.11549841761E+04  0.12075462028E+04  0.17677001042E+04  0.46999998093E+01 0.  1.
</event>
<event>
 5   0  0.2342606E-07  0.3606654E+04  0.7818609E-02  0.8088969E-01
        2   -1    0    0  501    0  0.00000000000E+00  0.00000000000E+00  0.24829649399E+04  0.24829649399E+04  0.25500000920E-02 0.  1.
       -2   -1    0    0    0  501  0.00000000000E+00  0.00000000000E+00 -0.13097196485E+04  0.13097196485E+04  0.25500000920E-02 0. -1.
    10030    2    1    2    0    0  0.00000000000E+00  0.00000000000E+00  0.11732452914E+04  0.37926845884E+04  0.36066538333E+04 0.  0.
        5    1    3    3  502    0 -0.16613143509E+04  0.35591333598E+03 -0.48975582282E+02  0.16997236166E+04  0.46999998093E+01 0.  1.
       -5    1    3    3    0  502  0.16613143509E+04 -0.35591333598E+03  0.12222208737E+04  0.20929609718E+04  0.46999998093E+01 0. -1.
</event>
<event>
 5   0  0.2342606E-07  0.3595727E+04  0.7818609E-02  0.8091471E-01
       -2   -1    0    0    0  501  0.00000000000E+00  0.00000000000E+00  0.13910016312E+04  0.13910016312E+04  0.25500000920E-02 0. -1.
        2   -1    0    0  501    0  0.00000000000E+00  0.00000000000E+00 -0.23237312796E+04  0.23237312796E+04  0.25500000920E-02 0.  1.
    10030    2    1    2    0    0  0.00000000000E+00  0.00000000000E+00 -0.93272964846E+03  0.37147329108E+04  0.35957274648E+04 0.  0.
        5    1    3    3  502    0  0.72542819921E+02  0.41464499121E+03 -0.22720975494E+04  0.23107666030E+04  0.46999998093E+01 0.  1.
       -5    1    3    3    0  502 -0.72542819921E+02 -0.41464499121E+03  0.13393679009E+04  0.14039663078E+04  0.46999998093E+01 0. -1.
</event>
<event>
 5   0  0.2342606E-07  0.3604169E+04  0.7818609E-02  0.8089537E-01
        2   -1    0    0  501    0  0.00000000000E+00  0.00000000000E+00  0.21486456320E+04  0.21486456320E+04  0.25500000920E-02 0.  1.
       -2   -1    0    0    0  501  0.00000000000E+00  0.00000000000E+00 -0.15114212744E+04  0.15114212744E+04  0.25500000920E-02 0. -1.
    10030    2    1    2    0    0  0.00000000000E+00  0.00000000000E+00  0.63722435762E+03  0.36600669064E+04  0.36041690967E+04 0.  0.
        5    1    3    3  502    0 -0.15995406978E+04  0.17580214591E+03  0.11423959721E+04  0.19734557217E+04  0.46999998093E+01 0.  1.
       -5    1    3    3    0  502  0.15995406978E+04 -0.17580214591E+03 -0.50517161448E+03  0.16866111847E+04  0.46999998093E+01 0. -1.
</event>
<event>
 5   0  0.2309391E-07  0.3590392E+04  0.7818609E-02  0.8092696E-01
        2   -1    0    0  501    0  0.00000000000E+00  0.00000000000E+00  0.19339210630E+04  0.19339210630E+04  0.25500000920E-02 0. -1.
       -2   -1    0    0    0  501  0.00000000000E+00  0.00000000000E+00 -0.16664218066E+04  0.16664218066E+04  0.25500000920E-02 0.  1.
    10030    2    1    2    0    0  0.00000000000E+00  0.00000000000E+00  0.26749925647E+03  0.36003428696E+04  0.35903917511E+04 0.  0.
        4    1    3    3  502    0 -0.17249167942E+04  0.50473812633E+02 -0.36243597042E+03  0.17633057019E+04  0.12699999809E+01 0. -1.
       -4    1    3    3    0  502  0.17249167942E+04 -0.50473812633E+02  0.62993522689E+03  0.18370371677E+04  0.12699999809E+01 0.  1.
</event>
<event>
 5   0  0.2309391E-07  0.3600372E+04  0.7818609E-02  0.8090407E-01
        2   -1    0    0  501    0  0.00000000000E+00  0.00000000000E+00  0.18987437639E+04  0.18987437639E+04  0.25500000920E-02 0. -1.
       -2   -1    0    0    0  501  0.00000000000E+00  0.00000000000E+00 -0.17067436026E+04  0.17067436026E+04  0.25500000920E-02 0.  1.
    10030    2    1    2    0    0  0.00000000000E+00  0.00000000000E+00  0.19200016133E+03  0.36054873664E+04  0.36003715208E+04 0.  0.
        4    1    3    3  502    0 -0.60625920289E+03  0.99994587265E+02  0.17904794502E+04  0.18929784502E+04  0.12699999809E+01 0. -1.
       -4    1    3    3    0  502  0.60625920289E+03 -0.99994587265E+02 -0.15984792888E+04  0.17125089163E+04  0.12699999809E+01 0.  1.
</event>
<event>
 5   0  0.7236375E-08  0.3602999E+04  0.7818609E-02  0.8089805E-01
        1   -1    0    0  501    0  0.00000000000E+00  0.00000000000E+00  0.23403596857E+04  0.23403596857E+04  0.50400001928E-02 0. -1.
       -1   -1    0    0    0  501  0.00000000000E+00  0.00000000000E+00 -0.13867104781E+04  0.13867104781E+04  0.50400001928E-02 0.  1.
    10030    2    1    2    0    0  0.00000000000E+00  0.00000000000E+00  0.95364920760E+03  0.37270701639E+04  0.36029994720E+04 0.  0.
        5    1    3    3  502    0  0.64550572659E+03  0.15677454090E+04  0.11067914235E+04  0.20247253284E+04  0.46999998093E+01 0. -1.
       -5    1    3    3    0  502 -0.64550572659E+03 -0.15677454090E+04 -0.15314221591E+03  0.17023448354E+04  0.46999998093E+01 0.  1.
</event>
<event>
 5   0  0.2238968E-07  0.3586652E+04  0.7818609E-02  0.8093556E-01
       -2   -1    0    0    0  501  0.00000000000E+00  0.00000000000E+00  0.19354857061E+04  0.19354857061E+04  0.25500000920E-02 0. -1.
        2   -1    0    0  501    0  0.00000000000E+00  0.00000000000E+00 -0.16616075416E+04  0.16616075416E+04  0.25500000920E-02 0.  1.
    10030    2    1    2    0    0  0.00000000000E+00  0.00000000000E+00  0.27387816444E+03  0.35970932477E+04  0.35866517232E+04 0.  0.
        3    1    3    3  502    0  0.11435125851E+04  0.84633810327E+02 -0.12459273777E+04  0.16932569075E+04  0.10100000352E+00 0.  1.
       -3    1    3    3    0  502 -0.11435125851E+04 -0.84633810327E+02  0.15198055421E+04  0.19038363402E+04  0.10100000352E+00 0. -1.
</event>
<event>
 5   0  0.2198900E-07  0.3585587E+04  0.7818609E-02  0.8093801E-01
       -2   -1    0    0    0  501  0.00000000000E+00  0.00000000000E+00  0.13636490345E+04  0.13636490345E+04  0.25500000920E-02 0.  1.
        2   -1    0    0  501    0  0.00000000000E+00  0.00000000000E+00 -0.23569904340E+04  0.23569904340E+04  0.25500000920E-02 0. -1.
    10030    2    1    2    0    0  0.00000000000E+00  0.00000000000E+00 -0.99334139951E+03  0.37206394685E+04  0.35855865515E+04 0.  0.
        2    1    3    3  502    0  0.22540039584E+03  0.10651353638E+03  0.13455749440E+04  0.13684744798E+04  0.25500000920E-02 0.  1.
       -2    1    3    3    0  502 -0.22540039584E+03 -0.10651353638E+03 -0.23389163435E+04  0.23521649887E+04  0.25500000920E-02 0. -1.
</event>
<event>
 5   0  0.7261233E-08  0.3597365E+04  0.7818609E-02  0.8091095E-01
       -1   -1    0    0    0  501  0.00000000000E+00  0.00000000000E+00  0.26804511551E+04  0.26804511551E+04  0.50400001928E-02 0.  1.
        1   -1    0    0  501    0  0.00000000000E+00  0.00000000000E+00 -0.12069830193E+04  0.12069830193E+04  0.50400001928E-02 0. -1.
    10030    2    1    2    0    0  0.00000000000E+00  0.00000000000E+00  0.14734681358E+04  0.38874341745E+04  0.35973651627E+04 0.  0.
        3    1    3    3  502    0 -0.53837406033E+03 -0.82457196291E+03 -0.88978789062E+03  0.13272106281E+04  0.10100000352E+00 0. -1.
       -3    1    3    3    0  502  0.53837406033E+03  0.82457196291E+03  0.23632560264E+04  0.25602235464E+04  0.10100000352E+00 0.  1.
</event>
<event>
 5   0  0.2342606E-07  0.3599373E+04  0.7818609E-02  0.8090635E-01
        2   -1    0    0  501    0  0.00000000000E+00  0.00000000000E+00  0.21849825976E+04  0.21849825976E+04  0.25500000920E-02 0. -1.
       -2   -1    0    0    0  501  0.00000000000E+00  0.00000000000E+00 -0.14823328993E+04  0.14823328993E+04  0.25500000920E-02 0.  1.
    10030    2    1    2    0    0  0.00000000000E+00  0.00000000000E+00  0.70264969829E+03  0.36673154968E+04  0.35993730502E+04 0.  0.
        5    1    3    3  502    0  0.12556658602E+04  0.63418066489E+03  0.14949958442E+04  0.20527826315E+04  0.46999998093E+01 0. -1.
       -5    1    3    3    0  502 -0.12556658602E+04 -0.63418066489E+03 -0.79234614594E+03  0.16145328653E+04  0.46999998093E+01 0.  1.
</event>
<event>
 5   0  0.2198900E-07  0.3609034E+04  0.7818609E-02  0.8088425E-01
        2   -1    0    0  501    0  0.00000000000E+00  0.00000000000E+00  0.19386683430E+04  0.19386683430E+04  0.25500000920E-02 0. -1.
       -2   -1    0    0    0  501  0.00000000000E+00  0.00000000000E+00 -0.16796485996E+04  0.16796485996E+04  0.25500000920E-02 0.  1.
    10030    2    1    2    0    0  0.00000000000E+00  0.00000000000E+00  0.25901974337E+03  0.36183169426E+04  0.36090339801E+04 0.  0.
        2    1    3    3  502    0  0.77484147837E+03  0.13024492373E+04 -0.85256480817E+03  0.17388559700E+04  0.25500000920E-02 0.  1.
       -2    1    3    3    0  502 -0.77484147837E+03 -0.13024492373E+04  0.11115845515E+04  0.18794609726E+04  0.25500000920E-02 0. -1.
</event>
<event>
 5   0  0.7236375E-08  0.3603979E+04  0.7818609E-02  0.8089581E-01
       -1   -1    0    0    0  501  0.00000000000E+00  0.00000000000E+00  0.15990358323E+04  0.15990358323E+04  0.50400001928E-02 0.  1.
        1   -1    0    0  501    0  0.00000000000E+00  0.00000000000E+00 -0.20307030775E+04  0.20307030775E+04  0.50400001928E-02 0. -1.
    10030    2    1    2    0    0  0.00000000000E+00  0.00000000000E+00 -0.43166724518E+03  0.36297389099E+04  0.36039794593E+04 0.  0.
        1    1    3    3  502    0 -0.15854643901E+04  0.82254671718E+03  0.24380139092E+02  0.17863019972E+04  0.50400001928E-02 0.  1.
       -1    1    3    3    0  502  0.15854643901E+04 -0.82254671718E+03 -0.45604738427E+03  0.18434369126E+04  0.50400001928E-02 0. -1.
</event>
<event>
 5   0  0.2342606E-07  0.3390552E+04  0.7818609E-02  0.8140229E-01
       -2   -1    0    0    0  501  0.00000000000E+00  0.00000000000E+00  0.19139007593E+04  0.19139007593E+04  0.25500000920E-02 0. -1.
        2   -1    0    0  501    0  0.00000000000E+00  0.00000000000E+00 -0.15016250386E+04  0.15016250386E+04  0.25500000920E-02 0.  1.
    10030    2    1    2    0    0  0.00000000000E+00  0.00000000000E+00  0.41227572072E+03  0.34155257980E+04  0.33905523454E+04 0.  0.
        5    1    3    3  502    0  0.42023319565E+03  0.14094903166E+04  0.10553657746E+04  0.18102701178E+04  0.46999998093E+01 0. -1.
       -5    1    3    3    0  502 -0.42023319565E+03 -0.14094903166E+04 -0.64309005386E+03  0.16052556802E+04  0.46999998093E+01 0.  1.
</event>
<event>
 5   0  0.2342606E-07  0.3604635E+04  0.7818609E-02  0.8089431E-01
       -2   -1    0    0    0  501  0.00000000000E+00  0.00000000000E+00  0.16037919778E+04  0.16037919778E+04  0.25500000920E-02 0.  1.
        2   -1    0    0  501    0  0.00000000000E+00  0.00000000000E+00 -0.20254174792E+04  0.20254174792E+04  0.25500000920E-02 0. -1.
    10030    2    1    2    0    0  0.00000000000E+00  0.00000000000E+00 -0.42162550136E+03  0.36292094571E+04  0.36046349635E+04 0.  0.
        5    1    3    3  502    0 -0.46416422036E+03 -0.16455920864E+04  0.36307716136E+03  0.17479327371E+04  0.46999998093E+01 0.  1.
       -5    1    3    3    0  502  0.46416422036E+03  0.16455920864E+04 -0.78470266272E+03  0.18812767200E+04  0.46999998093E+01 0. -1.
</event>
<event>
 5   0  0.2238968E-07  0.3513948E+04  0.7818609E-02  0.8110492E-01
       -2   -1    0    0    0  501  0.00000000000E+00  0.00000000000E+00  0.20618959637E+04  0.20618959637E+04  0.25500000920E-02 0. -1.
        2   -1    0    0  501    0  0.00000000000E+00  0.00000000000E+00 -0.14971452035E+04  0.14971452035E+04  0.25500000920E-02 0.  1.
    10030    2    1    2    0    0  0.00000000000E+00  0.00000000000E+00  0.56475076020E+03  0.35590411672E+04  0.35139480088E+04 0.  0.
        3    1    3    3  502    0  0.16645691214E+04 -0.45192193876E+03  0.62123388297E+03  0.18332908515E+04  0.10100000352E+00 0. -1.
       -3    1    3    3    0  502 -0.16645691214E+04  0.45192193876E+03 -0.56483122774E+02  0.17257503157E+04  0.10100000352E+00 0.  1.
</event>
<event>
 5   0  0.7347303E-08  0.3601939E+04  0.7818609E-02  0.8090048E-01
       -1   -1    0    0    0  501  0.00000000000E+00  0.00000000000E+00  0.14309812697E+04  0.14309812697E+04  0.50400001928E-02 0.  1.
        1   -1    0    0  501    0  0.00000000000E+00  0.00000000000E+00 -0.22666197646E+04  0.22666197646E+04  0.50400001928E-02 0. -1.
    10030    2    1    2    0    0  0.00000000000E+00  0.00000000000E+00 -0.83563849494E+03  0.36976010343E+04  0.36019386050E+04 0.  0.
        2    1    3    3  502    0  0.76227812942E+03  0.96192303690E+03  0.93518597524E+03  0.15430284132E+04  0.25500000920E-02 0.  1.
       -2    1    3    3    0  502 -0.76227812942E+03 -0.96192303690E+03 -0.17708244702E+04  0.21545726211E+04  0.25500000920E-02 0. -1.
</event>
<event>
 5   0  0.7236375E-08  0.3586296E+04  0.7818609E-02  0.8093638E-01
       -1   -1    0    0    0  501  0.00000000000E+00  0.00000000000E+00  0.32341839152E+04  0.32341839152E+04  0.50400001928E-02 0.  1.
        1   -1    0    0  501    0  0.00000000000E+00  0.00000000000E+00 -0.99418559162E+03  0.99418559164E+03  0.50400001928E-02 0. -1.
    10030    2    1    2    0    0  0.00000000000E+00  0.00000000000E+00  0.22399983236E+04  0.42283695069E+04  0.35862956093E+04 0.  0.
        5    1    3    3  502    0 -0.32606272404E+03 -0.53717413022E+03  0.31001062068E+04  0.31631556284E+04  0.46999998093E+01 0.  1.
       -5    1    3    3    0  502  0.32606272404E+03  0.53717413022E+03 -0.86010788317E+03  0.10652138785E+04  0.46999998093E+01 0. -1.
</event>
<event>
 5   0  0.2198900E-07  0.3608184E+04  0.7818609E-02  0.8088620E-01
        2   -1    0    0  501    0  0.00000000000E+00  0.00000000000E+00  0.23168375248E+04  0.23168375248E+04  0.25500000920E-02 0. -1.
       -2   -1    0    0    0  501  0.00000000000E+00  0.00000000000E+00 -0.14048236352E+04  0.14048236352E+04  0.25500000920E-02 0.  1.
    10030    2    1    2    0    0  0.00000000000E+00  0.00000000000E+00  0.91201388961E+03  0.37216611601E+04  0.36081840939E+04 0.  0.
        2    1    3    3  502    0 -0.31526685715E+03  0.11405423384E+04 -0.94862868435E+03  0.15166167603E+04  0.25500000920E-02 0.  1.
       -2    1    3    3    0  502  0.31526685715E+03 -0.11405423384E+04  0.18606425740E+04  0.22050443998E+04  0.25500000920E-02 0. -1.
</event>
<event>
 5   0  0.2199902E-07  0.3617685E+04  0.7818609E-02  0.8086453E-01
       -2   -1    0    0    0  501  0.00000000000E+00  0.00000000000E+00  0.17399943940E+04  0.17399943940E+04  0.25500000920E-02 0. -1.
        2   -1    0    0  501    0  0.00000000000E+00  0.00000000000E+00 -0.18804146986E+04  0.18804146986E+04  0.25500000920E-02 0.  1.
    10030    2    1    2    0    0  0.00000000000E+00  0.00000000000E+00 -0.14042030460E+03  0.36204090926E+04  0.36176849139E+04 0.  0.
        1    1    3    3  502    0 -0.17456780128E+04  0.47125799835E+03 -0.11959514688E+03  0.18121199807E+04  0.50400001928E-02 0. -1.
       -1    1    3    3    0  502  0.17456780128E+04 -0.47125799835E+03 -0.20825157719E+02  0.18082891120E+04  0.50400001928E-02 0.  1.
</event>
<event>
 5   0  0.7514289E-08  0.3398042E+04  0.7818609E-02  0.8138387E-01
       -1   -1    0    0    0  501  0.00000000000E+00  0.00000000000E+00  0.10775193194E+04  0.10775193194E+04  0.50400001928E-02 0.  1.
        1   -1    0    0  501    0  0.00000000000E+00  0.00000000000E+00 -0.26789983556E+04  0.26789983556E+04  0.50400001928E-02 0. -1.
    10030    2    1    2    0    0  0.00000000000E+00  0.00000000000E+00 -0.16014790362E+04  0.37565176750E+04  0.33980420744E+04 0.  0.
        4    1    3    3  502    0  0.12027743390E+04 -0.19733422118E+03 -0.21092754916E+04  0.24361140404E+04  0.12699999809E+01 0. -1.
       -4    1    3    3    0  502 -0.12027743390E+04  0.19733422118E+03  0.50779645537E+03  0.13204036346E+04  0.12699999809E+01 0.  1.
</event>
<event>
 5   0  0.7261233E-08  0.3620615E+04  0.7818609E-02  0.8085786E-01
       -1   -1    0    0    0  501  0.00000000000E+00  0.00000000000E+00  0.12079313333E+04  0.12079313333E+04  0.50400001928E-02 0. -1.
        1   -1    0    0  501    0  0.00000000000E+00  0.00000000000E+00 -0.27130790832E+04  0.27130790832E+04  0.50400001928E-02 0.  1.
    10030    2    1    2    0    0  0.00000000000E+00  0.00000000000E+00 -0.15051477499E+04  0.39210104165E+04  0.36206149944E+04 0.  0.
        3    1    3    3  502    0  0.14697904796E+04  0.71794111546E+03 -0.15924780824E+04  0.22829169832E+04  0.10100000352E+00 0.  1.
       -3    1    3    3    0  502 -0.14697904796E+04 -0.71794111546E+03  0.87330332506E+02  0.16380934333E+04  0.10100000352E+00 0. -1.
</event>
<event>
 5   0  0.2198900E-07  0.3605002E+04  0.7818609E-02  0.8089347E-01
       -2   -1    0    0    0  501  0.00000000000E+00  0.00000000000E+00  0.18748861476E+04  0.18748861476E+04  0.25500000920E-02 0. -1.
        2   -1    0    0  501    0  0.00000000000E+00  0.00000000000E+00 -0.17329104205E+04  0.17329104205E+04  0.25500000920E-02 0.  1.
    10030    2    1    2    0    0  0.00000000000E+00  0.00000000000E+00  0.14197572714E+03  0.36077965681E+04  0.36050019375E+04 0.  0.
        2    1    3    3  502    0  0.36280718426E+03 -0.18648893976E+03  0.18280831202E+04  0.18730443326E+04  0.25500000920E-02 0. -1.
       -2    1    3    3    0  502 -0.36280718426E+03  0.18648893976E+03 -0.16861073931E+04  0.17347522355E+04  0.25500000920E-02 0.  1.
</event>
<event>
 5   0  0.7236375E-08  0.3613972E+04  0.7818609E-02  0.8087299E-01
        1   -1    0    0  501    0  0.00000000000E+00  0.00000000000E+00  0.22891059055E+04  0.22891059055E+04  0.50400001928E-02 0.  1.
       -1   -1    0    0    0  501  0.00000000000E+00  0.00000000000E+00 -0.14264077409E+04  0.14264077409E+04  0.50400001928E-02 0. -1.
    10030    2    1    2    0    0  0.00000000000E+00  0.00000000000E+00  0.86269816458E+03  0.37155136464E+04  0.36139719885E+04 0.  0.
        1    1    3    3  502    0 -0.67256697331E+02 -0.31085074326E+03  0.22601040696E+04  0.22823720235E+04  0.50400001928E-02 0.  1.
       -1    1    3    3    0  502  0.67256697331E+02  0.31085074326E+03 -0.13974059050E+04  0.14331416229E+04  0.50400001928E-02 0. -1.
</event>
<event>
 5   0  0.7236375E-08  0.3607394E+04  0.7818609E-02  0.8088800E-01
       -1   -1    0    0    0  501  0.00000000000E+00  0.00000000000E+00  0.14532752746E+04  0.14532752746E+04  0.50400001928E-02 0. -1.
        1   -1    0    0  501    0  0.00000000000E+00  0.00000000000E+00 -0.22386141204E+04  0.22386141204E+04  0.50400001928E-02 0.  1.
    10030    2    1    2    0    0  0.00000000000E+00  0.00000000000E+00 -0.78533884580E+03  0.36918893950E+04  0.36073938241E+04 0.  0.
        1    1    3    3  502    0  0.13732744991E+04 -0.60782779971E+03 -0.14150607236E+04  0.20634278120E+04  0.50400001928E-02 0.  1.
       -1    1    3    3    0  502 -0.13732744991E+04  0.60782779971E+03  0.62972187775E+03  0.16284615830E+04  0.50400001928E-02 0. -1.
</event>
<event>
 5   0  0.7347303E-08  0.3576552E+04  0.7818609E-02  0.8095884E-01
       -1   -1    0    0    0  501  0.00000000000E+00  0.00000000000E+00  0.22498627983E+04  0.22498627983E+04  0.50400001928E-02 0.  1.
        1   -1    0    0  501    0  0.00000000000E+00  0.00000000000E+00 -0.14213893398E+04  0.14213893398E+04  0.50400001928E-02 0. -1.
    10030    2    1    2    0    0  0.00000000000E+00  0.00000000000E+00  0.82847345847E+03  0.36712521381E+04  0.35765519694E+04 0.  0.
        2    1    3    3  502    0 -0.17187189347E+04 -0.39440571669E+02  0.91959416064E+03  0.19496676012E+04  0.25500000920E-02 0. -1.
       -2    1    3    3    0  502  0.17187189347E+04  0.39440571669E+02 -0.91120702171E+02  0.17215845368E+04  0.25500000920E-02 0.  1.
</event>
<event>
 5   0  0.2309391E-07  0.3586954E+04  0.7818609E-02  0.8093486E-01
       -2   -1    0    0    0  501  0.00000000000E+00  0.00000000000E+00  0.13848261211E+04  0.13848261211E+04  0.25500000920E-02 0. -1.
        2   -1    0    0  501    0  0.00000000000E+00  0.00000000000E+00 -0.23227180097E+04  0.23227180097E+04  0.25500000920E-02 0.  1.
    10030    2    1    2    0    0  0.00000000000E+00  0.00000000000E+00 -0.93789188856E+03  0.37075441308E+04  0.35869544584E+04 0.  0.
        4    1    3    3  502    0 -0.13472944732E+04 -0.10719725771E+04 -0.98805667105E+03  0.19850907288E+04  0.12699999809E+01 0.  1.
       -4    1    3    3    0  502  0.13472944732E+04  0.10719725771E+04  0.50164782496E+02  0.17224534019E+04  0.12699999809E+01 0. -1.
</event>
<event>
 5   0  0.2342606E-07  0.3601404E+04  0.7818609E-02  0.8090170E-01
        2   -1    0    0  501    0  0.00000000000E+00  0.00000000000E+00  0.12078633245E+04  0.12078633245E+04  0.25500000920E-02 0. -1.
       -2   -1    0    0    0  501  0.00000000000E+00  0.00000000000E+00 -0.26845161110E+04  0.26845161110E+04  0.25500000920E-02 0.  1.
    10030    2    1    2    0    0  0.00000000000E+00  0.00000000000E+00 -0.14766527865E+04  0.38923794356E+04  0.36014044786E+04 0.  0.
        5    1    3    3  502    0 -0.17568421290E+04  0.10975950126E+03 -0.32824335547E+03  0.17906164315E+04  0.46999998093E+01 0. -1.
       -5    1    3    3    0  502  0.17568421290E+04 -0.10975950126E+03 -0.11484094310E+04  0.21017630041E+04  0.46999998093E+01 0.  1.
</event>
<event>
 5   0  0.2309391E-07  0.3608568E+04  0.7818609E-02  0.8088532E-01
        2   -1    0    0  501    0  0.00000000000E+00  0.00000000000E+00  0.12517839572E+04  0.12517839572E+04  0.25500000920E-02 0.  1.
       -2   -1    0    0    0  501  0.00000000000E+00  0.00000000000E+00 -0.26006405867E+04  0.26006405867E+04  0.25500000920E-02 0. -1.
    10030    2    1    2    0    0  0.00000000000E+00  0.00000000000E+00 -0.13488566295E+04  0.38524245440E+04  0.36085676743E+04 0.  0.
        4    1    3    3  502    0  0.42838336679E+03  0.16733408511E+04 -0.11779491917E+03  0.17313171774E+04  0.12699999809E+01 0.  1.
       -4    1    3    3    0  502 -0.42838336679E+03 -0.16733408511E+04 -0.12310617104E+04  0.21211073666E+04  0.12699999809E+01 0. -1.
</event>
<event>
 5   0  0.2199902E-07  0.3596968E+04  0.7818609E-02  0.8091186E-01
       -2   -1    0    0    0  501  0.00000000000E+00  0.00000000000E+00  0.15260685500E+04  0.15260685500E+04  0.25500000920E-02 0.  1.
        2   -1    0    0  501    0  0.00000000000E+00  0.00000000000E+00 -0.21195282643E+04  0.21195282643E+04  0.25500000920E-02 0. -1.
    10030    2    1    2    0    0  0.00000000000E+00  0.00000000000E+00 -0.59345971432E+03  0.36455968143E+04  0.35969684041E+04 0.  0.
        1    1    3    3  502    0  0.83919747626E+03  0.91627597718E+03 -0.16145899787E+04  0.20373303291E+04  0.50400001928E-02 0. -1.
       -1    1    3    3    0  502 -0.83919747626E+03 -0.91627597718E+03  0.10211302644E+04  0.16082664852E+04  0.50400001928E-02 0.  1.
</event>
<event>
 5   0  0.2342606E-07  0.3653240E+04  0.7818609E-02  0.8078404E-01
        2   -1    0    0  501    0  0.00000000000E+00  0.00000000000E+00  0.25630313609E+04  0.25630313609E+04  0.25500000920E-02 0. -1.
       -2   -1    0    0    0  501  0.00000000000E+00  0.00000000000E+00 -0.13017949305E+04  0.13017949305E+04  0.25500000920E-02 0.  1.
    10030    2    1    2    0    0  0.00000000000E+00  0.00000000000E+00  0.12612364304E+04  0.38648262914E+04  0.36532403328E+04 0.  0.
        5    1    3    3  502    0 -0.15241741676E+04  0.25656471832E+03  0.16604380092E+04  0.22684816111E+04  0.46999998093E+01 0. -1.
       -5    1    3    3    0  502  0.15241741676E+04 -0.25656471832E+03 -0.39920157873E+03  0.15963446803E+04  0.46999998093E+01 0.  1.
</event>
<event>
 5   0  0.2238968E-07  0.3493029E+04  0.7818609E-02  0.8115444E-01
        2   -1    0    0  501    0  0.00000000000E+00  0.00000000000E+00  0.20881266168E+04  0.20881266168E+04  0.25500000920E-02 0. -1.
       -2   -1    0    0    0  501  0.00000000000E+00  0.00000000000E+00 -0.14607890344E+04  0.14607890344E+04  0.25500000920E-02 0.  1.
    10030    2    1    2    0    0  0.00000000000E+00  0.00000000000E+00  0.62733758242E+03  0.35489156512E+04  0.34930287513E+04 0.  0.
        3    1    3    3  502    0 -0.12464081763E+04 -0.82530135107E+03 -0.60391819512E+03  0.16122570696E+04  0.10100000352E+00 0.  1.
       -3    1    3    3    0  502  0.12464081763E+04  0.82530135107E+03  0.12312557775E+04  0.19366585816E+04  0.10100000352E+00 0. -1.
</event>
<event>
 5   0  0.2309391E-07  0.3598269E+04  0.7818609E-02  0.8090888E-01
        2   -1    0    0  501    0  0.00000000000E+00  0.00000000000E+00  0.20870007134E+04  0.20870007134E+04  0.25500000920E-02 0.  1.
       -2   -1    0    0    0  501  0.00000000000E+00  0.00000000000E+00 -0.15509748331E+04  0.15509748331E+04  0.25500000920E-02 0. -1.
    10030    2    1    2    0    0  0.00000000000E+00  0.00000000000E+00  0.53602588030E+03  0.36379755465E+04  0.35982693525E+04 0.  0.
        4    1    3    3  502    0  0.28906410137E+03 -0.17248869603E+04  0.69467788046E+03  0.18818533553E+04  0.12699999809E+01 0.  1.
       -4    1    3    3    0  502 -0.28906410137E+03  0.17248869603E+04 -0.15865200016E+03  0.17561221912E+04  0.12699999809E+01 0. -1.
</event>
<event>
 5   0  0.7261233E-08  0.3542594E+04  0.7818609E-02  0.8103769E-01
        1   -1    0    0  501    0  0.00000000000E+00  0.00000000000E+00  0.15320375274E+04  0.15320375274E+04  0.50400001928E-02 0. -1.
       -1   -1    0    0    0  501  0.00000000000E+00  0.00000000000E+00 -0.20479212364E+04  0.20479212364E+04  0.50400001928E-02 0.  1.
    10030    2    1    2    0    0  0.00000000000E+00  0.00000000000E+00 -0.51588370894E+03  0.35799587638E+04  0.35425935061E+04 0.  0.
        3    1    3    3  502    0 -0.12657344615E+04  0.11773205485E+04 -0.64844329317E+03  0.18462519101E+04  0.10100000352E+00 0. -1.
       -3    1    3    3    0  502  0.12657344615E+04 -0.11773205485E+04  0.13255958424E+03  0.17337068537E+04  0.10100000352E+00 0.  1.
</event>
<event>
 5   0  0.7347303E-08  0.3602535E+04  0.7818609E-02  0.8089911E-01
        1   -1    0    0  501    0  0.00000000000E+00  0.00000000000E+00  0.23935246998E+04  0.23935246998E+04  0.50400001928E-02 0. -1.
       -1   -1    0    0    0  501  0.00000000000E+00  0.00000000000E+00 -0.13555596361E+04  0.13555596361E+04  0.50400001928E-02 0.  1.
    10030    2    1    2    0    0  0.00000000000E+00  0.00000000000E+00  0.10379650637E+04  0.37490843359E+04  0.36025354800E+04 0.  0.
        2    1    3    3  502    0  0.23923648171E+02  0.95171023420E+03  0.21103173191E+04  0.23151163898E+04  0.25500000920E-02 0. -1.
       -2    1    3    3    0  502 -0.23923648171E+02 -0.95171023420E+03 -0.10723522554E+04  0.14339679461E+04  0.25500000920E-02 0.  1.
</event>
<event>
 5   0  0.7236375E-08  0.3613251E+04  0.7818609E-02  0.8087463E-01
       -1   -1    0    0    0  501  0.00000000000E+00  0.00000000000E+00  0.12219118089E+04  0.12219118089E+04  0.50400001928E-02 0.  1.
        1   -1    0    0  501    0  0.00000000000E+00  0.00000000000E+00 -0.26711384868E+04  0.26711384868E+04  0.50400001928E-02 0. -1.
    10030    2    1    2    0    0  0.00000000000E+00  0.00000000000E+00 -0.14492266779E+04  0.38930502957E+04  0.36132509795E+04 0.  0.
        5    1    3    3  502    0  0.66884616169E+03  0.85029893707E+03  0.83432671549E+03  0.13661942133E+04  0.46999998093E+01 0.  1.
       -5    1    3    3    0  502 -0.66884616169E+03 -0.85029893707E+03 -0.22835533934E+04  0.25268560824E+04  0.46999998093E+01 0. -1.
</event>
<event>
 5   0  0.2309391E-07  0.3579971E+04  0.7818609E-02  0.8095095E-01
       -2   -1    0    0    0  501  0.00000000000E+00  0.00000000000E+00  0.23934921054E+04  0.23934921054E+04  0.25500000920E-02 0. -1.
        2   -1    0    0  501    0  0.00000000000E+00  0.00000000000E+00 -0.13386501661E+04  0.13386501661E+04  0.25500000920E-02 0.  1.
    10030    2    1    2    0    0  0.00000000000E+00  0.00000000000E+00  0.10548419394E+04  0.37321422715E+04  0.35799712873E+04 0.  0.
        4    1    3    3  502    0 -0.14096652710E+04 -0.79256928383E+03  0.13273193048E+04  0.20921520967E+04  0.12699999809E+01 0. -1.
       -4    1    3    3    0  502  0.14096652710E+04  0.79256928383E+03 -0.27247736543E+03  0.16399901748E+04  0.12699999809E+01 0.  1.
</event>
<event>
 5   0  0.7236375E-08  0.3607965E+04  0.7818609E-02  0.8088670E-01
       -1   -1    0    0    0  501  0.00000000000E+00  0.00000000000E+00  0.16040731395E+04  0.16040731395E+04  0.50400001928E-02 0.  1.
        1   -1    0    0  501    0  0.00000000000E+00  0.00000000000E+00 -0.20288063347E+04  0.20288063347E+04  0.50400001928E-02 0. -1.
    10030    2    1    2    0    0  0.00000000000E+00  0.00000000000E+00 -0.42473319521E+03  0.36328794743E+04  0.36079654914E+04 0.  0.
        1    1    3    3  502    0  0.89884399187E+02  0.97503388893E+03  0.13132140043E+04  0.16380785423E+04  0.50400001928E-02 0.  1.
       -1    1    3    3    0  502 -0.89884399187E+02 -0.97503388893E+03 -0.17379471995E+04  0.19948009319E+04  0.50400001928E-02 0. -1.
</event>
<event>
 5   0  0.7236375E-08  0.3604366E+04  0.7818609E-02  0.8089492E-01
        1   -1    0    0  501    0  0.00000000000E+00  0.00000000000E+00  0.27071394180E+04  0.27071394180E+04  0.50400001928E-02 0.  1.
       -1   -1    0    0    0  501  0.00000000000E+00  0.00000000000E+00 -0.11997398891E+04  0.11997398891E+04  0.50400001928E-02 0. -1.
    10030    2    1    2    0    0  0.00000000000E+00  0.00000000000E+00  0.15073995289E+04  0.39068793071E+04  0.36043657668E+04 0.  0.
        5    1    3    3  502    0  0.16774604089E+04 -0.65452149594E+03  0.83459058321E+03  0.19846499297E+04  0.46999998093E+01 0.  1.
       -5    1    3    3    0  502 -0.16774604089E+04  0.65452149594E+03  0.67280894567E+03  0.19222293774E+04  0.46999998093E+01 0. -1.
</event>
<event>
 5   0  0.7236375E-08  0.3597814E+04  0.7818609E-02  0.8090993E-01
       -1   -1    0    0    0  501  0.00000000000E+00  0.00000000000E+00  0.24184793927E+04  0.24184793927E+04  0.50400001928E-02 0. -1.
        1   -1    0    0  501    0  0.00000000000E+00  0.00000000000E+00 -0.13380580672E+04  0.13380580672E+04  0.50400001928E-02 0.  1.
    10030    2    1    2    0    0  0.00000000000E+00  0.00000000000E+00  0.10804213255E+04  0.37565374599E+04  0.35978137037E+04 0.  0.
        1    1    3    3  502    0 -0.10780075106E+04 -0.12112381606E+04 -0.27317421727E+03  0.16443303280E+04  0.50400001928E-02 0.  1.
       -1    1    3    3    0  502  0.10780075106E+04  0.12112381606E+04  0.13535955428E+04  0.21122071319E+04  0.50400001928E-02 0. -1.
</event>
<event>
 5   0  0.7347303E-08  0.3608635E+04  0.7818609E-02  0.8088517E-01
       -1   -1    0    0    0  501  0.00000000000E+00  0.00000000000E+00  0.23964027945E+04  0.23964027945E+04  0.50400001928E-02 0. -1.
        1   -1    0    0  501    0  0.00000000000E+00  0.00000000000E+00 -0.13585200828E+04  0.13585200828E+04  0.50400001928E-02 0.  1.
    10030    2    1    2    0    0  0.00000000000E+00  0.00000000000E+00  0.10378827117E+04  0.37549228774E+04  0.36086348238E+04 0.  0.
        2    1    3    3  502    0  0.50646718626E+03  0.61249486314E+03  0.22044536331E+04  0.23433469202E+04  0.25500000920E-02 0. -1.
       -2    1    3    3    0  502 -0.50646718626E+03 -0.61249486314E+03 -0.11665709214E+04  0.14115759571E+04  0.25500000920E-02 0.  1.
</event>
<event>
 5   0  0.2342606E-07  0.3574465E+04  0.7818609E-02  0.8096366E-01
       -2   -1    0    0    0  501  0.00000000000E+00  0.00000000000E+00  0.14105566168E+04  0.14105566168E+04  0.25500000920E-02 0. -1.
        2   -1    0    0  501    0  0.00000000000E+00  0.00000000000E+00 -0.22644964976E+04  0.22644964976E+04  0.25500000920E-02 0.  1.
    10030    2    1    2    0    0  0.00000000000E+00  0.00000000000E+00 -0.85393988079E+03  0.36750531144E+04  0.35744652850E+04 0.  0.
        5    1    3    3  502    0  0.32048973651E+03 -0.15600099716E+04 -0.12608634195E+04  0.20312910760E+04  0.46999998093E+01 0.  1.
       -5    1    3    3    0  502 -0.32048973651E+03  0.15600099716E+04  0.40692353870E+03  0.16437620384E+04  0.46999998093E+01 0. -1.
</event>
<event>
 5   0  0.2309391E-07  0.3597623E+04  0.7818609E-02  0.8091036E-01
        2   -1    0    0  501    0  0.00000000000E+00  0.00000000000E+00  0.25446840482E+04  0.25446840482E+04  0.25500000920E-02 0.  1.
       -2   -1    0    0    0  501  0.00000000000E+00  0.00000000000E+00 -0.12715618616E+04  0.12715618616E+04  0.25500000920E-02 0. -1.
    10030    2    1    2    0    0  0.00000000000E+00  0.00000000000E+00  0.12731221866E+04  0.38162459097E+04  0.35976232073E+04 0.  0.
        4    1    3    3  502    0 -0.17614759137E+04 -0.22393993961E+03  0.33137096370E+03  0.18063097242E+04  0.12699999809E+01 0. -1.
       -4    1    3    3    0  502  0.17614759137E+04  0.22393993961E+03  0.94175122294E+03  0.20099361856E+04  0.12699999809E+01 0.  1.
</event>
<event>
 5   0  0.7261233E-08  0.3601056E+04  0.7818609E-02  0.8090250E-01
        1   -1    0    0  501    0  0.00000000000E+00  0.00000000000E+00  0.12230628619E+04  0.12230628620E+04  0.50400001928E-02 0.  1.
       -1   -1    0    0    0  501  0.00000000000E+00  0.00000000000E+00 -0.26506418711E+04  0.26506418711E+04  0.50400001928E-02 0. -1.
    10030    2    1    2    0    0  0.00000000000E+00  0.00000000000E+00 -0.14275790092E+04  0.38737047331E+04  0.36010563078E+04 0.  0.
        3    1    3    3  502    0 -0.34946809351E+03 -0.15212807119E+04  0.25164679556E+03  0.15810594779E+04  0.10100000352E+00 0.  1.
       -3    1    3    3    0  502  0.34946809351E+03  0.15212807119E+04 -0.16792258047E+04  0.22926452552E+04  0.10100000352E+00 0. -1.
</event>
<event>
 5   0  0.7347303E-08  0.3445067E+04  0.7818609E-02  0.8126933E-01
        1   -1    0    0  501    0  0.00000000000E+00  0.00000000000E+00  0.21395185724E+04  0.21395185724E+04  0.50400001928E-02 0.  1.
       -1   -1    0    0    0  501  0.00000000000E+00  0.00000000000E+00 -0.13868172169E+04  0.13868172169E+04  0.50400001928E-02 0. -1.
    10030    2    1    2    0    0  0.00000000000E+00  0.00000000000E+00  0.75270135552E+03  0.35263357892E+04  0.34450667291E+04 0.  0.
        2    1    3    3  502    0  0.14486841816E+04  0.64708574945E+03  0.10627785196E+04  0.19096868871E+04  0.25500000920E-02 0.  1.
       -2    1    3    3    0  502 -0.14486841816E+04 -0.64708574945E+03 -0.31007716406E+03  0.16166489021E+04  0.25500000920E-02 0. -1.
</event>
<event>
 5   0  0.2309391E-07  0.3597643E+04  0.7818609E-02  0.8091032E-01
       -2   -1    0    0    0  501  0.00000000000E+00  0.00000000000E+00  0.16251523081E+04  0.16251523081E+04  0.25500000920E-02 0.  1.
        2   -1    0    0  501    0  0.00000000000E+00  0.00000000000E+00 -0.19910496059E+04  0.19910496059E+04  0.25500000920E-02 0. -1.
    10030    2    1    2    0    0  0.00000000000E+00  0.00000000000E+00 -0.36589729781E+03  0.36162019141E+04  0.35976430410E+04 0.  0.
        4    1    3    3  502    0  0.11580104891E+04 -0.73565354354E+03 -0.13523861547E+04  0.19264278739E+04  0.12699999809E+01 0. -1.
       -4    1    3    3    0  502 -0.11580104891E+04  0.73565354354E+03  0.98648885692E+03  0.16897740401E+04  0.12699999809E+01 0.  1.
</event>
<event>
 5   0  0.7236375E-08  0.3597349E+04  0.7818609E-02  0.8091099E-01
       -1   -1    0    0    0  501  0.00000000000E+00  0.00000000000E+00  0.16102505150E+04  0.16102505150E+04  0.50400001928E-02 0.  1.
        1   -1    0    0  501    0  0.00000000000E+00  0.00000000000E+00 -0.20091464529E+04  0.20091464529E+04  0.50400001928E-02 0. -1.
    10030    2    1    2    0    0  0.00000000000E+00  0.00000000000E+00 -0.39889593784E+03  0.36193969679E+04  0.35973485294E+04 0.  0.
        1    1    3    3  502    0 -0.57703576873E+03  0.88242950007E+03  0.12667334427E+04  0.16481097402E+04  0.50400001928E-02 0.  1.
       -1    1    3    3    0  502  0.57703576873E+03 -0.88242950007E+03 -0.16656293805E+04  0.19712872277E+04  0.50400001928E-02 0. -1.
</event>
<event>
 5   0  0.2309391E-07  0.3576049E+04  0.7818609E-02  0.8096000E-01
        2   -1    0    0  501    0  0.00000000000E+00  0.00000000000E+00  0.19627276029E+04  0.19627276029E+04  0.25500000920E-02 0.  1.
       -2   -1    0    0    0  501  0.00000000000E+00  0.00000000000E+00 -0.16288715047E+04  0.16288715047E+04  0.25500000920E-02 0. -1.
    10030    2    1    2    0    0  0.00000000000E+00  0.00000000000E+00  0.33385609825E+03  0.35915991076E+04  0.35760486931E+04 0.  0.
        4    1    3    3  502    0  0.16677836457E+04 -0.61999927690E+03  0.34412671583E+03  0.18122710067E+04  0.12699999809E+01 0. -1.
       -4    1    3    3    0  502 -0.16677836457E+04  0.61999927690E+03 -0.10270617575E+02  0.17793281009E+04  0.12699999809E+01 0.  1.
</event>
<event>
 5   0  0.7236375E-08  0.3588923E+04  0.7818609E-02  0.8093034E-01
       -1   -1    0    0    0  501  0.00000000000E+00  0.00000000000E+00  0.96315387767E+03  0.96315387769E+03  0.50400001928E-02 0. -1.
        1   -1    0    0  501    0  0.00000000000E+00  0.00000000000E+00 -0.33432782753E+04  0.33432782753E+04  0.50400001928E-02 0.  1.
    10030    2    1    2    0    0  0.00000000000E+00  0.00000000000E+00 -0.23801243976E+04  0.43064321530E+04  0.35889226434E+04 0.  0.
        1    1    3    3  502    0 -0.11007761262E+04  0.23442665556E+03 -0.28671359450E+04  0.30801189042E+04  0.50400001928E-02 0.  1.
       -1    1    3    3    0  502  0.11007761262E+04 -0.23442665556E+03  0.48701154740E+03  0.12263132488E+04  0.50400001928E-02 0. -1.
</event>
<event>
 5   0  0.7236375E-08  0.3615490E+04  0.7818609E-02  0.8086953E-01
        1   -1    0    0  501    0  0.00000000000E+00  0.00000000000E+00  0.26990679700E+04  0.26990679700E+04  0.50400001928E-02 0.  1.
       -1   -1    0    0    0  501  0.00000000000E+00  0.00000000000E+00 -0.12107670809E+04  0.12107670809E+04  0.50400001928E-02 0. -1.
    10030    2    1    2    0    0  0.00000000000E+00  0.00000000000E+00  0.14883008891E+04  0.39098350509E+04  0.36154903663E+04 0.  0.
        1    1    3    3  502    0 -0.82296612532E+02  0.14568736565E+04  0.18981185401E+04  0.23941820264E+04  0.50400001928E-02 0. -1.
       -1    1    3    3    0  502  0.82296612532E+02 -0.14568736565E+04 -0.40981765100E+03  0.15156530244E+04  0.50400001928E-02 0.  1.
</event>
<event>
 5   0  0.2238968E-07  0.3605380E+04  0.7818609E-02  0.8089261E-01
        2   -1    0    0  501    0  0.00000000000E+00  0.00000000000E+00  0.22134633698E+04  0.22134633698E+04  0.25500000920E-02 0. -1.
       -2   -1    0    0    0  501  0.00000000000E+00  0.00000000000E+00 -0.14681473873E+04  0.14681473873E+04  0.25500000920E-02 0.  1.
    10030    2    1    2    0    0  0.00000000000E+00  0.00000000000E+00  0.74531598253E+03  0.36816107571E+04  0.36053795712E+04 0.  0.
        3    1    3    3  502    0  0.34401632653E+02 -0.14899009411E+04  0.14083525721E+04  0.20504743998E+04  0.10100000352E+00 0. -1.
       -3    1    3    3    0  502 -0.34401632653E+02  0.14899009411E+04 -0.66303658955E+03  0.16311363573E+04  0.10100000352E+00 0.  1.
</event>
<event>
 5   0  0.7236375E-08  0.3589373E+04  0.7818609E-02  0.8092930E-01
        3   -1    0    0  501    0  0.00000000000E+00  0.00000000000E+00  0.17294282295E+04  0.17294282325E+04  0.10100000352E+00 0. -1.
       -3   -1    0    0    0  501  0.00000000000E+00  0.00000000000E+00 -0.18624068338E+04  0.18624068366E+04  0.10100000352E+00 0.  1.
    10030    2    1    2    0    0  0.00000000000E+00  0.00000000000E+00 -0.13297860432E+03  0.35918350690E+04  0.35893726268E+04 0.  0.
        2    1    3    3  502    0 -0.74457701887E+03 -0.16305814766E+04 -0.15434517430E+03  0.17991701759E+04  0.25500000920E-02 0. -1.
       -2    1    3    3    0  502  0.74457701887E+03  0.16305814766E+04  0.21366569982E+02  0.17926648932E+04  0.25500000920E-02 0.  1.
</event>
<event>
 5   0  0.2238968E-07  0.3609242E+04  0.7818609E-02  0.8088378E-01
        2   -1    0    0  501    0  0.00000000000E+00  0.00000000000E+00  0.17804279592E+04  0.17804279592E+04  0.25500000920E-02 0. -1.
       -2   -1    0    0    0  501  0.00000000000E+00  0.00000000000E+00 -0.18291429122E+04  0.18291429122E+04  0.25500000920E-02 0.  1.
    10030    2    1    2    0    0  0.00000000000E+00  0.00000000000E+00 -0.48714952941E+02  0.36095708714E+04  0.36092421267E+04 0.  0.
        3    1    3    3  502    0 -0.32724436640E+02  0.17958294343E+04  0.15053820062E+03  0.18024250347E+04  0.10100000352E+00 0. -1.
       -3    1    3    3    0  502  0.32724436640E+02 -0.17958294343E+04 -0.19925315357E+03  0.18071458367E+04  0.10100000352E+00 0.  1.
</event>
<event>
 5   0  0.2309391E-07  0.3582120E+04  0.7818609E-02  0.8094600E-01
        2   -1    0    0  501    0  0.00000000000E+00  0.00000000000E+00  0.18067039506E+04  0.18067039506E+04  0.25500000920E-02 0.  1.
       -2   -1    0    0    0  501  0.00000000000E+00  0.00000000000E+00 -0.17755510409E+04  0.17755510409E+04  0.25500000920E-02 0. -1.
    10030    2    1    2    0    0  0.00000000000E+00  0.00000000000E+00  0.31152909772E+02  0.35822549915E+04  0.35821195291E+04 0.  0.
        4    1    3    3  502    0  0.22458880137E+03  0.11324563236E+04  0.13849331747E+04  0.18030360412E+04  0.12699999809E+01 0.  1.
       -4    1    3    3    0  502 -0.22458880137E+03 -0.11324563236E+04 -0.13537802650E+04  0.17792189503E+04  0.12699999809E+01 0. -1.
</event>
<event>
 5   0  0.2238968E-07  0.3594350E+04  0.7818609E-02  0.8091787E-01
        2   -1    0    0  501    0  0.00000000000E+00  0.00000000000E+00  0.30716180133E+04  0.30716180133E+04  0.25500000920E-02 0.  1.
       -2   -1    0    0    0  501  0.00000000000E+00  0.00000000000E+00 -0.10515100489E+04  0.10515100489E+04  0.25500000920E-02 0. -1.
    10030    2    1    2    0    0  0.00000000000E+00  0.00000000000E+00  0.20201079645E+04  0.41231280622E+04  0.35943495697E+04 0.  0.
        3    1    3    3  502    0  0.25140266222E+03  0.14647517830E+04  0.21692271761E+04  0.26294956999E+04  0.10100000352E+00 0.  1.
       -3    1    3    3    0  502 -0.25140266222E+03 -0.14647517830E+04 -0.14911921160E+03  0.14936323623E+04  0.10100000352E+00 0. -1.
</event>
<event>
 5   0  0.2199902E-07  0.3607145E+04  0.7818609E-02  0.8088857E-01
       -2   -1    0    0    0  501  0.00000000000E+00  0.00000000000E+00  0.13638783597E+04  0.13638783597E+04  0.25500000920E-02 0. -1.
        2   -1    0    0  501    0  0.00000000000E+00  0.00000000000E+00 -0.23850175296E+04  0.23850175296E+04  0.25500000920E-02 0.  1.
    10030    2    1    2    0    0  0.00000000000E+00  0.00000000000E+00 -0.10211391699E+04  0.37488958893E+04  0.36071450185E+04 0.  0.
        1    1    3    3  502    0 -0.57491024276E+03 -0.10682813277E+04 -0.18976039536E+04  0.22522538816E+04  0.50400001928E-02 0.  1.
       -1    1    3    3    0  502  0.57491024276E+03  0.10682813277E+04  0.87646478364E+03  0.14966420078E+04  0.50400001928E-02 0. -1.
</event>
<event>
 5   0  0.7347303E-08  0.3605603E+04  0.7818609E-02  0.8089210E-01
        1   -1    0    0  501    0  0.00000000000E+00  0.00000000000E+00  0.13177753984E+04  0.13177753985E+04  0.50400001928E-02 0.  1.
       -1   -1    0    0    0  501  0.00000000000E+00  0.00000000000E+00 -0.24663481568E+04  0.24663481568E+04  0.50400001928E-02 0. -1.
    10030    2    1    2    0    0  0.00000000000E+00  0.00000000000E+00 -0.11485727583E+04  0.37841235552E+04  0.36056028206E+04 0.  0.
        2    1    3    3  502    0  0.85390592428E+03 -0.15135021964E+04 -0.70686037868E+02  0.17392069290E+04  0.25500000920E-02 0.  1.
       -2    1    3    3    0  502 -0.85390592428E+03  0.15135021964E+04 -0.10778867205E+04  0.20449166262E+04  0.25500000920E-02 0. -1.
</event>
<event>
 5   0  0.7514289E-08  0.3557400E+04  0.7818609E-02  0.8100320E-01
        1   -1    0    0  501    0  0.00000000000E+00  0.00000000000E+00  0.23214724263E+04  0.23214724263E+04  0.50400001928E-02 0.  1.
       -1   -1    0    0    0  501  0.00000000000E+00  0.00000000000E+00 -0.13628305555E+04  0.13628305555E+04  0.50400001928E-02 0. -1.
    10030    2    1    2    0    0  0.00000000000E+00  0.00000000000E+00  0.95864187075E+03  0.36843029818E+04  0.35573999249E+04 0.  0.
        4    1    3    3  502    0  0.50920889904E+03 -0.11293468936E+04 -0.84255398910E+03  0.14982045743E+04  0.12699999809E+01 0. -1.
       -4    1    3    3    0  502 -0.50920889904E+03  0.11293468936E+04  0.18011958599E+04  0.21860984075E+04  0.12699999809E+01 0.  1.
</event>
<event>
 5   0  0.2342606E-07  0.3588403E+04  0.7818609E-02  0.8093153E-01
        2   -1    0    0  501    0  0.00000000000E+00  0.00000000000E+00  0.21650910647E+04  0.21650910647E+04  0.25500000920E-02 0. -1.
       -2   -1    0    0    0  501  0.00000000000E+00  0.00000000000E+00 -0.14868466522E+04  0.14868466522E+04  0.25500000920E-02 0.  1.
    10030    2    1    2    0    0  0.00000000000E+00  0.00000000000E+00  0.67824441245E+03  0.36519377169E+04  0.35884026537E+04 0.  0.
        5    1    3    3  502    0 -0.86510491930E+03 -0.41927724653E+03  0.18808493485E+04  0.21123011841E+04  0.46999998093E+01 0. -1.
       -5    1    3    3    0  502  0.86510491930E+03  0.41927724653E+03 -0.12026049360E+04  0.15396365328E+04  0.46999998093E+01 0.  1.
</event>
<event>
 5   0  0.7236375E-08  0.3615720E+04  0.7818609E-02  0.8086900E-01
       -1   -1    0    0    0  501  0.00000000000E+00  0.00000000000E+00  0.22741992355E+04  0.22741992355E+04  0.50400001928E-02 0. -1.
        1   -1    0    0  501    0  0.00000000000E+00  0.00000000000E+00 -0.14371462687E+04  0.14371462687E+04  0.50400001928E-02 0.  1.
    10030    2    1    2    0    0  0.00000000000E+00  0.00000000000E+00  0.83705296673E+03  0.37113455042E+04  0.36157195387E+04 0.  0.
        1    1    3    3  502    0  0.15292254482E+03  0.92666490977E+03 -0.11670816891E+04  0.14980563504E+04  0.50400001928E-02 0.  1.
       -1    1    3    3    0  502 -0.15292254482E+03 -0.92666490977E+03  0.20041346559E+04  0.22132891538E+04  0.50400001928E-02 0. -1.
</event>
<event>
 5   0  0.7514289E-08  0.3625313E+04  0.7818609E-02  0.8084718E-01
        1   -1    0    0  501    0  0.00000000000E+00  0.00000000000E+00  0.20784404520E+04  0.20784404520E+04  0.50400001928E-02 0.  1.
       -1   -1    0    0    0  501  0.00000000000E+00  0.00000000000E+00 -0.15808602545E+04  0.15808602545E+04  0.50400001928E-02 0. -1.
    10030    2    1    2    0    0  0.00000000000E+00  0.00000000000E+00  0.49758019748E+03  0.36593007065E+04  0.36253131738E+04 0.  0.
        4    1    3    3  502    0  0.61752014527E+03  0.15132366031E+04 -0.54246347475E+03  0.17220581817E+04  0.12699999809E+01 0. -1.
       -4    1    3    3    0  502 -0.61752014527E+03 -0.15132366031E+04  0.10400436722E+04  0.19372425248E+04  0.12699999809E+01 0.  1.
</event>
<event>
 5   0  0.7236375E-08  0.3603950E+04  0.7818609E-02  0.8089588E-01
        1   -1    0    0  501    0  0.00000000000E+00  0.00000000000E+00  0.26675562894E+04  0.26675562894E+04  0.50400001928E-02 0.  1.
       -1   -1    0    0    0  501  0.00000000000E+00  0.00000000000E+00 -0.12172613609E+04  0.12172613609E+04  0.50400001928E-02 0. -1.
    10030    2    1    2    0    0  0.00000000000E+00  0.00000000000E+00  0.14502949285E+04  0.38848176503E+04  0.36039496108E+04 0.  0.
        5    1    3    3  502    0 -0.12343298415E+04  0.37320654445E+03  0.20819046094E+04  0.24489185726E+04  0.46999998093E+01 0.  1.
       -5    1    3    3    0  502  0.12343298415E+04 -0.37320654445E+03 -0.63160968096E+03  0.14358990778E+04  0.46999998093E+01 0. -1.
</event>
<event>
 5   0  0.2309391E-07  0.3592946E+04  0.7818609E-02  0.8092109E-01
       -2   -1    0    0    0  501  0.00000000000E+00  0.00000000000E+00  0.12693106436E+04  0.12693106436E+04  0.25500000920E-02 0. -1.
        2   -1    0    0  501    0  0.00000000000E+00  0.00000000000E+00 -0.25425732294E+04  0.25425732294E+04  0.25500000920E-02 0.  1.
    10030    2    1    2    0    0  0.00000000000E+00  0.00000000000E+00 -0.12732625858E+04  0.38118838729E+04  0.35929460124E+04 0.  0.
        4    1    3    3  502    0 -0.76943492208E+03 -0.15153835465E+04 -0.19009863493E+02  0.16996412504E+04  0.12699999809E+01 0. -1.
       -4    1    3    3    0  502  0.76943492208E+03  0.15153835465E+04 -0.12542527223E+04  0.21122426225E+04  0.12699999809E+01 0.  1.
</event>
<event>
 5   0  0.7236375E-08  0.3604570E+04  0.7818609E-02  0.8089446E-01
       -1   -1    0    0    0  501  0.00000000000E+00  0.00000000000E+00  0.16362353883E+04  0.16362353883E+04  0.50400001928E-02 0.  1.
        1   -1    0    0  501    0  0.00000000000E+00  0.00000000000E+00 -0.19851858135E+04  0.19851858135E+04  0.50400001928E-02 0. -1.
    10030    2    1    2    0    0  0.00000000000E+00  0.00000000000E+00 -0.34895042516E+03  0.36214212018E+04  0.36045700329E+04 0.  0.
        1    1    3    3  502    0  0.98201682421E+03  0.10347924721E+04 -0.12810227460E+04  0.19173345507E+04  0.50400001928E-02 0. -1.
       -1    1    3    3    0  502 -0.98201682421E+03 -0.10347924721E+04  0.93207232082E+03  0.17040866512E+04  0.50400001928E-02 0.  1.
</event>
<event>
 5   0  0.2198900E-07  0.3601977E+04  0.7818609E-02  0.8090039E-01
       -2   -1    0    0    0  501  0.00000000000E+00  0.00000000000E+00  0.20281506104E+04  0.20281506104E+04  0.25500000920E-02 0. -1.
        2   -1    0    0  501    0  0.00000000000E+00  0.00000000000E+00 -0.15992699813E+04  0.15992699813E+04  0.25500000920E-02 0.  1.
    10030    2    1    2    0    0  0.00000000000E+00  0.00000000000E+00  0.42888062906E+03  0.36274205917E+04  0.36019774507E+04 0.  0.
        2    1    3    3  502    0  0.56218896600E+03 -0.20031742400E+03 -0.14967907756E+04  0.16113863999E+04  0.25500000920E-02 0.  1.
       -2    1    3    3    0  502 -0.56218896600E+03  0.20031742400E+03  0.19256714047E+04  0.20160341918E+04  0.25500000920E-02 0. -1.
</event>
<event>
 5   0  0.2342606E-07  0.3540607E+04  0.7818609E-02  0.8104234E-01
        2   -1    0    0  501    0  0.00000000000E+00  0.00000000000E+00  0.15603174073E+04  0.15603174073E+04  0.25500000920E-02 0.  1.
       -2   -1    0    0    0  501  0.00000000000E+00  0.00000000000E+00 -0.20085490591E+04  0.20085490591E+04  0.25500000920E-02 0. -1.
    10030    2    1    2    0    0  0.00000000000E+00  0.00000000000E+00 -0.44823165178E+03  0.35688664664E+04  0.35406067618E+04 0.  0.
        5    1    3    3  502    0  0.16009746040E+04 -0.39737220750E+03  0.42360754705E+03  0.17030824401E+04  0.46999998093E+01 0.  1.
       -5    1    3    3    0  502 -0.16009746040E+04  0.39737220750E+03 -0.87183919884E+03  0.18657840263E+04  0.46999998093E+01 0. -1.
</event>
<event>
 5   0  0.7261233E-08  0.3598762E+04  0.7818609E-02  0.8090775E-01
       -1   -1    0    0    0  501  0.00000000000E+00  0.00000000000E+00  0.10222628839E+04  0.10222628839E+04  0.50400001928E-02 0.  1.
        1   -1    0    0  501    0  0.00000000000E+00  0.00000000000E+00 -0.31672602062E+04  0.31672602062E+04  0.50400001928E-02 0. -1.
    10030    2    1    2    0    0  0.00000000000E+00  0.00000000000E+00 -0.21449973222E+04  0.41895230901E+04  0.35987623164E+04 0.  0.
        3    1    3    3  502    0  0.45334467151E+03 -0.17076651557E+04 -0.14692197236E+04  0.22978790833E+04  0.10100000352E+00 0. -1.
       -3    1    3    3    0  502 -0.45334467151E+03  0.17076651557E+04 -0.67577759864E+03  0.18916440068E+04  0.10100000352E+00 0.  1.
</event>
<event>
 5   0  0.7236375E-08  0.3591717E+04  0.7818609E-02  0.8092392E-01
       -1   -1    0    0    0  501  0.00000000000E+00  0.00000000000E+00  0.13001608621E+04  0.13001608621E+04  0.50400001928E-02 0. -1.
        1   -1    0    0  501    0  0.00000000000E+00  0.00000000000E+00 -0.24805457320E+04  0.24805457320E+04  0.50400001928E-02 0.  1.
    10030    2    1    2    0    0  0.00000000000E+00  0.00000000000E+00 -0.11803848699E+04  0.37807065941E+04  0.35917174039E+04 0.  0.
        5    1    3    3  502    0  0.83363857855E+03 -0.25964891605E+03  0.10616854609E+04  0.13746159271E+04  0.46999998093E+01 0. -1.
       -5    1    3    3    0  502 -0.83363857855E+03  0.25964891605E+03 -0.22420703308E+04  0.24060906669E+04  0.46999998093E+01 0.  1.
</event>
<event>
 5   0  0.2198900E-07  0.3601951E+04  0.7818609E-02  0.8090045E-01
        2   -1    0    0  501    0  0.00000000000E+00  0.00000000000E+00  0.24821977694E+04  0.24821977694E+04  0.25500000920E-02 0.  1.
       -2   -1    0    0    0  501  0.00000000000E+00  0.00000000000E+00 -0.13067103703E+04  0.13067103703E+04  0.25500000920E-02 0. -1.
    10030    2    1    2    0    0  0.00000000000E+00  0.00000000000E+00  0.11754873991E+04  0.37889081398E+04  0.36019514525E+04 0.  0.
        2    1    3    3  502    0 -0.13606462034E+04  0.11566567714E+04  0.83286355409E+03  0.19705011235E+04  0.25500000920E-02 0.  1.
       -2    1    3    3    0  502  0.13606462034E+04 -0.11566567714E+04  0.34262384498E+03  0.18184070163E+04  0.25500000920E-02 0. -1.
</event>
<event>
 5   0  0.7514289E-08  0.3601613E+04  0.7818609E-02  0.8090122E-01
       -1   -1    0    0    0  501  0.00000000000E+00  0.00000000000E+00  0.21388614950E+04  0.21388614950E+04  0.50400001928E-02 0. -1.
        1   -1    0    0  501    0  0.00000000000E+00  0.00000000000E+00 -0.15161827186E+04  0.15161827186E+04  0.50400001928E-02 0.  1.
    10030    2    1    2    0    0  0.00000000000E+00  0.00000000000E+00  0.62267877644E+03  0.36550442136E+04  0.36016134364E+04 0.  0.
        4    1    3    3  502    0  0.15192952463E+04 -0.49033388311E+03  0.11568974381E+04  0.19715726357E+04  0.12699999809E+01 0. -1.
       -4    1    3    3    0  502 -0.15192952463E+04  0.49033388311E+03 -0.53421866170E+03  0.16834715780E+04  0.12699999809E+01 0.  1.
</event>
<event>
 5   0  0.2238968E-07  0.3604229E+04  0.7818609E-02  0.8089524E-01
       -2   -1    0    0    0  501  0.00000000000E+00  0.00000000000E+00  0.12313958312E+04  0.12313958312E+04  0.25500000920E-02 0. -1.
        2   -1    0    0  501    0  0.00000000000E+00  0.00000000000E+00 -0.26373460960E+04  0.26373460960E+04  0.25500000920E-02 0.  1.
    10030    2    1    2    0    0  0.00000000000E+00  0.00000000000E+00 -0.14059502648E+04  0.38687419272E+04  0.36042291759E+04 0.  0.
        3    1    3    3  502    0  0.13763747595E+04 -0.10152357543E+03 -0.19468583185E+04  0.23864140122E+04  0.10100000352E+00 0.  1.
       -3    1    3    3    0  502 -0.13763747595E+04  0.10152357543E+03  0.54090805374E+03  0.14823279151E+04  0.10100000352E+00 0. -1.
</event>
<event>
 5   0  0.2342606E-07  0.3608591E+04  0.7818609E-02  0.8088527E-01
       -2   -1    0    0    0  501  0.00000000000E+00  0.00000000000E+00  0.14372085942E+04  0.14372085942E+04  0.25500000920E-02 0. -1.
        2   -1    0    0  501    0  0.00000000000E+00  0.00000000000E+00 -0.22651428586E+04  0.22651428586E+04  0.25500000920E-02 0.  1.
    10030    2    1    2    0    0  0.00000000000E+00  0.00000000000E+00 -0.82793426439E+03  0.37023514528E+04  0.36085912949E+04 0.  0.
        5    1    3    3  502    0  0.56010884288E+03 -0.13001362860E+04 -0.15616854589E+04  0.21078329726E+04  0.46999998093E+01 0.  1.
       -5    1    3    3    0  502 -0.56010884288E+03  0.13001362860E+04  0.73375119452E+03  0.15945184801E+04  0.46999998093E+01 0. -1.
</event>
<event>
 5   0  0.2309391E-07  0.3594947E+04  0.7818609E-02  0.8091650E-01
        2   -1    0    0  501    0  0.00000000000E+00  0.00000000000E+00  0.10630465558E+04  0.10630465558E+04  0.25500000920E-02 0. -1.
       -2   -1    0    0    0  501  0.00000000000E+00  0.00000000000E+00 -0.30392938135E+04  0.30392938135E+04  0.25500000920E-02 0.  1.
    10030    2    1    2    0    0  0.00000000000E+00  0.00000000000E+00 -0.19762472577E+04  0.41023403693E+04  0.35949469095E+04 0.  0.
        4    1    3    3  502    0 -0.16636353366E+04 -0.16347991011E+02 -0.21167867601E+03  0.16771282792E+04  0.12699999809E+01 0. -1.
       -4    1    3    3    0  502  0.16636353366E+04  0.16347991011E+02 -0.17645685817E+04  0.24252120902E+04  0.12699999809E+01 0.  1.
</event>
<event>
 5   0  0.7514289E-08  0.3582038E+04  0.7818609E-02  0.8094619E-01
       -1   -1    0    0    0  501  0.00000000000E+00  0.00000000000E+00  0.13181150662E+04  0.13181150662E+04  0.50400001928E-02 0. -1.
        1   -1    0    0  501    0  0.00000000000E+00  0.00000000000E+00 -0.24335878009E+04  0.24335878009E+04  0.50400001928E-02 0.  1.
    10030    2    1    2    0    0  0.00000000000E+00  0.00000000000E+00 -0.11154727347E+04  0.37517028672E+04  0.35820378253E+04 0.  0.
        4    1    3    3  502    0 -0.17066611625E+04 -0.52810407837E+03 -0.42458950947E+03  0.18362636264E+04  0.12699999809E+01 0.  1.
       -4    1    3    3    0  502  0.17066611625E+04  0.52810407837E+03 -0.69088322521E+03  0.19154392407E+04  0.12699999809E+01 0. -1.
</event>
<event>
 5   0  0.2199902E-07  0.3596671E+04  0.7818609E-02  0.8091255E-01
        2   -1    0    0  501    0  0.00000000000E+00  0.00000000000E+00  0.29600545753E+04  0.29600545753E+04  0.25500000920E-02 0.  1.
       -2   -1    0    0    0  501  0.00000000000E+00  0.00000000000E+00 -0.10925507694E+04  0.10925507694E+04  0.25500000920E-02 0. -1.
    10030    2    1    2    0    0  0.00000000000E+00  0.00000000000E+00  0.18675038059E+04  0.40526053447E+04  0.35966706292E+04 0.  0.
        1    1    3    3  502    0 -0.69539130144E+03 -0.12324858979E+04 -0.31661258824E+03  0.14501151960E+04  0.50400001928E-02 0. -1.
       -1    1    3    3    0  502  0.69539130144E+03  0.12324858979E+04  0.21841163941E+04  0.26024901486E+04  0.50400001928E-02 0.  1.
</event>
<event>
 5   0  0.7236375E-08  0.3610509E+04  0.7818609E-02  0.8088089E-01
        1   -1    0    0  501    0  0.00000000000E+00  0.00000000000E+00  0.28182419706E+04  0.28182419706E+04  0.50400001928E-02 0.  1.
       -1   -1    0    0    0  501  0.00000000000E+00  0.00000000000E+00 -0.11563744752E+04  0.11563744752E+04  0.50400001928E-02 0. -1.
    10030    2    1    2    0    0  0.00000000000E+00  0.00000000000E+00  0.16618674954E+04  0.39746164457E+04  0.36105085955E+04 0.  0.
        1    1    3    3  502    0 -0.17832978709E+03  0.55433316385E+03 -0.10501476204E+04  0.12007900708E+04  0.50400001928E-02 0. -1.
       -1    1    3    3    0  502  0.17832978709E+03 -0.55433316385E+03  0.27120151159E+04  0.27738263749E+04  0.50400001928E-02 0.  1.
</event>
<event>
 5   0  0.2309391E-07  0.3605107E+04  0.7818609E-02  0.8089323E-01
        2   -1    0    0  501    0  0.00000000000E+00  0.00000000000E+00  0.20389139513E+04  0.20389139513E+04  0.25500000920E-02 0. -1.
       -2   -1    0    0    0  501  0.00000000000E+00  0.00000000000E+00 -0.15935932437E+04  0.15935932437E+04  0.25500000920E-02 0.  1.
    10030    2    1    2    0    0  0.00000000000E+00  0.00000000000E+00  0.44532070756E+03  0.36325071950E+04  0.36051072091E+04 0.  0.
        4    1    3    3  502    0 -0.14166360827E+04  0.95394126165E+02 -0.89629332818E+03  0.16790774768E+04  0.12699999809E+01 0.  1.
       -4    1    3    3    0  502  0.14166360827E+04 -0.95394126165E+02  0.13416140357E+04  0.19534297182E+04  0.12699999809E+01 0. -1.
</event>
<event>
 5   0  0.7236375E-08  0.3630130E+04  0.7818609E-02  0.8083625E-01
       -1   -1    0    0    0  501  0.00000000000E+00  0.00000000000E+00  0.12646042742E+04  0.12646042742E+04  0.50400001928E-02 0. -1.
        1   -1    0    0  501    0  0.00000000000E+00  0.00000000000E+00 -0.26051320720E+04  0.26051320720E+04  0.50400001928E-02 0.  1.
    10030    2    1    2    0    0  0.00000000000E+00  0.00000000000E+00 -0.13405277978E+04  0.38697363462E+04  0.36301301096E+04 0.  0.
        1    1    3    3  502    0  0.11958032668E+04 -0.11985033481E+04 -0.13677483832E+04  0.21764860138E+04  0.50400001928E-02 0. -1.
       -1    1    3    3    0  502 -0.11958032668E+04  0.11985033481E+04  0.27220585461E+02  0.16932503325E+04  0.50400001928E-02 0.  1.
</event>
<event>
 5   0  0.2342606E-07  0.3606632E+04  0.7818609E-02  0.8088974E-01
        2   -1    0    0  501    0  0.00000000000E+00  0.00000000000E+00  0.24184602476E+04  0.24184602476E+04  0.25500000920E-02 0.  1.
       -2   -1    0    0    0  501  0.00000000000E+00  0.00000000000E+00 -0.13446359298E+04  0.13446359298E+04  0.25500000920E-02 0. -1.
    10030    2    1    2    0    0  0.00000000000E+00  0.00000000000E+00  0.10738243177E+04  0.37630961774E+04  0.36066319711E+04 0.  0.
        5    1    3    3  502    0  0.28571664189E+03  0.15725104468E+04 -0.33448600116E+03  0.16328888755E+04  0.46999998093E+01 0. -1.
       -5    1    3    3    0  502 -0.28571664189E+03 -0.15725104468E+04  0.14083103189E+04  0.21302073019E+04  0.46999998093E+01 0.  1.
</event>
<event>
 5   0  0.2342606E-07  0.3600327E+04  0.7818609E-02  0.8090417E-01
       -2   -1    0    0    0  501  0.00000000000E+00  0.00000000000E+00  0.17503112721E+04  0.17503112721E+04  0.25500000920E-02 0.  1.
        2   -1    0    0  501    0  0.00000000000E+00  0.00000000000E+00 -0.18514360286E+04  0.18514360286E+04  0.25500000920E-02 0. -1.
    10030    2    1    2    0    0  0.00000000000E+00  0.00000000000E+00 -0.10112475651E+03  0.36017473006E+04  0.36003274020E+04 0.  0.
        5    1    3    3  502    0  0.10631424169E+04  0.87510581354E+03  0.11094143298E+04  0.17683054682E+04  0.46999998093E+01 0.  1.
       -5    1    3    3    0  502 -0.10631424169E+04 -0.87510581354E+03 -0.12105390863E+04  0.18334418325E+04  0.46999998093E+01 0. -1.
</event>
<event>
 5   0  0.2198900E-07  0.3592246E+04  0.7818609E-02  0.8092270E-01
        2   -1    0    0  501    0  0.00000000000E+00  0.00000000000E+00  0.31341977153E+04  0.31341977153E+04  0.25500000920E-02 0.  1.
       -2   -1    0    0    0  501  0.00000000000E+00  0.00000000000E+00 -0.10293091386E+04  0.10293091386E+04  0.25500000920E-02 0. -1.
    10030    2    1    2    0    0  0.00000000000E+00  0.00000000000E+00  0.21048885767E+04  0.41635068538E+04  0.35922462891E+04 0.  0.
        2    1    3    3  502    0  0.11251691527E+03 -0.17855604613E+04  0.12363322040E+04  0.21747191855E+04  0.25500000920E-02 0.  1.
       -2    1    3    3    0  502 -0.11251691527E+03  0.17855604613E+04  0.86855637270E+03  0.19887876683E+04  0.25500000920E-02 0. -1.
</event>
<event>
 5   0  0.2198900E-07  0.3641693E+04  0.7818609E-02  0.8081008E-01
        2   -1    0    0  501    0  0.00000000000E+00  0.00000000000E+00  0.22558020036E+04  0.22558020036E+04  0.25500000920E-02 0. -1.
       -2   -1    0    0    0  501  0.00000000000E+00  0.00000000000E+00 -0.14697572231E+04  0.14697572231E+04  0.25500000920E-02 0.  1.
    10030    2    1    2    0    0  0.00000000000E+00  0.00000000000E+00  0.78604478047E+03  0.37255592266E+04  0.36416926222E+04 0.  0.
        2    1    3    3  502    0 -0.72139664322E+03  0.52256930474E+03 -0.12316276369E+04  0.15199994839E+04  0.25500000920E-02 0.  1.
       -2    1    3    3    0  502  0.72139664322E+03 -0.52256930474E+03  0.20176724173E+04  0.22055597427E+04  0.25500000920E-02 0. -1.
</event>
<event>
 5   0  0.2199902E-07  0.3599783E+04  0.7818609E-02  0.8090541E-01
       -2   -1    0    0    0  501  0.00000000000E+00  0.00000000000E+00  0.13367955743E+04  0.13367955743E+04  0.25500000920E-02 0. -1.
        2   -1    0    0  501    0  0.00000000000E+00  0.00000000000E+00 -0.24234139100E+04  0.24234139100E+04  0.25500000920E-02 0.  1.
    10030    2    1    2    0    0  0.00000000000E+00  0.00000000000E+00 -0.10866183357E+04  0.37602094843E+04  0.35997827654E+04 0.  0.
        1    1    3    3  502    0  0.96621253485E+03 -0.58501953765E+03  0.92049764197E+03  0.14570965757E+04  0.50400001928E-02 0. -1.
       -1    1    3    3    0  502 -0.96621253485E+03  0.58501953765E+03 -0.20071159777E+04  0.23031129086E+04  0.50400001928E-02 0.  1.
</event>
<event>
 5   0  0.7236375E-08  0.3606881E+04  0.7818609E-02  0.8088917E-01
        1   -1    0    0  501    0  0.00000000000E+00  0.00000000000E+00  0.21939278384E+04  0.21939278384E+04  0.50400001928E-02 0.  1.
       -1   -1    0    0    0  501  0.00000000000E+00  0.00000000000E+00 -0.14824541170E+04  0.14824541170E+04  0.50400001928E-02 0. -1.
    10030    2    1    2    0    0  0.00000000000E+00  0.00000000000E+00  0.71147372145E+03  0.36763819554E+04  0.36068808444E+04 0.  0.
        5    1    3    3  502    0 -0.22759703701E+03  0.99021057159E+03  0.18744333150E+04  0.21320974954E+04  0.46999998093E+01 0.  1.
       -5    1    3    3    0  502  0.22759703701E+03 -0.99021057159E+03 -0.11629595935E+04  0.15442844601E+04  0.46999998093E+01 0. -1.
</event>
<event>
 5   0  0.7261233E-08  0.3631311E+04  0.7818609E-02  0.8083357E-01
       -1   -1    0    0    0  501  0.00000000000E+00  0.00000000000E+00  0.20240696744E+04  0.20240696744E+04  0.50400001928E-02 0.  1.
        1   -1    0    0  501    0  0.00000000000E+00  0.00000000000E+00 -0.16287011675E+04  0.16287011675E+04  0.50400001928E-02 0. -1.
    10030    2    1    2    0    0  0.00000000000E+00  0.00000000000E+00  0.39536850696E+03  0.36527708419E+04  0.36313108607E+04 0.  0.
        3    1    3    3  502    0 -0.97922973432E+03  0.16494041438E+03 -0.13313343747E+04  0.16608875460E+04  0.10100000352E+00 0. -1.
       -3    1    3    3    0  502  0.97922973432E+03 -0.16494041438E+03  0.17267028817E+04  0.19918832959E+04  0.10100000352E+00 0.  1.
</event>
<event>
 5   0  0.2238968E-07  0.3643722E+04  0.7818609E-02  0.8080550E-01
       -2   -1    0    0    0  501  0.00000000000E+00  0.00000000000E+00  0.22081156822E+04  0.22081156822E+04  0.25500000920E-02 0.  1.
        2   -1    0    0  501    0  0.00000000000E+00  0.00000000000E+00 -0.15031715203E+04  0.15031715203E+04  0.25500000920E-02 0. -1.
    10030    2    1    2    0    0  0.00000000000E+00  0.00000000000E+00  0.70494416198E+03  0.37112872025E+04  0.36437215080E+04 0.  0.
        3    1    3    3  502    0  0.92013188709E+03  0.15579261592E+04  0.13544833062E+03  0.18144208078E+04  0.10100000352E+00 0.  1.
       -3    1    3    3    0  502 -0.92013188709E+03 -0.15579261592E+04  0.56949583136E+03  0.18968663947E+04  0.10100000352E+00 0. -1.
</event>
<event>
 5   0  0.7236375E-08  0.3608991E+04  0.7818609E-02  0.8088435E-01
        1   -1    0    0  501    0  0.00000000000E+00  0.00000000000E+00  0.21400341863E+04  0.21400341864E+04  0.50400001928E-02 0. -1.
       -1   -1    0    0    0  501  0.00000000000E+00  0.00000000000E+00 -0.15215660968E+04  0.15215660968E+04  0.50400001928E-02 0.  1.
    10030    2    1    2    0    0  0.00000000000E+00  0.00000000000E+00  0.61846808951E+03  0.36616002832E+04  0.36089906977E+04 0.  0.
        1    1    3    3  502    0 -0.22044982904E+03 -0.19455704345E+03  0.21155672848E+04  0.21359015676E+04  0.50400001928E-02 0. -1.
       -1    1    3    3    0  502  0.22044982904E+03  0.19455704345E+03 -0.14970991952E+04  0.15256987156E+04  0.50400001928E-02 0.  1.
</event>
<event>
 5   0  0.2198900E-07  0.3605099E+04  0.7818609E-02  0.8089325E-01
       -2   -1    0    0    0  501  0.00000000000E+00  0.00000000000E+00  0.17985279929E+04  0.17985279929E+04  0.25500000920E-02 0. -1.
        2   -1    0    0  501    0  0.00000000000E+00  0.00000000000E+00 -0.18065795696E+04  0.18065795696E+04  0.25500000920E-02 0.  1.
    10030    2    1    2    0    0  0.00000000000E+00  0.00000000000E+00 -0.80515767600E+01  0.36051075625E+04  0.36050985714E+04 0.  0.
        2    1    3    3  502    0 -0.10881026941E+04 -0.14211332456E+04  0.20950870545E+03  0.18020768775E+04  0.25500000920E-02 0.  1.
       -2    1    3    3    0  502  0.10881026941E+04  0.14211332456E+04 -0.21756028221E+03  0.18030306850E+04  0.25500000920E-02 0. -1.
</event>
<event>
 5   0  0.7514289E-08  0.3595675E+04  0.7818609E-02  0.8091483E-01
       -1   -1    0    0    0  501  0.00000000000E+00  0.00000000000E+00  0.23199118578E+04  0.23199118578E+04  0.50400001928E-02 0. -1.
        1   -1    0    0  501    0  0.00000000000E+00  0.00000000000E+00 -0.13932513053E+04  0.13932513053E+04  0.50400001928E-02 0.  1.
    10030    2    1    2    0    0  0.00000000000E+00  0.00000000000E+00  0.92666055245E+03  0.37131631631E+04  0.35956753047E+04 0.  0.
        4    1    3    3  502    0  0.93854292219E+01  0.42294964575E+03 -0.13411175561E+04  0.14062618537E+04  0.12699999809E+01 0.  1.
       -4    1    3    3    0  502 -0.93854292219E+01 -0.42294964575E+03  0.22677781085E+04  0.23069013094E+04  0.12699999809E+01 0. -1.
</event>
<event>
 5   0  0.7236375E-08  0.3597905E+04  0.7818609E-02  0.8090972E-01
        1   -1    0    0  501    0  0.00000000000E+00  0.00000000000E+00  0.11693833856E+04  0.11693833856E+04  0.50400001928E-02 0. -1.
       -1   -1    0    0    0  501  0.00000000000E+00  0.00000000000E+00 -0.27674678234E+04  0.27674678234E+04  0.50400001928E-02 0.  1.
    10030    2    1    2    0    0  0.00000000000E+00  0.00000000000E+00 -0.15980844378E+04  0.39368512090E+04  0.35979054423E+04 0.  0.
        1    1    3    3  502    0 -0.94803999921E+03  0.13143545580E+04 -0.16535909117E+04  0.23153122138E+04  0.50400001928E-02 0.  1.
       -1    1    3    3    0  502  0.94803999921E+03 -0.13143545580E+04  0.55506473878E+02  0.16215389952E+04  0.50400001928E-02 0. -1.
</event>
<event>
 5   0  0.7347303E-08  0.3599498E+04  0.7818609E-02  0.8090607E-01
        1   -1    0    0  501    0  0.00000000000E+00  0.00000000000E+00  0.24729201034E+04  0.24729201034E+04  0.50400001928E-02 0. -1.
       -1   -1    0    0    0  501  0.00000000000E+00  0.00000000000E+00 -0.13098264327E+04  0.13098264327E+04  0.50400001928E-02 0.  1.
    10030    2    1    2    0    0  0.00000000000E+00  0.00000000000E+00  0.11630936707E+04  0.37827465361E+04  0.35994978080E+04 0.  0.
        2    1    3    3  502    0 -0.15152697991E+04  0.73464422543E+03 -0.85885312907E+02  0.16861556835E+04  0.25500000920E-02 0.  1.
       -2    1    3    3    0  502  0.15152697991E+04 -0.73464422543E+03  0.12489789836E+04  0.20965908527E+04  0.25500000920E-02 0. -1.
</event>
<event>
 5   0  0.7236375E-08  0.3580447E+04  0.7818609E-02  0.8094985E-01
        1   -1    0    0  501    0  0.00000000000E+00  0.00000000000E+00  0.14599557468E+04  0.14599557468E+04  0.50400001928E-02 0.  1.
       -1   -1    0    0    0  501  0.00000000000E+00  0.00000000000E+00 -0.21952040012E+04  0.21952040012E+04  0.50400001928E-02 0. -1.
    10030    2    1    2    0    0  0.00000000000E+00  0.00000000000E+00 -0.73524825441E+03  0.36551597479E+04  0.35804472887E+04 0.  0.
        5    1    3    3  502    0  0.15619909843E+04  0.83746384081E+03 -0.62531381247E+03  0.18794150616E+04  0.46999998093E+01 0. -1.
       -5    1    3    3    0  502 -0.15619909843E+04 -0.83746384081E+03 -0.10993444194E+03  0.17757446864E+04  0.46999998093E+01 0.  1.
</event>
<event>
 5   0  0.2309391E-07  0.3627225E+04  0.7818609E-02  0.8084284E-01
        2   -1    0    0  501    0  0.00000000000E+00  0.00000000000E+00  0.25967875210E+04  0.25967875210E+04  0.25500000920E-02 0.  1.
       -2   -1    0    0    0  501  0.00000000000E+00  0.00000000000E+00 -0.12666385102E+04  0.12666385102E+04  0.25500000920E-02 0. -1.
    10030    2    1    2    0    0  0.00000000000E+00  0.00000000000E+00  0.13301490109E+04  0.38634260312E+04  0.36272254283E+04 0.  0.
        4    1    3    3  502    0  0.87219748559E+03  0.58215242761E+03  0.22411478936E+04  0.24743434274E+04  0.12699999809E+01 0.  1.
       -4    1    3    3    0  502 -0.87219748559E+03 -0.58215242761E+03 -0.91099888275E+03  0.13890826038E+04  0.12699999809E+01 0. -1.
</event>
<event>
 5   0  0.2309391E-07  0.3591644E+04  0.7818609E-02  0.8092408E-01
        2   -1    0    0  501    0  0.00000000000E+00  0.00000000000E+00  0.19953834754E+04  0.19953834754E+04  0.25500000920E-02 0. -1.
       -2   -1    0    0    0  501  0.00000000000E+00  0.00000000000E+00 -0.16162187275E+04  0.16162187275E+04  0.25500000920E-02 0.  1.
    10030    2    1    2    0    0  0.00000000000E+00  0.00000000000E+00  0.37916474788E+03  0.36116022029E+04  0.35916437136E+04 0.  0.
        4    1    3    3  502    0  0.43900135011E+03 -0.94855895516E+03 -0.12788365886E+04  0.16516388559E+04  0.12699999809E+01 0.  1.
       -4    1    3    3    0  502 -0.43900135011E+03  0.94855895516E+03  0.16580013365E+04  0.19599633470E+04  0.12699999809E+01 0. -1.
</event>
<event>
 5   0  0.7347303E-08  0.3558709E+04  0.7818609E-02  0.8100016E-01
       -1   -1    0    0    0  501  0.00000000000E+00  0.00000000000E+00  0.12282625126E+04  0.12282625126E+04  0.50400001928E-02 0.  1.
        1   -1    0    0  501    0  0.00000000000E+00  0.00000000000E+00 -0.25777076897E+04  0.25777076897E+04  0.50400001928E-02 0. -1.
    10030    2    1    2    0    0  0.00000000000E+00  0.00000000000E+00 -0.13494451771E+04  0.38059702023E+04  0.35587085993E+04 0.  0.
        2    1    3    3  502    0 -0.81421271918E+03 -0.14724263797E+04 -0.12938400929E+04  0.21224994657E+04  0.25500000920E-02 0. -1.
       -2    1    3    3    0  502  0.81421271918E+03  0.14724263797E+04 -0.55605084222E+02  0.16834707367E+04  0.25500000920E-02 0.  1.
</event>
<event>
 5   0  0.2309391E-07  0.3573785E+04  0.7818609E-02  0.8096523E-01
       -2   -1    0    0    0  501  0.00000000000E+00  0.00000000000E+00  0.22808967158E+04  0.22808967158E+04  0.25500000920E-02 0.  1.
        2   -1    0    0  501    0  0.00000000000E+00  0.00000000000E+00 -0.13998815314E+04  0.13998815314E+04  0.25500000920E-02 0. -1.
    10030    2    1    2    0    0  0.00000000000E+00  0.00000000000E+00  0.88101518439E+03  0.36807782472E+04  0.35737852132E+04 0.  0.
        4    1    3    3  502    0 -0.11892851642E+04  0.21644773318E+03  0.17958589406E+04  0.21648001687E+04  0.12699999809E+01 0.  1.
       -4    1    3    3    0  502  0.11892851642E+04 -0.21644773318E+03 -0.91484375623E+03  0.15159780784E+04  0.12699999809E+01 0. -1.
</event>
<event>
 5   0  0.2199902E-07  0.3476710E+04  0.7818609E-02  0.8119332E-01
        2   -1    0    0  501    0  0.00000000000E+00  0.00000000000E+00  0.25227526213E+04  0.25227526213E+04  0.25500000920E-02 0.  1.
       -2   -1    0    0    0  501  0.00000000000E+00  0.00000000000E+00 -0.11978498343E+04  0.11978498343E+04  0.25500000920E-02 0. -1.
    10030    2    1    2    0    0  0.00000000000E+00  0.00000000000E+00  0.13249027870E+04  0.37206024556E+04  0.34767104046E+04 0.  0.
        1    1    3    3  502    0 -0.13284848748E+04  0.11087738601E+04  0.48457686278E+03  0.17969602866E+04  0.50400001928E-02 0. -1.
       -1    1    3    3    0  502  0.13284848748E+04 -0.11087738601E+04  0.84032592425E+03  0.19236421690E+04  0.50400001928E-02 0.  1.
</event>
<event>
 5   0  0.2309391E-07  0.3596568E+04  0.7818609E-02  0.8091278E-01
       -2   -1    0    0    0  501  0.00000000000E+00  0.00000000000E+00  0.12177156345E+04  0.12177156345E+04  0.25500000920E-02 0. -1.
        2   -1    0    0  501    0  0.00000000000E+00  0.00000000000E+00 -0.26556487054E+04  0.26556487054E+04  0.25500000920E-02 0.  1.
    10030    2    1    2    0    0  0.00000000000E+00  0.00000000000E+00 -0.14379330708E+04  0.38733643399E+04  0.35965677796E+04 0.  0.
        4    1    3    3  502    0 -0.12082138398E+04 -0.10107529846E+02 -0.21533643801E+04  0.24691825795E+04  0.12699999809E+01 0.  1.
       -4    1    3    3    0  502  0.12082138398E+04  0.10107529846E+02  0.71543130923E+03  0.14041817603E+04  0.12699999809E+01 0. -1.
</event>
<event>
 5   0  0.7236375E-08  0.3615707E+04  0.7818609E-02  0.8086903E-01
        1   -1    0    0  501    0  0.00000000000E+00  0.00000000000E+00  0.20056144137E+04  0.20056144137E+04  0.50400001928E-02 0.  1.
       -1   -1    0    0    0  501  0.00000000000E+00  0.00000000000E+00 -0.16295922103E+04  0.16295922103E+04  0.50400001928E-02 0. -1.
    10030    2    1    2    0    0  0.00000000000E+00  0.00000000000E+00  0.37602220341E+03  0.36352066240E+04  0.36157066393E+04 0.  0.
        5    1    3    3  502    0  0.11983436125E+04 -0.46547540656E+03  0.14659352894E+04  0.19497905350E+04  0.46999998093E+01 0.  1.
       -5    1    3    3    0  502 -0.11983436125E+04  0.46547540656E+03 -0.10899130860E+04  0.16854160889E+04  0.46999998093E+01 0. -1.
</event>
<event>
 5   0  0.2342606E-07  0.3593758E+04  0.7818609E-02  0.8091923E-01
        2   -1    0    0  501    0  0.00000000000E+00  0.00000000000E+00  0.20357480568E+04  0.20357480568E+04  0.25500000920E-02 0.  1.
       -2   -1    0    0    0  501  0.00000000000E+00  0.00000000000E+00 -0.15860378744E+04  0.15860378744E+04  0.25500000920E-02 0. -1.
    10030    2    1    2    0    0  0.00000000000E+00  0.00000000000E+00  0.44971018240E+03  0.36217859312E+04  0.35937576551E+04 0.  0.
        5    1    3    3  502    0 -0.79086466779E+03 -0.13076105150E+04 -0.72773597430E+03  0.16926115680E+04  0.46999998093E+01 0. -1.
       -5    1    3    3    0  502  0.79086466779E+03  0.13076105150E+04  0.11774461567E+04  0.19291743632E+04  0.46999998093E+01 0.  1.
</event>
<event>
 5   0  0.7236375E-08  0.3603305E+04  0.7818609E-02  0.8089735E-01
        1   -1    0    0  501    0  0.00000000000E+00  0.00000000000E+00  0.12377552478E+04  0.12377552478E+04  0.50400001928E-02 0. -1.
       -1   -1    0    0    0  501  0.00000000000E+00  0.00000000000E+00 -0.26224504589E+04  0.26224504589E+04  0.50400001928E-02 0.  1.
    10030    2    1    2    0    0  0.00000000000E+00  0.00000000000E+00 -0.13846952111E+04  0.38602057067E+04  0.36033050482E+04 0.  0.
        5    1    3    3  502    0  0.13732546123E+04 -0.25923540163E+03  0.52577677260E+03  0.14931491983E+04  0.46999998093E+01 0. -1.
       -5    1    3    3    0  502 -0.13732546123E+04  0.25923540163E+03 -0.19104719837E+04  0.23670565084E+04  0.46999998093E+01 0.  1.
</event>
<event>
 5   0  0.7261233E-08  0.3595820E+04  0.7818609E-02  0.8091450E-01
        1   -1    0    0  501    0  0.00000000000E+00  0.00000000000E+00  0.10441417891E+04  0.10441417891E+04  0.50400001928E-02 0.  1.
       -1   -1    0    0    0  501  0.00000000000E+00  0.00000000000E+00 -0.30958243199E+04  0.30958243199E+04  0.50400001928E-02 0. -1.
    10030    2    1    2    0    0  0.00000000000E+00  0.00000000000E+00 -0.20516825308E+04  0.41399661090E+04  0.35958195417E+04 0.  0.
        3    1    3    3  502    0  0.45903516809E+02 -0.80648986974E+03  0.82344543741E+03  0.11535143872E+04  0.10100000352E+00 0.  1.
       -3    1    3    3    0  502 -0.45903516809E+02  0.80648986974E+03 -0.28751279682E+04  0.29864517218E+04  0.10100000352E+00 0. -1.
</event>
<event>
 5   0  0.2238968E-07  0.3652981E+04  0.7818609E-02  0.8078462E-01
        2   -1    0    0  501    0  0.00000000000E+00  0.00000000000E+00  0.23129935622E+04  0.23129935622E+04  0.25500000920E-02 0.  1.
       -2   -1    0    0    0  501  0.00000000000E+00  0.00000000000E+00 -0.14423162024E+04  0.14423162024E+04  0.25500000920E-02 0. -1.
    10030    2    1    2    0    0  0.00000000000E+00  0.00000000000E+00  0.87067735978E+03  0.37553097647E+04  0.36529812980E+04 0.  0.
        3    1    3    3  502    0 -0.59452797848E+03  0.13641998402E+04 -0.65336633693E+03  0.16252360756E+04  0.10100000352E+00 0. -1.
       -3    1    3    3    0  502  0.59452797848E+03 -0.13641998402E+04  0.15240436967E+04  0.21300736890E+04  0.10100000352E+00 0.  1.
</event>
<event>
 5   0  0.7236375E-08  0.3613042E+04  0.7818609E-02  0.8087511E-01
       -1   -1    0    0    0  501  0.00000000000E+00  0.00000000000E+00  0.14018713685E+04  0.14018713685E+04  0.50400001928E-02 0. -1.
        1   -1    0    0  501    0  0.00000000000E+00  0.00000000000E+00 -0.23279723207E+04  0.23279723207E+04  0.50400001928E-02 0.  1.
    10030    2    1    2    0    0  0.00000000000E+00  0.00000000000E+00 -0.92610095223E+03  0.37298436892E+04  0.36130417895E+04 0.  0.
        1    1    3    3  502    0  0.15883419659E+04 -0.58716708051E+03  0.18651459386E+03  0.17036381877E+04  0.50400001928E-02 0. -1.
       -1    1    3    3    0  502 -0.15883419659E+04  0.58716708051E+03 -0.11126155461E+04  0.20262055015E+04  0.50400001928E-02 0.  1.
</event>
<event>
 5   0  0.7514289E-08  0.3583146E+04  0.7818609E-02  0.8094363E-01
       -1   -1    0    0    0  501  0.00000000000E+00  0.00000000000E+00  0.17117960766E+04  0.17117960766E+04  0.50400001928E-02 0. -1.
        1   -1    0    0  501    0  0.00000000000E+00  0.00000000000E+00 -0.18750681152E+04  0.18750681152E+04  0.50400001928E-02 0.  1.
    10030    2    1    2    0    0  0.00000000000E+00  0.00000000000E+00 -0.16327203858E+03  0.35868641918E+04  0.35831462393E+04 0.  0.
        4    1    3    3  502    0 -0.13104696803E+04 -0.50842473941E+03 -0.11936018988E+04  0.18440481567E+04  0.12699999809E+01 0.  1.
       -4    1    3    3    0  502  0.13104696803E+04  0.50842473941E+03  0.10303298602E+04  0.17428160351E+04  0.12699999809E+01 0. -1.
</event>
<event>
 5   0  0.7236375E-08  0.3600851E+04  0.7818609E-02  0.8090297E-01
       -1   -1    0    0    0  501  0.00000000000E+00  0.00000000000E+00  0.30336676798E+04  0.30336676798E+04  0.50400001928E-02 0. -1.
        1   -1    0    0  501    0  0.00000000000E+00  0.00000000000E+00 -0.10685189764E+04  0.10685189764E+04  0.50400001928E-02 0.  1.
    10030    2    1    2    0    0  0.00000000000E+00  0.00000000000E+00  0.19651487034E+04  0.41021866562E+04  0.36008507239E+04 0.  0.
        5    1    3    3  502    0 -0.14141707940E+04 -0.10089688281E+04  0.15212881612E+04  0.23091636776E+04  0.46999998093E+01 0. -1.
       -5    1    3    3    0  502  0.14141707940E+04  0.10089688281E+04  0.44386054221E+03  0.17930229786E+04  0.46999998093E+01 0.  1.
</event>
<event>
 5   0  0.7236375E-08  0.3591307E+04  0.7818609E-02  0.8092486E-01
       -1   -1    0    0    0  501  0.00000000000E+00  0.00000000000E+00  0.13071782867E+04  0.13071782867E+04  0.50400001928E-02 0. -1.
        1   -1    0    0  501    0  0.00000000000E+00  0.00000000000E+00 -0.24666649394E+04  0.24666649394E+04  0.50400001928E-02 0.  1.
    10030    2    1    2    0    0  0.00000000000E+00  0.00000000000E+00 -0.11594866527E+04  0.37738432261E+04  0.35913066421E+04 0.  0.
        1    1    3    3  502    0  0.13703428764E+04 -0.26158295858E+03  0.60825201013E+03  0.15219184443E+04  0.50400001928E-02 0. -1.
       -1    1    3    3    0  502 -0.13703428764E+04  0.26158295858E+03 -0.17677386628E+04  0.22519247819E+04  0.50400001928E-02 0.  1.
</event>
<event>
 5   0  0.7236375E-08  0.3382501E+04  0.7818609E-02  0.8142214E-01
       -1   -1    0    0    0  501  0.00000000000E+00  0.00000000000E+00  0.20054136905E+04  0.20054136905E+04  0.50400001928E-02 0. -1.
        1   -1    0    0  501    0  0.00000000000E+00  0.00000000000E+00 -0.14263035564E+04  0.14263035564E+04  0.50400001928E-02 0.  1.
    10030    2    1    2    0    0  0.00000000000E+00  0.00000000000E+00  0.57911013419E+03  0.34317172469E+04  0.33825012513E+04 0.  0.
        1    1    3    3  502    0 -0.15301561350E+04  0.48103101819E+03  0.83360379579E+03  0.18076680907E+04  0.50400001928E-02 0. -1.
       -1    1    3    3    0  502  0.15301561350E+04 -0.48103101819E+03 -0.25449366161E+03  0.16240491562E+04  0.50400001928E-02 0.  1.
</event>
<event>
 5   0  0.2309391E-07  0.3643399E+04  0.7818609E-02  0.8080622E-01
       -2   -1    0    0    0  501  0.00000000000E+00  0.00000000000E+00  0.18653466869E+04  0.18653466869E+04  0.25500000920E-02 0. -1.
        2   -1    0    0  501    0  0.00000000000E+00  0.00000000000E+00 -0.17790738461E+04  0.17790738461E+04  0.25500000920E-02 0.  1.
    10030    2    1    2    0    0  0.00000000000E+00  0.00000000000E+00  0.86272840772E+02  0.36444205330E+04  0.36433992395E+04 0.  0.
        4    1    3    3  502    0  0.34728803124E+03 -0.10379433088E+04 -0.14135178501E+04  0.17877275001E+04  0.12699999809E+01 0.  1.
       -4    1    3    3    0  502 -0.34728803124E+03  0.10379433088E+04  0.14997906909E+04  0.18566930329E+04  0.12699999809E+01 0. -1.
</event>
<event>
 5   0  0.7514289E-08  0.3594433E+04  0.7818609E-02  0.8091768E-01
        1   -1    0    0  501    0  0.00000000000E+00  0.00000000000E+00  0.27631725992E+04  0.27631725992E+04  0.50400001928E-02 0.  1.
       -1   -1    0    0    0  501  0.00000000000E+00  0.00000000000E+00 -0.11689417175E+04  0.11689417175E+04  0.50400001928E-02 0. -1.
    10030    2    1    2    0    0  0.00000000000E+00  0.00000000000E+00  0.15942308817E+04  0.39321143168E+04  0.35944333205E+04 0.  0.
        4    1    3    3  502    0  0.57120187812E+03  0.69698052536E+03  0.24981682864E+04  0.26557296245E+04  0.12699999809E+01 0.  1.
       -4    1    3    3    0  502 -0.57120187812E+03 -0.69698052536E+03 -0.90393740466E+03  0.12763846923E+04  0.12699999809E+01 0. -1.
</event>
<event>
 5   0  0.7236375E-08  0.3560980E+04  0.7818609E-02  0.8099489E-01
        1   -1    0    0  501    0  0.00000000000E+00  0.00000000000E+00  0.14359685499E+04  0.14359685499E+04  0.50400001928E-02 0.  1.
       -1   -1    0    0    0  501  0.00000000000E+00  0.00000000000E+00 -0.22076694330E+04  0.22076694330E+04  0.50400001928E-02 0. -1.
    10030    2    1    2    0    0  0.00000000000E+00  0.00000000000E+00 -0.77170088306E+03  0.36436379829E+04  0.35609795699E+04 0.  0.
        1    1    3    3  502    0  0.13468880905E+04 -0.11092117938E+04 -0.74860125967E+03  0.18986474601E+04  0.50400001928E-02 0. -1.
       -1    1    3    3    0  502 -0.13468880905E+04  0.11092117938E+04 -0.23099623388E+02  0.17449905227E+04  0.50400001928E-02 0.  1.
</event>
<event>
 5   0  0.7261233E-08  0.3546114E+04  0.7818609E-02  0.8102948E-01
        1   -1    0    0  501    0  0.00000000000E+00  0.00000000000E+00  0.20179629503E+04  0.20179629503E+04  0.50400001928E-02 0.  1.
       -1   -1    0    0    0  501  0.00000000000E+00  0.00000000000E+00 -0.15578735634E+04  0.15578735634E+04  0.50400001928E-02 0. -1.
    10030    2    1    2    0    0  0.00000000000E+00  0.00000000000E+00  0.46008938689E+03  0.35758365137E+04  0.35461140040E+04 0.  0.
        3    1    3    3  502    0  0.16867311430E+04 -0.46749470412E+02  0.77911169389E+03  0.18585646353E+04  0.10100000352E+00 0.  1.
       -3    1    3    3    0  502 -0.16867311430E+04  0.46749470412E+02 -0.31902230700E+03  0.17172718784E+04  0.10100000352E+00 0. -1.
</event>
<event>
 5   0  0.7261233E-08  0.3586469E+04  0.7818609E-02  0.8093598E-01
        1   -1    0    0  501    0  0.00000000000E+00  0.00000000000E+00  0.14684242639E+04  0.14684242639E+04  0.50400001928E-02 0. -1.
       -1   -1    0    0    0  501  0.00000000000E+00  0.00000000000E+00 -0.21898917401E+04  0.21898917401E+04  0.50400001928E-02 0.  1.
    10030    2    1    2    0    0  0.00000000000E+00  0.00000000000E+00 -0.72146747614E+03  0.36583160040E+04  0.35864691085E+04 0.  0.
        3    1    3    3  502    0 -0.95333676326E+03  0.51645962231E+03 -0.18176707260E+04  0.21164849170E+04  0.10100000352E+00 0.  1.
       -3    1    3    3    0  502  0.95333676326E+03 -0.51645962231E+03  0.10962032498E+04  0.15418310870E+04  0.10100000352E+00 0. -1.
</event>
<event>
 5   0  0.2309391E-07  0.3559863E+04  0.7818609E-02  0.8099748E-01
       -2   -1    0    0    0  501  0.00000000000E+00  0.00000000000E+00  0.12611102417E+04  0.12611102417E+04  0.25500000920E-02 0. -1.
        2   -1    0    0  501    0  0.00000000000E+00  0.00000000000E+00 -0.25121966248E+04  0.25121966248E+04  0.25500000920E-02 0.  1.
    10030    2    1    2    0    0  0.00000000000E+00  0.00000000000E+00 -0.12510863831E+04  0.37733068665E+04  0.35598634202E+04 0.  0.
        4    1    3    3  502    0 -0.64912998093E+03 -0.11845966807E+04 -0.18541424593E+04  0.22940106582E+04  0.12699999809E+01 0.  1.
       -4    1    3    3    0  502  0.64912998093E+03  0.11845966807E+04  0.60305607612E+03  0.14792962083E+04  0.12699999809E+01 0. -1.
</event>
<event>
 5   0  0.7347303E-08  0.3600297E+04  0.7818609E-02  0.8090424E-01
       -1   -1    0    0    0  501  0.00000000000E+00  0.00000000000E+00  0.15860653024E+04  0.15860653024E+04  0.50400001928E-02 0. -1.
        1   -1    0    0  501    0  0.00000000000E+00  0.00000000000E+00 -0.20431286847E+04  0.20431286847E+04  0.50400001928E-02 0.  1.
    10030    2    1    2    0    0  0.00000000000E+00  0.00000000000E+00 -0.45706338230E+03  0.36291939871E+04  0.36002974962E+04 0.  0.
        2    1    3    3  502    0 -0.11230323913E+04  0.13862495920E+04 -0.47055419518E+03  0.18450774872E+04  0.25500000920E-02 0.  1.
       -2    1    3    3    0  502  0.11230323913E+04 -0.13862495920E+04  0.13490812875E+02  0.17841164999E+04  0.25500000920E-02 0. -1.
</event>
<event>
 5   0  0.7514289E-08  0.3680546E+04  0.7818609E-02  0.8072287E-01
       -1   -1    0    0    0  501  0.00000000000E+00  0.00000000000E+00  0.19936877375E+04  0.19936877375E+04  0.50400001928E-02 0. -1.
        1   -1    0    0  501    0  0.00000000000E+00  0.00000000000E+00 -0.16986633973E+04  0.16986633973E+04  0.50400001928E-02 0.  1.
    10030    2    1    2    0    0  0.00000000000E+00  0.00000000000E+00  0.29502434014E+03  0.36923511348E+04  0.36805458211E+04 0.  0.
        4    1    3    3  502    0  0.19689287657E+02 -0.18070311193E+04  0.49626732072E+03  0.18740416220E+04  0.12699999809E+01 0.  1.
       -4    1    3    3    0  502 -0.19689287657E+02  0.18070311193E+04 -0.20124298058E+03  0.18183095128E+04  0.12699999809E+01 0. -1.
</event>
<event>
 5   0  0.2309391E-07  0.3613301E+04  0.7818609E-02  0.8087452E-01
       -2   -1    0    0    0  501  0.00000000000E+00  0.00000000000E+00  0.13446422846E+04  0.13446422846E+04  0.25500000920E-02 0.  1.
        2   -1    0    0  501    0  0.00000000000E+00  0.00000000000E+00 -0.24274004029E+04  0.24274004029E+04  0.25500000920E-02 0. -1.
    10030    2    1    2    0    0  0.00000000000E+00  0.00000000000E+00 -0.10827581183E+04  0.37720426875E+04  0.36133005540E+04 0.  0.
        4    1    3    3  502    0 -0.68066813504E+02  0.10970325583E+04  0.95544358605E+03  0.14563610761E+04  0.12699999809E+01 0.  1.
       -4    1    3    3    0  502  0.68066813504E+02 -0.10970325583E+04 -0.20382017043E+04  0.23156816114E+04  0.12699999809E+01 0. -1.
</event>
<event>
 5   0  0.2342606E-07  0.3564412E+04  0.7818609E-02  0.8098693E-01
       -2   -1    0    0    0  501  0.00000000000E+00  0.00000000000E+00  0.20376676057E+04  0.20376676057E+04  0.25500000920E-02 0. -1.
        2   -1    0    0  501    0  0.00000000000E+00  0.00000000000E+00 -0.15587711003E+04  0.15587711003E+04  0.25500000920E-02 0.  1.
    10030    2    1    2    0    0  0.00000000000E+00  0.00000000000E+00  0.47889650544E+03  0.35964387060E+04  0.35644115227E+04 0.  0.
        5    1    3    3  502    0  0.14116629266E+04 -0.26590043204E+03 -0.82489492203E+03  0.16564929763E+04  0.46999998093E+01 0.  1.
       -5    1    3    3    0  502 -0.14116629266E+04  0.26590043204E+03  0.13037914275E+04  0.19399457297E+04  0.46999998093E+01 0. -1.
</event>
<event>
 5   0  0.7514289E-08  0.3610426E+04  0.7818609E-02  0.8088108E-01
        1   -1    0    0  501    0  0.00000000000E+00  0.00000000000E+00  0.19827927975E+04  0.19827927975E+04  0.50400001928E-02 0.  1.
       -1   -1    0    0    0  501  0.00000000000E+00  0.00000000000E+00 -0.16435373664E+04  0.16435373664E+04  0.50400001928E-02 0. -1.
    10030    2    1    2    0    0  0.00000000000E+00  0.00000000000E+00  0.33925543110E+03  0.36263301639E+04  0.36104260427E+04 0.  0.
        4    1    3    3  502    0  0.15729751724E+03  0.47452471411E+03  0.19118800325E+04  0.19761586689E+04  0.12699999809E+01 0.  1.
       -4    1    3    3    0  502 -0.15729751724E+03 -0.47452471411E+03 -0.15726246014E+04  0.16501714950E+04  0.12699999809E+01 0. -1.
</event>
<event>
 5   0  0.2309391E-07  0.3541422E+04  0.7818609E-02  0.8104043E-01
        2   -1    0    0  501    0  0.00000000000E+00  0.00000000000E+00  0.21966034476E+04  0.21966034476E+04  0.25500000920E-02 0.  1.
       -2   -1    0    0    0  501  0.00000000000E+00  0.00000000000E+00 -0.14273933875E+04  0.14273933875E+04  0.25500000920E-02 0. -1.
    10030    2    1    2    0    0  0.00000000000E+00  0.00000000000E+00  0.76921006004E+03  0.36239968351E+04  0.35414218817E+04 0.  0.
        4    1    3    3  502    0 -0.39238947553E+03  0.13256130931E+04  0.15168375651E+04  0.20523200006E+04  0.12699999809E+01 0.  1.
       -4    1    3    3    0  502  0.39238947553E+03 -0.13256130931E+04 -0.74762750507E+03  0.15716768345E+04  0.12699999809E+01 0. -1.
</event>
<event>
 5   0  0.2238968E-07  0.3570634E+04  0.7818609E-02  0.8097252E-01
        2   -1    0    0  501    0  0.00000000000E+00  0.00000000000E+00  0.16969539909E+04  0.16969539909E+04  0.25500000920E-02 0. -1.
       -2   -1    0    0    0  501  0.00000000000E+00  0.00000000000E+00 -0.18782808330E+04  0.18782808330E+04  0.25500000920E-02 0.  1.
    10030    2    1    2    0    0  0.00000000000E+00  0.00000000000E+00 -0.18132684212E+03  0.35752348239E+04  0.35706336444E+04 0.  0.
        3    1    3    3  502    0 -0.75533745561E+03 -0.16026762888E+04 -0.31060572928E+03  0.17987723280E+04  0.10100000352E+00 0. -1.
       -3    1    3    3    0  502  0.75533745561E+03  0.16026762888E+04  0.12927888716E+03  0.17764624959E+04  0.10100000352E+00 0.  1.
</event>
<event>
 5   0  0.7236375E-08  0.3594397E+04  0.7818609E-02  0.8091776E-01
        1   -1    0    0  501    0  0.00000000000E+00  0.00000000000E+00  0.18296262777E+04  0.18296262777E+04  0.50400001928E-02 0. -1.
       -1   -1    0    0    0  501  0.00000000000E+00  0.00000000000E+00 -0.17653450458E+04  0.17653450458E+04  0.50400001928E-02 0.  1.
    10030    2    1    2    0    0  0.00000000000E+00  0.00000000000E+00  0.64281231940E+02  0.35949713235E+04  0.35943965753E+04 0.  0.
        5    1    3    3  502    0  0.14514845786E+04  0.10525156442E+04  0.15586541650E+03  0.17996979694E+04  0.46999998093E+01 0. -1.
       -5    1    3    3    0  502 -0.14514845786E+04 -0.10525156442E+04 -0.91584184560E+02  0.17952733541E+04  0.46999998093E+01 0.  1.
</event>
<event>
 5   0  0.2198900E-07  0.3620434E+04  0.7818609E-02  0.8085827E-01
       -2   -1    0    0    0  501  0.00000000000E+00  0.00000000000E+00  0.14921811022E+04  0.14921811022E+04  0.25500000920E-02 0.  1.
        2   -1    0    0  501    0  0.00000000000E+00  0.00000000000E+00 -0.21960369518E+04  0.21960369518E+04  0.25500000920E-02 0. -1.
    10030    2    1    2    0    0  0.00000000000E+00  0.00000000000E+00 -0.70385584958E+03  0.36882180540E+04  0.36204335869E+04 0.  0.
        2    1    3    3  502    0 -0.65371591040E+03 -0.35867122420E+03 -0.20323250097E+04  0.21647943283E+04  0.25500000920E-02 0. -1.
       -2    1    3    3    0  502  0.65371591040E+03  0.35867122420E+03  0.13284691602E+04  0.15234237257E+04  0.25500000920E-02 0.  1.
</event>
<event>
 5   0  0.7236375E-08  0.3633699E+04  0.7818609E-02  0.8082816E-01
        3   -1    0    0  501    0  0.00000000000E+00  0.00000000000E+00  0.20434642202E+04  0.20434642227E+04  0.10100000352E+00 0. -1.
       -3   -1    0    0    0  501  0.00000000000E+00  0.00000000000E+00 -0.16153656613E+04  0.16153656645E+04  0.10100000352E+00 0.  1.
    10030    2    1    2    0    0  0.00000000000E+00  0.00000000000E+00  0.42809855885E+03  0.36588298872E+04  0.36336989098E+04 0.  0.
        1    1    3    3  502    0 -0.85193315719E+03  0.15927302432E+04  0.16831943484E+02  0.18063396819E+04  0.50400001928E-02 0. -1.
       -1    1    3    3    0  502  0.85193315719E+03 -0.15927302432E+04  0.41126661537E+03  0.18524902053E+04  0.50400001928E-02 0.  1.
</event>
<event>
 5   0  0.2198900E-07  0.3597785E+04  0.7818609E-02  0.8090999E-01
        2   -1    0    0  501    0  0.00000000000E+00  0.00000000000E+00  0.20925801871E+04  0.20925801871E+04  0.25500000920E-02 0.  1.
       -2   -1    0    0    0  501  0.00000000000E+00  0.00000000000E+00 -0.15464228163E+04  0.15464228163E+04  0.25500000920E-02 0. -1.
    10030    2    1    2    0    0  0.00000000000E+00  0.00000000000E+00  0.54615737080E+03  0.36390030035E+04  0.35977847331E+04 0.  0.
        2    1    3    3  502    0  0.14754875082E+04  0.82133521596E+03  0.90014816952E+03  0.19136148125E+04  0.25500000920E-02 0.  1.
       -2    1    3    3    0  502 -0.14754875082E+04 -0.82133521596E+03 -0.35399079872E+03  0.17253881909E+04  0.25500000920E-02 0. -1.
</event>
<event>
 5   0  0.7261233E-08  0.3603886E+04  0.7818609E-02  0.8089602E-01
       -1   -1    0    0    0  501  0.00000000000E+00  0.00000000000E+00  0.15914902681E+04  0.15914902681E+04  0.50400001928E-02 0.  1.
        1   -1    0    0  501    0  0.00000000000E+00  0.00000000000E+00 -0.20402247466E+04  0.20402247466E+04  0.50400001928E-02 0. -1.
    10030    2    1    2    0    0  0.00000000000E+00  0.00000000000E+00 -0.44873447850E+03  0.36317150147E+04  0.36038855858E+04 0.  0.
        3    1    3    3  502    0  0.10152964171E+04 -0.63040480424E+03 -0.15833957188E+04  0.19837789807E+04  0.10100000352E+00 0. -1.
       -3    1    3    3    0  502 -0.10152964171E+04  0.63040480424E+03  0.11346612403E+04  0.16479360340E+04  0.10100000352E+00 0.  1.
</event>
<event>
 5   0  0.2238968E-07  0.3592985E+04  0.7818609E-02  0.8092100E-01
       -2   -1    0    0    0  501  0.00000000000E+00  0.00000000000E+00  0.14474950430E+04  0.14474950430E+04  0.25500000920E-02 0.  1.
        2   -1    0    0  501    0  0.00000000000E+00  0.00000000000E+00 -0.22296345223E+04  0.22296345223E+04  0.25500000920E-02 0. -1.
    10030    2    1    2    0    0  0.00000000000E+00  0.00000000000E+00 -0.78213947926E+03  0.36771295654E+04  0.35929847864E+04 0.  0.
        3    1    3    3  502    0 -0.58277021420E+03  0.14681233418E+04 -0.12669023117E+04  0.20248577103E+04  0.10100000352E+00 0. -1.
       -3    1    3    3    0  502  0.58277021420E+03 -0.14681233418E+04  0.48476283245E+03  0.16522718551E+04  0.10100000352E+00 0.  1.
</event>
<event>
 5   0  0.7514289E-08  0.3600031E+04  0.7818609E-02  0.8090485E-01
        1   -1    0    0  501    0  0.00000000000E+00  0.00000000000E+00  0.22960218580E+04  0.22960218580E+04  0.50400001928E-02 0.  1.
       -1   -1    0    0    0  501  0.00000000000E+00  0.00000000000E+00 -0.14111606957E+04  0.14111606957E+04  0.50400001928E-02 0. -1.
    10030    2    1    2    0    0  0.00000000000E+00  0.00000000000E+00  0.88486116234E+03  0.37071825537E+04  0.36000310012E+04 0.  0.
        4    1    3    3  502    0  0.39308074914E+03 -0.17015949188E+04  0.89143185820E+03  0.19607626357E+04  0.12699999809E+01 0.  1.
       -4    1    3    3    0  502 -0.39308074914E+03  0.17015949188E+04 -0.65706958576E+01  0.17464199180E+04  0.12699999809E+01 0. -1.
</event>
<event>
 5   0  0.7236375E-08  0.3593356E+04  0.7818609E-02  0.8092015E-01
        1   -1    0    0  501    0  0.00000000000E+00  0.00000000000E+00  0.17074213468E+04  0.17074213468E+04  0.50400001928E-02 0. -1.
       -1   -1    0    0    0  501  0.00000000000E+00  0.00000000000E+00 -0.18906005837E+04  0.18906005837E+04  0.50400001928E-02 0.  1.
    10030    2    1    2    0    0  0.00000000000E+00  0.00000000000E+00 -0.18317923691E+03  0.35980219305E+04  0.35933559773E+04 0.  0.
        1    1    3    3  502    0 -0.16318913538E+04 -0.62279765210E+03 -0.51297510527E+03  0.18204641619E+04  0.50400001928E-02 0.  1.
       -1    1    3    3    0  502  0.16318913538E+04  0.62279765210E+03  0.32979586836E+03  0.17775577686E+04  0.50400001928E-02 0. -1.
</event>
<event>
 5   0  0.2198900E-07  0.3606856E+04  0.7818609E-02  0.8088923E-01
        2   -1    0    0  501    0  0.00000000000E+00  0.00000000000E+00  0.20960089616E+04  0.20960089616E+04  0.25500000920E-02 0. -1.
       -2   -1    0    0    0  501  0.00000000000E+00  0.00000000000E+00 -0.15516886583E+04  0.15516886583E+04  0.25500000920E-02 0.  1.
    10030    2    1    2    0    0  0.00000000000E+00  0.00000000000E+00  0.54432030328E+03  0.36476976199E+04  0.36068564337E+04 0.  0.
        2    1    3    3  502    0  0.17123345551E+03 -0.86050681290E+03 -0.13212951698E+04  0.15860686609E+04  0.25500000920E-02 0.  1.
       -2    1    3    3    0  502 -0.17123345551E+03  0.86050681290E+03  0.18656154730E+04  0.20616289590E+04  0.25500000920E-02 0. -1.
</event>
<event>
 5   0  0.7261233E-08  0.3582378E+04  0.7818609E-02  0.8094540E-01
       -1   -1    0    0    0  501  0.00000000000E+00  0.00000000000E+00  0.13487782802E+04  0.13487782802E+04  0.50400001928E-02 0. -1.
        1   -1    0    0  501    0  0.00000000000E+00  0.00000000000E+00 -0.23787146645E+04  0.23787146645E+04  0.50400001928E-02 0.  1.
    10030    2    1    2    0    0  0.00000000000E+00  0.00000000000E+00 -0.10299363843E+04  0.37274929447E+04  0.35823783576E+04 0.  0.
        3    1    3    3  502    0  0.53605027188E+03 -0.46661674579E+03  0.11957981570E+04  0.13910479229E+04  0.10100000352E+00 0. -1.
       -3    1    3    3    0  502 -0.53605027188E+03  0.46661674579E+03 -0.22257345413E+04  0.23364450218E+04  0.10100000352E+00 0.  1.
</event>
<event>
 5   0  0.2309391E-07  0.3603252E+04  0.7818609E-02  0.8089747E-01
       -2   -1    0    0    0  501  0.00000000000E+00  0.00000000000E+00  0.20112930983E+04  0.20112930983E+04  0.25500000920E-02 0.  1.
        2   -1    0    0  501    0  0.00000000000E+00  0.00000000000E+00 -0.16138158345E+04  0.16138158345E+04  0.25500000920E-02 0. -1.
    10030    2    1    2    0    0  0.00000000000E+00  0.00000000000E+00  0.39747726385E+03  0.36251089328E+04  0.36032522253E+04 0.  0.
        4    1    3    3  502    0 -0.14389120528E+04 -0.58958609845E+03 -0.71660180574E+03  0.17121914099E+04  0.12699999809E+01 0. -1.
       -4    1    3    3    0  502  0.14389120528E+04  0.58958609845E+03  0.11140790696E+04  0.19129175229E+04  0.12699999809E+01 0.  1.
</event>
<event>
 5   0  0.2238968E-07  0.3601962E+04  0.7818609E-02  0.8090043E-01
        2   -1    0    0  501    0  0.00000000000E+00  0.00000000000E+00  0.18956625872E+04  0.18956625872E+04  0.25500000920E-02 0. -1.
       -2   -1    0    0    0  501  0.00000000000E+00  0.00000000000E+00 -0.17110279555E+04  0.17110279555E+04  0.25500000920E-02 0.  1.
    10030    2    1    2    0    0  0.00000000000E+00  0.00000000000E+00  0.18463463163E+03  0.36066905427E+04  0.36019615106E+04 0.  0.
        3    1    3    3  502    0 -0.34203238352E+01 -0.17562229380E+04 -0.30720648812E+03  0.17828927458E+04  0.10100000352E+00 0. -1.
       -3    1    3    3    0  502  0.34203238352E+01  0.17562229380E+04  0.49184111975E+03  0.18237977969E+04  0.10100000352E+00 0.  1.
</event>
<event>
 5   0  0.2342606E-07  0.3607192E+04  0.7818609E-02  0.8088846E-01
        2   -1    0    0  501    0  0.00000000000E+00  0.00000000000E+00  0.22108149119E+04  0.22108149119E+04  0.25500000920E-02 0.  1.
       -2   -1    0    0    0  501  0.00000000000E+00  0.00000000000E+00 -0.14713843132E+04  0.14713843132E+04  0.25500000920E-02 0. -1.
    10030    2    1    2    0    0  0.00000000000E+00  0.00000000000E+00  0.73943059869E+03  0.36821992251E+04  0.36071919166E+04 0.  0.
        5    1    3    3  502    0  0.90646049832E+03 -0.15503944700E+04  0.20030459765E+03  0.18070798736E+04  0.46999998093E+01 0. -1.
       -5    1    3    3    0  502 -0.90646049832E+03  0.15503944700E+04  0.53912600104E+03  0.18751193516E+04  0.46999998093E+01 0.  1.
</event>
<event>
 5   0  0.7514289E-08  0.3605346E+04  0.7818609E-02  0.8089268E-01
        1   -1    0    0  501    0  0.00000000000E+00  0.00000000000E+00  0.31023886898E+04  0.31023886898E+04  0.50400001928E-02 0. -1.
       -1   -1    0    0    0  501  0.00000000000E+00  0.00000000000E+00 -0.10474603579E+04  0.10474603579E+04  0.50400001928E-02 0.  1.
    10030    2    1    2    0    0  0.00000000000E+00  0.00000000000E+00  0.20549283319E+04  0.41498490477E+04  0.36053455687E+04 0.  0.
        4    1    3    3  502    0  0.12703330490E+04 -0.11031693855E+04  0.28249214374E+03  0.17060281863E+04  0.12699999809E+01 0.  1.
       -4    1    3    3    0  502 -0.12703330490E+04  0.11031693855E+04  0.17724361882E+04  0.24438208614E+04  0.12699999809E+01 0. -1.
</event>
<event>
 5   0  0.7261233E-08  0.3612480E+04  0.7818609E-02  0.8087639E-01
        1   -1    0    0  501    0  0.00000000000E+00  0.00000000000E+00  0.20550641798E+04  0.20550641798E+04  0.50400001928E-02 0.  1.
       -1   -1    0    0    0  501  0.00000000000E+00  0.00000000000E+00 -0.15875427183E+04  0.15875427183E+04  0.50400001928E-02 0. -1.
    10030    2    1    2    0    0  0.00000000000E+00  0.00000000000E+00  0.46752146146E+03  0.36426068981E+04  0.36124795775E+04 0.  0.
        3    1    3    3  502    0  0.95981889845E+03 -0.13205128896E+04 -0.54566411273E+03  0.17212657969E+04  0.10100000352E+00 0. -1.
       -3    1    3    3    0  502 -0.95981889845E+03  0.13205128896E+04  0.10131855742E+04  0.19213411013E+04  0.10100000352E+00 0.  1.
</event>
<event>
 5   0  0.7236375E-08  0.3597240E+04  0.7818609E-02  0.8091124E-01
       -1   -1    0    0    0  501  0.00000000000E+00  0.00000000000E+00  0.20017193720E+04  0.20017193720E+04  0.50400001928E-02 0. -1.
        1   -1    0    0  501    0  0.00000000000E+00  0.00000000000E+00 -0.16161280264E+04  0.16161280264E+04  0.50400001928E-02 0.  1.
    10030    2    1    2    0    0  0.00000000000E+00  0.00000000000E+00  0.38559134563E+03  0.36178473984E+04  0.35972404858E+04 0.  0.
        5    1    3    3  502    0  0.13978648874E+04  0.50798610275E+03 -0.82440144952E+03  0.17005105010E+04  0.46999998093E+01 0.  1.
       -5    1    3    3    0  502 -0.13978648874E+04 -0.50798610275E+03  0.12099927952E+04  0.19173368974E+04  0.46999998093E+01 0. -1.
</event>
<event>
 5   0  0.2198900E-07  0.3598975E+04  0.7818609E-02  0.8090726E-01
       -2   -1    0    0    0  501  0.00000000000E+00  0.00000000000E+00  0.18870252014E+04  0.18870252014E+04  0.25500000920E-02 0. -1.
        2   -1    0    0  501    0  0.00000000000E+00  0.00000000000E+00 -0.17160110492E+04  0.17160110492E+04  0.25500000920E-02 0.  1.
    10030    2    1    2    0    0  0.00000000000E+00  0.00000000000E+00  0.17101415221E+03  0.36030362507E+04  0.35989754630E+04 0.  0.
        2    1    3    3  502    0 -0.14312512514E+04 -0.36610437311E+03 -0.94309735984E+03  0.17526965473E+04  0.25500000920E-02 0.  1.
       -2    1    3    3    0  502  0.14312512514E+04  0.36610437311E+03  0.11141115120E+04  0.18503397034E+04  0.25500000920E-02 0. -1.
</event>
<event>
 5   0  0.2199902E-07  0.3598680E+04  0.7818609E-02  0.8090794E-01
       -2   -1    0    0    0  501  0.00000000000E+00  0.00000000000E+00  0.20401332063E+04  0.20401332063E+04  0.25500000920E-02 0. -1.
        2   -1    0    0  501    0  0.00000000000E+00  0.00000000000E+00 -0.15869672412E+04  0.15869672412E+04  0.25500000920E-02 0.  1.
    10030    2    1    2    0    0  0.00000000000E+00  0.00000000000E+00  0.45316596515E+03  0.36271004475E+04  0.35986800725E+04 0.  0.
        1    1    3    3  502    0  0.60543962349E+02 -0.15154659864E+04  0.12023827536E+04  0.19354655805E+04  0.50400001928E-02 0. -1.
       -1    1    3    3    0  502 -0.60543962349E+02  0.15154659864E+04 -0.74921678840E+03  0.16916348670E+04  0.50400001928E-02 0.  1.
</event>
<event>
 5   0  0.2342606E-07  0.3602282E+04  0.7818609E-02  0.8089969E-01
       -2   -1    0    0    0  501  0.00000000000E+00  0.00000000000E+00  0.32291326214E+04  0.32291326214E+04  0.25500000920E-02 0. -1.
        2   -1    0    0  501    0  0.00000000000E+00  0.00000000000E+00 -0.10046379382E+04  0.10046379382E+04  0.25500000920E-02 0.  1.
    10030    2    1    2    0    0  0.00000000000E+00  0.00000000000E+00  0.22244946832E+04  0.42337705595E+04  0.36022821315E+04 0.  0.
        5    1    3    3  502    0  0.15472256052E+04 -0.51160593641E+03  0.20138194032E+04  0.25905864946E+04  0.46999998093E+01 0.  1.
       -5    1    3    3    0  502 -0.15472256052E+04  0.51160593641E+03  0.21067528003E+03  0.16431840649E+04  0.46999998093E+01 0. -1.
</event>
<event>
 5   0  0.2309391E-07  0.3604122E+04  0.7818609E-02  0.8089548E-01
       -2   -1    0    0    0  501  0.00000000000E+00  0.00000000000E+00  0.12642725494E+04  0.12642725494E+04  0.25500000920E-02 0. -1.
        2   -1    0    0  501    0  0.00000000000E+00  0.00000000000E+00 -0.25686109045E+04  0.25686109045E+04  0.25500000920E-02 0.  1.
    10030    2    1    2    0    0  0.00000000000E+00  0.00000000000E+00 -0.13043383551E+04  0.38328834539E+04  0.36041222270E+04 0.  0.
        4    1    3    3  502    0 -0.84466101607E+03  0.42838709450E+02 -0.23444387791E+04  0.24923246556E+04  0.12699999809E+01 0.  1.
       -4    1    3    3    0  502  0.84466101607E+03 -0.42838709450E+02  0.10401004239E+04  0.13405587984E+04  0.12699999809E+01 0. -1.
</event>
<event>
 5   0  0.2198900E-07  0.3653811E+04  0.7818609E-02  0.8078276E-01
       -2   -1    0    0    0  501  0.00000000000E+00  0.00000000000E+00  0.21670687503E+04  0.21670687503E+04  0.25500000920E-02 0.  1.
        2   -1    0    0  501    0  0.00000000000E+00  0.00000000000E+00 -0.15401374361E+04  0.15401374361E+04  0.25500000920E-02 0. -1.
    10030    2    1    2    0    0  0.00000000000E+00  0.00000000000E+00  0.62693131427E+03  0.37072061864E+04  0.36538110017E+04 0.  0.
        2    1    3    3  502    0  0.13001831727E+04 -0.19455527147E+03  0.16005683129E+04  0.20712669940E+04  0.25500000920E-02 0.  1.
       -2    1    3    3    0  502 -0.13001831727E+04  0.19455527147E+03 -0.97363699863E+03  0.16359391924E+04  0.25500000920E-02 0. -1.
</event>
<event>
 5   0  0.2342606E-07  0.3688849E+04  0.7818609E-02  0.8070437E-01
       -2   -1    0    0    0  501  0.00000000000E+00  0.00000000000E+00  0.16218081791E+04  0.16218081791E+04  0.25500000920E-02 0.  1.
        2   -1    0    0  501    0  0.00000000000E+00  0.00000000000E+00 -0.20975983761E+04  0.20975983761E+04  0.25500000920E-02 0. -1.
    10030    2    1    2    0    0  0.00000000000E+00  0.00000000000E+00 -0.47579019702E+03  0.37194065552E+04  0.36888492530E+04 0.  0.
        5    1    3    3  502    0 -0.51255244279E+03  0.59262350183E+02  0.15475524415E+04  0.16313070471E+04  0.46999998093E+01 0.  1.
       -5    1    3    3    0  502  0.51255244279E+03 -0.59262350183E+02 -0.20233426385E+04  0.20880995081E+04  0.46999998093E+01 0. -1.
</event>
<event>
 5   0  0.2342606E-07  0.3603253E+04  0.7818609E-02  0.8089747E-01
        2   -1    0    0  501    0  0.00000000000E+00  0.00000000000E+00  0.12963079029E+04  0.12963079029E+04  0.25500000920E-02 0.  1.
       -2   -1    0    0    0  501  0.00000000000E+00  0.00000000000E+00 -0.25039253331E+04  0.25039253331E+04  0.25500000920E-02 0. -1.
    10030    2    1    2    0    0  0.00000000000E+00  0.00000000000E+00 -0.12076174302E+04  0.38002332359E+04  0.36032530843E+04 0.  0.
        5    1    3    3  502    0  0.11540894240E+04  0.63102425113E+02  0.85374448014E+03  0.14369432981E+04  0.46999998093E+01 0.  1.
       -5    1    3    3    0  502 -0.11540894240E+04 -0.63102425113E+02 -0.20613619103E+04  0.23632899378E+04  0.46999998093E+01 0. -1.
</event>
<event>
 5   0  0.7347303E-08  0.3567119E+04  0.7818609E-02  0.8098065E-01
        1   -1    0    0  501    0  0.00000000000E+00  0.00000000000E+00  0.21160509045E+04  0.21160509045E+04  0.50400001928E-02 0. -1.
       -1   -1    0    0    0  501  0.00000000000E+00  0.00000000000E+00 -0.15033115794E+04  0.15033115794E+04  0.50400001928E-02 0.  1.
    10030    2    1    2    0    0  0.00000000000E+00  0.00000000000E+00  0.61273932516E+03  0.36193624839E+04  0.35671186284E+04 0.  0.
        2    1    3    3  502    0 -0.70308931642E+03 -0.70620526589E+03 -0.11944914509E+04  0.15555932279E+04  0.25500000920E-02 0.  1.
       -2    1    3    3    0  502  0.70308931642E+03  0.70620526589E+03  0.18072307760E+04  0.20637692560E+04  0.25500000920E-02 0. -1.
</event>
<event>
 5   0  0.7347303E-08  0.3504898E+04  0.7818609E-02  0.8112630E-01
        1   -1    0    0  501    0  0.00000000000E+00  0.00000000000E+00  0.29670587767E+04  0.29670587767E+04  0.50400001928E-02 0. -1.
       -1   -1    0    0    0  501  0.00000000000E+00  0.00000000000E+00 -0.10350579281E+04  0.10350579281E+04  0.50400001928E-02 0.  1.
    10030    2    1    2    0    0  0.00000000000E+00  0.00000000000E+00  0.19320008486E+04  0.40021167049E+04  0.35048981213E+04 0.  0.
        2    1    3    3  502    0 -0.29196579638E+03 -0.16175771136E+04  0.27210975543E+03  0.16660862714E+04  0.25500000920E-02 0.  1.
       -2    1    3    3    0  502  0.29196579638E+03  0.16175771136E+04  0.16598910932E+04  0.23360304335E+04  0.25500000920E-02 0. -1.
</event>
<event>
 5   0  0.7347303E-08  0.3687247E+04  0.7818609E-02  0.8070794E-01
       -1   -1    0    0    0  501  0.00000000000E+00  0.00000000000E+00  0.26492571466E+04  0.26492571466E+04  0.50400001928E-02 0.  1.
        1   -1    0    0  501    0  0.00000000000E+00  0.00000000000E+00 -0.12829815469E+04  0.12829815469E+04  0.50400001928E-02 0. -1.
    10030    2    1    2    0    0  0.00000000000E+00  0.00000000000E+00  0.13662755998E+04  0.39322386935E+04  0.36872472291E+04 0.  0.
        2    1    3    3  502    0  0.13725556403E+04 -0.76219345179E+03  0.17138427084E+04  0.23242428171E+04  0.25500000920E-02 0.  1.
       -2    1    3    3    0  502 -0.13725556403E+04  0.76219345179E+03 -0.34756710858E+03  0.16079958764E+04  0.25500000920E-02 0. -1.
</event>
<event>
 5   0  0.7236375E-08  0.3367237E+04  0.7818609E-02  0.8145995E-01
        1   -1    0    0  501    0  0.00000000000E+00  0.00000000000E+00  0.17155246261E+04  0.17155246261E+04  0.50400001928E-02 0. -1.
       -1   -1    0    0    0  501  0.00000000000E+00  0.00000000000E+00 -0.16523057522E+04  0.16523057522E+04  0.50400001928E-02 0.  1.
    10030    2    1    2    0    0  0.00000000000E+00  0.00000000000E+00  0.63218873895E+02  0.33678303783E+04  0.33672369728E+04 0.  0.
        5    1    3    3  502    0  0.15834346176E+04  0.10424859941E+03 -0.53099850139E+03  0.16733542534E+04  0.46999998093E+01 0.  1.
       -5    1    3    3    0  502 -0.15834346176E+04 -0.10424859941E+03  0.59421737528E+03  0.16944761249E+04  0.46999998093E+01 0. -1.
</event>
<event>
 5   0  0.2238968E-07  0.3592431E+04  0.7818609E-02  0.8092228E-01
        2   -1    0    0  501    0  0.00000000000E+00  0.00000000000E+00  0.19741224422E+04  0.19741224422E+04  0.25500000920E-02 0.  1.
       -2   -1    0    0    0  501  0.00000000000E+00  0.00000000000E+00 -0.16343414823E+04  0.16343414824E+04  0.25500000920E-02 0. -1.
    10030    2    1    2    0    0  0.00000000000E+00  0.00000000000E+00  0.33978095982E+03  0.36084639245E+04  0.35924310423E+04 0.  0.
        3    1    3    3  502    0 -0.23145431510E+03  0.12188139419E+04 -0.11348723667E+04  0.16813726011E+04  0.10100000352E+00 0. -1.
       -3    1    3    3    0  502  0.23145431510E+03 -0.12188139419E+04  0.14746533266E+04  0.19270913234E+04  0.10100000352E+00 0.  1.
</event>
<event>
 5   0  0.7261233E-08  0.3591705E+04  0.7818609E-02  0.8092394E-01
        1   -1    0    0  501    0  0.00000000000E+00  0.00000000000E+00  0.21112771512E+04  0.21112771512E+04  0.50400001928E-02 0.  1.
       -1   -1    0    0    0  501  0.00000000000E+00  0.00000000000E+00 -0.15275526085E+04  0.15275526085E+04  0.50400001928E-02 0. -1.
    10030    2    1    2    0    0  0.00000000000E+00  0.00000000000E+00  0.58372454271E+03  0.36388297598E+04  0.35917053998E+04 0.  0.
        3    1    3    3  502    0  0.64680003950E+03  0.16158144774E+04 -0.15652811438E+03  0.17474861308E+04  0.10100000352E+00 0. -1.
       -3    1    3    3    0  502 -0.64680003950E+03 -0.16158144774E+04  0.74025265708E+03  0.18913436290E+04  0.10100000352E+00 0.  1.
</event>
<event>
 5   0  0.7347303E-08  0.3594083E+04  0.7818609E-02  0.8091848E-01
        1   -1    0    0  501    0  0.00000000000E+00  0.00000000000E+00  0.14592524252E+04  0.14592524252E+04  0.50400001928E-02 0. -1.
       -1   -1    0    0    0  501  0.00000000000E+00  0.00000000000E+00 -0.22130217939E+04  0.22130217939E+04  0.50400001928E-02 0.  1.
    10030    2    1    2    0    0  0.00000000000E+00  0.00000000000E+00 -0.75376936870E+03  0.36722742190E+04  0.35940825921E+04 0.  0.
        2    1    3    3  502    0  0.46203623341E+03 -0.12488763554E+04  0.85609449510E+03  0.15830563529E+04  0.25500000920E-02 0. -1.
       -2    1    3    3    0  502 -0.46203623341E+03  0.12488763554E+04 -0.16098638638E+04  0.20892178661E+04  0.25500000920E-02 0.  1.
</event>
<event>
 5   0  0.7236375E-08  0.3605052E+04  0.7818609E-02  0.8089335E-01
        1   -1    0    0  501    0  0.00000000000E+00  0.00000000000E+00  0.23202085330E+04  0.23202085330E+04  0.50400001928E-02 0. -1.
       -1   -1    0    0    0  501  0.00000000000E+00  0.00000000000E+00 -0.14003484715E+04  0.14003484715E+04  0.50400001928E-02 0.  1.
    10030    2    1    2    0    0  0.00000000000E+00  0.00000000000E+00  0.91986006157E+03  0.37205570045E+04  0.36050522730E+04 0.  0.
        5    1    3    3  502    0  0.81576106078E+03  0.10584677756E+04 -0.78847895569E+03  0.15516253716E+04  0.46999998093E+01 0.  1.
       -5    1    3    3    0  502 -0.81576106078E+03 -0.10584677756E+04  0.17083390173E+04  0.21689316329E+04  0.46999998093E+01 0. -1.
</event>
<event>
 5   0  0.2198900E-07  0.3597678E+04  0.7818609E-02  0.8091024E-01
       -2   -1    0    0    0  501  0.00000000000E+00  0.00000000000E+00  0.17926607413E+04  0.17926607413E+04  0.25500000920E-02 0.  1.
        2   -1    0    0  501    0  0.00000000000E+00  0.00000000000E+00 -0.18050386762E+04  0.18050386762E+04  0.25500000920E-02 0. -1.
    10030    2    1    2    0    0  0.00000000000E+00  0.00000000000E+00 -0.12377934876E+02  0.35976994175E+04  0.35976781242E+04 0.  0.
        2    1    3    3  502    0 -0.73665151371E+03 -0.12511033142E+04 -0.10682249213E+04  0.18025036582E+04  0.25500000920E-02 0. -1.
       -2    1    3    3    0  502  0.73665151371E+03  0.12511033142E+04  0.10558469864E+04  0.17951957593E+04  0.25500000920E-02 0.  1.
</event>
<event>
 5   0  0.2309391E-07  0.3588521E+04  0.7818609E-02  0.8093126E-01
       -2   -1    0    0    0  501  0.00000000000E+00  0.00000000000E+00  0.13579202966E+04  0.13579202966E+04  0.25500000920E-02 0. -1.
        2   -1    0    0  501    0  0.00000000000E+00  0.00000000000E+00 -0.23708100221E+04  0.23708100221E+04  0.25500000920E-02 0.  1.
    10030    2    1    2    0    0  0.00000000000E+00  0.00000000000E+00 -0.10128897255E+04  0.37287303186E+04  0.35885211708E+04 0.  0.
        4    1    3    3  502    0 -0.13843090151E+04  0.11062581132E+04 -0.79895960811E+03  0.19438252315E+04  0.12699999809E+01 0.  1.
       -4    1    3    3    0  502  0.13843090151E+04 -0.11062581132E+04 -0.21393011740E+03  0.17849050872E+04  0.12699999809E+01 0. -1.
</event>
<event>
 5   0  0.7261233E-08  0.3605856E+04  0.7818609E-02  0.8089152E-01
        1   -1    0    0  501    0  0.00000000000E+00  0.00000000000E+00  0.13662816066E+04  0.13662816066E+04  0.50400001928E-02 0.  1.
       -1   -1    0    0    0  501  0.00000000000E+00  0.00000000000E+00 -0.23791213078E+04  0.23791213078E+04  0.50400001928E-02 0. -1.
    10030    2    1    2    0    0  0.00000000000E+00  0.00000000000E+00 -0.10128397012E+04  0.37454029144E+04  0.36058561717E+04 0.  0.
        3    1    3    3  502    0  0.15611169510E+04 -0.59179334825E+03  0.20054061131E+03  0.16815237283E+04  0.10100000352E+00 0.  1.
       -3    1    3    3    0  502 -0.15611169510E+04  0.59179334825E+03 -0.12133803125E+04  0.20638791861E+04  0.10100000352E+00 0. -1.
</event>
<event>
 5   0  0.2198900E-07  0.3599019E+04  0.7818609E-02  0.8090716E-01
        2   -1    0    0  501    0  0.00000000000E+00  0.00000000000E+00  0.15324397501E+04  0.15324397501E+04  0.25500000920E-02 0.  1.
       -2   -1    0    0    0  501  0.00000000000E+00  0.00000000000E+00 -0.21131232534E+04  0.21131232534E+04  0.25500000920E-02 0. -1.
    10030    2    1    2    0    0  0.00000000000E+00  0.00000000000E+00 -0.58068350324E+03  0.36455630035E+04  0.35990187942E+04 0.  0.
        2    1    3    3  502    0 -0.19072126813E+03 -0.95535772218E+03  0.12422190833E+04  0.15786675490E+04  0.25500000920E-02 0.  1.
       -2    1    3    3    0  502  0.19072126813E+03  0.95535772218E+03 -0.18229025865E+04  0.20668954544E+04  0.25500000920E-02 0. -1.
</event>
<event>
 5   0  0.7236375E-08  0.3624245E+04  0.7818609E-02  0.8084961E-01
       -1   -1    0    0    0  501  0.00000000000E+00  0.00000000000E+00  0.14922585233E+04  0.14922585233E+04  0.50400001928E-02 0.  1.
        1   -1    0    0  501    0  0.00000000000E+00  0.00000000000E+00 -0.22005485361E+04  0.22005485361E+04  0.50400001928E-02 0. -1.
    10030    2    1    2    0    0  0.00000000000E+00  0.00000000000E+00 -0.70829001273E+03  0.36928070594E+04  0.36242446435E+04 0.  0.
        5    1    3    3  502    0 -0.62992995953E+03 -0.41030377194E+03 -0.20341559463E+04  0.21686340039E+04  0.46999998093E+01 0. -1.
       -5    1    3    3    0  502  0.62992995953E+03  0.41030377194E+03  0.13258659336E+04  0.15241730555E+04  0.46999998093E+01 0.  1.
</event>
<event>
 5   0  0.7514289E-08  0.3567089E+04  0.7818609E-02  0.8098072E-01
       -1   -1    0    0    0  501  0.00000000000E+00  0.00000000000E+00  0.17893516053E+04  0.17893516053E+04  0.50400001928E-02 0. -1.
        1   -1    0    0  501    0  0.00000000000E+00  0.00000000000E+00 -0.17777558533E+04  0.17777558533E+04  0.50400001928E-02 0.  1.
    10030    2    1    2    0    0  0.00000000000E+00  0.00000000000E+00  0.11595752002E+02  0.35671074587E+04  0.35670886112E+04 0.  0.
        4    1    3    3  502    0  0.11622111852E+04  0.12486903249E+04  0.52644091613E+03  0.17852462064E+04  0.12699999809E+01 0.  1.
       -4    1    3    3    0  502 -0.11622111852E+04 -0.12486903249E+04 -0.51484516413E+03  0.17818612523E+04  0.12699999809E+01 0. -1.
</event>
<event>
 5   0  0.7347303E-08  0.3613719E+04  0.7818609E-02  0.8087356E-01
        1   -1    0    0  501    0  0.00000000000E+00  0.00000000000E+00  0.10467554359E+04  0.10467554359E+04  0.50400001928E-02 0. -1.
       -1   -1    0    0    0  501  0.00000000000E+00  0.00000000000E+00 -0.31189151769E+04  0.31189151769E+04  0.50400001928E-02 0.  1.
    10030    2    1    2    0    0  0.00000000000E+00  0.00000000000E+00 -0.20721597410E+04  0.41656706127E+04  0.36137190900E+04 0.  0.
        2    1    3    3  502    0  0.48629895308E+03  0.87155781610E+03  0.70017506575E+03  0.12191574227E+04  0.25500000920E-02 0. -1.
       -2    1    3    3    0  502 -0.48629895308E+03 -0.87155781610E+03 -0.27723348067E+04  0.29465131901E+04  0.25500000920E-02 0.  1.
</event>
<event>
 5   0  0.7236375E-08  0.3599406E+04  0.7818609E-02  0.8090628E-01
       -1   -1    0    0    0  501  0.00000000000E+00  0.00000000000E+00  0.16274307046E+04  0.16274307046E+04  0.50400001928E-02 0. -1.
        1   -1    0    0  501    0  0.00000000000E+00  0.00000000000E+00 -0.19902114904E+04  0.19902114904E+04  0.50400001928E-02 0.  1.
    10030    2    1    2    0    0  0.00000000000E+00  0.00000000000E+00 -0.36278078572E+03  0.36176421950E+04  0.35994062222E+04 0.  0.
        5    1    3    3  502    0 -0.25799935727E+03 -0.20615511273E+03  0.15967096982E+04  0.16305114380E+04  0.46999998093E+01 0. -1.
       -5    1    3    3    0  502  0.25799935727E+03  0.20615511273E+03 -0.19594904840E+04  0.19871307570E+04  0.46999998093E+01 0.  1.
</event>
<event>
 5   0  0.7236375E-08  0.3623910E+04  0.7818609E-02  0.8085037E-01
        1   -1    0    0  501    0  0.00000000000E+00  0.00000000000E+00  0.20947286977E+04  0.20947286977E+04  0.50400001928E-02 0. -1.
       -1   -1    0    0    0  501  0.00000000000E+00  0.00000000000E+00 -0.15673538853E+04  0.15673538853E+04  0.50400001928E-02 0.  1.
    10030    2    1    2    0    0  0.00000000000E+00  0.00000000000E+00  0.52737481242E+03  0.36620825830E+04  0.36239101330E+04 0.  0.
        1    1    3    3  502    0  0.56822519276E+03  0.93588192416E+03 -0.11952746203E+04  0.16209368475E+04  0.50400001928E-02 0.  1.
       -1    1    3    3    0  502 -0.56822519276E+03 -0.93588192416E+03  0.17226494327E+04  0.20411457355E+04  0.50400001928E-02 0. -1.
</event>
<event>
 5   0  0.2238968E-07  0.3601548E+04  0.7818609E-02  0.8090137E-01
       -2   -1    0    0    0  501  0.00000000000E+00  0.00000000000E+00  0.19559271962E+04  0.19559271962E+04  0.25500000920E-02 0.  1.
        2   -1    0    0  501    0  0.00000000000E+00  0.00000000000E+00 -0.16579279774E+04  0.16579279774E+04  0.25500000920E-02 0. -1.
    10030    2    1    2    0    0  0.00000000000E+00  0.00000000000E+00  0.29799921879E+03  0.36138551736E+04  0.36015476786E+04 0.  0.
        3    1    3    3  502    0  0.16580539765E+04 -0.67531734821E+03  0.34354330501E+03  0.18229696987E+04  0.10100000352E+00 0. -1.
       -3    1    3    3    0  502 -0.16580539765E+04  0.67531734821E+03 -0.45544086219E+02  0.17908854748E+04  0.10100000352E+00 0.  1.
</event>
<event>
 5   0  0.2238968E-07  0.3599873E+04  0.7818609E-02  0.8090521E-01
        2   -1    0    0  501    0  0.00000000000E+00  0.00000000000E+00  0.13682880896E+04  0.13682880896E+04  0.25500000920E-02 0. -1.
       -2   -1    0    0    0  501  0.00000000000E+00  0.00000000000E+00 -0.23677549187E+04  0.23677549187E+04  0.25500000920E-02 0.  1.
    10030    2    1    2    0    0  0.00000000000E+00  0.00000000000E+00 -0.99946682909E+03  0.37360430083E+04  0.35998726947E+04 0.  0.
        3    1    3    3  502    0  0.16602081431E+04  0.38470709458E+03  0.10138243914E+03  0.17072108939E+04  0.10100000352E+00 0. -1.
       -3    1    3    3    0  502 -0.16602081431E+04 -0.38470709458E+03 -0.11008492682E+04  0.20288321144E+04  0.10100000352E+00 0.  1.
</event>
<event>
 5   0  0.7236375E-08  0.3592056E+04  0.7818609E-02  0.8092314E-01
        1   -1    0    0  501    0  0.00000000000E+00  0.00000000000E+00  0.25572325312E+04  0.25572325312E+04  0.50400001928E-02 0. -1.
       -1   -1    0    0    0  501  0.00000000000E+00  0.00000000000E+00 -0.12614094871E+04  0.12614094871E+04  0.50400001928E-02 0.  1.
    10030    2    1    2    0    0  0.00000000000E+00  0.00000000000E+00  0.12958230441E+04  0.38186420183E+04  0.35920564447E+04 0.  0.
        5    1    3    3  502    0 -0.97540423385E+03 -0.12542942798E+04  0.15380004360E+04  0.22113649610E+04  0.46999998093E+01 0. -1.
       -5    1    3    3    0  502  0.97540423385E+03  0.12542942798E+04 -0.24217739187E+03  0.16072770573E+04  0.46999998093E+01 0.  1.
</event>
<event>
 5   0  0.7261233E-08  0.3598379E+04  0.7818609E-02  0.8090863E-01
       -1   -1    0    0    0  501  0.00000000000E+00  0.00000000000E+00  0.12654192068E+04  0.12654192068E+04  0.50400001928E-02 0.  1.
        1   -1    0    0  501    0  0.00000000000E+00  0.00000000000E+00 -0.25581117304E+04  0.25581117304E+04  0.50400001928E-02 0. -1.
    10030    2    1    2    0    0  0.00000000000E+00  0.00000000000E+00 -0.12926925235E+04  0.38235309372E+04  0.35983794779E+04 0.  0.
        3    1    3    3  502    0 -0.14353581381E+04  0.75043641663E+03 -0.14787368934E+04  0.21931873176E+04  0.10100000352E+00 0. -1.
       -3    1    3    3    0  502  0.14353581381E+04 -0.75043641663E+03  0.18604436985E+03  0.16303436196E+04  0.10100000352E+00 0.  1.
</event>
<event>
 5   0  0.7261233E-08  0.3587995E+04  0.7818609E-02  0.8093247E-01
        1   -1    0    0  501    0  0.00000000000E+00  0.00000000000E+00  0.18794006551E+04  0.18794006551E+04  0.50400001928E-02 0. -1.
       -1   -1    0    0    0  501  0.00000000000E+00  0.00000000000E+00 -0.17124753995E+04  0.17124753995E+04  0.50400001928E-02 0.  1.
    10030    2    1    2    0    0  0.00000000000E+00  0.00000000000E+00  0.16692525561E+03  0.35918760546E+04  0.35879951994E+04 0.  0.
        3    1    3    3  502    0  0.13999739058E+04  0.78765729441E+03  0.88313601875E+03  0.18331012487E+04  0.10100000352E+00 0. -1.
       -3    1    3    3    0  502 -0.13999739058E+04 -0.78765729441E+03 -0.71621076314E+03  0.17587748059E+04  0.10100000352E+00 0.  1.
</event>
<event>
 5   0  0.2198900E-07  0.3602647E+04  0.7818609E-02  0.8089886E-01
       -2   -1    0    0    0  501  0.00000000000E+00  0.00000000000E+00  0.16612131191E+04  0.16612131191E+04  0.25500000920E-02 0. -1.
        2   -1    0    0  501    0  0.00000000000E+00  0.00000000000E+00 -0.19532514116E+04  0.19532514116E+04  0.25500000920E-02 0.  1.
    10030    2    1    2    0    0  0.00000000000E+00  0.00000000000E+00 -0.29203829254E+03  0.36144645307E+04  0.36026472877E+04 0.  0.
        2    1    3    3  502    0  0.14032414539E+04 -0.11131680905E+04  0.45754631580E+02  0.17917374981E+04  0.25500000920E-02 0. -1.
       -2    1    3    3    0  502 -0.14032414539E+04  0.11131680905E+04 -0.33779292412E+03  0.18227270326E+04  0.25500000920E-02 0.  1.
</event>
<event>
 5   0  0.2198900E-07  0.3351802E+04  0.7818609E-02  0.8149838E-01
       -2   -1    0    0    0  501  0.00000000000E+00  0.00000000000E+00  0.86476555991E+03  0.86476555992E+03  0.25500000920E-02 0.  1.
        2   -1    0    0  501    0  0.00000000000E+00  0.00000000000E+00 -0.32478682361E+04  0.32478682361E+04  0.25500000920E-02 0. -1.
    10030    2    1    2    0    0  0.00000000000E+00  0.00000000000E+00 -0.23831026762E+04  0.41126337960E+04  0.33518022577E+04 0.  0.
        2    1    3    3  502    0  0.42858675973E+01  0.34468909992E+03 -0.32038985155E+04  0.32223895857E+04  0.25500000920E-02 0. -1.
       -2    1    3    3    0  502 -0.42858675973E+01 -0.34468909992E+03  0.82079583930E+03  0.89024421036E+03  0.25500000920E-02 0.  1.
</event>
<event>
 5   0  0.7514289E-08  0.3580995E+04  0.7818609E-02  0.8094859E-01
        1   -1    0    0  501    0  0.00000000000E+00  0.00000000000E+00  0.20344588245E+04  0.20344588245E+04  0.50400001928E-02 0. -1.
       -1   -1    0    0    0  501  0.00000000000E+00  0.00000000000E+00 -0.15757904551E+04  0.15757904551E+04  0.50400001928E-02 0.  1.
    10030    2    1    2    0    0  0.00000000000E+00  0.00000000000E+00  0.45866836944E+03  0.36102492796E+04  0.35809947204E+04 0.  0.
        4    1    3    3  502    0  0.90329164342E+03  0.10030767358E+04  0.14152861662E+04  0.19557953053E+04  0.12699999809E+01 0.  1.
       -4    1    3    3    0  502 -0.90329164342E+03 -0.10030767358E+04 -0.95661779675E+03  0.16544539743E+04  0.12699999809E+01 0. -1.
</event>
<event>
 5   0  0.2199902E-07  0.3631826E+04  0.7818609E-02  0.8083240E-01
        2   -1    0    0  501    0  0.00000000000E+00  0.00000000000E+00  0.28834665229E+04  0.28834665230E+04  0.25500000920E-02 0.  1.
       -2   -1    0    0    0  501  0.00000000000E+00  0.00000000000E+00 -0.11436025454E+04  0.11436025454E+04  0.25500000920E-02 0. -1.
    10030    2    1    2    0    0  0.00000000000E+00  0.00000000000E+00  0.17398639776E+04  0.40270690683E+04  0.36318257971E+04 0.  0.
        1    1    3    3  502    0 -0.13392593090E+04  0.72810838643E+01 -0.48985030660E+03  0.14260511330E+04  0.50400001928E-02 0. -1.
       -1    1    3    3    0  502  0.13392593090E+04 -0.72810838643E+01  0.22297142842E+04  0.26010179354E+04  0.50400001928E-02 0.  1.
</event>
<event>
 5   0  0.2342606E-07  0.3461552E+04  0.7818609E-02  0.8122963E-01
       -2   -1    0    0    0  501  0.00000000000E+00  0.00000000000E+00  0.13563802374E+04  0.13563802374E+04  0.25500000920E-02 0.  1.
        2   -1    0    0  501    0  0.00000000000E+00  0.00000000000E+00 -0.22085142538E+04  0.22085142538E+04  0.25500000920E-02 0. -1.
    10030    2    1    2    0    0  0.00000000000E+00  0.00000000000E+00 -0.85213401639E+03  0.35648944911E+04  0.34615517259E+04 0.  0.
        5    1    3    3  502    0  0.66241274267E+03  0.14856808614E+04  0.18278930288E+03  0.16369093692E+04  0.46999998093E+01 0. -1.
       -5    1    3    3    0  502 -0.66241274267E+03 -0.14856808614E+04 -0.10349233193E+04  0.19279851219E+04  0.46999998093E+01 0.  1.
</event>
<event>
 5   0  0.2342606E-07  0.3597949E+04  0.7818609E-02  0.8090962E-01
       -2   -1    0    0    0  501  0.00000000000E+00  0.00000000000E+00  0.25908068698E+04  0.25908068698E+04  0.25500000920E-02 0. -1.
        2   -1    0    0  501    0  0.00000000000E+00  0.00000000000E+00 -0.12491508713E+04  0.12491508713E+04  0.25500000920E-02 0.  1.
    10030    2    1    2    0    0  0.00000000000E+00  0.00000000000E+00  0.13416559985E+04  0.38399577411E+04  0.35979486705E+04 0.  0.
        5    1    3    3  502    0  0.37161169353E+03  0.65802004479E+03 -0.10715262565E+04  0.13112117444E+04  0.46999998093E+01 0.  1.
       -5    1    3    3    0  502 -0.37161169353E+03 -0.65802004479E+03  0.24131822550E+04  0.25287459968E+04  0.46999998093E+01 0. -1.
</event>
<event>
 5   0  0.2198900E-07  0.3607297E+04  0.7818609E-02  0.8088822E-01
       -2   -1    0    0    0  501  0.00000000000E+00  0.00000000000E+00  0.17483856594E+04  0.17483856594E+04  0.25500000920E-02 0. -1.
        2   -1    0    0  501    0  0.00000000000E+00  0.00000000000E+00 -0.18606582735E+04  0.18606582735E+04  0.25500000920E-02 0.  1.
    10030    2    1    2    0    0  0.00000000000E+00  0.00000000000E+00 -0.11227261411E+03  0.36090439329E+04  0.36072971834E+04 0.  0.
        2    1    3    3  502    0 -0.31174767282E+03 -0.82882527960E+03 -0.16282056398E+04  0.18534269775E+04  0.25500000920E-02 0.  1.
       -2    1    3    3    0  502  0.31174767282E+03  0.82882527960E+03  0.15159330257E+04  0.17556169554E+04  0.25500000920E-02 0. -1.
</event>
<event>
 5   0  0.7236375E-08  0.3599166E+04  0.7818609E-02  0.8090683E-01
       -1   -1    0    0    0  501  0.00000000000E+00  0.00000000000E+00  0.12905806406E+04  0.12905806406E+04  0.50400001928E-02 0.  1.
        1   -1    0    0  501    0  0.00000000000E+00  0.00000000000E+00 -0.25093350011E+04  0.25093350012E+04  0.50400001928E-02 0. -1.
    10030    2    1    2    0    0  0.00000000000E+00  0.00000000000E+00 -0.12187543605E+04  0.37999156418E+04  0.35991661108E+04 0.  0.
        5    1    3    3  502    0 -0.52267106573E+03 -0.22952154681E+03 -0.24112053576E+04  0.24778616891E+04  0.46999998093E+01 0. -1.
       -5    1    3    3    0  502  0.52267106573E+03  0.22952154681E+03  0.11924509971E+04  0.13220539527E+04  0.46999998093E+01 0.  1.
</event>
<event>
 5   0  0.2238968E-07  0.3606066E+04  0.7818609E-02  0.8089104E-01
        2   -1    0    0  501    0  0.00000000000E+00  0.00000000000E+00  0.16742474646E+04  0.16742474646E+04  0.25500000920E-02 0. -1.
       -2   -1    0    0    0  501  0.00000000000E+00  0.00000000000E+00 -0.19417243817E+04  0.19417243817E+04  0.25500000920E-02 0.  1.
    10030    2    1    2    0    0  0.00000000000E+00  0.00000000000E+00 -0.26747691713E+03  0.36159718463E+04  0.36060655141E+04 0.  0.
        3    1    3    3  502    0 -0.61726558617E+03  0.31441570378E+02  0.15647037665E+04  0.16823505173E+04  0.10100000352E+00 0. -1.
       -3    1    3    3    0  502  0.61726558617E+03 -0.31441570378E+02 -0.18321806836E+04  0.19336213289E+04  0.10100000352E+00 0.  1.
</event>
<event>
 5   0  0.7261233E-08  0.3650052E+04  0.7818609E-02  0.8079122E-01
        1   -1    0    0  501    0  0.00000000000E+00  0.00000000000E+00  0.23842789445E+04  0.23842789445E+04  0.50400001928E-02 0. -1.
       -1   -1    0    0    0  501  0.00000000000E+00  0.00000000000E+00 -0.13969503766E+04  0.13969503766E+04  0.50400001928E-02 0.  1.
    10030    2    1    2    0    0  0.00000000000E+00  0.00000000000E+00  0.98732856787E+03  0.37812293212E+04  0.36500517090E+04 0.  0.
        3    1    3    3  502    0  0.16107578440E+04 -0.84650500368E+03  0.63872456055E+03  0.19284918013E+04  0.10100000352E+00 0.  1.
       -3    1    3    3    0  502 -0.16107578440E+04  0.84650500368E+03  0.34860400732E+03  0.18527375198E+04  0.10100000352E+00 0. -1.
</event>
<event>
 5   0  0.2309391E-07  0.3598485E+04  0.7818609E-02  0.8090839E-01
       -2   -1    0    0    0  501  0.00000000000E+00  0.00000000000E+00  0.13705877270E+04  0.13705877270E+04  0.25500000920E-02 0.  1.
        2   -1    0    0  501    0  0.00000000000E+00  0.00000000000E+00 -0.23619605550E+04  0.23619605550E+04  0.25500000920E-02 0. -1.
    10030    2    1    2    0    0  0.00000000000E+00  0.00000000000E+00 -0.99137282802E+03  0.37325482820E+04  0.35984853194E+04 0.  0.
        4    1    3    3  502    0  0.61415609418E+02 -0.11018866906E+04 -0.19696647790E+04  0.22577659556E+04  0.12699999809E+01 0. -1.
       -4    1    3    3    0  502 -0.61415609418E+02  0.11018866906E+04  0.97829195096E+03  0.14747823264E+04  0.12699999809E+01 0.  1.
</event>
<event>
 5   0  0.7347303E-08  0.3607766E+04  0.7818609E-02  0.8088715E-01
        1   -1    0    0  501    0  0.00000000000E+00  0.00000000000E+00  0.12731952508E+04  0.12731952508E+04  0.50400001928E-02 0.  1.
       -1   -1    0    0    0  501  0.00000000000E+00  0.00000000000E+00 -0.25557694077E+04  0.25557694077E+04  0.50400001928E-02 0. -1.
    10030    2    1    2    0    0  0.00000000000E+00  0.00000000000E+00 -0.12825741569E+04  0.38289646585E+04  0.36077657751E+04 0.  0.
        2    1    3    3  502    0 -0.90789608112E+03 -0.27385673705E+03  0.98730651154E+03  0.13689583464E+04  0.25500000920E-02 0.  1.
       -2    1    3    3    0  502  0.90789608112E+03  0.27385673705E+03 -0.22698806684E+04  0.24600063120E+04  0.25500000920E-02 0. -1.
</event>
<event>
 5   0  0.7236375E-08  0.3625621E+04  0.7818609E-02  0.8084648E-01
        1   -1    0    0  501    0  0.00000000000E+00  0.00000000000E+00  0.17248863196E+04  0.17248863196E+04  0.50400001928E-02 0.  1.
       -1   -1    0    0    0  501  0.00000000000E+00  0.00000000000E+00 -0.19052170250E+04  0.19052170250E+04  0.50400001928E-02 0. -1.
    10030    2    1    2    0    0  0.00000000000E+00  0.00000000000E+00 -0.18033070541E+03  0.36301033447E+04  0.36256214818E+04 0.  0.
        1    1    3    3  502    0  0.47060727891E+03  0.17322996240E+04 -0.34336050702E+03  0.18276295128E+04  0.50400001928E-02 0. -1.
       -1    1    3    3    0  502 -0.47060727891E+03 -0.17322996240E+04  0.16302980161E+03  0.18024738319E+04  0.50400001928E-02 0.  1.
</event>
<event>
 5   0  0.2342606E-07  0.3594326E+04  0.7818609E-02  0.8091793E-01
        2   -1    0    0  501    0  0.00000000000E+00  0.00000000000E+00  0.21728970453E+04  0.21728970453E+04  0.25500000920E-02 0.  1.
       -2   -1    0    0    0  501  0.00000000000E+00  0.00000000000E+00 -0.14864001495E+04  0.14864001495E+04  0.25500000920E-02 0. -1.
    10030    2    1    2    0    0  0.00000000000E+00  0.00000000000E+00  0.68649689580E+03  0.36592971947E+04  0.35943258021E+04 0.  0.
        5    1    3    3  502    0 -0.13128391120E+04  0.36461646141E+02  0.15921653593E+04  0.20639497588E+04  0.46999998093E+01 0.  1.
       -5    1    3    3    0  502  0.13128391120E+04 -0.36461646141E+02 -0.90566846350E+03  0.15953474359E+04  0.46999998093E+01 0. -1.
</event>
<event>
 5   0  0.7236375E-08  0.3606294E+04  0.7818609E-02  0.8089052E-01
       -1   -1    0    0    0  501  0.00000000000E+00  0.00000000000E+00  0.15823556601E+04  0.15823556601E+04  0.50400001928E-02 0. -1.
        1   -1    0    0  501    0  0.00000000000E+00  0.00000000000E+00 -0.20547457469E+04  0.20547457469E+04  0.50400001928E-02 0.  1.
    10030    2    1    2    0    0  0.00000000000E+00  0.00000000000E+00 -0.47239008680E+03  0.36371014070E+04  0.36062937000E+04 0.  0.
        5    1    3    3  502    0 -0.22068663971E+03  0.89691320102E+03  0.13256338308E+04  0.16156989282E+04  0.46999998093E+01 0. -1.
       -5    1    3    3    0  502  0.22068663971E+03 -0.89691320102E+03 -0.17980239176E+04  0.20214024788E+04  0.46999998093E+01 0.  1.
</event>
<event>
 5   0  0.2238968E-07  0.3605479E+04  0.7818609E-02  0.8089238E-01
        2   -1    0    0  501    0  0.00000000000E+00  0.00000000000E+00  0.28446097113E+04  0.28446097113E+04  0.25500000920E-02 0.  1.
       -2   -1    0    0    0  501  0.00000000000E+00  0.00000000000E+00 -0.11424661381E+04  0.11424661381E+04  0.25500000920E-02 0. -1.
    10030    2    1    2    0    0  0.00000000000E+00  0.00000000000E+00  0.17021435733E+04  0.39870758494E+04  0.36054793142E+04 0.  0.
        3    1    3    3  502    0 -0.42778807997E+03 -0.42208995409E+03 -0.10284323603E+04  0.11911488994E+04  0.10100000352E+00 0. -1.
       -3    1    3    3    0  502  0.42778807997E+03  0.42208995409E+03  0.27305759335E+04  0.27959269500E+04  0.10100000352E+00 0.  1.
</event>
<event>
 5   0  0.2199902E-07  0.3611595E+04  0.7818609E-02  0.8087841E-01
        2   -1    0    0  501    0  0.00000000000E+00  0.00000000000E+00  0.23677980272E+04  0.23677980272E+04  0.25500000920E-02 0. -1.
       -2   -1    0    0    0  501  0.00000000000E+00  0.00000000000E+00 -0.13771884507E+04  0.13771884507E+04  0.25500000920E-02 0.  1.
    10030    2    1    2    0    0  0.00000000000E+00  0.00000000000E+00  0.99060957648E+03  0.37449864779E+04  0.36115947152E+04 0.  0.
        1    1    3    3  502    0  0.52384583945E+03  0.17176518591E+04  0.69249066673E+03  0.19246520974E+04  0.50400001928E-02 0. -1.
       -1    1    3    3    0  502 -0.52384583945E+03 -0.17176518591E+04  0.29811890975E+03  0.18203343805E+04  0.50400001928E-02 0.  1.
</event>
<event>
 5   0  0.7347303E-08  0.3566412E+04  0.7818609E-02  0.8098229E-01
       -1   -1    0    0    0  501  0.00000000000E+00  0.00000000000E+00  0.17054134885E+04  0.17054134885E+04  0.50400001928E-02 0. -1.
        1   -1    0    0  501    0  0.00000000000E+00  0.00000000000E+00 -0.18645465355E+04  0.18645465355E+04  0.50400001928E-02 0.  1.
    10030    2    1    2    0    0  0.00000000000E+00  0.00000000000E+00 -0.15913304696E+03  0.35699600240E+04  0.35664115363E+04 0.  0.
        2    1    3    3  502    0  0.12865392870E+04 -0.26010071470E+03  0.11286916710E+04  0.17311211994E+04  0.25500000920E-02 0. -1.
       -2    1    3    3    0  502 -0.12865392870E+04  0.26010071470E+03 -0.12878247179E+04  0.18388388246E+04  0.25500000920E-02 0.  1.
</event>
<event>
 5   0  0.7347303E-08  0.3590310E+04  0.7818609E-02  0.8092715E-01
        1   -1    0    0  501    0  0.00000000000E+00  0.00000000000E+00  0.28695535369E+04  0.28695535369E+04  0.50400001928E-02 0. -1.
       -1   -1    0    0    0  501  0.00000000000E+00  0.00000000000E+00 -0.11230253991E+04  0.11230253991E+04  0.50400001928E-02 0.  1.
    10030    2    1    2    0    0  0.00000000000E+00  0.00000000000E+00  0.17465281378E+04  0.39925789360E+04  0.35903100178E+04 0.  0.
        2    1    3    3  502    0  0.53764722173E+03  0.11525193730E+04 -0.53566233855E+03  0.13799636159E+04  0.25500000920E-02 0.  1.
       -2    1    3    3    0  502 -0.53764722173E+03 -0.11525193730E+04  0.22821904764E+04  0.26126153201E+04  0.25500000920E-02 0. -1.
</event>
<event>
 5   0  0.2238968E-07  0.3595585E+04  0.7818609E-02  0.8091504E-01
        2   -1    0    0  501    0  0.00000000000E+00  0.00000000000E+00  0.25557447225E+04  0.25557447225E+04  0.25500000920E-02 0.  1.
       -2   -1    0    0    0  501  0.00000000000E+00  0.00000000000E+00 -0.12646247379E+04  0.12646247379E+04  0.25500000920E-02 0. -1.
    10030    2    1    2    0    0  0.00000000000E+00  0.00000000000E+00  0.12911199846E+04  0.38203694604E+04  0.35955850705E+04 0.  0.
        3    1    3    3  502    0 -0.63000730728E+02 -0.10819850393E+04  0.21695947649E+04  0.24252427036E+04  0.10100000352E+00 0.  1.
       -3    1    3    3    0  502  0.63000730728E+02  0.10819850393E+04 -0.87847478038E+03  0.13951267567E+04  0.10100000352E+00 0. -1.
</event>
<event>
 5   0  0.2238968E-07  0.3609625E+04  0.7818609E-02  0.8088290E-01
        2   -1    0    0  501    0  0.00000000000E+00  0.00000000000E+00  0.14114447448E+04  0.14114447448E+04  0.25500000920E-02 0.  1.
       -2   -1    0    0    0  501  0.00000000000E+00  0.00000000000E+00 -0.23078117142E+04  0.23078117142E+04  0.25500000920E-02 0. -1.
    10030    2    1    2    0    0  0.00000000000E+00  0.00000000000E+00 -0.89636696940E+03  0.37192564591E+04  0.36096253081E+04 0.  0.
        3    1    3    3  502    0  0.72532556233E+03 -0.77034431361E+03 -0.19547200952E+04  0.22227141503E+04  0.10100000352E+00 0. -1.
       -3    1    3    3    0  502 -0.72532556233E+03  0.77034431361E+03  0.10583531258E+04  0.14965423088E+04  0.10100000352E+00 0.  1.
</event>
<event>
 5   0  0.7514289E-08  0.3596922E+04  0.7818609E-02  0.8091197E-01
        1   -1    0    0  501    0  0.00000000000E+00  0.00000000000E+00  0.19708400400E+04  0.19708400400E+04  0.50400001928E-02 0.  1.
       -1   -1    0    0    0  501  0.00000000000E+00  0.00000000000E+00 -0.16411594193E+04  0.16411594193E+04  0.50400001928E-02 0. -1.
    10030    2    1    2    0    0  0.00000000000E+00  0.00000000000E+00  0.32968062073E+03  0.36119994593E+04  0.35969224043E+04 0.  0.
        4    1    3    3  502    0  0.11938051516E+04  0.24079552255E+01  0.15155749712E+04  0.19292863044E+04  0.12699999809E+01 0.  1.
       -4    1    3    3    0  502 -0.11938051516E+04 -0.24079552255E+01 -0.11858943505E+04  0.16827131549E+04  0.12699999809E+01 0. -1.
</event>
<event>
 5   0  0.7514289E-08  0.3614204E+04  0.7818609E-02  0.8087246E-01
       -1   -1    0    0    0  501  0.00000000000E+00  0.00000000000E+00  0.14634028129E+04  0.14634028129E+04  0.50400001928E-02 0.  1.
        1   -1    0    0  501    0  0.00000000000E+00  0.00000000000E+00 -0.22315234852E+04  0.22315234852E+04  0.50400001928E-02 0. -1.
    10030    2    1    2    0    0  0.00000000000E+00  0.00000000000E+00 -0.76812067227E+03  0.36949262981E+04  0.36142040592E+04 0.  0.
        4    1    3    3  502    0  0.16986740152E+04 -0.32788508418E+03 -0.91784643964E+03  0.19584294059E+04  0.12699999809E+01 0. -1.
       -4    1    3    3    0  502 -0.16986740152E+04  0.32788508418E+03  0.14972576738E+03  0.17364968922E+04  0.12699999809E+01 0.  1.
</event>
<event>
 5   0  0.7236375E-08  0.3511055E+04  0.7818609E-02  0.8111175E-01
        1   -1    0    0  501    0  0.00000000000E+00  0.00000000000E+00  0.17022577866E+04  0.17022577866E+04  0.50400001928E-02 0. -1.
       -1   -1    0    0    0  501  0.00000000000E+00  0.00000000000E+00 -0.18104644074E+04  0.18104644074E+04  0.50400001928E-02 0.  1.
    10030    2    1    2    0    0  0.00000000000E+00  0.00000000000E+00 -0.10820662082E+03  0.35127221940E+04  0.35110551889E+04 0.  0.
        1    1    3    3  502    0 -0.68208130245E+03  0.57804933131E+03  0.14574088870E+04  0.17098001627E+04  0.50400001928E-02 0. -1.
       -1    1    3    3    0  502  0.68208130245E+03 -0.57804933131E+03 -0.15656155078E+04  0.18029220313E+04  0.50400001928E-02 0.  1.
</event>
<event>
 5   0  0.7236375E-08  0.3591914E+04  0.7818609E-02  0.8092346E-01
       -1   -1    0    0    0  501  0.00000000000E+00  0.00000000000E+00  0.14169780888E+04  0.14169780888E+04  0.50400001928E-02 0.  1.
        1   -1    0    0  501    0  0.00000000000E+00  0.00000000000E+00 -0.22762959664E+04  0.22762959664E+04  0.50400001928E-02 0. -1.
    10030    2    1    2    0    0  0.00000000000E+00  0.00000000000E+00 -0.85931787759E+03  0.36932740553E+04  0.35919139790E+04 0.  0.
        1    1    3    3  502    0  0.57479978669E+03 -0.17014835188E+04 -0.43431992782E+03  0.18477215047E+04  0.50400001928E-02 0. -1.
       -1    1    3    3    0  502 -0.57479978669E+03  0.17014835188E+04 -0.42499794977E+03  0.18455525505E+04  0.50400001928E-02 0.  1.
</event>
<event>
 5   0  0.7347303E-08  0.3629405E+04  0.7818609E-02  0.8083789E-01
        1   -1    0    0  501    0  0.00000000000E+00  0.00000000000E+00  0.12170487391E+04  0.12170487392E+04  0.50400001928E-02 0. -1.
       -1   -1    0    0    0  501  0.00000000000E+00  0.00000000000E+00 -0.27058446634E+04  0.27058446634E+04  0.50400001928E-02 0.  1.
    10030    2    1    2    0    0  0.00000000000E+00  0.00000000000E+00 -0.14887959243E+04  0.39228934026E+04  0.36294048195E+04 0.  0.
        2    1    3    3  502    0 -0.63805466760E+03  0.86109366423E+03  0.83844948449E+03  0.13607327421E+04  0.25500000920E-02 0. -1.
       -2    1    3    3    0  502  0.63805466760E+03 -0.86109366423E+03 -0.23272454087E+04  0.25621606605E+04  0.25500000920E-02 0.  1.
</event>
<event>
 5   0  0.7236375E-08  0.3586051E+04  0.7818609E-02  0.8093694E-01
       -1   -1    0    0    0  501  0.00000000000E+00  0.00000000000E+00  0.18734135841E+04  0.18734135841E+04  0.50400001928E-02 0.  1.
        1   -1    0    0  501    0  0.00000000000E+00  0.00000000000E+00 -0.17160871807E+04  0.17160871807E+04  0.50400001928E-02 0. -1.
    10030    2    1    2    0    0  0.00000000000E+00  0.00000000000E+00  0.15732640339E+03  0.35895007649E+04  0.35860513303E+04 0.  0.
        5    1    3    3  502    0  0.33207946764E+03  0.15758739305E+03 -0.16779631649E+04  0.17177581413E+04  0.46999998093E+01 0. -1.
       -5    1    3    3    0  502 -0.33207946764E+03 -0.15758739305E+03  0.18352895683E+04  0.18717426236E+04  0.46999998093E+01 0.  1.
</event>
<event>
 5   0  0.7347303E-08  0.3594556E+04  0.7818609E-02  0.8091740E-01
       -1   -1    0    0    0  501  0.00000000000E+00  0.00000000000E+00  0.17665972162E+04  0.17665972162E+04  0.50400001928E-02 0. -1.
        1   -1    0    0  501    0  0.00000000000E+00  0.00000000000E+00 -0.18284914120E+04  0.18284914120E+04  0.50400001928E-02 0.  1.
    10030    2    1    2    0    0  0.00000000000E+00  0.00000000000E+00 -0.61894195781E+02  0.35950886283E+04  0.35945557936E+04 0.  0.
        2    1    3    3  502    0 -0.26796146256E+03 -0.17771708129E+04 -0.39218443451E+02  0.17976867163E+04  0.25500000920E-02 0.  1.
       -2    1    3    3    0  502  0.26796146256E+03  0.17771708129E+04 -0.22675752330E+02  0.17974019120E+04  0.25500000920E-02 0. -1.
</event>
<event>
 5   0  0.2199902E-07  0.3592749E+04  0.7818609E-02  0.8092155E-01
       -2   -1    0    0    0  501  0.00000000000E+00  0.00000000000E+00  0.16271627717E+04  0.16271627717E+04  0.25500000920E-02 0.  1.
        2   -1    0    0  501    0  0.00000000000E+00  0.00000000000E+00 -0.19831827606E+04  0.19831827606E+04  0.25500000920E-02 0. -1.
    10030    2    1    2    0    0  0.00000000000E+00  0.00000000000E+00 -0.35601998884E+03  0.36103455323E+04  0.35927488960E+04 0.  0.
        1    1    3    3  502    0  0.45136516617E+03  0.50410151705E+03  0.14942052900E+04  0.16402738495E+04  0.50400001928E-02 0.  1.
       -1    1    3    3    0  502 -0.45136516617E+03 -0.50410151705E+03 -0.18502252788E+04  0.19700716828E+04  0.50400001928E-02 0. -1.
</event>
<event>
 5   0  0.2199902E-07  0.3601968E+04  0.7818609E-02  0.8090041E-01
       -2   -1    0    0    0  501  0.00000000000E+00  0.00000000000E+00  0.15392182584E+04  0.15392182584E+04  0.25500000920E-02 0. -1.
        2   -1    0    0  501    0  0.00000000000E+00  0.00000000000E+00 -0.21072669548E+04  0.21072669548E+04  0.25500000920E-02 0.  1.
    10030    2    1    2    0    0  0.00000000000E+00  0.00000000000E+00 -0.56804869641E+03  0.36464852131E+04  0.36019682242E+04 0.  0.
        1    1    3    3  502    0  0.74408792713E+03  0.16394849876E+04 -0.32891084741E+03  0.18302350159E+04  0.50400001928E-02 0. -1.
       -1    1    3    3    0  502 -0.74408792713E+03 -0.16394849876E+04 -0.23913784900E+03  0.18162501972E+04  0.50400001928E-02 0.  1.
</event>
<event>
 5   0  0.2198900E-07  0.3608171E+04  0.7818609E-02  0.8088623E-01
       -2   -1    0    0    0  501  0.00000000000E+00  0.00000000000E+00  0.15636610031E+04  0.15636610031E+04  0.25500000920E-02 0. -1.
        2   -1    0    0  501    0  0.00000000000E+00  0.00000000000E+00 -0.20814773637E+04  0.20814773637E+04  0.25500000920E-02 0.  1.
    10030    2    1    2    0    0  0.00000000000E+00  0.00000000000E+00 -0.51781636062E+03  0.36451383669E+04  0.36081712723E+04 0.  0.
        2    1    3    3  502    0 -0.47393761251E+03  0.60444669232E+03 -0.19080397229E+04  0.20568393832E+04  0.25500000920E-02 0.  1.
       -2    1    3    3    0  502  0.47393761251E+03 -0.60444669232E+03  0.13902233622E+04  0.15882989836E+04  0.25500000920E-02 0. -1.
</event>
<event>
 5   0  0.7514289E-08  0.3591990E+04  0.7818609E-02  0.8092329E-01
        1   -1    0    0  501    0  0.00000000000E+00  0.00000000000E+00  0.19656739516E+04  0.19656739516E+04  0.50400001928E-02 0. -1.
       -1   -1    0    0    0  501  0.00000000000E+00  0.00000000000E+00 -0.16409630980E+04  0.16409630980E+04  0.50400001928E-02 0.  1.
    10030    2    1    2    0    0  0.00000000000E+00  0.00000000000E+00  0.32471085363E+03  0.36066370496E+04  0.35919902101E+04 0.  0.
        4    1    3    3  502    0  0.40924930035E+03  0.39648278043E+03 -0.15477963814E+04  0.16493510349E+04  0.12699999809E+01 0.  1.
       -4    1    3    3    0  502 -0.40924930035E+03 -0.39648278043E+03  0.18725072351E+04  0.19572860147E+04  0.12699999809E+01 0. -1.
</event>
<event>
 5   0  0.7514289E-08  0.3591184E+04  0.7818609E-02  0.8092514E-01
        1   -1    0    0  501    0  0.00000000000E+00  0.00000000000E+00  0.27229200597E+04  0.27229200597E+04  0.50400001928E-02 0. -1.
       -1   -1    0    0    0  501  0.00000000000E+00  0.00000000000E+00 -0.11840782338E+04  0.11840782338E+04  0.50400001928E-02 0.  1.
    10030    2    1    2    0    0  0.00000000000E+00  0.00000000000E+00  0.15388418259E+04  0.39069982936E+04  0.35911838578E+04 0.  0.
        4    1    3    3  502    0  0.18359802324E+02  0.11744411854E+04  0.22469800159E+04  0.25354624795E+04  0.12699999809E+01 0. -1.
       -4    1    3    3    0  502 -0.18359802324E+02 -0.11744411854E+04 -0.70813818995E+03  0.13715358141E+04  0.12699999809E+01 0.  1.
</event>
<event>
 5   0  0.7236375E-08  0.3600198E+04  0.7818609E-02  0.8090446E-01
       -1   -1    0    0    0  501  0.00000000000E+00  0.00000000000E+00  0.10001335089E+04  0.10001335090E+04  0.50400001928E-02 0.  1.
        1   -1    0    0  501    0  0.00000000000E+00  0.00000000000E+00 -0.32399245945E+04  0.32399245945E+04  0.50400001928E-02 0. -1.
    10030    2    1    2    0    0  0.00000000000E+00  0.00000000000E+00 -0.22397910856E+04  0.42400581035E+04  0.36001984131E+04 0.  0.
        1    1    3    3  502    0 -0.14503682419E+04  0.50026337588E+03 -0.10998999109E+02  0.15342595805E+04  0.50400001928E-02 0.  1.
       -1    1    3    3    0  502  0.14503682419E+04 -0.50026337588E+03 -0.22287920865E+04  0.27057985230E+04  0.50400001928E-02 0. -1.
</event>
<event>
 5   0  0.7347303E-08  0.3594827E+04  0.7818609E-02  0.8091678E-01
       -1   -1    0    0    0  501  0.00000000000E+00  0.00000000000E+00  0.15709326678E+04  0.15709326678E+04  0.50400001928E-02 0. -1.
        1   -1    0    0  501    0  0.00000000000E+00  0.00000000000E+00 -0.20565454519E+04  0.20565454519E+04  0.50400001928E-02 0.  1.
    10030    2    1    2    0    0  0.00000000000E+00  0.00000000000E+00 -0.48561278407E+03  0.36274781197E+04  0.35948265233E+04 0.  0.
        2    1    3    3  502    0  0.28972914021E+03 -0.12999125861E+03 -0.20280146420E+04  0.20527260144E+04  0.25500000920E-02 0.  1.
       -2    1    3    3    0  502 -0.28972914021E+03  0.12999125861E+03  0.15424018579E+04  0.15747521053E+04  0.25500000920E-02 0. -1.
</event>
<event>
 5   0  0.7347303E-08  0.3600132E+04  0.7818609E-02  0.8090462E-01
        1   -1    0    0  501    0  0.00000000000E+00  0.00000000000E+00  0.20058695670E+04  0.20058695670E+04  0.50400001928E-02 0. -1.
       -1   -1    0    0    0  501  0.00000000000E+00  0.00000000000E+00 -0.16153777808E+04  0.16153777808E+04  0.50400001928E-02 0.  1.
    10030    2    1    2    0    0  0.00000000000E+00  0.00000000000E+00  0.39049178614E+03  0.36212473478E+04  0.36001317364E+04 0.  0.
        2    1    3    3  502    0  0.54258506494E+03  0.38933514697E+03  0.18766532735E+04  0.19919357214E+04  0.25500000920E-02 0. -1.
       -2    1    3    3    0  502 -0.54258506494E+03 -0.38933514697E+03 -0.14861614874E+04  0.16293116264E+04  0.25500000920E-02 0.  1.
</event>
<event>
 5   0  0.2238968E-07  0.3615892E+04  0.7818609E-02  0.8086861E-01
       -2   -1    0    0    0  501  0.00000000000E+00  0.00000000000E+00  0.18903869991E+04  0.18903869991E+04  0.25500000920E-02 0.  1.
        2   -1    0    0  501    0  0.00000000000E+00  0.00000000000E+00 -0.17290998993E+04  0.17290998993E+04  0.25500000920E-02 0. -1.
    10030    2    1    2    0    0  0.00000000000E+00  0.00000000000E+00  0.16128709980E+03  0.36194868985E+04  0.36158915746E+04 0.  0.
        3    1    3    3  502    0 -0.12095059170E+03  0.16981839200E+04  0.68969762200E+03  0.18368833637E+04  0.10100000352E+00 0. -1.
       -3    1    3    3    0  502  0.12095059170E+03 -0.16981839200E+04 -0.52841052220E+03  0.17826035347E+04  0.10100000352E+00 0.  1.
</event>
<event>
 5   0  0.2199902E-07  0.3580786E+04  0.7818609E-02  0.8094907E-01
        2   -1    0    0  501    0  0.00000000000E+00  0.00000000000E+00  0.11749523235E+04  0.11749523235E+04  0.25500000920E-02 0.  1.
       -2   -1    0    0    0  501  0.00000000000E+00  0.00000000000E+00 -0.27282012505E+04  0.27282012505E+04  0.25500000920E-02 0. -1.
    10030    2    1    2    0    0  0.00000000000E+00  0.00000000000E+00 -0.15532489270E+04  0.39031535740E+04  0.35807856111E+04 0.  0.
        1    1    3    3  502    0 -0.66043483359E+03 -0.74020838274E+03  0.84800014732E+03  0.13050620174E+04  0.50400001928E-02 0.  1.
       -1    1    3    3    0  502  0.66043483359E+03  0.74020838274E+03 -0.24012490744E+04  0.25980915566E+04  0.50400001928E-02 0. -1.
</event>
<event>
 5   0  0.2238968E-07  0.3655406E+04  0.7818609E-02  0.8077917E-01
        2   -1    0    0  501    0  0.00000000000E+00  0.00000000000E+00  0.17252178969E+04  0.17252178969E+04  0.25500000920E-02 0.  1.
       -2   -1    0    0    0  501  0.00000000000E+00  0.00000000000E+00 -0.19362757451E+04  0.19362757451E+04  0.25500000920E-02 0. -1.
    10030    2    1    2    0    0  0.00000000000E+00  0.00000000000E+00 -0.21105784817E+03  0.36614936419E+04  0.36554056238E+04 0.  0.
        3    1    3    3  502    0  0.11425046352E+04  0.79484019226E+03  0.10811000788E+04  0.17623464936E+04  0.10100000352E+00 0.  1.
       -3    1    3    3    0  502 -0.11425046352E+04 -0.79484019226E+03 -0.12921579270E+04  0.18991471484E+04  0.10100000352E+00 0. -1.
</event>
<event>
 5   0  0.7236375E-08  0.3565460E+04  0.7818609E-02  0.8098450E-01
        1   -1    0    0  501    0  0.00000000000E+00  0.00000000000E+00  0.19332098867E+04  0.19332098867E+04  0.50400001928E-02 0.  1.
       -1   -1    0    0    0  501  0.00000000000E+00  0.00000000000E+00 -0.16439630043E+04  0.16439630043E+04  0.50400001928E-02 0. -1.
    10030    2    1    2    0    0  0.00000000000E+00  0.00000000000E+00  0.28924688239E+03  0.35771728909E+04  0.35654595963E+04 0.  0.
        1    1    3    3  502    0 -0.10484847174E+04 -0.11290523720E+04  0.10442554076E+04  0.18613298519E+04  0.50400001928E-02 0.  1.
       -1    1    3    3    0  502  0.10484847174E+04  0.11290523720E+04 -0.75500852521E+03  0.17158430390E+04  0.50400001928E-02 0. -1.
</event>
<event>
 5   0  0.2198900E-07  0.3604854E+04  0.7818609E-02  0.8089381E-01
       -2   -1    0    0    0  501  0.00000000000E+00  0.00000000000E+00  0.15421967239E+04  0.15421967239E+04  0.25500000920E-02 0.  1.
        2   -1    0    0  501    0  0.00000000000E+00  0.00000000000E+00 -0.21065690817E+04  0.21065690817E+04  0.25500000920E-02 0. -1.
    10030    2    1    2    0    0  0.00000000000E+00  0.00000000000E+00 -0.56437235784E+03  0.36487658056E+04  0.36048544694E+04 0.  0.
        2    1    3    3  502    0 -0.61294011090E+02 -0.11565668256E+04 -0.16800740253E+04  0.20406010165E+04  0.25500000920E-02 0. -1.
       -2    1    3    3    0  502  0.61294011090E+02  0.11565668256E+04  0.11157016675E+04  0.16081647891E+04  0.25500000920E-02 0.  1.
</event>
<event>
 5   0  0.2198900E-07  0.3595289E+04  0.7818609E-02  0.8091572E-01
        2   -1    0    0  501    0  0.00000000000E+00  0.00000000000E+00  0.18926740782E+04  0.18926740782E+04  0.25500000920E-02 0.  1.
       -2   -1    0    0    0  501  0.00000000000E+00  0.00000000000E+00 -0.17073863461E+04  0.17073863461E+04  0.25500000920E-02 0. -1.
    10030    2    1    2    0    0  0.00000000000E+00  0.00000000000E+00  0.18528773206E+03  0.36000604243E+04  0.35952890725E+04 0.  0.
        2    1    3    3  502    0 -0.51939038009E+03  0.17132752512E+04 -0.70198602475E+02  0.17916490440E+04  0.25500000920E-02 0. -1.
       -2    1    3    3    0  502  0.51939038009E+03 -0.17132752512E+04  0.25548633454E+03  0.18084113803E+04  0.25500000920E-02 0.  1.
</event>
<event>
 5   0  0.7236375E-08  0.3610224E+04  0.7818609E-02  0.8088154E-01
        1   -1    0    0  501    0  0.00000000000E+00  0.00000000000E+00  0.28669242204E+04  0.28669242204E+04  0.50400001928E-02 0. -1.
       -1   -1    0    0    0  501  0.00000000000E+00  0.00000000000E+00 -0.11365593361E+04  0.11365593361E+04  0.50400001928E-02 0.  1.
    10030    2    1    2    0    0  0.00000000000E+00  0.00000000000E+00  0.17303648843E+04  0.40034835565E+04  0.36102240865E+04 0.  0.
        1    1    3    3  502    0  0.17497053024E+04  0.18143237463E+03  0.13143236706E+04  0.21958672690E+04  0.50400001928E-02 0.  1.
       -1    1    3    3    0  502 -0.17497053024E+04 -0.18143237463E+03  0.41604121361E+03  0.18076162876E+04  0.50400001928E-02 0. -1.
</event>
<event>
 5   0  0.7514289E-08  0.3603942E+04  0.7818609E-02  0.8089589E-01
        1   -1    0    0  501    0  0.00000000000E+00  0.00000000000E+00  0.24940066345E+04  0.24940066345E+04  0.50400001928E-02 0.  1.
       -1   -1    0    0    0  501  0.00000000000E+00  0.00000000000E+00 -0.13019610542E+04  0.13019610542E+04  0.50400001928E-02 0. -1.
    10030    2    1    2    0    0  0.00000000000E+00  0.00000000000E+00  0.11920455803E+04  0.37959676887E+04  0.36039420123E+04 0.  0.
        4    1    3    3  502    0  0.94492621913E+03  0.79459591139E+03 -0.78647957834E+03  0.14638374097E+04  0.12699999809E+01 0. -1.
       -4    1    3    3    0  502 -0.94492621913E+03 -0.79459591139E+03  0.19785251586E+04  0.23321302790E+04  0.12699999809E+01 0.  1.
</event>
<event>
 5   0  0.7236375E-08  0.3596246E+04  0.7818609E-02  0.8091352E-01
       -1   -1    0    0    0  501  0.00000000000E+00  0.00000000000E+00  0.19239406522E+04  0.19239406522E+04  0.50400001928E-02 0.  1.
        1   -1    0    0  501    0  0.00000000000E+00  0.00000000000E+00 -0.16805337481E+04  0.16805337481E+04  0.50400001928E-02 0. -1.
    10030    2    1    2    0    0  0.00000000000E+00  0.00000000000E+00  0.24340690409E+03  0.36044744004E+04  0.35962464851E+04 0.  0.
        5    1    3    3  502    0  0.56062972927E+03 -0.85576058207E+03  0.16037999988E+04  0.19023218428E+04  0.46999998093E+01 0.  1.
       -5    1    3    3    0  502 -0.56062972927E+03  0.85576058207E+03 -0.13603930947E+04  0.17021525576E+04  0.46999998093E+01 0. -1.
</event>
<event>
 5   0  0.2309391E-07  0.3596918E+04  0.7818609E-02  0.8091198E-01
        2   -1    0    0  501    0  0.00000000000E+00  0.00000000000E+00  0.98010630095E+03  0.98010630095E+03  0.25500000920E-02 0.  1.
       -2   -1    0    0    0  501  0.00000000000E+00  0.00000000000E+00 -0.33001051801E+04  0.33001051801E+04  0.25500000920E-02 0. -1.
    10030    2    1    2    0    0  0.00000000000E+00  0.00000000000E+00 -0.23199988792E+04  0.42802114811E+04  0.35969175030E+04 0.  0.
        4    1    3    3  502    0  0.32770939801E+03  0.17397842356E+04 -0.15366941169E+04  0.23442851913E+04  0.12699999809E+01 0. -1.
       -4    1    3    3    0  502 -0.32770939801E+03 -0.17397842356E+04 -0.78330476223E+03  0.19359262898E+04  0.12699999809E+01 0.  1.
</event>
<event>
 5   0  0.7236375E-08  0.3608433E+04  0.7818609E-02  0.8088563E-01
       -1   -1    0    0    0  501  0.00000000000E+00  0.00000000000E+00  0.23621267988E+04  0.23621267988E+04  0.50400001928E-02 0.  1.
        1   -1    0    0  501    0  0.00000000000E+00  0.00000000000E+00 -0.13780785642E+04  0.13780785642E+04  0.50400001928E-02 0. -1.
    10030    2    1    2    0    0  0.00000000000E+00  0.00000000000E+00  0.98404823463E+03  0.37402053630E+04  0.36084325170E+04 0.  0.
        5    1    3    3  502    0  0.11168504651E+04  0.86803757241E+03 -0.66884369778E+03  0.15646782962E+04  0.46999998093E+01 0. -1.
       -5    1    3    3    0  502 -0.11168504651E+04 -0.86803757241E+03  0.16528919324E+04  0.21755270669E+04  0.46999998093E+01 0.  1.
</event>
<event>
 5   0  0.2199902E-07  0.3599357E+04  0.7818609E-02  0.8090639E-01
       -2   -1    0    0    0  501  0.00000000000E+00  0.00000000000E+00  0.14284686237E+04  0.14284686237E+04  0.25500000920E-02 0. -1.
        2   -1    0    0  501    0  0.00000000000E+00  0.00000000000E+00 -0.22673531296E+04  0.22673531296E+04  0.25500000920E-02 0.  1.
    10030    2    1    2    0    0  0.00000000000E+00  0.00000000000E+00 -0.83888450590E+03  0.36958217533E+04  0.35993570561E+04 0.  0.
        1    1    3    3  502    0 -0.69730432160E+03 -0.13576244714E+04  0.55977520815E+03  0.16256462733E+04  0.50400001928E-02 0. -1.
       -1    1    3    3    0  502  0.69730432160E+03  0.13576244714E+04 -0.13986597141E+04  0.20701754800E+04  0.50400001928E-02 0.  1.
</event>
<event>
 5   0  0.7236375E-08  0.3631672E+04  0.7818609E-02  0.8083275E-01
        1   -1    0    0  501    0  0.00000000000E+00  0.00000000000E+00  0.14120875695E+04  0.14120875695E+04  0.50400001928E-02 0. -1.
       -1   -1    0    0    0  501  0.00000000000E+00  0.00000000000E+00 -0.23350255610E+04  0.23350255610E+04  0.50400001928E-02 0.  1.
    10030    2    1    2    0    0  0.00000000000E+00  0.00000000000E+00 -0.92293799150E+03  0.37471131306E+04  0.36316721049E+04 0.  0.
        5    1    3    3  502    0 -0.11543536128E+04  0.13019695829E+03 -0.19014518978E+04  0.22282335876E+04  0.46999998093E+01 0.  1.
       -5    1    3    3    0  502  0.11543536128E+04 -0.13019695829E+03  0.97851390625E+03  0.15188795430E+04  0.46999998093E+01 0. -1.
</event>
<event>
 5   0  0.7261233E-08  0.3594672E+04  0.7818609E-02  0.8091713E-01
        1   -1    0    0  501    0  0.00000000000E+00  0.00000000000E+00  0.18185338083E+04  0.18185338083E+04  0.50400001928E-02 0. -1.
       -1   -1    0    0    0  501  0.00000000000E+00  0.00000000000E+00 -0.17763848075E+04  0.17763848076E+04  0.50400001928E-02 0.  1.
    10030    2    1    2    0    0  0.00000000000E+00  0.00000000000E+00  0.42149000763E+02  0.35949186159E+04  0.35946715172E+04 0.  0.
        3    1    3    3  502    0  0.15678919717E+03 -0.86907734141E+03  0.15866013938E+04  0.18158144924E+04  0.10100000352E+00 0. -1.
       -3    1    3    3    0  502 -0.15678919717E+03  0.86907734141E+03 -0.15444523930E+04  0.17791041235E+04  0.10100000352E+00 0.  1.
</event>
<event>
 5   0  0.7261233E-08  0.3598718E+04  0.7818609E-02  0.8090785E-01
        1   -1    0    0  501    0  0.00000000000E+00  0.00000000000E+00  0.21214225666E+04  0.21214225666E+04  0.50400001928E-02 0. -1.
       -1   -1    0    0    0  501  0.00000000000E+00  0.00000000000E+00 -0.15261893756E+04  0.15261893756E+04  0.50400001928E-02 0.  1.
    10030    2    1    2    0    0  0.00000000000E+00  0.00000000000E+00  0.59523319101E+03  0.36476119421E+04  0.35987178729E+04 0.  0.
        3    1    3    3  502    0  0.10770810881E+04 -0.11014811786E+04  0.12399403693E+04  0.19775784654E+04  0.10100000352E+00 0. -1.
       -3    1    3    3    0  502 -0.10770810881E+04  0.11014811786E+04 -0.64470717834E+03  0.16700334767E+04  0.10100000352E+00 0.  1.
</event>
<event>
 5   0  0.7236375E-08  0.3530585E+04  0.7818609E-02  0.8106580E-01
       -1   -1    0    0    0  501  0.00000000000E+00  0.00000000000E+00  0.16094094098E+04  0.16094094099E+04  0.50400001928E-02 0. -1.
        1   -1    0    0  501    0  0.00000000000E+00  0.00000000000E+00 -0.19362742759E+04  0.19362742759E+04  0.50400001928E-02 0.  1.
    10030    2    1    2    0    0  0.00000000000E+00  0.00000000000E+00 -0.32686486603E+03  0.35456836857E+04  0.35305852431E+04 0.  0.
        5    1    3    3  502    0  0.15382414254E+04 -0.40843511916E+03 -0.93039333042E+03  0.18435454344E+04  0.46999998093E+01 0.  1.
       -5    1    3    3    0  502 -0.15382414254E+04  0.40843511916E+03  0.60352846438E+03  0.17021382513E+04  0.46999998093E+01 0. -1.
</event>
<event>
 5   0  0.2309391E-07  0.3577416E+04  0.7818609E-02  0.8095685E-01
       -2   -1    0    0    0  501  0.00000000000E+00  0.00000000000E+00  0.13184114871E+04  0.13184114871E+04  0.25500000920E-02 0.  1.
        2   -1    0    0  501    0  0.00000000000E+00  0.00000000000E+00 -0.24267654671E+04  0.24267654671E+04  0.25500000920E-02 0. -1.
    10030    2    1    2    0    0  0.00000000000E+00  0.00000000000E+00 -0.11083539799E+04  0.37451769542E+04  0.35774155299E+04 0.  0.
        4    1    3    3  502    0 -0.10407502366E+04 -0.10399999056E+04 -0.16190869928E+04  0.21877397382E+04  0.12699999809E+01 0.  1.
       -4    1    3    3    0  502  0.10407502366E+04  0.10399999056E+04  0.51073301290E+03  0.15574372161E+04  0.12699999809E+01 0. -1.
</event>
<event>
 5   0  0.2238968E-07  0.3602229E+04  0.7818609E-02  0.8089981E-01
       -2   -1    0    0    0  501  0.00000000000E+00  0.00000000000E+00  0.18356905571E+04  0.18356905571E+04  0.25500000920E-02 0.  1.
        2   -1    0    0  501    0  0.00000000000E+00  0.00000000000E+00 -0.17671897858E+04  0.17671897858E+04  0.25500000920E-02 0. -1.
    10030    2    1    2    0    0  0.00000000000E+00  0.00000000000E+00  0.68500771340E+02  0.36028803429E+04  0.36022290890E+04 0.  0.
        3    1    3    3  502    0 -0.23302657697E+03  0.17801064318E+04  0.17895998471E+03  0.18041915032E+04  0.10100000352E+00 0.  1.
       -3    1    3    3    0  502  0.23302657697E+03 -0.17801064318E+04 -0.11045921337E+03  0.17986888397E+04  0.10100000352E+00 0. -1.
</event>
<event>
 5   0  0.2198900E-07  0.3627226E+04  0.7818609E-02  0.8084284E-01
       -2   -1    0    0    0  501  0.00000000000E+00  0.00000000000E+00  0.15137121064E+04  0.15137121064E+04  0.25500000920E-02 0. -1.
        2   -1    0    0  501    0  0.00000000000E+00  0.00000000000E+00 -0.21729307455E+04  0.21729307455E+04  0.25500000920E-02 0.  1.
    10030    2    1    2    0    0  0.00000000000E+00  0.00000000000E+00 -0.65921863908E+03  0.36866428519E+04  0.36272257034E+04 0.  0.
        2    1    3    3  502    0  0.97273365178E+03  0.15151791716E+04 -0.55045393168E+03  0.18828112519E+04  0.25500000920E-02 0.  1.
       -2    1    3    3    0  502 -0.97273365178E+03 -0.15151791716E+04 -0.10876470740E+03  0.18038316000E+04  0.25500000920E-02 0. -1.
</event>
<event>
 5   0  0.2199902E-07  0.3602565E+04  0.7818609E-02  0.8089904E-01
        2   -1    0    0  501    0  0.00000000000E+00  0.00000000000E+00  0.29339087988E+04  0.29339087988E+04  0.25500000920E-02 0.  1.
       -2   -1    0    0    0  501  0.00000000000E+00  0.00000000000E+00 -0.11059029769E+04  0.11059029769E+04  0.25500000920E-02 0. -1.
    10030    2    1    2    0    0  0.00000000000E+00  0.00000000000E+00  0.18280058219E+04  0.40398117757E+04  0.36025649055E+04 0.  0.
        1    1    3    3  502    0 -0.56104846432E+03  0.14186396543E+03 -0.99881991450E+03  0.11543578239E+04  0.50400001928E-02 0. -1.
       -1    1    3    3    0  502  0.56104846432E+03 -0.14186396543E+03  0.28268257364E+04  0.28854539518E+04  0.50400001928E-02 0.  1.
</event>
<event>
 5   0  0.2342606E-07  0.3602363E+04  0.7818609E-02  0.8089951E-01
        2   -1    0    0  501    0  0.00000000000E+00  0.00000000000E+00  0.22550392384E+04  0.22550392384E+04  0.25500000920E-02 0. -1.
       -2   -1    0    0    0  501  0.00000000000E+00  0.00000000000E+00 -0.14386687588E+04  0.14386687588E+04  0.25500000920E-02 0.  1.
    10030    2    1    2    0    0  0.00000000000E+00  0.00000000000E+00  0.81637047965E+03  0.36937079972E+04  0.36023628369E+04 0.  0.
        5    1    3    3  502    0  0.15026005427E+04 -0.92747291841E+03  0.77246560633E+03  0.19273659767E+04  0.46999998093E+01 0. -1.
       -5    1    3    3    0  502 -0.15026005427E+04  0.92747291841E+03  0.43904873318E+02  0.17663420205E+04  0.46999998093E+01 0.  1.
</event>
<event>
 5   0  0.2238968E-07  0.3501698E+04  0.7818609E-02  0.8113388E-01
        2   -1    0    0  501    0  0.00000000000E+00  0.00000000000E+00  0.21762863182E+04  0.21762863182E+04  0.25500000920E-02 0. -1.
       -2   -1    0    0    0  501  0.00000000000E+00  0.00000000000E+00 -0.14085791966E+04  0.14085791966E+04  0.25500000920E-02 0.  1.
    10030    2    1    2    0    0  0.00000000000E+00  0.00000000000E+00  0.76770712162E+03  0.35848655148E+04  0.35016976647E+04 0.  0.
        3    1    3    3  502    0 -0.43076859171E+02  0.17391605979E+04  0.18184385149E+03  0.17491719177E+04  0.10100000352E+00 0.  1.
       -3    1    3    3    0  502  0.43076859171E+02 -0.17391605979E+04  0.58586327013E+03  0.18356935971E+04  0.10100000352E+00 0. -1.
</event>
<event>
 5   0  0.7236375E-08  0.3619984E+04  0.7818609E-02  0.8085929E-01
        1   -1    0    0  501    0  0.00000000000E+00  0.00000000000E+00  0.32998750506E+04  0.32998750506E+04  0.50400001928E-02 0.  1.
       -1   -1    0    0    0  501  0.00000000000E+00  0.00000000000E+00 -0.99278619668E+03  0.99278619669E+03  0.50400001928E-02 0. -1.
    10030    2    1    2    0    0  0.00000000000E+00  0.00000000000E+00  0.23070888539E+04  0.42926612473E+04  0.36199836470E+04 0.  0.
        1    1    3    3  502    0 -0.39130602648E+03 -0.67334851568E+03  0.30910331478E+04  0.31876330640E+04  0.50400001928E-02 0.  1.
       -1    1    3    3    0  502  0.39130602648E+03  0.67334851568E+03 -0.78394429388E+03  0.11050281833E+04  0.50400001928E-02 0. -1.
</event>
<event>
 5   0  0.7261233E-08  0.3602409E+04  0.7818609E-02  0.8089940E-01
        1   -1    0    0  501    0  0.00000000000E+00  0.00000000000E+00  0.29152793350E+04  0.29152793350E+04  0.50400001928E-02 0. -1.
       -1   -1    0    0    0  501  0.00000000000E+00  0.00000000000E+00 -0.11128736616E+04  0.11128736616E+04  0.50400001928E-02 0.  1.
    10030    2    1    2    0    0  0.00000000000E+00  0.00000000000E+00  0.18024056734E+04  0.40281529966E+04  0.36024089651E+04 0.  0.
        3    1    3    3  502    0  0.18865137866E+03  0.45155355387E+03 -0.10371113283E+04  0.11467736796E+04  0.10100000352E+00 0.  1.
       -3    1    3    3    0  502 -0.18865137866E+03 -0.45155355387E+03  0.28395170017E+04  0.28813793169E+04  0.10100000352E+00 0. -1.
</event>
<event>
 5   0  0.7236375E-08  0.3598597E+04  0.7818609E-02  0.8090813E-01
        1   -1    0    0  501    0  0.00000000000E+00  0.00000000000E+00  0.14496164836E+04  0.14496164836E+04  0.50400001928E-02 0.  1.
       -1   -1    0    0    0  501  0.00000000000E+00  0.00000000000E+00 -0.22333317881E+04  0.22333317881E+04  0.50400001928E-02 0. -1.
    10030    2    1    2    0    0  0.00000000000E+00  0.00000000000E+00 -0.78371530454E+03  0.36829482717E+04  0.35985967117E+04 0.  0.
        5    1    3    3  502    0 -0.49627296258E+03  0.15105596688E+04 -0.12538440557E+04  0.20249010772E+04  0.46999998093E+01 0. -1.
       -5    1    3    3    0  502  0.49627296258E+03 -0.15105596688E+04  0.47012875119E+03  0.16580471945E+04  0.46999998093E+01 0.  1.
</event>
<event>
 5   0  0.7261233E-08  0.3552676E+04  0.7818609E-02  0.8101419E-01
        1   -1    0    0  501    0  0.00000000000E+00  0.00000000000E+00  0.15667262892E+04  0.15667262892E+04  0.50400001928E-02 0.  1.
       -1   -1    0    0    0  501  0.00000000000E+00  0.00000000000E+00 -0.20139939519E+04  0.20139939519E+04  0.50400001928E-02 0. -1.
    10030    2    1    2    0    0  0.00000000000E+00  0.00000000000E+00 -0.44726766271E+03  0.35807202411E+04  0.35526763268E+04 0.  0.
        3    1    3    3  502    0  0.21613593801E+03 -0.15535901855E+04  0.61662563998E+03  0.16854033340E+04  0.10100000352E+00 0.  1.
       -3    1    3    3    0  502 -0.21613593801E+03  0.15535901855E+04 -0.10638933027E+04  0.18953169070E+04  0.10100000352E+00 0. -1.
</event>
<event>
 5   0  0.2198900E-07  0.3611043E+04  0.7818609E-02  0.8087967E-01
        2   -1    0    0  501    0  0.00000000000E+00  0.00000000000E+00  0.20302722048E+04  0.20302722048E+04  0.25500000920E-02 0.  1.
       -2   -1    0    0    0  501  0.00000000000E+00  0.00000000000E+00 -0.16056509111E+04  0.16056509111E+04  0.25500000920E-02 0. -1.
    10030    2    1    2    0    0  0.00000000000E+00  0.00000000000E+00  0.42462129369E+03  0.36359231160E+04  0.36110432928E+04 0.  0.
        2    1    3    3  502    0 -0.10264547536E+03  0.86319844168E+03  0.18056994876E+04  0.20040454793E+04  0.25500000920E-02 0.  1.
       -2    1    3    3    0  502  0.10264547536E+03 -0.86319844168E+03 -0.13810781939E+04  0.16318776367E+04  0.25500000920E-02 0. -1.
</event>
<event>
 5   0  0.2238968E-07  0.3600718E+04  0.7818609E-02  0.8090327E-01
       -2   -1    0    0    0  501  0.00000000000E+00  0.00000000000E+00  0.18542775257E+04  0.18542775257E+04  0.25500000920E-02 0. -1.
        2   -1    0    0  501    0  0.00000000000E+00  0.00000000000E+00 -0.17480087237E+04  0.17480087237E+04  0.25500000920E-02 0.  1.
    10030    2    1    2    0    0  0.00000000000E+00  0.00000000000E+00  0.10626880196E+03  0.36022862494E+04  0.36007184234E+04 0.  0.
        3    1    3    3  502    0 -0.10605091902E+03  0.11649504084E+04  0.14222831929E+04  0.18415335301E+04  0.10100000352E+00 0. -1.
       -3    1    3    3    0  502  0.10605091902E+03 -0.11649504084E+04 -0.13160143909E+04  0.17607527194E+04  0.10100000352E+00 0.  1.
</event>
<event>
 5   0  0.7261233E-08  0.3587660E+04  0.7818609E-02  0.8093324E-01
       -1   -1    0    0    0  501  0.00000000000E+00  0.00000000000E+00  0.12168779308E+04  0.12168779308E+04  0.50400001928E-02 0.  1.
        1   -1    0    0  501    0  0.00000000000E+00  0.00000000000E+00 -0.26443295282E+04  0.26443295282E+04  0.50400001928E-02 0. -1.
    10030    2    1    2    0    0  0.00000000000E+00  0.00000000000E+00 -0.14274515973E+04  0.38612074590E+04  0.35876600980E+04 0.  0.
        3    1    3    3  502    0 -0.10438264136E+03 -0.17895435720E+04 -0.78563569530E+03  0.19571881329E+04  0.10100000352E+00 0.  1.
       -3    1    3    3    0  502  0.10438264136E+03  0.17895435720E+04 -0.64181590203E+03  0.19040193261E+04  0.10100000352E+00 0. -1.
</event>
<event>
 5   0  0.7347303E-08  0.3597807E+04  0.7818609E-02  0.8090994E-01
        1   -1    0    0  501    0  0.00000000000E+00  0.00000000000E+00  0.29996614382E+04  0.29996614382E+04  0.50400001928E-02 0.  1.
       -1   -1    0    0    0  501  0.00000000000E+00  0.00000000000E+00 -0.10788063776E+04  0.10788063776E+04  0.50400001928E-02 0. -1.
    10030    2    1    2    0    0  0.00000000000E+00  0.00000000000E+00  0.19208550606E+04  0.40784678158E+04  0.35978070489E+04 0.  0.
        2    1    3    3  502    0 -0.10496300804E+04  0.52217698878E+03 -0.58628485170E+03  0.13107715440E+04  0.25500000920E-02 0. -1.
       -2    1    3    3    0  502  0.10496300804E+04 -0.52217698878E+03  0.25071399123E+04  0.27676962718E+04  0.25500000920E-02 0.  1.
</event>
<event>
 5   0  0.2198900E-07  0.3616063E+04  0.7818609E-02  0.8086822E-01
        2   -1    0    0  501    0  0.00000000000E+00  0.00000000000E+00  0.16482454222E+04  0.16482454222E+04  0.25500000920E-02 0. -1.
       -2   -1    0    0    0  501  0.00000000000E+00  0.00000000000E+00 -0.19833073694E+04  0.19833073694E+04  0.25500000920E-02 0.  1.
    10030    2    1    2    0    0  0.00000000000E+00  0.00000000000E+00 -0.33506194722E+03  0.36315527915E+04  0.36160626611E+04 0.  0.
        2    1    3    3  502    0  0.10435860007E+04  0.14723704141E+04 -0.57375585867E+02  0.18056130081E+04  0.25500000920E-02 0. -1.
       -2    1    3    3    0  502 -0.10435860007E+04 -0.14723704141E+04 -0.27768636136E+03  0.18259397834E+04  0.25500000920E-02 0.  1.
</event>
<event>
 5   0  0.7514289E-08  0.3580270E+04  0.7818609E-02  0.8095026E-01
        1   -1    0    0  501    0  0.00000000000E+00  0.00000000000E+00  0.23361888361E+04  0.23361888361E+04  0.50400001928E-02 0. -1.
       -1   -1    0    0    0  501  0.00000000000E+00  0.00000000000E+00 -0.13717138085E+04  0.13717138085E+04  0.50400001928E-02 0.  1.
    10030    2    1    2    0    0  0.00000000000E+00  0.00000000000E+00  0.96447502755E+03  0.37079026446E+04  0.35802695350E+04 0.  0.
        4    1    3    3  502    0  0.10476734431E+02  0.17348256376E+04  0.25081907012E+02  0.17350390399E+04  0.12699999809E+01 0.  1.
       -4    1    3    3    0  502 -0.10476734431E+02 -0.17348256376E+04  0.93939312053E+03  0.19728636047E+04  0.12699999809E+01 0. -1.
</event>
<event>
 5   0  0.2199902E-07  0.3601343E+04  0.7818609E-02  0.8090184E-01
       -2   -1    0    0    0  501  0.00000000000E+00  0.00000000000E+00  0.13747622303E+04  0.13747622303E+04  0.25500000920E-02 0. -1.
        2   -1    0    0  501    0  0.00000000000E+00  0.00000000000E+00 -0.23585302094E+04  0.23585302094E+04  0.25500000920E-02 0.  1.
    10030    2    1    2    0    0  0.00000000000E+00  0.00000000000E+00 -0.98376797911E+03  0.37332924397E+04  0.36013432222E+04 0.  0.
        1    1    3    3  502    0 -0.15700699207E+04  0.64411605729E+03  0.13218054316E+03  0.17021976228E+04  0.50400001928E-02 0. -1.
       -1    1    3    3    0  502  0.15700699207E+04 -0.64411605729E+03 -0.11159485223E+04  0.20310948169E+04  0.50400001928E-02 0.  1.
</event>
<event>
 5   0  0.7514289E-08  0.3603041E+04  0.7818609E-02  0.8089795E-01
       -1   -1    0    0    0  501  0.00000000000E+00  0.00000000000E+00  0.23637883895E+04  0.23637883895E+04  0.50400001928E-02 0. -1.
        1   -1    0    0  501    0  0.00000000000E+00  0.00000000000E+00 -0.13729980971E+04  0.13729980971E+04  0.50400001928E-02 0.  1.
    10030    2    1    2    0    0  0.00000000000E+00  0.00000000000E+00  0.99079029248E+03  0.37367864866E+04  0.36030414712E+04 0.  0.
        4    1    3    3  502    0 -0.22675235278E+03  0.21200372155E+02 -0.13580080705E+04  0.13769726278E+04  0.12699999809E+01 0.  1.
       -4    1    3    3    0  502  0.22675235278E+03 -0.21200372155E+02  0.23487983630E+04  0.23598138588E+04  0.12699999809E+01 0. -1.
</event>
<event>
 5   0  0.7261233E-08  0.3598995E+04  0.7818609E-02  0.8090722E-01
       -1   -1    0    0    0  501  0.00000000000E+00  0.00000000000E+00  0.13799757570E+04  0.13799757570E+04  0.50400001928E-02 0. -1.
        1   -1    0    0  501    0  0.00000000000E+00  0.00000000000E+00 -0.23465566897E+04  0.23465566897E+04  0.50400001928E-02 0.  1.
    10030    2    1    2    0    0  0.00000000000E+00  0.00000000000E+00 -0.96658093268E+03  0.37265324467E+04  0.35989950509E+04 0.  0.
        3    1    3    3  502    0 -0.36310750823E+02  0.17321781632E+04  0.20182882477E+02  0.17326762591E+04  0.10100000352E+00 0. -1.
       -3    1    3    3    0  502  0.36310750823E+02 -0.17321781632E+04 -0.98676381515E+03  0.19938561876E+04  0.10100000352E+00 0.  1.
</event>
<event>
 5   0  0.7347303E-08  0.3620892E+04  0.7818609E-02  0.8085723E-01
       -1   -1    0    0    0  501  0.00000000000E+00  0.00000000000E+00  0.20015661234E+04  0.20015661234E+04  0.50400001928E-02 0.  1.
        1   -1    0    0  501    0  0.00000000000E+00  0.00000000000E+00 -0.16375750470E+04  0.16375750470E+04  0.50400001928E-02 0. -1.
    10030    2    1    2    0    0  0.00000000000E+00  0.00000000000E+00  0.36399107641E+03  0.36391411704E+04  0.36208920109E+04 0.  0.
        2    1    3    3  502    0 -0.86862907912E+03 -0.15380926549E+04  0.58081946510E+03  0.18594614121E+04  0.25500000920E-02 0.  1.
       -2    1    3    3    0  502  0.86862907912E+03  0.15380926549E+04 -0.21682838869E+03  0.17796797583E+04  0.25500000920E-02 0. -1.
</event>
<event>
 5   0  0.2199902E-07  0.3603406E+04  0.7818609E-02  0.8089712E-01
        2   -1    0    0  501    0  0.00000000000E+00  0.00000000000E+00  0.24616358015E+04  0.24616358015E+04  0.25500000920E-02 0.  1.
       -2   -1    0    0    0  501  0.00000000000E+00  0.00000000000E+00 -0.13186896779E+04  0.13186896779E+04  0.25500000920E-02 0. -1.
    10030    2    1    2    0    0  0.00000000000E+00  0.00000000000E+00  0.11429461235E+04  0.37803254794E+04  0.36034060122E+04 0.  0.
        1    1    3    3  502    0  0.14477767550E+04  0.37625466166E+03  0.16250246394E+04  0.22086942255E+04  0.50400001928E-02 0.  1.
       -1    1    3    3    0  502 -0.14477767550E+04 -0.37625466166E+03 -0.48207851587E+03  0.15716312539E+04  0.50400001928E-02 0. -1.
</event>
<event>
 5   0  0.2342606E-07  0.3599238E+04  0.7818609E-02  0.8090666E-01
       -2   -1    0    0    0  501  0.00000000000E+00  0.00000000000E+00  0.11532041437E+04  0.11532041437E+04  0.25500000920E-02 0. -1.
        2   -1    0    0  501    0  0.00000000000E+00  0.00000000000E+00 -0.28083745122E+04  0.28083745122E+04  0.25500000920E-02 0.  1.
    10030    2    1    2    0    0  0.00000000000E+00  0.00000000000E+00 -0.16551703685E+04  0.39615786559E+04  0.35992383219E+04 0.  0.
        5    1    3    3  502    0  0.15315942159E+03  0.13293944322E+03 -0.27957494755E+04  0.28030996992E+04  0.46999998093E+01 0.  1.
       -5    1    3    3    0  502 -0.15315942159E+03 -0.13293944322E+03  0.11405791069E+04  0.11584789567E+04  0.46999998093E+01 0. -1.
</event>
<event>
 5   0  0.7236375E-08  0.3600095E+04  0.7818609E-02  0.8090470E-01
       -1   -1    0    0    0  501  0.00000000000E+00  0.00000000000E+00  0.20823052921E+04  0.20823052921E+04  0.50400001928E-02 0.  1.
        1   -1    0    0  501    0  0.00000000000E+00  0.00000000000E+00 -0.15560501766E+04  0.15560501766E+04  0.50400001928E-02 0. -1.
    10030    2    1    2    0    0  0.00000000000E+00  0.00000000000E+00  0.52625511556E+03  0.36383554687E+04  0.36000952862E+04 0.  0.
        5    1    3    3  502    0 -0.15283212150E+02 -0.10269526057E+04 -0.12308535113E+04  0.16030869244E+04  0.46999998093E+01 0. -1.
       -5    1    3    3    0  502  0.15283212150E+02  0.10269526057E+04  0.17571086268E+04  0.20352685443E+04  0.46999998093E+01 0.  1.
</event>
<event>
 5   0  0.2309391E-07  0.3636130E+04  0.7818609E-02  0.8082265E-01
       -2   -1    0    0    0  501  0.00000000000E+00  0.00000000000E+00  0.24328214983E+04  0.24328214983E+04  0.25500000920E-02 0. -1.
        2   -1    0    0  501    0  0.00000000000E+00  0.00000000000E+00 -0.13586531380E+04  0.13586531380E+04  0.25500000920E-02 0.  1.
    10030    2    1    2    0    0  0.00000000000E+00  0.00000000000E+00  0.10741683604E+04  0.37914746363E+04  0.36361301202E+04 0.  0.
        4    1    3    3  502    0 -0.14401500456E+04  0.90673793856E+03 -0.12989405991E+03  0.17067747135E+04  0.12699999809E+01 0.  1.
       -4    1    3    3    0  502  0.14401500456E+04 -0.90673793856E+03  0.12040624203E+04  0.20846999228E+04  0.12699999809E+01 0. -1.
</event>
<event>
 5   0  0.7236375E-08  0.3608958E+04  0.7818609E-02  0.8088443E-01
       -1   -1    0    0    0  501  0.00000000000E+00  0.00000000000E+00  0.18901197014E+04  0.18901197014E+04  0.50400001928E-02 0. -1.
        1   -1    0    0  501    0  0.00000000000E+00  0.00000000000E+00 -0.17227185030E+04  0.17227185030E+04  0.50400001928E-02 0.  1.
    10030    2    1    2    0    0  0.00000000000E+00  0.00000000000E+00  0.16740119836E+03  0.36128382044E+04  0.36089578454E+04 0.  0.
        1    1    3    3  502    0 -0.94859713708E+03  0.14616628840E+04 -0.38568440952E+03  0.17846701036E+04  0.50400001928E-02 0. -1.
       -1    1    3    3    0  502  0.94859713708E+03 -0.14616628840E+04  0.55308560788E+03  0.18281681008E+04  0.50400001928E-02 0.  1.
</event>
<event>
 5   0  0.7236375E-08  0.3607061E+04  0.7818609E-02  0.8088876E-01
        1   -1    0    0  501    0  0.00000000000E+00  0.00000000000E+00  0.18508081701E+04  0.18508081701E+04  0.50400001928E-02 0.  1.
       -1   -1    0    0    0  501  0.00000000000E+00  0.00000000000E+00 -0.17574609472E+04  0.17574609472E+04  0.50400001928E-02 0. -1.
    10030    2    1    2    0    0  0.00000000000E+00  0.00000000000E+00  0.93347222891E+02  0.36082691173E+04  0.36070614520E+04 0.  0.
        5    1    3    3  502    0  0.13490621893E+04  0.78995387401E+03  0.94625500585E+03  0.18274070536E+04  0.46999998093E+01 0.  1.
       -5    1    3    3    0  502 -0.13490621893E+04 -0.78995387401E+03 -0.85290778296E+03  0.17808620637E+04  0.46999998093E+01 0. -1.
</event>
<event>
 5   0  0.7347303E-08  0.3592433E+04  0.7818609E-02  0.8092227E-01
        1   -1    0    0  501    0  0.00000000000E+00  0.00000000000E+00  0.20507980704E+04  0.20507980704E+04  0.50400001928E-02 0. -1.
       -1   -1    0    0    0  501  0.00000000000E+00  0.00000000000E+00 -0.15732379062E+04  0.15732379062E+04  0.50400001928E-02 0.  1.
    10030    2    1    2    0    0  0.00000000000E+00  0.00000000000E+00  0.47756016418E+03  0.36240359765E+04  0.35924327480E+04 0.  0.
        2    1    3    3  502    0 -0.10987114448E+04  0.14127988779E+04  0.39252074947E+03  0.18322772845E+04  0.25500000920E-02 0. -1.
       -2    1    3    3    0  502  0.10987114448E+04 -0.14127988779E+04  0.85039414712E+02  0.17917586921E+04  0.25500000920E-02 0.  1.
</event>
<event>
 5   0  0.7347303E-08  0.3614438E+04  0.7818609E-02  0.8087193E-01
       -1   -1    0    0    0  501  0.00000000000E+00  0.00000000000E+00  0.16021153307E+04  0.16021153307E+04  0.50400001928E-02 0. -1.
        1   -1    0    0  501    0  0.00000000000E+00  0.00000000000E+00 -0.20385800752E+04  0.20385800752E+04  0.50400001928E-02 0.  1.
    10030    2    1    2    0    0  0.00000000000E+00  0.00000000000E+00 -0.43646474456E+03  0.36406954059E+04  0.36144379322E+04 0.  0.
        2    1    3    3  502    0  0.65032509348E+03 -0.16820029378E+04 -0.99120270579E+02  0.18060679494E+04  0.25500000920E-02 0. -1.
       -2    1    3    3    0  502 -0.65032509348E+03  0.16820029378E+04 -0.33734447398E+03  0.18346274565E+04  0.25500000920E-02 0.  1.
</event>
<event>
 5   0  0.7236375E-08  0.3591696E+04  0.7818609E-02  0.8092396E-01
       -1   -1    0    0    0  501  0.00000000000E+00  0.00000000000E+00  0.27049258089E+04  0.27049258089E+04  0.50400001928E-02 0. -1.
        1   -1    0    0  501    0  0.00000000000E+00  0.00000000000E+00 -0.11922954517E+04  0.11922954517E+04  0.50400001928E-02 0.  1.
    10030    2    1    2    0    0  0.00000000000E+00  0.00000000000E+00  0.15126303571E+04  0.38972212606E+04  0.35916963898E+04 0.  0.
        5    1    3    3  502    0  0.37250598581E+02 -0.16528749014E+04 -0.45196023398E+01  0.16533074619E+04  0.46999998093E+01 0.  1.
       -5    1    3    3    0  502 -0.37250598581E+02  0.16528749014E+04  0.15171499595E+04  0.22439137987E+04  0.46999998093E+01 0. -1.
</event>
<event>
 5   0  0.7236375E-08  0.3444232E+04  0.7818609E-02  0.8127135E-01
       -1   -1    0    0    0  501  0.00000000000E+00  0.00000000000E+00  0.20021123187E+04  0.20021123187E+04  0.50400001928E-02 0. -1.
        1   -1    0    0  501    0  0.00000000000E+00  0.00000000000E+00 -0.14812769892E+04  0.14812769892E+04  0.50400001928E-02 0.  1.
    10030    2    1    2    0    0  0.00000000000E+00  0.00000000000E+00  0.52083532951E+03  0.34833893079E+04  0.34442316458E+04 0.  0.
        5    1    3    3  502    0 -0.85034949806E+03  0.76981905557E+03 -0.10386878246E+04  0.15474527890E+04  0.46999998093E+01 0.  1.
       -5    1    3    3    0  502  0.85034949806E+03 -0.76981905557E+03  0.15595231541E+04  0.19359365189E+04  0.46999998093E+01 0. -1.
</event>
<event>
 5   0  0.7347303E-08  0.3598583E+04  0.7818609E-02  0.8090816E-01
        1   -1    0    0  501    0  0.00000000000E+00  0.00000000000E+00  0.22029772464E+04  0.22029772464E+04  0.50400001928E-02 0.  1.
       -1   -1    0    0    0  501  0.00000000000E+00  0.00000000000E+00 -0.14695791814E+04  0.14695791814E+04  0.50400001928E-02 0. -1.
    10030    2    1    2    0    0  0.00000000000E+00  0.00000000000E+00  0.73339806499E+03  0.36725564278E+04  0.35985827757E+04 0.  0.
        2    1    3    3  502    0 -0.15606007634E+04 -0.16268580273E+03  0.12654309085E+04  0.20157521666E+04  0.25500000920E-02 0.  1.
       -2    1    3    3    0  502  0.15606007634E+04  0.16268580273E+03 -0.53203284346E+03  0.16568042611E+04  0.25500000920E-02 0. -1.
</event>
<event>
 5   0  0.7347303E-08  0.3655701E+04  0.7818609E-02  0.8077851E-01
        1   -1    0    0  501    0  0.00000000000E+00  0.00000000000E+00  0.22623209323E+04  0.22623209323E+04  0.50400001928E-02 0. -1.
       -1   -1    0    0    0  501  0.00000000000E+00  0.00000000000E+00 -0.14768186186E+04  0.14768186186E+04  0.50400001928E-02 0.  1.
    10030    2    1    2    0    0  0.00000000000E+00  0.00000000000E+00  0.78550231366E+03  0.37391395509E+04  0.36557011224E+04 0.  0.
        2    1    3    3  502    0 -0.11586012024E+04  0.84722201891E+02 -0.10506647358E+04  0.15663431887E+04  0.25500000920E-02 0.  1.
       -2    1    3    3    0  502  0.11586012024E+04 -0.84722201891E+02  0.18361670495E+04  0.21727963622E+04  0.25500000920E-02 0. -1.
</event>
<event>
 5   0  0.7347303E-08  0.3573790E+04  0.7818609E-02  0.8096522E-01
       -1   -1    0    0    0  501  0.00000000000E+00  0.00000000000E+00  0.19280100634E+04  0.19280100634E+04  0.50400001928E-02 0.  1.
        1   -1    0    0  501    0  0.00000000000E+00  0.00000000000E+00 -0.16561084984E+04  0.16561084984E+04  0.50400001928E-02 0. -1.
    10030    2    1    2    0    0  0.00000000000E+00  0.00000000000E+00  0.27190156495E+03  0.35841185618E+04  0.35737900616E+04 0.  0.
        2    1    3    3  502    0 -0.65103883487E+03 -0.16513557670E+04 -0.69987308163E+02  0.17764362238E+04  0.25500000920E-02 0. -1.
       -2    1    3    3    0  502  0.65103883487E+03  0.16513557670E+04  0.34188887311E+03  0.18076823381E+04  0.25500000920E-02 0.  1.
</event>
<event>
 5   0  0.2199902E-07  0.3589646E+04  0.7818609E-02  0.8092868E-01
       -2   -1    0    0    0  501  0.00000000000E+00  0.00000000000E+00  0.10254175444E+04  0.10254175444E+04  0.25500000920E-02 0.  1.
        2   -1    0    0  501    0  0.00000000000E+00  0.00000000000E+00 -0.31415394309E+04  0.31415394309E+04  0.25500000920E-02 0. -1.
    10030    2    1    2    0    0  0.00000000000E+00  0.00000000000E+00 -0.21161218864E+04  0.41669569753E+04  0.35896460265E+04 0.  0.
        1    1    3    3  502    0 -0.13964880345E+04 -0.58054958651E+03 -0.21800304294E+04  0.26532525937E+04  0.50400001928E-02 0. -1.
       -1    1    3    3    0  502  0.13964880345E+04  0.58054958651E+03  0.63908543034E+02  0.15137043816E+04  0.50400001928E-02 0.  1.
</event>
<event>
 5   0  0.7236375E-08  0.3583937E+04  0.7818609E-02  0.8094181E-01
       -1   -1    0    0    0  501  0.00000000000E+00  0.00000000000E+00  0.21323394527E+04  0.21323394527E+04  0.50400001928E-02 0. -1.
        1   -1    0    0  501    0  0.00000000000E+00  0.00000000000E+00 -0.15059288944E+04  0.15059288944E+04  0.50400001928E-02 0.  1.
    10030    2    1    2    0    0  0.00000000000E+00  0.00000000000E+00  0.62641055832E+03  0.36382683471E+04  0.35839372732E+04 0.  0.
        5    1    3    3  502    0 -0.71164999070E+03 -0.48598394073E+03 -0.12817598534E+04  0.15445246880E+04  0.46999998093E+01 0.  1.
       -5    1    3    3    0  502  0.71164999070E+03  0.48598394073E+03  0.19081704117E+04  0.20937436591E+04  0.46999998093E+01 0. -1.
</event>
<event>
 5   0  0.7347303E-08  0.3603347E+04  0.7818609E-02  0.8089725E-01
        1   -1    0    0  501    0  0.00000000000E+00  0.00000000000E+00  0.18498919250E+04  0.18498919250E+04  0.50400001928E-02 0.  1.
       -1   -1    0    0    0  501  0.00000000000E+00  0.00000000000E+00 -0.17547117837E+04  0.17547117837E+04  0.50400001928E-02 0. -1.
    10030    2    1    2    0    0  0.00000000000E+00  0.00000000000E+00  0.95180141290E+02  0.36046037086E+04  0.36033468660E+04 0.  0.
        2    1    3    3  502    0 -0.19139288283E+03 -0.78535157637E+03  0.16583128105E+04  0.18448332476E+04  0.25500000920E-02 0.  1.
       -2    1    3    3    0  502  0.19139288283E+03  0.78535157637E+03 -0.15631326692E+04  0.17597704610E+04  0.25500000920E-02 0. -1.
</event>
<event>
 5   0  0.7236375E-08  0.3599974E+04  0.7818609E-02  0.8090498E-01
       -1   -1    0    0    0  501  0.00000000000E+00  0.00000000000E+00  0.14499664935E+04  0.14499664935E+04  0.50400001928E-02 0. -1.
        1   -1    0    0  501    0  0.00000000000E+00  0.00000000000E+00 -0.22345017619E+04  0.22345017619E+04  0.50400001928E-02 0.  1.
    10030    2    1    2    0    0  0.00000000000E+00  0.00000000000E+00 -0.78453526839E+03  0.36844682554E+04  0.35999737135E+04 0.  0.
        1    1    3    3  502    0 -0.12487086059E+03  0.16177381523E+04  0.40530662869E+03  0.16724063276E+04  0.50400001928E-02 0.  1.
       -1    1    3    3    0  502  0.12487086059E+03 -0.16177381523E+04 -0.11898418971E+04  0.20120619278E+04  0.50400001928E-02 0. -1.
</event>
<event>
 5   0  0.2342606E-07  0.3568729E+04  0.7818609E-02  0.8097692E-01
        2   -1    0    0  501    0  0.00000000000E+00  0.00000000000E+00  0.15046312776E+04  0.15046312776E+04  0.25500000920E-02 0. -1.
       -2   -1    0    0    0  501  0.00000000000E+00  0.00000000000E+00 -0.21161042403E+04  0.21161042403E+04  0.25500000920E-02 0.  1.
    10030    2    1    2    0    0  0.00000000000E+00  0.00000000000E+00 -0.61147296275E+03  0.36207355179E+04  0.35687289763E+04 0.  0.
        5    1    3    3  502    0  0.38072631935E+03 -0.34612311634E+03  0.14277231476E+04  0.15176195894E+04  0.46999998093E+01 0. -1.
       -5    1    3    3    0  502 -0.38072631935E+03  0.34612311634E+03 -0.20391961104E+04  0.21031159285E+04  0.46999998093E+01 0.  1.
</event>
<event>
 5   0  0.2342606E-07  0.3602235E+04  0.7818609E-02  0.8089980E-01
       -2   -1    0    0    0  501  0.00000000000E+00  0.00000000000E+00  0.16906267247E+04  0.16906267247E+04  0.25500000920E-02 0. -1.
        2   -1    0    0  501    0  0.00000000000E+00  0.00000000000E+00 -0.19188297683E+04  0.19188297683E+04  0.25500000920E-02 0.  1.
    10030    2    1    2    0    0  0.00000000000E+00  0.00000000000E+00 -0.22820304355E+03  0.36094564930E+04  0.36022353540E+04 0.  0.
        5    1    3    3  502    0 -0.10598518508E+04  0.85942193679E+03  0.10638872613E+04  0.17302514863E+04  0.46999998093E+01 0. -1.
       -5    1    3    3    0  502  0.10598518508E+04 -0.85942193679E+03 -0.12920903049E+04  0.18792050067E+04  0.46999998093E+01 0.  1.
</event>
<event>
 5   0  0.2309391E-07  0.3599286E+04  0.7818609E-02  0.8090655E-01
        2   -1    0    0  501    0  0.00000000000E+00  0.00000000000E+00  0.14652836319E+04  0.14652836319E+04  0.25500000920E-02 0. -1.
       -2   -1    0    0    0  501  0.00000000000E+00  0.00000000000E+00 -0.22102989642E+04  0.22102989642E+04  0.25500000920E-02 0.  1.
    10030    2    1    2    0    0  0.00000000000E+00  0.00000000000E+00 -0.74501533229E+03  0.36755825961E+04  0.35992859814E+04 0.  0.
        4    1    3    3  502    0 -0.13199862178E+04 -0.12552801830E+03  0.87008156905E+03  0.15859269996E+04  0.12699999809E+01 0. -1.
       -4    1    3    3    0  502  0.13199862178E+04  0.12552801830E+03 -0.16150969013E+04  0.20896555965E+04  0.12699999809E+01 0.  1.
</event>
<event>
 5   0  0.7236375E-08  0.3604905E+04  0.7818609E-02  0.8089369E-01
       -1   -1    0    0    0  501  0.00000000000E+00  0.00000000000E+00  0.19075880852E+04  0.19075880852E+04  0.50400001928E-02 0.  1.
        1   -1    0    0  501    0  0.00000000000E+00  0.00000000000E+00 -0.17031115118E+04  0.17031115118E+04  0.50400001928E-02 0. -1.
    10030    2    1    2    0    0  0.00000000000E+00  0.00000000000E+00  0.20447657344E+03  0.36106995970E+04  0.36049051182E+04 0.  0.
        5    1    3    3  502    0  0.10693521199E+04  0.13924118199E+04 -0.30644760529E+03  0.17822056159E+04  0.46999998093E+01 0.  1.
       -5    1    3    3    0  502 -0.10693521199E+04 -0.13924118199E+04  0.51092417873E+03  0.18284939811E+04  0.46999998093E+01 0. -1.
</event>
<event>
 5   0  0.2198900E-07  0.3603021E+04  0.7818609E-02  0.8089800E-01
       -2   -1    0    0    0  501  0.00000000000E+00  0.00000000000E+00  0.15160836654E+04  0.15160836654E+04  0.25500000920E-02 0. -1.
        2   -1    0    0  501    0  0.00000000000E+00  0.00000000000E+00 -0.21406732103E+04  0.21406732103E+04  0.25500000920E-02 0.  1.
    10030    2    1    2    0    0  0.00000000000E+00  0.00000000000E+00 -0.62458954489E+03  0.36567568757E+04  0.36030207810E+04 0.  0.
        2    1    3    3  502    0 -0.10789097133E+03  0.14956202369E+04 -0.13256444384E+04  0.20014628479E+04  0.25500000920E-02 0.  1.
       -2    1    3    3    0  502  0.10789097133E+03 -0.14956202369E+04  0.70105489347E+03  0.16552940277E+04  0.25500000920E-02 0. -1.
</event>
<event>
 5   0  0.7347303E-08  0.3601761E+04  0.7818609E-02  0.8090088E-01
       -1   -1    0    0    0  501  0.00000000000E+00  0.00000000000E+00  0.11416643483E+04  0.11416643483E+04  0.50400001928E-02 0.  1.
        1   -1    0    0  501    0  0.00000000000E+00  0.00000000000E+00 -0.28407391009E+04  0.28407391009E+04  0.50400001928E-02 0. -1.
    10030    2    1    2    0    0  0.00000000000E+00  0.00000000000E+00 -0.16990747526E+04  0.39824034492E+04  0.36017609884E+04 0.  0.
        2    1    3    3  502    0  0.65221328460E+03  0.65185574860E+03 -0.25599076587E+04  0.27209236128E+04  0.25500000920E-02 0. -1.
       -2    1    3    3    0  502 -0.65221328460E+03 -0.65185574860E+03  0.86083290610E+03  0.12614798365E+04  0.25500000920E-02 0.  1.
</event>
<event>
 5   0  0.2198900E-07  0.3605997E+04  0.7818609E-02  0.8089119E-01
        2   -1    0    0  501    0  0.00000000000E+00  0.00000000000E+00  0.26211909313E+04  0.26211909313E+04  0.25500000920E-02 0. -1.
       -2   -1    0    0    0  501  0.00000000000E+00  0.00000000000E+00 -0.12402012290E+04  0.12402012290E+04  0.25500000920E-02 0.  1.
    10030    2    1    2    0    0  0.00000000000E+00  0.00000000000E+00  0.13809897023E+04  0.38613921603E+04  0.36059973457E+04 0.  0.
        2    1    3    3  502    0  0.16861846231E+04 -0.33825581455E+03  0.11069612036E+03  0.17233366503E+04  0.25500000920E-02 0.  1.
       -2    1    3    3    0  502 -0.16861846231E+04  0.33825581455E+03  0.12702935820E+04  0.21380555100E+04  0.25500000920E-02 0. -1.
</event>
<event>
 5   0  0.7236375E-08  0.3720024E+04  0.7818609E-02  0.8063539E-01
        1   -1    0    0  501    0  0.00000000000E+00  0.00000000000E+00  0.16873328615E+04  0.16873328615E+04  0.50400001928E-02 0.  1.
       -1   -1    0    0    0  501  0.00000000000E+00  0.00000000000E+00 -0.20503627337E+04  0.20503627337E+04  0.50400001928E-02 0. -1.
    10030    2    1    2    0    0  0.00000000000E+00  0.00000000000E+00 -0.36302987225E+03  0.37376955952E+04  0.37200238809E+04 0.  0.
        5    1    3    3  502    0  0.48758033434E+03  0.27435687515E+03  0.16007820706E+04  0.16957392503E+04  0.46999998093E+01 0.  1.
       -5    1    3    3    0  502 -0.48758033434E+03 -0.27435687515E+03 -0.19638119429E+04  0.20419563449E+04  0.46999998093E+01 0. -1.
</event>
<event>
 5   0  0.2309391E-07  0.3618771E+04  0.7818609E-02  0.8086205E-01
        2   -1    0    0  501    0  0.00000000000E+00  0.00000000000E+00  0.22923921802E+04  0.22923921802E+04  0.25500000920E-02 0.  1.
       -2   -1    0    0    0  501  0.00000000000E+00  0.00000000000E+00 -0.14281482567E+04  0.14281482567E+04  0.25500000920E-02 0. -1.
    10030    2    1    2    0    0  0.00000000000E+00  0.00000000000E+00  0.86424392350E+03  0.37205404369E+04  0.36187710045E+04 0.  0.
        4    1    3    3  502    0  0.89385893726E+03 -0.15704528480E+04  0.33695347718E+03  0.18381635418E+04  0.12699999809E+01 0. -1.
       -4    1    3    3    0  502 -0.89385893726E+03  0.15704528480E+04  0.52729044632E+03  0.18823768951E+04  0.12699999809E+01 0.  1.
</event>
<event>
 5   0  0.7236375E-08  0.3398914E+04  0.7818609E-02  0.8138173E-01
       -1   -1    0    0    0  501  0.00000000000E+00  0.00000000000E+00  0.23630447484E+04  0.23630447484E+04  0.50400001928E-02 0.  1.
        1   -1    0    0  501    0  0.00000000000E+00  0.00000000000E+00 -0.12222172315E+04  0.12222172315E+04  0.50400001928E-02 0. -1.
    10030    2    1    2    0    0  0.00000000000E+00  0.00000000000E+00  0.11408275168E+04  0.35852619799E+04  0.33989139503E+04 0.  0.
        1    1    3    3  502    0 -0.31231640860E+03  0.48365338321E+03 -0.11162166330E+04  0.12559465379E+04  0.50400001928E-02 0. -1.
       -1    1    3    3    0  502  0.31231640860E+03 -0.48365338321E+03  0.22570441498E+04  0.23293154420E+04  0.50400001928E-02 0.  1.
</event>
<event>
 5   0  0.7236375E-08  0.3667316E+04  0.7818609E-02  0.8075244E-01
       -1   -1    0    0    0  501  0.00000000000E+00  0.00000000000E+00  0.16915183818E+04  0.16915183819E+04  0.50400001928E-02 0. -1.
        1   -1    0    0  501    0  0.00000000000E+00  0.00000000000E+00 -0.19877413117E+04  0.19877413117E+04  0.50400001928E-02 0.  1.
    10030    2    1    2    0    0  0.00000000000E+00  0.00000000000E+00 -0.29622292981E+03  0.36792596935E+04  0.36673156216E+04 0.  0.
        5    1    3    3  502    0 -0.52843349211E+03  0.17350436627E+04  0.12232240061E+03  0.18178567949E+04  0.46999998093E+01 0. -1.
       -5    1    3    3    0  502  0.52843349211E+03 -0.17350436627E+04 -0.41854533042E+03  0.18614028986E+04  0.46999998093E+01 0.  1.
</event>
<event>
 5   0  0.7236375E-08  0.3589434E+04  0.7818609E-02  0.8092916E-01
       -1   -1    0    0    0  501  0.00000000000E+00  0.00000000000E+00  0.20980192179E+04  0.20980192179E+04  0.50400001928E-02 0. -1.
        1   -1    0    0  501    0  0.00000000000E+00  0.00000000000E+00 -0.15352620684E+04  0.15352620684E+04  0.50400001928E-02 0.  1.
    10030    2    1    2    0    0  0.00000000000E+00  0.00000000000E+00  0.56275714955E+03  0.36332812863E+04  0.35894341192E+04 0.  0.
        1    1    3    3  502    0 -0.10598202264E+04  0.21040561076E+03  0.17318944697E+04  0.20413103359E+04  0.50400001928E-02 0. -1.
       -1    1    3    3    0  502  0.10598202264E+04 -0.21040561076E+03 -0.11691373202E+04  0.15919709504E+04  0.50400001928E-02 0.  1.
</event>
<event>
 5   0  0.2198900E-07  0.3594466E+04  0.7818609E-02  0.8091761E-01
       -2   -1    0    0    0  501  0.00000000000E+00  0.00000000000E+00  0.26502207907E+04  0.26502207907E+04  0.25500000920E-02 0. -1.
        2   -1    0    0  501    0  0.00000000000E+00  0.00000000000E+00 -0.12187838926E+04  0.12187838926E+04  0.25500000920E-02 0.  1.
    10030    2    1    2    0    0  0.00000000000E+00  0.00000000000E+00  0.14314368981E+04  0.38690046832E+04  0.35944659750E+04 0.  0.
        2    1    3    3  502    0  0.95905162860E+03  0.62530099041E+03 -0.77546940145E+03  0.13827993880E+04  0.25500000920E-02 0.  1.
       -2    1    3    3    0  502 -0.95905162860E+03 -0.62530099041E+03  0.22069062995E+04  0.24862052952E+04  0.25500000920E-02 0. -1.
</event>
<event>
 5   0  0.2199902E-07  0.3605869E+04  0.7818609E-02  0.8089149E-01
        2   -1    0    0  501    0  0.00000000000E+00  0.00000000000E+00  0.24069423265E+04  0.24069423265E+04  0.25500000920E-02 0.  1.
       -2   -1    0    0    0  501  0.00000000000E+00  0.00000000000E+00 -0.13504986583E+04  0.13504986583E+04  0.25500000920E-02 0. -1.
    10030    2    1    2    0    0  0.00000000000E+00  0.00000000000E+00  0.10564436681E+04  0.37574409848E+04  0.36058687623E+04 0.  0.
        1    1    3    3  502    0 -0.13522790060E+04 -0.80387999460E+03 -0.38953278651E+03  0.16206842221E+04  0.50400001928E-02 0. -1.
       -1    1    3    3    0  502  0.13522790060E+04  0.80387999460E+03  0.14459764547E+04  0.21367567628E+04  0.50400001928E-02 0.  1.
</event>
<event>
 5   0  0.7236375E-08  0.3660801E+04  0.7818609E-02  0.8076705E-01
       -1   -1    0    0    0  501  0.00000000000E+00  0.00000000000E+00  0.15530576919E+04  0.15530576919E+04  0.50400001928E-02 0.  1.
        1   -1    0    0  501    0  0.00000000000E+00  0.00000000000E+00 -0.21572705293E+04  0.21572705293E+04  0.50400001928E-02 0. -1.
    10030    2    1    2    0    0  0.00000000000E+00  0.00000000000E+00 -0.60421283747E+03  0.37103282212E+04  0.36608007807E+04 0.  0.
        5    1    3    3  502    0  0.13185224551E+04  0.12633821354E+04 -0.42913204594E+03  0.18758497508E+04  0.46999998093E+01 0. -1.
       -5    1    3    3    0  502 -0.13185224551E+04 -0.12633821354E+04 -0.17508079153E+03  0.18344784704E+04  0.46999998093E+01 0.  1.
</event>
<event>
 5   0  0.2342606E-07  0.3608972E+04  0.7818609E-02  0.8088440E-01
       -2   -1    0    0    0  501  0.00000000000E+00  0.00000000000E+00  0.23475032932E+04  0.23475032932E+04  0.25500000920E-02 0. -1.
        2   -1    0    0  501    0  0.00000000000E+00  0.00000000000E+00 -0.13870779705E+04  0.13870779705E+04  0.25500000920E-02 0.  1.
    10030    2    1    2    0    0  0.00000000000E+00  0.00000000000E+00  0.96042532263E+03  0.37345812637E+04  0.36089722103E+04 0.  0.
        5    1    3    3  502    0 -0.85489662964E+03 -0.68440168198E+03  0.19643166857E+04  0.22489588795E+04  0.46999998093E+01 0. -1.
       -5    1    3    3    0  502  0.85489662964E+03  0.68440168198E+03 -0.10038913631E+04  0.14856223842E+04  0.46999998093E+01 0.  1.
</event>
<event>
 5   0  0.2342606E-07  0.3599122E+04  0.7818609E-02  0.8090693E-01
       -2   -1    0    0    0  501  0.00000000000E+00  0.00000000000E+00  0.17860326558E+04  0.17860326558E+04  0.25500000920E-02 0. -1.
        2   -1    0    0  501    0  0.00000000000E+00  0.00000000000E+00 -0.18131913260E+04  0.18131913260E+04  0.25500000920E-02 0.  1.
    10030    2    1    2    0    0  0.00000000000E+00  0.00000000000E+00 -0.27158670164E+02  0.35992239818E+04  0.35991215147E+04 0.  0.
        5    1    3    3  502    0 -0.87567915048E+03  0.15460558774E+04  0.27154994727E+03  0.17974604904E+04  0.46999998093E+01 0. -1.
       -5    1    3    3    0  502  0.87567915048E+03 -0.15460558774E+04 -0.29870861743E+03  0.18017634914E+04  0.46999998093E+01 0.  1.
</event>
<event>
 5   0  0.2342606E-07  0.3618349E+04  0.7818609E-02  0.8086301E-01
       -2   -1    0    0    0  501  0.00000000000E+00  0.00000000000E+00  0.24409114248E+04  0.24409114248E+04  0.25500000920E-02 0. -1.
        2   -1    0    0  501    0  0.00000000000E+00  0.00000000000E+00 -0.13409387109E+04  0.13409387109E+04  0.25500000920E-02 0.  1.
    10030    2    1    2    0    0  0.00000000000E+00  0.00000000000E+00  0.10999727139E+04  0.37818501357E+04  0.36183491371E+04 0.  0.
        5    1    3    3  502    0 -0.63633956488E+02  0.61837469332E+03  0.23257747373E+04  0.24074232616E+04  0.46999998093E+01 0. -1.
       -5    1    3    3    0  502  0.63633956488E+02 -0.61837469332E+03 -0.12258020234E+04  0.13744268741E+04  0.46999998093E+01 0.  1.
</event>
<event>
 5   0  0.7236375E-08  0.3594974E+04  0.7818609E-02  0.8091644E-01
        1   -1    0    0  501    0  0.00000000000E+00  0.00000000000E+00  0.19341105289E+04  0.19341105290E+04  0.50400001928E-02 0.  1.
       -1   -1    0    0    0  501  0.00000000000E+00  0.00000000000E+00 -0.16705142001E+04  0.16705142002E+04  0.50400001928E-02 0. -1.
    10030    2    1    2    0    0  0.00000000000E+00  0.00000000000E+00  0.26359632880E+03  0.36046247291E+04  0.35949737709E+04 0.  0.
        1    1    3    3  502    0  0.63511442028E+03  0.23740893688E+03  0.18009670724E+04  0.19243741128E+04  0.50400001928E-02 0.  1.
       -1    1    3    3    0  502 -0.63511442028E+03 -0.23740893688E+03 -0.15373707436E+04  0.16802506163E+04  0.50400001928E-02 0. -1.
</event>
<event>
 5   0  0.2309391E-07  0.3598846E+04  0.7818609E-02  0.8090756E-01
        2   -1    0    0  501    0  0.00000000000E+00  0.00000000000E+00  0.19513583132E+04  0.19513583132E+04  0.25500000920E-02 0. -1.
       -2   -1    0    0    0  501  0.00000000000E+00  0.00000000000E+00 -0.16593178132E+04  0.16593178132E+04  0.25500000920E-02 0.  1.
    10030    2    1    2    0    0  0.00000000000E+00  0.00000000000E+00  0.29204050003E+03  0.36106761264E+04  0.35988462646E+04 0.  0.
        4    1    3    3  502    0  0.17314434716E+04  0.35862883199E+03 -0.18885959217E+03  0.17782521455E+04  0.12699999809E+01 0.  1.
       -4    1    3    3    0  502 -0.17314434716E+04 -0.35862883199E+03  0.48090009220E+03  0.18324239809E+04  0.12699999809E+01 0. -1.
</event>
<event>
 5   0  0.7236375E-08  0.3597860E+04  0.7818609E-02  0.8090982E-01
        1   -1    0    0  501    0  0.00000000000E+00  0.00000000000E+00  0.12893540551E+04  0.12893540551E+04  0.50400001928E-02 0. -1.
       -1   -1    0    0    0  501  0.00000000000E+00  0.00000000000E+00 -0.25098990710E+04  0.25098990710E+04  0.50400001928E-02 0.  1.
    10030    2    1    2    0    0  0.00000000000E+00  0.00000000000E+00 -0.12205450159E+04  0.37992531261E+04  0.35978596665E+04 0.  0.
        1    1    3    3  502    0 -0.12642298637E+04 -0.32684503405E+03  0.69634299253E+03  0.14798643140E+04  0.50400001928E-02 0. -1.
       -1    1    3    3    0  502  0.12642298637E+04  0.32684503405E+03 -0.19168880084E+04  0.23193888121E+04  0.50400001928E-02 0.  1.
</event>
<event>
 5   0  0.7261233E-08  0.3605711E+04  0.7818609E-02  0.8089185E-01
       -1   -1    0    0    0  501  0.00000000000E+00  0.00000000000E+00  0.13596303589E+04  0.13596303589E+04  0.50400001928E-02 0. -1.
        1   -1    0    0  501    0  0.00000000000E+00  0.00000000000E+00 -0.23905667449E+04  0.23905667449E+04  0.50400001928E-02 0.  1.
    10030    2    1    2    0    0  0.00000000000E+00  0.00000000000E+00 -0.10309363860E+04  0.37501971039E+04  0.36057105383E+04 0.  0.
        3    1    3    3  502    0  0.34723402746E+03  0.17405629020E+04 -0.84462485049E+03  0.19655843492E+04  0.10100000352E+00 0.  1.
       -3    1    3    3    0  502 -0.34723402746E+03 -0.17405629020E+04 -0.18631153552E+03  0.17846127547E+04  0.10100000352E+00 0. -1.
</event>
<event>
 5   0  0.7347303E-08  0.3601738E+04  0.7818609E-02  0.8090094E-01
        1   -1    0    0  501    0  0.00000000000E+00  0.00000000000E+00  0.21054615538E+04  0.21054615538E+04  0.50400001928E-02 0. -1.
       -1   -1    0    0    0  501  0.00000000000E+00  0.00000000000E+00 -0.15403413469E+04  0.15403413469E+04  0.50400001928E-02 0.  1.
    10030    2    1    2    0    0  0.00000000000E+00  0.00000000000E+00  0.56512020693E+03  0.36458029007E+04  0.36017381835E+04 0.  0.
        2    1    3    3  502    0  0.17809522809E+04 -0.16038704365E+02  0.55243250773E+03  0.18647332095E+04  0.25500000920E-02 0. -1.
       -2    1    3    3    0  502 -0.17809522809E+04  0.16038704365E+02  0.12687699194E+02  0.17810696912E+04  0.25500000920E-02 0.  1.
</event>
<event>
 5   0  0.2309391E-07  0.3625293E+04  0.7818609E-02  0.8084722E-01
        2   -1    0    0  501    0  0.00000000000E+00  0.00000000000E+00  0.15640313796E+04  0.15640313796E+04  0.25500000920E-02 0.  1.
       -2   -1    0    0    0  501  0.00000000000E+00  0.00000000000E+00 -0.21007813866E+04  0.21007813866E+04  0.25500000920E-02 0. -1.
    10030    2    1    2    0    0  0.00000000000E+00  0.00000000000E+00 -0.53675000700E+03  0.36648127662E+04  0.36252933731E+04 0.  0.
        4    1    3    3  502    0  0.35341511169E+03 -0.11494365378E+04 -0.16394712777E+04  0.20332177155E+04  0.12699999809E+01 0. -1.
       -4    1    3    3    0  502 -0.35341511169E+03  0.11494365378E+04  0.11027212707E+04  0.16315950506E+04  0.12699999809E+01 0.  1.
</event>
<event>
 5   0  0.7514289E-08  0.3610547E+04  0.7818609E-02  0.8088080E-01
        1   -1    0    0  501    0  0.00000000000E+00  0.00000000000E+00  0.25136726287E+04  0.25136726287E+04  0.50400001928E-02 0. -1.
       -1   -1    0    0    0  501  0.00000000000E+00  0.00000000000E+00 -0.12965140987E+04  0.12965140987E+04  0.50400001928E-02 0.  1.
    10030    2    1    2    0    0  0.00000000000E+00  0.00000000000E+00  0.12171585300E+04  0.38101867274E+04  0.36105467744E+04 0.  0.
        4    1    3    3  502    0 -0.51323647523E+03  0.82576223839E+03 -0.99661742745E+03  0.13923156479E+04  0.12699999809E+01 0.  1.
       -4    1    3    3    0  502  0.51323647523E+03 -0.82576223839E+03  0.22137759575E+04  0.24178710794E+04  0.12699999809E+01 0. -1.
</event>
<event>
 5   0  0.7261233E-08  0.3604273E+04  0.7818609E-02  0.8089514E-01
        1   -1    0    0  501    0  0.00000000000E+00  0.00000000000E+00  0.18435297305E+04  0.18435297305E+04  0.50400001928E-02 0. -1.
       -1   -1    0    0    0  501  0.00000000000E+00  0.00000000000E+00 -0.17616724703E+04  0.17616724703E+04  0.50400001928E-02 0.  1.
    10030    2    1    2    0    0  0.00000000000E+00  0.00000000000E+00  0.81857260233E+02  0.36052022008E+04  0.36042727834E+04 0.  0.
        3    1    3    3  502    0 -0.73271256367E+03 -0.12197392577E+04 -0.10652787914E+04  0.17774843098E+04  0.10100000352E+00 0.  1.
       -3    1    3    3    0  502  0.73271256367E+03  0.12197392577E+04  0.11471360517E+04  0.18277178910E+04  0.10100000352E+00 0. -1.
</event>
<event>
 5   0  0.2199902E-07  0.3616737E+04  0.7818609E-02  0.8086669E-01
        2   -1    0    0  501    0  0.00000000000E+00  0.00000000000E+00  0.18006270933E+04  0.18006270933E+04  0.25500000920E-02 0. -1.
       -2   -1    0    0    0  501  0.00000000000E+00  0.00000000000E+00 -0.18161433913E+04  0.18161433913E+04  0.25500000920E-02 0.  1.
    10030    2    1    2    0    0  0.00000000000E+00  0.00000000000E+00 -0.15516298013E+02  0.36167704845E+04  0.36167372012E+04 0.  0.
        1    1    3    3  502    0  0.12850656634E+04 -0.12462228192E+04  0.24862658301E+03  0.18072853268E+04  0.50400001928E-02 0. -1.
       -1    1    3    3    0  502 -0.12850656634E+04  0.12462228192E+04 -0.26414288102E+03  0.18094851578E+04  0.50400001928E-02 0.  1.
</event>
<event>
 5   0  0.2342606E-07  0.3607935E+04  0.7818609E-02  0.8088676E-01
        2   -1    0    0  501    0  0.00000000000E+00  0.00000000000E+00  0.18491743426E+04  0.18491743426E+04  0.25500000920E-02 0.  1.
       -2   -1    0    0    0  501  0.00000000000E+00  0.00000000000E+00 -0.17598661164E+04  0.17598661164E+04  0.25500000920E-02 0. -1.
    10030    2    1    2    0    0  0.00000000000E+00  0.00000000000E+00  0.89308226197E+02  0.36090404590E+04  0.36079352925E+04 0.  0.
        5    1    3    3  502    0 -0.11759578815E+04 -0.79928054655E+03 -0.10658890253E+04  0.17770390641E+04  0.46999998093E+01 0. -1.
       -5    1    3    3    0  502  0.11759578815E+04  0.79928054655E+03  0.11551972515E+04  0.18320013949E+04  0.46999998093E+01 0.  1.
</event>
<event>
 5   0  0.7514289E-08  0.3602437E+04  0.7818609E-02  0.8089934E-01
       -1   -1    0    0    0  501  0.00000000000E+00  0.00000000000E+00  0.24663166051E+04  0.24663166051E+04  0.50400001928E-02 0.  1.
        1   -1    0    0  501    0  0.00000000000E+00  0.00000000000E+00 -0.13154792132E+04  0.13154792132E+04  0.50400001928E-02 0. -1.
    10030    2    1    2    0    0  0.00000000000E+00  0.00000000000E+00  0.11508373919E+04  0.37817958183E+04  0.36024370791E+04 0.  0.
        4    1    3    3  502    0 -0.13622112709E+04  0.36535309837E+03  0.17515957464E+04  0.22488200695E+04  0.12699999809E+01 0.  1.
       -4    1    3    3    0  502  0.13622112709E+04 -0.36535309837E+03 -0.60075835449E+03  0.15329757488E+04  0.12699999809E+01 0. -1.
</event>
<event>
 5   0  0.2309391E-07  0.3594134E+04  0.7818609E-02  0.8091837E-01
       -2   -1    0    0    0  501  0.00000000000E+00  0.00000000000E+00  0.13313041753E+04  0.13313041753E+04  0.25500000920E-02 0.  1.
        2   -1    0    0  501    0  0.00000000000E+00  0.00000000000E+00 -0.24257784825E+04  0.24257784825E+04  0.25500000920E-02 0. -1.
    10030    2    1    2    0    0  0.00000000000E+00  0.00000000000E+00 -0.10944743072E+04  0.37570826578E+04  0.35941335658E+04 0.  0.
        4    1    3    3  502    0 -0.58222640025E+03  0.11929193892E+04 -0.18135215703E+04  0.22474221564E+04  0.12699999809E+01 0. -1.
       -4    1    3    3    0  502  0.58222640025E+03 -0.11929193892E+04  0.71904726308E+03  0.15096605014E+04  0.12699999809E+01 0.  1.
</event>
<event>
 5   0  0.2198900E-07  0.3602567E+04  0.7818609E-02  0.8089904E-01
       -2   -1    0    0    0  501  0.00000000000E+00  0.00000000000E+00  0.14220181428E+04  0.14220181428E+04  0.25500000920E-02 0.  1.
        2   -1    0    0  501    0  0.00000000000E+00  0.00000000000E+00 -0.22817027234E+04  0.22817027234E+04  0.25500000920E-02 0. -1.
    10030    2    1    2    0    0  0.00000000000E+00  0.00000000000E+00 -0.85968458065E+03  0.37037208662E+04  0.36025672342E+04 0.  0.
        2    1    3    3  502    0 -0.42135208267E+03  0.40200029430E+03  0.13225654494E+04  0.14451024815E+04  0.25500000920E-02 0.  1.
       -2    1    3    3    0  502  0.42135208267E+03 -0.40200029430E+03 -0.21822500300E+04  0.22586183847E+04  0.25500000920E-02 0. -1.
</event>
<event>
 5   0  0.7236375E-08  0.3597904E+04  0.7818609E-02  0.8090972E-01
       -1   -1    0    0    0  501  0.00000000000E+00  0.00000000000E+00  0.21945378153E+04  0.21945378153E+04  0.50400001928E-02 0. -1.
        1   -1    0    0  501    0  0.00000000000E+00  0.00000000000E+00 -0.14746741781E+04  0.14746741781E+04  0.50400001928E-02 0.  1.
    10030    2    1    2    0    0  0.00000000000E+00  0.00000000000E+00  0.71986363722E+03  0.36692119935E+04  0.35979039727E+04 0.  0.
        1    1    3    3  502    0  0.80956424582E+03 -0.14812365688E+04  0.99416778518E+03  0.19590369128E+04  0.50400001928E-02 0. -1.
       -1    1    3    3    0  502 -0.80956424582E+03  0.14812365688E+04 -0.27430414796E+03  0.17101750806E+04  0.50400001928E-02 0.  1.
</event>
<event>
 5   0  0.2198900E-07  0.3597548E+04  0.7818609E-02  0.8091054E-01
       -2   -1    0    0    0  501  0.00000000000E+00  0.00000000000E+00  0.24969182093E+04  0.24969182093E+04  0.25500000920E-02 0.  1.
        2   -1    0    0  501    0  0.00000000000E+00  0.00000000000E+00 -0.12958327569E+04  0.12958327569E+04  0.25500000920E-02 0. -1.
    10030    2    1    2    0    0  0.00000000000E+00  0.00000000000E+00  0.12010854524E+04  0.37927509662E+04  0.35975482801E+04 0.  0.
        2    1    3    3  502    0 -0.88095999882E+03 -0.38327809952E+03  0.22037791153E+04  0.24040871470E+04  0.25500000920E-02 0.  1.
       -2    1    3    3    0  502  0.88095999882E+03  0.38327809952E+03 -0.10026936629E+04  0.13886638192E+04  0.25500000920E-02 0. -1.
</event>
<event>
 5   0  0.7347303E-08  0.3615163E+04  0.7818609E-02  0.8087027E-01
       -1   -1    0    0    0  501  0.00000000000E+00  0.00000000000E+00  0.11179382273E+04  0.11179382273E+04  0.50400001928E-02 0.  1.
        1   -1    0    0  501    0  0.00000000000E+00  0.00000000000E+00 -0.29226574217E+04  0.29226574217E+04  0.50400001928E-02 0. -1.
    10030    2    1    2    0    0  0.00000000000E+00  0.00000000000E+00 -0.18047191944E+04  0.40405956490E+04  0.36151627665E+04 0.  0.
        2    1    3    3  502    0  0.13792851176E+04  0.64597682330E+03 -0.19903837419E+04  0.25062603480E+04  0.25500000920E-02 0. -1.
       -2    1    3    3    0  502 -0.13792851176E+04 -0.64597682330E+03  0.18566454746E+03  0.15343353011E+04  0.25500000920E-02 0.  1.
</event>
<event>
 5   0  0.7514289E-08  0.3579575E+04  0.7818609E-02  0.8095186E-01
        1   -1    0    0  501    0  0.00000000000E+00  0.00000000000E+00  0.17331411604E+04  0.17331411604E+04  0.50400001928E-02 0. -1.
       -1   -1    0    0    0  501  0.00000000000E+00  0.00000000000E+00 -0.18482854316E+04  0.18482854316E+04  0.50400001928E-02 0.  1.
    10030    2    1    2    0    0  0.00000000000E+00  0.00000000000E+00 -0.11514427120E+03  0.35814265920E+04  0.35795751467E+04 0.  0.
        4    1    3    3  502    0 -0.93665958028E+03 -0.49503298537E+03  0.13857235073E+04  0.17443107744E+04  0.12699999809E+01 0. -1.
       -4    1    3    3    0  502  0.93665958028E+03  0.49503298537E+03 -0.15008677785E+04  0.18371158177E+04  0.12699999809E+01 0.  1.
</event>
<event>
 5   0  0.2199902E-07  0.3624935E+04  0.7818609E-02  0.8084804E-01
        2   -1    0    0  501    0  0.00000000000E+00  0.00000000000E+00  0.19036677655E+04  0.19036677655E+04  0.25500000920E-02 0.  1.
       -2   -1    0    0    0  501  0.00000000000E+00  0.00000000000E+00 -0.17256363734E+04  0.17256363734E+04  0.25500000920E-02 0. -1.
    10030    2    1    2    0    0  0.00000000000E+00  0.00000000000E+00  0.17803139212E+03  0.36293041389E+04  0.36249349451E+04 0.  0.
        1    1    3    3  502    0 -0.18698190297E+03  0.11532856186E+04 -0.12982981162E+04  0.17465989662E+04  0.50400001928E-02 0. -1.
       -1    1    3    3    0  502  0.18698190297E+03 -0.11532856186E+04  0.14763295084E+04  0.18827051727E+04  0.50400001928E-02 0.  1.
</event>
<event>
 5   0  0.2198900E-07  0.3604045E+04  0.7818609E-02  0.8089566E-01
       -2   -1    0    0    0  501  0.00000000000E+00  0.00000000000E+00  0.23582054140E+04  0.23582054140E+04  0.25500000920E-02 0.  1.
        2   -1    0    0  501    0  0.00000000000E+00  0.00000000000E+00 -0.13770156693E+04  0.13770156693E+04  0.25500000920E-02 0. -1.
    10030    2    1    2    0    0  0.00000000000E+00  0.00000000000E+00  0.98118974461E+03  0.37352210833E+04  0.36040453974E+04 0.  0.
        2    1    3    3  502    0 -0.17694817090E+04  0.10922625767E+03  0.15590142385E+03  0.17796913069E+04  0.25500000920E-02 0. -1.
       -2    1    3    3    0  502  0.17694817090E+04 -0.10922625767E+03  0.82528832076E+03  0.19555297764E+04  0.25500000920E-02 0.  1.
</event>
<event>
 5   0  0.7236375E-08  0.3591497E+04  0.7818609E-02  0.8092442E-01
       -1   -1    0    0    0  501  0.00000000000E+00  0.00000000000E+00  0.20171240841E+04  0.20171240841E+04  0.50400001928E-02 0.  1.
        1   -1    0    0  501    0  0.00000000000E+00  0.00000000000E+00 -0.15986681839E+04  0.15986681839E+04  0.50400001928E-02 0. -1.
    10030    2    1    2    0    0  0.00000000000E+00  0.00000000000E+00  0.41845590018E+03  0.36157922680E+04  0.35914966776E+04 0.  0.
        1    1    3    3  502    0  0.96781088185E+03 -0.12780681355E+04 -0.60531630998E+03  0.17136288680E+04  0.50400001928E-02 0. -1.
       -1    1    3    3    0  502 -0.96781088185E+03  0.12780681355E+04  0.10237722102E+04  0.19021634000E+04  0.50400001928E-02 0.  1.
</event>
<event>
 5   0  0.7347303E-08  0.3589830E+04  0.7818609E-02  0.8092825E-01
       -1   -1    0    0    0  501  0.00000000000E+00  0.00000000000E+00  0.25763207707E+04  0.25763207707E+04  0.50400001928E-02 0. -1.
        1   -1    0    0  501    0  0.00000000000E+00  0.00000000000E+00 -0.12505121573E+04  0.12505121573E+04  0.50400001928E-02 0.  1.
    10030    2    1    2    0    0  0.00000000000E+00  0.00000000000E+00  0.13258086134E+04  0.38268329280E+04  0.35898303274E+04 0.  0.
        2    1    3    3  502    0 -0.17493414474E+04 -0.40022053193E+03  0.70205022085E+03  0.19269785900E+04  0.25500000920E-02 0.  1.
       -2    1    3    3    0  502  0.17493414474E+04  0.40022053193E+03  0.62375839255E+03  0.18998543381E+04  0.25500000920E-02 0. -1.
</event>
<event>
 5   0  0.2199902E-07  0.3621105E+04  0.7818609E-02  0.8085674E-01
       -2   -1    0    0    0  501  0.00000000000E+00  0.00000000000E+00  0.13670340978E+04  0.13670340978E+04  0.25500000920E-02 0.  1.
        2   -1    0    0  501    0  0.00000000000E+00  0.00000000000E+00 -0.23979652171E+04  0.23979652171E+04  0.25500000920E-02 0. -1.
    10030    2    1    2    0    0  0.00000000000E+00  0.00000000000E+00 -0.10309311193E+04  0.37649993149E+04  0.36211049237E+04 0.  0.
        1    1    3    3  502    0 -0.11431651653E+03  0.57758507331E+03 -0.22956433012E+04  0.23699474570E+04  0.50400001928E-02 0. -1.
       -1    1    3    3    0  502  0.11431651653E+03 -0.57758507331E+03  0.12647121819E+04  0.13950518578E+04  0.50400001928E-02 0.  1.
</event>
<event>
 5   0  0.7347303E-08  0.3577501E+04  0.7818609E-02  0.8095665E-01
        1   -1    0    0  501    0  0.00000000000E+00  0.00000000000E+00  0.24225271690E+04  0.24225271690E+04  0.50400001928E-02 0.  1.
       -1   -1    0    0    0  501  0.00000000000E+00  0.00000000000E+00 -0.13207809460E+04  0.13207809460E+04  0.50400001928E-02 0. -1.
    10030    2    1    2    0    0  0.00000000000E+00  0.00000000000E+00  0.11017462230E+04  0.37433081150E+04  0.35775006504E+04 0.  0.
        2    1    3    3  502    0  0.31843047378E+03  0.86739251346E+03 -0.10517333822E+04  0.13999681590E+04  0.25500000920E-02 0. -1.
       -2    1    3    3    0  502 -0.31843047378E+03 -0.86739251346E+03  0.21534796052E+04  0.23433399560E+04  0.25500000920E-02 0.  1.
</event>
<event>
 5   0  0.7261233E-08  0.3615668E+04  0.7818609E-02  0.8086912E-01
        1   -1    0    0  501    0  0.00000000000E+00  0.00000000000E+00  0.19795868786E+04  0.19795868786E+04  0.50400001928E-02 0. -1.
       -1   -1    0    0    0  501  0.00000000000E+00  0.00000000000E+00 -0.16509828242E+04  0.16509828242E+04  0.50400001928E-02 0.  1.
    10030    2    1    2    0    0  0.00000000000E+00  0.00000000000E+00  0.32860405434E+03  0.36305697028E+04  0.36156680907E+04 0.  0.
        3    1    3    3  502    0 -0.12279668107E+04  0.63672015311E+03  0.13331221458E+04  0.19210751436E+04  0.10100000352E+00 0. -1.
       -3    1    3    3    0  502  0.12279668107E+04 -0.63672015311E+03 -0.10045180915E+04  0.17094945592E+04  0.10100000352E+00 0.  1.
</event>
<event>
 5   0  0.2309391E-07  0.3657330E+04  0.7818609E-02  0.8077484E-01
       -2   -1    0    0    0  501  0.00000000000E+00  0.00000000000E+00  0.27124898635E+04  0.27124898635E+04  0.25500000920E-02 0. -1.
        2   -1    0    0  501    0  0.00000000000E+00  0.00000000000E+00 -0.12328216944E+04  0.12328216944E+04  0.25500000920E-02 0.  1.
    10030    2    1    2    0    0  0.00000000000E+00  0.00000000000E+00  0.14796681691E+04  0.39453115579E+04  0.36573303649E+04 0.  0.
        4    1    3    3  502    0  0.11881464925E+04  0.11611820906E+04 -0.84523530861E+02  0.16634848287E+04  0.12699999809E+01 0.  1.
       -4    1    3    3    0  502 -0.11881464925E+04 -0.11611820906E+04  0.15641916999E+04  0.22818267292E+04  0.12699999809E+01 0. -1.
</event>
<event>
 5   0  0.2309391E-07  0.3601515E+04  0.7818609E-02  0.8090145E-01
       -2   -1    0    0    0  501  0.00000000000E+00  0.00000000000E+00  0.17023791181E+04  0.17023791181E+04  0.25500000920E-02 0. -1.
        2   -1    0    0  501    0  0.00000000000E+00  0.00000000000E+00 -0.19048210095E+04  0.19048210095E+04  0.25500000920E-02 0.  1.
    10030    2    1    2    0    0  0.00000000000E+00  0.00000000000E+00 -0.20244189147E+03  0.36072001276E+04  0.36015149647E+04 0.  0.
        4    1    3    3  502    0 -0.13916497158E+04 -0.71069890461E+03  0.79514654882E+03  0.17532944737E+04  0.12699999809E+01 0. -1.
       -4    1    3    3    0  502  0.13916497158E+04  0.71069890461E+03 -0.99758844029E+03  0.18539056539E+04  0.12699999809E+01 0.  1.
</event>
<event>
 5   0  0.2309391E-07  0.3544566E+04  0.7818609E-02  0.8103309E-01
        2   -1    0    0  501    0  0.00000000000E+00  0.00000000000E+00  0.24715676545E+04  0.24715676545E+04  0.25500000920E-02 0. -1.
       -2   -1    0    0    0  501  0.00000000000E+00  0.00000000000E+00 -0.12708478651E+04  0.12708478651E+04  0.25500000920E-02 0.  1.
    10030    2    1    2    0    0  0.00000000000E+00  0.00000000000E+00  0.12007197894E+04  0.37424155196E+04  0.35445656869E+04 0.  0.
        4    1    3    3  502    0 -0.35151549451E+03 -0.65272272624E+03  0.22999887240E+04  0.24165181240E+04  0.12699999809E+01 0. -1.
       -4    1    3    3    0  502  0.35151549451E+03  0.65272272624E+03 -0.10992689346E+04  0.13258973956E+04  0.12699999809E+01 0.  1.
</event>
<event>
 5   0  0.2238968E-07  0.3622648E+04  0.7818609E-02  0.8085324E-01
        2   -1    0    0  501    0  0.00000000000E+00  0.00000000000E+00  0.10867810852E+04  0.10867810852E+04  0.25500000920E-02 0. -1.
       -2   -1    0    0    0  501  0.00000000000E+00  0.00000000000E+00 -0.30189095598E+04  0.30189095598E+04  0.25500000920E-02 0.  1.
    10030    2    1    2    0    0  0.00000000000E+00  0.00000000000E+00 -0.19321284746E+04  0.41056906451E+04  0.36226475443E+04 0.  0.
        3    1    3    3  502    0  0.92017640691E+03  0.10301911146E+04  0.36186737352E+03  0.14279237930E+04  0.10100000352E+00 0. -1.
       -3    1    3    3    0  502 -0.92017640691E+03 -0.10301911146E+04 -0.22939958481E+04  0.26777668521E+04  0.10100000352E+00 0.  1.
</event>
<event>
 5   0  0.7236375E-08  0.3613492E+04  0.7818609E-02  0.8087408E-01
       -1   -1    0    0    0  501  0.00000000000E+00  0.00000000000E+00  0.20385500853E+04  0.20385500853E+04  0.50400001928E-02 0. -1.
        1   -1    0    0  501    0  0.00000000000E+00  0.00000000000E+00 -0.16013001317E+04  0.16013001317E+04  0.50400001928E-02 0.  1.
    10030    2    1    2    0    0  0.00000000000E+00  0.00000000000E+00  0.43724995352E+03  0.36398502170E+04  0.36134916743E+04 0.  0.
        1    1    3    3  502    0  0.17839514185E+04  0.94088200500E+02  0.49077213536E+03  0.18526177539E+04  0.50400001928E-02 0. -1.
       -1    1    3    3    0  502 -0.17839514185E+04 -0.94088200500E+02 -0.53522181837E+02  0.17872324631E+04  0.50400001928E-02 0.  1.
</event>
<event>
 5   0  0.2198900E-07  0.3589786E+04  0.7818609E-02  0.8092835E-01
       -2   -1    0    0    0  501  0.00000000000E+00  0.00000000000E+00  0.10057705311E+04  0.10057705311E+04  0.25500000920E-02 0.  1.
        2   -1    0    0  501    0  0.00000000000E+00  0.00000000000E+00 -0.32031564147E+04  0.32031564147E+04  0.25500000920E-02 0. -1.
    10030    2    1    2    0    0  0.00000000000E+00  0.00000000000E+00 -0.21973858836E+04  0.42089269458E+04  0.35897856919E+04 0.  0.
        2    1    3    3  502    0 -0.15456759998E+04 -0.33951282321E+03 -0.20916724494E+04  0.26228756908E+04  0.25500000920E-02 0. -1.
       -2    1    3    3    0  502  0.15456759998E+04  0.33951282321E+03 -0.10571343422E+03  0.15860512551E+04  0.25500000920E-02 0.  1.
</event>
<event>
 5   0  0.2199902E-07  0.3517496E+04  0.7818609E-02  0.8109656E-01
       -2   -1    0    0    0  501  0.00000000000E+00  0.00000000000E+00  0.17884558342E+04  0.17884558342E+04  0.25500000920E-02 0. -1.
        2   -1    0    0  501    0  0.00000000000E+00  0.00000000000E+00 -0.17295337534E+04  0.17295337534E+04  0.25500000920E-02 0.  1.
    10030    2    1    2    0    0  0.00000000000E+00  0.00000000000E+00  0.58922080795E+02  0.35179895876E+04  0.35174961161E+04 0.  0.
        1    1    3    3  502    0 -0.58180863122E+03 -0.13587826831E+04  0.98269656589E+03  0.17749603387E+04  0.50400001928E-02 0. -1.
       -1    1    3    3    0  502  0.58180863122E+03  0.13587826831E+04 -0.92377448510E+03  0.17430292489E+04  0.50400001928E-02 0.  1.
</event>
<event>
 5   0  0.7347303E-08  0.3597831E+04  0.7818609E-02  0.8090989E-01
       -1   -1    0    0    0  501  0.00000000000E+00  0.00000000000E+00  0.18542256202E+04  0.18542256202E+04  0.50400001928E-02 0. -1.
        1   -1    0    0  501    0  0.00000000000E+00  0.00000000000E+00 -0.17452553072E+04  0.17452553072E+04  0.50400001928E-02 0.  1.
    10030    2    1    2    0    0  0.00000000000E+00  0.00000000000E+00  0.10897031296E+03  0.35994809274E+04  0.35978310713E+04 0.  0.
        2    1    3    3  502    0  0.16981257981E+04 -0.14178901555E+02  0.64827635451E+03  0.18177168370E+04  0.25500000920E-02 0. -1.
       -2    1    3    3    0  502 -0.16981257981E+04  0.14178901555E+02 -0.53930604156E+03  0.17817640905E+04  0.25500000920E-02 0.  1.
</event>
<event>
 5   0  0.7347303E-08  0.3594747E+04  0.7818609E-02  0.8091696E-01
       -1   -1    0    0    0  501  0.00000000000E+00  0.00000000000E+00  0.16431424000E+04  0.16431424000E+04  0.50400001928E-02 0.  1.
        1   -1    0    0  501    0  0.00000000000E+00  0.00000000000E+00 -0.19660812658E+04  0.19660812658E+04  0.50400001928E-02 0. -1.
    10030    2    1    2    0    0  0.00000000000E+00  0.00000000000E+00 -0.32293886578E+03  0.36092236658E+04  0.35947469951E+04 0.  0.
        2    1    3    3  502    0  0.58621549796E+03 -0.34199714570E+03  0.15095469707E+04  0.16550959835E+04  0.25500000920E-02 0.  1.
       -2    1    3    3    0  502 -0.58621549796E+03  0.34199714570E+03 -0.18324858365E+04  0.19541276823E+04  0.25500000920E-02 0. -1.
</event>
<event>
 5   0  0.2309391E-07  0.3601868E+04  0.7818609E-02  0.8090064E-01
        2   -1    0    0  501    0  0.00000000000E+00  0.00000000000E+00  0.18928535485E+04  0.18928535485E+04  0.25500000920E-02 0. -1.
       -2   -1    0    0    0  501  0.00000000000E+00  0.00000000000E+00 -0.17134783643E+04  0.17134783643E+04  0.25500000920E-02 0.  1.
    10030    2    1    2    0    0  0.00000000000E+00  0.00000000000E+00  0.17937518426E+03  0.36063319128E+04  0.36018681831E+04 0.  0.
        4    1    3    3  502    0 -0.17316082064E+04  0.19741581186E+03  0.54403626132E+03  0.18257647849E+04  0.12699999809E+01 0. -1.
       -4    1    3    3    0  502  0.17316082064E+04 -0.19741581186E+03 -0.36466107706E+03  0.17805671279E+04  0.12699999809E+01 0.  1.
</event>
<event>
 5   0  0.2309391E-07  0.3604342E+04  0.7818609E-02  0.8089498E-01
        2   -1    0    0  501    0  0.00000000000E+00  0.00000000000E+00  0.22413755005E+04  0.22413755005E+04  0.25500000920E-02 0. -1.
       -2   -1    0    0    0  501  0.00000000000E+00  0.00000000000E+00 -0.14490299095E+04  0.14490299095E+04  0.25500000920E-02 0.  1.
    10030    2    1    2    0    0  0.00000000000E+00  0.00000000000E+00  0.79234559101E+03  0.36904054100E+04  0.36043419031E+04 0.  0.
        4    1    3    3  502    0 -0.14544143110E+04  0.76911004671E+03 -0.35689416448E+03  0.16835160557E+04  0.12699999809E+01 0.  1.
       -4    1    3    3    0  502  0.14544143110E+04 -0.76911004671E+03  0.11492397555E+04  0.20068893543E+04  0.12699999809E+01 0. -1.
</event>
<event>
 5   0  0.2309391E-07  0.3605137E+04  0.7818609E-02  0.8089316E-01
        2   -1    0    0  501    0  0.00000000000E+00  0.00000000000E+00  0.14834175413E+04  0.14834175413E+04  0.25500000920E-02 0. -1.
       -2   -1    0    0    0  501  0.00000000000E+00  0.00000000000E+00 -0.21903833262E+04  0.21903833262E+04  0.25500000920E-02 0.  1.
    10030    2    1    2    0    0  0.00000000000E+00  0.00000000000E+00 -0.70696578490E+03  0.36738008675E+04  0.36051369173E+04 0.  0.
        4    1    3    3  502    0 -0.96731881005E+03 -0.51228995022E+03 -0.18129280189E+04  0.21177479283E+04  0.12699999809E+01 0.  1.
       -4    1    3    3    0  502  0.96731881005E+03  0.51228995022E+03  0.11059622340E+04  0.15560529391E+04  0.12699999809E+01 0. -1.
</event>
<event>
 5   0  0.7261233E-08  0.3604478E+04  0.7818609E-02  0.8089467E-01
        1   -1    0    0  501    0  0.00000000000E+00  0.00000000000E+00  0.22732270514E+04  0.22732270514E+04  0.50400001928E-02 0. -1.
       -1   -1    0    0    0  501  0.00000000000E+00  0.00000000000E+00 -0.14288342588E+04  0.14288342588E+04  0.50400001928E-02 0.  1.
    10030    2    1    2    0    0  0.00000000000E+00  0.00000000000E+00  0.84439279260E+03  0.37020613102E+04  0.36044775983E+04 0.  0.
        3    1    3    3  502    0  0.97535278414E+03 -0.30323354037E+03  0.19472530563E+04  0.21988765561E+04  0.10100000352E+00 0. -1.
       -3    1    3    3    0  502 -0.97535278414E+03  0.30323354037E+03 -0.11028602637E+04  0.15031847541E+04  0.10100000352E+00 0.  1.
</event>
<event>
 5   0  0.7236375E-08  0.3604056E+04  0.7818609E-02  0.8089563E-01
        1   -1    0    0  501    0  0.00000000000E+00  0.00000000000E+00  0.10590851676E+04  0.10590851677E+04  0.50400001928E-02 0.  1.
       -1   -1    0    0    0  501  0.00000000000E+00  0.00000000000E+00 -0.30661419623E+04  0.30661419623E+04  0.50400001928E-02 0. -1.
    10030    2    1    2    0    0  0.00000000000E+00  0.00000000000E+00 -0.20070567947E+04  0.41252271300E+04  0.36040563116E+04 0.  0.
        5    1    3    3  502    0 -0.15460145963E+04 -0.71200107220E+03 -0.16808578114E+04  0.23921562932E+04  0.46999998093E+01 0. -1.
       -5    1    3    3    0  502  0.15460145963E+04  0.71200107220E+03 -0.32619898328E+03  0.17330708368E+04  0.46999998093E+01 0.  1.
</event>
<event>
 5   0  0.2198900E-07  0.3610302E+04  0.7818609E-02  0.8088136E-01
       -2   -1    0    0    0  501  0.00000000000E+00  0.00000000000E+00  0.32721485782E+04  0.32721485782E+04  0.25500000920E-02 0.  1.
        2   -1    0    0  501    0  0.00000000000E+00  0.00000000000E+00 -0.99585045973E+03  0.99585045974E+03  0.25500000920E-02 0. -1.
    10030    2    1    2    0    0  0.00000000000E+00  0.00000000000E+00  0.22762981185E+04  0.42679990379E+04  0.36103022953E+04 0.  0.
        2    1    3    3  502    0 -0.74063578850E+02  0.95308891490E+03 -0.67204449582E+03  0.11685493989E+04  0.25500000920E-02 0. -1.
       -2    1    3    3    0  502  0.74063578850E+02 -0.95308891490E+03  0.29483426143E+04  0.30994496390E+04  0.25500000920E-02 0.  1.
</event>
<event>
 5   0  0.7347303E-08  0.3599966E+04  0.7818609E-02  0.8090500E-01
        1   -1    0    0  501    0  0.00000000000E+00  0.00000000000E+00  0.22975765495E+04  0.22975765495E+04  0.50400001928E-02 0. -1.
       -1   -1    0    0    0  501  0.00000000000E+00  0.00000000000E+00 -0.14101545386E+04  0.14101545386E+04  0.50400001928E-02 0.  1.
    10030    2    1    2    0    0  0.00000000000E+00  0.00000000000E+00  0.88742201088E+03  0.37077310881E+04  0.35999655548E+04 0.  0.
        2    1    3    3  502    0 -0.76095333598E+03  0.13994566136E+03  0.21175705550E+04  0.22544932520E+04  0.25500000920E-02 0. -1.
       -2    1    3    3    0  502  0.76095333598E+03 -0.13994566136E+03 -0.12301485441E+04  0.14532378361E+04  0.25500000920E-02 0.  1.
</event>
<event>
 5   0  0.7347303E-08  0.3601769E+04  0.7818609E-02  0.8090087E-01
       -1   -1    0    0    0  501  0.00000000000E+00  0.00000000000E+00  0.19958550643E+04  0.19958550643E+04  0.50400001928E-02 0.  1.
        1   -1    0    0  501    0  0.00000000000E+00  0.00000000000E+00 -0.16249600738E+04  0.16249600738E+04  0.50400001928E-02 0. -1.
    10030    2    1    2    0    0  0.00000000000E+00  0.00000000000E+00  0.37089499054E+03  0.36208151381E+04  0.36017688946E+04 0.  0.
        2    1    3    3  502    0  0.68896922996E+02  0.17747245800E+04 -0.11410585434E+03  0.17797230871E+04  0.25500000920E-02 0.  1.
       -2    1    3    3    0  502 -0.68896922996E+02 -0.17747245800E+04  0.48500084488E+03  0.18410920510E+04  0.25500000920E-02 0. -1.
</event>
<event>
 5   0  0.7236375E-08  0.3604845E+04  0.7818609E-02  0.8089383E-01
        1   -1    0    0  501    0  0.00000000000E+00  0.00000000000E+00  0.21077032808E+04  0.21077032808E+04  0.50400001928E-02 0. -1.
       -1   -1    0    0    0  501  0.00000000000E+00  0.00000000000E+00 -0.15413584825E+04  0.15413584825E+04  0.50400001928E-02 0.  1.
    10030    2    1    2    0    0  0.00000000000E+00  0.00000000000E+00  0.56634479828E+03  0.36490617633E+04  0.36048447015E+04 0.  0.
        1    1    3    3  502    0 -0.35657030631E+03 -0.11217312549E+04 -0.10985996036E+04  0.16100759239E+04  0.50400001928E-02 0.  1.
       -1    1    3    3    0  502  0.35657030631E+03  0.11217312549E+04  0.16649444019E+04  0.20389858394E+04  0.50400001928E-02 0. -1.
</event>
<event>
 5   0  0.2198900E-07  0.3611051E+04  0.7818609E-02  0.8087965E-01
       -2   -1    0    0    0  501  0.00000000000E+00  0.00000000000E+00  0.14056859531E+04  0.14056859531E+04  0.25500000920E-02 0. -1.
        2   -1    0    0  501    0  0.00000000000E+00  0.00000000000E+00 -0.23190971020E+04  0.23190971020E+04  0.25500000920E-02 0.  1.
    10030    2    1    2    0    0  0.00000000000E+00  0.00000000000E+00 -0.91341114890E+03  0.37247830550E+04  0.36110509385E+04 0.  0.
        2    1    3    3  502    0 -0.32772176082E+01 -0.99239194147E+02 -0.23162787040E+04  0.23184059594E+04  0.25500000920E-02 0.  1.
       -2    1    3    3    0  502  0.32772176082E+01  0.99239194147E+02  0.14028675552E+04  0.14063770956E+04  0.25500000920E-02 0. -1.
</event>
<event>
 5   0  0.2309391E-07  0.3615158E+04  0.7818609E-02  0.8087028E-01
       -2   -1    0    0    0  501  0.00000000000E+00  0.00000000000E+00  0.19869995861E+04  0.19869995861E+04  0.25500000920E-02 0. -1.
        2   -1    0    0  501    0  0.00000000000E+00  0.00000000000E+00 -0.16443596024E+04  0.16443596024E+04  0.25500000920E-02 0.  1.
    10030    2    1    2    0    0  0.00000000000E+00  0.00000000000E+00  0.34263998372E+03  0.36313591885E+04  0.36151580045E+04 0.  0.
        4    1    3    3  502    0 -0.14032432285E+04  0.11144383181E+04  0.40960855619E+03  0.18381635143E+04  0.12699999809E+01 0. -1.
       -4    1    3    3    0  502  0.14032432285E+04 -0.11144383181E+04 -0.66968572474E+02  0.17931956741E+04  0.12699999809E+01 0.  1.
</event>
<event>
 5   0  0.7261233E-08  0.3589657E+04  0.7818609E-02  0.8092865E-01
        1   -1    0    0  501    0  0.00000000000E+00  0.00000000000E+00  0.14143851879E+04  0.14143851879E+04  0.50400001928E-02 0.  1.
       -1   -1    0    0    0  501  0.00000000000E+00  0.00000000000E+00 -0.22776040402E+04  0.22776040402E+04  0.50400001928E-02 0. -1.
    10030    2    1    2    0    0  0.00000000000E+00  0.00000000000E+00 -0.86321885238E+03  0.36919892281E+04  0.35896570412E+04 0.  0.
        3    1    3    3  502    0 -0.55424737164E+03 -0.47253516327E+03 -0.21187786702E+04  0.22404693020E+04  0.10100000352E+00 0. -1.
       -3    1    3    3    0  502  0.55424737164E+03  0.47253516327E+03  0.12555598179E+04  0.14515199261E+04  0.10100000352E+00 0.  1.
</event>
<event>
 5   0  0.2199902E-07  0.3621860E+04  0.7818609E-02  0.8085503E-01
        2   -1    0    0  501    0  0.00000000000E+00  0.00000000000E+00  0.21564165274E+04  0.21564165274E+04  0.25500000920E-02 0.  1.
       -2   -1    0    0    0  501  0.00000000000E+00  0.00000000000E+00 -0.15207945776E+04  0.15207945776E+04  0.25500000920E-02 0. -1.
    10030    2    1    2    0    0  0.00000000000E+00  0.00000000000E+00  0.63562194975E+03  0.36772111050E+04  0.36218595014E+04 0.  0.
        1    1    3    3  502    0 -0.83056336776E+03 -0.81609543993E+02  0.19495350582E+04  0.21206561647E+04  0.50400001928E-02 0.  1.
       -1    1    3    3    0  502  0.83056336776E+03  0.81609543993E+02 -0.13139131085E+04  0.15565549403E+04  0.50400001928E-02 0. -1.
</event>
<event>
 5   0  0.7347303E-08  0.3575370E+04  0.7818609E-02  0.8096157E-01
       -1   -1    0    0    0  501  0.00000000000E+00  0.00000000000E+00  0.17269269787E+04  0.17269269788E+04  0.50400001928E-02 0.  1.
        1   -1    0    0  501    0  0.00000000000E+00  0.00000000000E+00 -0.18505809082E+04  0.18505809082E+04  0.50400001928E-02 0. -1.
    10030    2    1    2    0    0  0.00000000000E+00  0.00000000000E+00 -0.12365392948E+03  0.35775078870E+04  0.35753702448E+04 0.  0.
        2    1    3    3  502    0 -0.16809260889E+04  0.36110667281E+03 -0.55192339305E+03  0.18056937662E+04  0.25500000920E-02 0. -1.
       -2    1    3    3    0  502  0.16809260889E+04 -0.36110667281E+03  0.42826946357E+03  0.17718141208E+04  0.25500000920E-02 0.  1.
</event>
<event>
 5   0  0.7236375E-08  0.3615279E+04  0.7818609E-02  0.8087001E-01
       -1   -1    0    0    0  501  0.00000000000E+00  0.00000000000E+00  0.34515481651E+04  0.34515481651E+04  0.50400001928E-02 0.  1.
        1   -1    0    0  501    0  0.00000000000E+00  0.00000000000E+00 -0.94669399336E+03  0.94669399338E+03  0.50400001928E-02 0. -1.
    10030    2    1    2    0    0  0.00000000000E+00  0.00000000000E+00  0.25048541717E+04  0.43982421585E+04  0.36152786425E+04 0.  0.
        1    1    3    3  502    0  0.86402405978E+03 -0.13270560244E+04  0.19188393906E+03  0.15951284318E+04  0.50400001928E-02 0. -1.
       -1    1    3    3    0  502 -0.86402405978E+03  0.13270560244E+04  0.23129702327E+04  0.28031137267E+04  0.50400001928E-02 0.  1.
</event>
<event>
 5   0  0.7261233E-08  0.3636000E+04  0.7818609E-02  0.8082295E-01
        1   -1    0    0  501    0  0.00000000000E+00  0.00000000000E+00  0.27577385022E+04  0.27577385022E+04  0.50400001928E-02 0.  1.
       -1   -1    0    0    0  501  0.00000000000E+00  0.00000000000E+00 -0.11984904457E+04  0.11984904458E+04  0.50400001928E-02 0. -1.
    10030    2    1    2    0    0  0.00000000000E+00  0.00000000000E+00  0.15592480564E+04  0.39562289479E+04  0.36359995857E+04 0.  0.
        3    1    3    3  502    0 -0.16149548551E+04  0.83141129828E+03  0.86248415507E+03  0.20107717073E+04  0.10100000352E+00 0. -1.
       -3    1    3    3    0  502  0.16149548551E+04 -0.83141129828E+03  0.69676390133E+03  0.19454572406E+04  0.10100000352E+00 0.  1.
</event>
<event>
 5   0  0.7236375E-08  0.3429524E+04  0.7818609E-02  0.8130698E-01
       -1   -1    0    0    0  501  0.00000000000E+00  0.00000000000E+00  0.96756688505E+03  0.96756688507E+03  0.50400001928E-02 0.  1.
        1   -1    0    0  501    0  0.00000000000E+00  0.00000000000E+00 -0.30389711613E+04  0.30389711613E+04  0.50400001928E-02 0. -1.
    10030    2    1    2    0    0  0.00000000000E+00  0.00000000000E+00 -0.20714042763E+04  0.40065380464E+04  0.34295235006E+04 0.  0.
        1    1    3    3  502    0  0.66919982144E+03 -0.43306943525E+03  0.73797190158E+03  0.10862688729E+04  0.50400001928E-02 0.  1.
       -1    1    3    3    0  502 -0.66919982144E+03  0.43306943525E+03 -0.28093761778E+04  0.29202691735E+04  0.50400001928E-02 0. -1.
</event>
<event>
 5   0  0.7236375E-08  0.3591532E+04  0.7818609E-02  0.8092434E-01
        1   -1    0    0  501    0  0.00000000000E+00  0.00000000000E+00  0.23128450027E+04  0.23128450027E+04  0.50400001928E-02 0. -1.
       -1   -1    0    0    0  501  0.00000000000E+00  0.00000000000E+00 -0.13942894060E+04  0.13942894060E+04  0.50400001928E-02 0.  1.
    10030    2    1    2    0    0  0.00000000000E+00  0.00000000000E+00  0.91855559666E+03  0.37071344087E+04  0.35915318653E+04 0.  0.
        1    1    3    3  502    0 -0.14266650696E+04 -0.16730983753E+02  0.15848460657E+04  0.21324610661E+04  0.50400001928E-02 0. -1.
       -1    1    3    3    0  502  0.14266650696E+04  0.16730983753E+02 -0.66629046904E+03  0.15746733425E+04  0.50400001928E-02 0.  1.
</event>
<event>
 5   0  0.7347303E-08  0.3621708E+04  0.7818609E-02  0.8085537E-01
       -1   -1    0    0    0  501  0.00000000000E+00  0.00000000000E+00  0.18342004617E+04  0.18342004617E+04  0.50400001928E-02 0.  1.
        1   -1    0    0  501    0  0.00000000000E+00  0.00000000000E+00 -0.17878047006E+04  0.17878047006E+04  0.50400001928E-02 0. -1.
    10030    2    1    2    0    0  0.00000000000E+00  0.00000000000E+00  0.46395761072E+02  0.36220051624E+04  0.36217079989E+04 0.  0.
        2    1    3    3  502    0 -0.15152197271E+04 -0.99130488879E+03 -0.16235720151E+01  0.18106846329E+04  0.25500000920E-02 0.  1.
       -2    1    3    3    0  502  0.15152197271E+04  0.99130488879E+03  0.48019333087E+02  0.18113205294E+04  0.25500000920E-02 0. -1.
</event>
<event>
 5   0  0.7236375E-08  0.3614975E+04  0.7818609E-02  0.8087070E-01
       -1   -1    0    0    0  501  0.00000000000E+00  0.00000000000E+00  0.14007952851E+04  0.14007952852E+04  0.50400001928E-02 0. -1.
        1   -1    0    0  501    0  0.00000000000E+00  0.00000000000E+00 -0.23322547180E+04  0.23322547180E+04  0.50400001928E-02 0.  1.
    10030    2    1    2    0    0  0.00000000000E+00  0.00000000000E+00 -0.93145943285E+03  0.37330500031E+04  0.36149751937E+04 0.  0.
        1    1    3    3  502    0 -0.55177007461E+03  0.17209091682E+04 -0.49891712743E+03  0.18748058248E+04  0.50400001928E-02 0. -1.
       -1    1    3    3    0  502  0.55177007461E+03 -0.17209091682E+04 -0.43254230542E+03  0.18582441784E+04  0.50400001928E-02 0.  1.
</event>
<event>
 5   0  0.2198900E-07  0.3574788E+04  0.7818609E-02  0.8096291E-01
       -2   -1    0    0    0  501  0.00000000000E+00  0.00000000000E+00  0.20763920363E+04  0.20763920363E+04  0.25500000920E-02 0.  1.
        2   -1    0    0  501    0  0.00000000000E+00  0.00000000000E+00 -0.15386196843E+04  0.15386196843E+04  0.25500000920E-02 0. -1.
    10030    2    1    2    0    0  0.00000000000E+00  0.00000000000E+00  0.53777235205E+03  0.36150117206E+04  0.35747881947E+04 0.  0.
        2    1    3    3  502    0  0.29645989703E+03  0.17287763801E+04  0.61658840431E+03  0.18592303524E+04  0.25500000920E-02 0. -1.
       -2    1    3    3    0  502 -0.29645989703E+03 -0.17287763801E+04 -0.78816052259E+02  0.17557813682E+04  0.25500000920E-02 0.  1.
</event>
<event>
 5   0  0.7347303E-08  0.3600324E+04  0.7818609E-02  0.8090418E-01
       -1   -1    0    0    0  501  0.00000000000E+00  0.00000000000E+00  0.11961563779E+04  0.11961563779E+04  0.50400001928E-02 0. -1.
        1   -1    0    0  501    0  0.00000000000E+00  0.00000000000E+00 -0.27091633037E+04  0.27091633037E+04  0.50400001928E-02 0.  1.
    10030    2    1    2    0    0  0.00000000000E+00  0.00000000000E+00 -0.15130069258E+04  0.39053196817E+04  0.36003238547E+04 0.  0.
        2    1    3    3  502    0 -0.20047343386E+03 -0.55188378078E+03 -0.26023714091E+04  0.26677897698E+04  0.25500000920E-02 0.  1.
       -2    1    3    3    0  502  0.20047343386E+03  0.55188378078E+03  0.10893644833E+04  0.12375299118E+04  0.25500000920E-02 0. -1.
</event>
<event>
 5   0  0.7236375E-08  0.3586200E+04  0.7818609E-02  0.8093660E-01
        1   -1    0    0  501    0  0.00000000000E+00  0.00000000000E+00  0.17758438059E+04  0.17758438059E+04  0.50400001928E-02 0.  1.
       -1   -1    0    0    0  501  0.00000000000E+00  0.00000000000E+00 -0.18105239292E+04  0.18105239292E+04  0.50400001928E-02 0. -1.
    10030    2    1    2    0    0  0.00000000000E+00  0.00000000000E+00 -0.34680123318E+02  0.35863677350E+04  0.35862000530E+04 0.  0.
        5    1    3    3  502    0  0.13682537781E+04 -0.43039989462E+03  0.10587321576E+04  0.17827782650E+04  0.46999998093E+01 0.  1.
       -5    1    3    3    0  502 -0.13682537781E+04  0.43039989462E+03 -0.10934122809E+04  0.18035894701E+04  0.46999998093E+01 0. -1.
</event>
<event>
 5   0  0.2199902E-07  0.3623564E+04  0.7818609E-02  0.8085115E-01
        2   -1    0    0  501    0  0.00000000000E+00  0.00000000000E+00  0.12586664804E+04  0.12586664804E+04  0.25500000920E-02 0. -1.
       -2   -1    0    0    0  501  0.00000000000E+00  0.00000000000E+00 -0.26079612382E+04  0.26079612382E+04  0.25500000920E-02 0.  1.
    10030    2    1    2    0    0  0.00000000000E+00  0.00000000000E+00 -0.13492947578E+04  0.38666277187E+04  0.36235636563E+04 0.  0.
        1    1    3    3  502    0 -0.13642342402E+03 -0.43360452484E+03  0.11968302038E+04  0.12802448091E+04  0.50400001928E-02 0. -1.
       -1    1    3    3    0  502  0.13642342402E+03  0.43360452484E+03 -0.25461249616E+04  0.25863829095E+04  0.50400001928E-02 0.  1.
</event>
<event>
 5   0  0.2199902E-07  0.3596556E+04  0.7818609E-02  0.8091281E-01
       -2   -1    0    0    0  501  0.00000000000E+00  0.00000000000E+00  0.18263159894E+04  0.18263159894E+04  0.25500000920E-02 0.  1.
        2   -1    0    0  501    0  0.00000000000E+00  0.00000000000E+00 -0.17706704705E+04  0.17706704705E+04  0.25500000920E-02 0. -1.
    10030    2    1    2    0    0  0.00000000000E+00  0.00000000000E+00  0.55645518932E+02  0.35969864599E+04  0.35965560150E+04 0.  0.
        1    1    3    3  502    0 -0.16037886712E+04  0.79882624671E+03  0.18127618386E+03  0.18008671603E+04  0.50400001928E-02 0.  1.
       -1    1    3    3    0  502  0.16037886712E+04 -0.79882624671E+03 -0.12563066493E+03  0.17961192996E+04  0.50400001928E-02 0. -1.
</event>
<event>
 5   0  0.2198900E-07  0.3619907E+04  0.7818609E-02  0.8085947E-01
       -2   -1    0    0    0  501  0.00000000000E+00  0.00000000000E+00  0.28701635241E+04  0.28701635241E+04  0.25500000920E-02 0. -1.
        2   -1    0    0  501    0  0.00000000000E+00  0.00000000000E+00 -0.11413748302E+04  0.11413748302E+04  0.25500000920E-02 0.  1.
    10030    2    1    2    0    0  0.00000000000E+00  0.00000000000E+00  0.17287886939E+04  0.40115383542E+04  0.36199074048E+04 0.  0.
        2    1    3    3  502    0 -0.17736072825E+04 -0.33154465162E+03  0.10223947556E+04  0.20738600929E+04  0.25500000920E-02 0.  1.
       -2    1    3    3    0  502  0.17736072825E+04  0.33154465162E+03  0.70639393824E+03  0.19376782613E+04  0.25500000920E-02 0. -1.
</event>
<event>
 5   0  0.2342606E-07  0.3617042E+04  0.7818609E-02  0.8086599E-01
       -2   -1    0    0    0  501  0.00000000000E+00  0.00000000000E+00  0.18647869711E+04  0.18647869711E+04  0.25500000920E-02 0.  1.
        2   -1    0    0  501    0  0.00000000000E+00  0.00000000000E+00 -0.17539531115E+04  0.17539531115E+04  0.25500000920E-02 0. -1.
    10030    2    1    2    0    0  0.00000000000E+00  0.00000000000E+00  0.11083385958E+03  0.36187400826E+04  0.36170423886E+04 0.  0.
        5    1    3    3  502    0  0.58354519003E+03  0.38679525144E+03  0.17237100912E+04  0.18604661039E+04  0.46999998093E+01 0.  1.
       -5    1    3    3    0  502 -0.58354519003E+03 -0.38679525144E+03 -0.16128762316E+04  0.17582739786E+04  0.46999998093E+01 0. -1.
</event>
<event>
 5   0  0.7514289E-08  0.3586488E+04  0.7818609E-02  0.8093594E-01
       -1   -1    0    0    0  501  0.00000000000E+00  0.00000000000E+00  0.16849464317E+04  0.16849464317E+04  0.50400001928E-02 0.  1.
        1   -1    0    0  501    0  0.00000000000E+00  0.00000000000E+00 -0.19085018432E+04  0.19085018432E+04  0.50400001928E-02 0. -1.
    10030    2    1    2    0    0  0.00000000000E+00  0.00000000000E+00 -0.22355541147E+03  0.35934482750E+04  0.35864876248E+04 0.  0.
        4    1    3    3  502    0  0.62691726485E+02  0.17867446590E+04  0.27542617015E+02  0.17880567490E+04  0.12699999809E+01 0. -1.
       -4    1    3    3    0  502 -0.62691726485E+02 -0.17867446590E+04 -0.25109802849E+03  0.18053915259E+04  0.12699999809E+01 0.  1.
</event>
<event>
 5   0  0.2199902E-07  0.3603624E+04  0.7818609E-02  0.8089662E-01
        2   -1    0    0  501    0  0.00000000000E+00  0.00000000000E+00  0.22638528739E+04  0.22638528739E+04  0.25500000920E-02 0.  1.
       -2   -1    0    0    0  501  0.00000000000E+00  0.00000000000E+00 -0.14340712956E+04  0.14340712956E+04  0.25500000920E-02 0. -1.
    10030    2    1    2    0    0  0.00000000000E+00  0.00000000000E+00  0.82978157834E+03  0.36979241695E+04  0.36036239670E+04 0.  0.
        1    1    3    3  502    0 -0.55732979193E+03  0.15697428911E+04  0.11197549206E+04  0.20071273809E+04  0.50400001928E-02 0.  1.
       -1    1    3    3    0  502  0.55732979193E+03 -0.15697428911E+04 -0.28997334225E+03  0.16907967886E+04  0.50400001928E-02 0. -1.
</event>
<event>
 5   0  0.7236375E-08  0.3615568E+04  0.7818609E-02  0.8086935E-01
       -1   -1    0    0    0  501  0.00000000000E+00  0.00000000000E+00  0.13787538806E+04  0.13787538806E+04  0.50400001928E-02 0.  1.
        1   -1    0    0  501    0  0.00000000000E+00  0.00000000000E+00 -0.23703160855E+04  0.23703160855E+04  0.50400001928E-02 0. -1.
    10030    2    1    2    0    0  0.00000000000E+00  0.00000000000E+00 -0.99156220485E+03  0.37490699661E+04  0.36155677292E+04 0.  0.
        1    1    3    3  502    0  0.11764646789E+04  0.13648068077E+04 -0.34439108738E+03  0.18344950215E+04  0.50400001928E-02 0. -1.
       -1    1    3    3    0  502 -0.11764646789E+04 -0.13648068077E+04 -0.64717111747E+03  0.19145749445E+04  0.50400001928E-02 0.  1.
</event>
<event>
 5   0  0.7347303E-08  0.3603272E+04  0.7818609E-02  0.8089743E-01
        1   -1    0    0  501    0  0.00000000000E+00  0.00000000000E+00  0.16878607235E+04  0.16878607235E+04  0.50400001928E-02 0. -1.
       -1   -1    0    0    0  501  0.00000000000E+00  0.00000000000E+00 -0.19230804152E+04  0.19230804152E+04  0.50400001928E-02 0.  1.
    10030    2    1    2    0    0  0.00000000000E+00  0.00000000000E+00 -0.23521969172E+03  0.36109411387E+04  0.36032717916E+04 0.  0.
        2    1    3    3  502    0  0.98285281883E+03 -0.38753855745E+03 -0.15800672485E+04  0.19007362539E+04  0.25500000920E-02 0.  1.
       -2    1    3    3    0  502 -0.98285281883E+03  0.38753855745E+03  0.13448475568E+04  0.17102048848E+04  0.25500000920E-02 0. -1.
</event>
<event>
 5   0  0.7236375E-08  0.3599531E+04  0.7818609E-02  0.8090599E-01
       -1   -1    0    0    0  501  0.00000000000E+00  0.00000000000E+00  0.25659776007E+04  0.25659776007E+04  0.50400001928E-02 0. -1.
        1   -1    0    0  501    0  0.00000000000E+00  0.00000000000E+00 -0.12623476414E+04  0.12623476414E+04  0.50400001928E-02 0.  1.
    10030    2    1    2    0    0  0.00000000000E+00  0.00000000000E+00  0.13036299593E+04  0.38283252421E+04  0.35995309539E+04 0.  0.
        1    1    3    3  502    0 -0.39458299640E+03  0.14638388107E+04  0.16833256024E+04  0.22654149484E+04  0.50400001928E-02 0. -1.
       -1    1    3    3    0  502  0.39458299640E+03 -0.14638388107E+04 -0.37969564311E+03  0.15629102937E+04  0.50400001928E-02 0.  1.
</event>
<event>
 5   0  0.7236375E-08  0.3605070E+04  0.7818609E-02  0.8089331E-01
       -1   -1    0    0    0  501  0.00000000000E+00  0.00000000000E+00  0.14415375321E+04  0.14415375321E+04  0.50400001928E-02 0.  1.
        1   -1    0    0  501    0  0.00000000000E+00  0.00000000000E+00 -0.22539356811E+04  0.22539356811E+04  0.50400001928E-02 0. -1.
    10030    2    1    2    0    0  0.00000000000E+00  0.00000000000E+00 -0.81239814893E+03  0.36954732132E+04  0.36050702513E+04 0.  0.
        5    1    3    3  502    0  0.10955907745E+04 -0.13119457729E+04  0.18050837189E+03  0.17187571726E+04  0.46999998093E+01 0.  1.
       -5    1    3    3    0  502 -0.10955907745E+04  0.13119457729E+04 -0.99290652082E+03  0.19767160406E+04  0.46999998093E+01 0. -1.
</event>
<event>
 5   0  0.7347303E-08  0.3594315E+04  0.7818609E-02  0.8091795E-01
       -1   -1    0    0    0  501  0.00000000000E+00  0.00000000000E+00  0.19216749408E+04  0.19216749408E+04  0.50400001928E-02 0. -1.
        1   -1    0    0  501    0  0.00000000000E+00  0.00000000000E+00 -0.16807085185E+04  0.16807085185E+04  0.50400001928E-02 0.  1.
    10030    2    1    2    0    0  0.00000000000E+00  0.00000000000E+00  0.24096642232E+03  0.36023834594E+04  0.35943152020E+04 0.  0.
        2    1    3    3  502    0  0.96978084307E+03  0.48487833060E+03  0.15569462713E+04  0.18972779371E+04  0.25500000920E-02 0. -1.
       -2    1    3    3    0  502 -0.96978084307E+03 -0.48487833060E+03 -0.13159798490E+04  0.17051055222E+04  0.25500000920E-02 0.  1.
</event>
<event>
 5   0  0.2199902E-07  0.3600834E+04  0.7818609E-02  0.8090301E-01
        2   -1    0    0  501    0  0.00000000000E+00  0.00000000000E+00  0.29587837943E+04  0.29587837944E+04  0.25500000920E-02 0.  1.
       -2   -1    0    0    0  501  0.00000000000E+00  0.00000000000E+00 -0.10955516725E+04  0.10955516725E+04  0.25500000920E-02 0. -1.
    10030    2    1    2    0    0  0.00000000000E+00  0.00000000000E+00  0.18632321219E+04  0.40543354668E+04  0.36008335337E+04 0.  0.
        1    1    3    3  502    0  0.38624866027E+03  0.12276968079E+04 -0.48594337682E+03  0.13757065258E+04  0.50400001928E-02 0. -1.
       -1    1    3    3    0  502 -0.38624866027E+03 -0.12276968079E+04  0.23491754987E+04  0.26786289410E+04  0.50400001928E-02 0.  1.
</event>
<event>
 5   0  0.2238968E-07  0.3593517E+04  0.7818609E-02  0.8091978E-01
       -2   -1    0    0    0  501  0.00000000000E+00  0.00000000000E+00  0.17054068649E+04  0.17054068649E+04  0.25500000920E-02 0.  1.
        2   -1    0    0  501    0  0.00000000000E+00  0.00000000000E+00 -0.18930038927E+04  0.18930038927E+04  0.25500000920E-02 0. -1.
    10030    2    1    2    0    0  0.00000000000E+00  0.00000000000E+00 -0.18759702773E+03  0.35984107576E+04  0.35935174044E+04 0.  0.
        3    1    3    3  502    0  0.17055594682E+04  0.29642038610E+03  0.38804658790E+03  0.17740852035E+04  0.10100000352E+00 0. -1.
       -3    1    3    3    0  502 -0.17055594682E+04 -0.29642038610E+03 -0.57564361563E+03  0.18243255541E+04  0.10100000352E+00 0.  1.
</event>
<event>
 5   0  0.7236375E-08  0.3589864E+04  0.7818609E-02  0.8092818E-01
       -1   -1    0    0    0  501  0.00000000000E+00  0.00000000000E+00  0.14025316195E+04  0.14025316195E+04  0.50400001928E-02 0. -1.
        1   -1    0    0  501    0  0.00000000000E+00  0.00000000000E+00 -0.22971176285E+04  0.22971176285E+04  0.50400001928E-02 0.  1.
    10030    2    1    2    0    0  0.00000000000E+00  0.00000000000E+00 -0.89458600899E+03  0.36996492480E+04  0.35898635672E+04 0.  0.
        1    1    3    3  502    0 -0.76967161643E+03  0.14704167156E+04 -0.11517623397E+04  0.20201673697E+04  0.50400001928E-02 0.  1.
       -1    1    3    3    0  502  0.76967161643E+03 -0.14704167156E+04  0.25717633069E+03  0.16794818783E+04  0.50400001928E-02 0. -1.
</event>
<event>
 5   0  0.7347303E-08  0.3589406E+04  0.7818609E-02  0.8092923E-01
       -1   -1    0    0    0  501  0.00000000000E+00  0.00000000000E+00  0.29453994660E+04  0.29453994660E+04  0.50400001928E-02 0.  1.
        1   -1    0    0  501    0  0.00000000000E+00  0.00000000000E+00 -0.10935556591E+04  0.10935556591E+04  0.50400001928E-02 0. -1.
    10030    2    1    2    0    0  0.00000000000E+00  0.00000000000E+00  0.18518438068E+04  0.40389551251E+04  0.35894056636E+04 0.  0.
        2    1    3    3  502    0  0.14499323374E+04  0.10479570914E+04  0.10867978974E+04  0.20932385240E+04  0.25500000920E-02 0. -1.
       -2    1    3    3    0  502 -0.14499323374E+04 -0.10479570914E+04  0.76504590943E+03  0.19457166011E+04  0.25500000920E-02 0.  1.
</event>
<event>
 5   0  0.7236375E-08  0.3592667E+04  0.7818609E-02  0.8092173E-01
        1   -1    0    0  501    0  0.00000000000E+00  0.00000000000E+00  0.32292113157E+04  0.32292113157E+04  0.50400001928E-02 0.  1.
       -1   -1    0    0    0  501  0.00000000000E+00  0.00000000000E+00 -0.99925766495E+03  0.99925766497E+03  0.50400001928E-02 0. -1.
    10030    2    1    2    0    0  0.00000000000E+00  0.00000000000E+00  0.22299536507E+04  0.42284689807E+04  0.35926670644E+04 0.  0.
        1    1    3    3  502    0 -0.34643716821E+03  0.56280441246E+03  0.30809242897E+04  0.31510096790E+04  0.50400001928E-02 0.  1.
       -1    1    3    3    0  502  0.34643716821E+03 -0.56280441246E+03 -0.85097063900E+03  0.10774593016E+04  0.50400001928E-02 0. -1.
</event>
<event>
 5   0  0.7347303E-08  0.3624121E+04  0.7818609E-02  0.8084989E-01
       -1   -1    0    0    0  501  0.00000000000E+00  0.00000000000E+00  0.17109251251E+04  0.17109251251E+04  0.50400001928E-02 0.  1.
        1   -1    0    0  501    0  0.00000000000E+00  0.00000000000E+00 -0.19191739268E+04  0.19191739268E+04  0.50400001928E-02 0. -1.
    10030    2    1    2    0    0  0.00000000000E+00  0.00000000000E+00 -0.20824880172E+03  0.36300990519E+04  0.36241207986E+04 0.  0.
        2    1    3    3  502    0  0.89624378623E+03  0.15260188239E+04  0.28584611222E+03  0.17926779898E+04  0.25500000920E-02 0.  1.
       -2    1    3    3    0  502 -0.89624378623E+03 -0.15260188239E+04 -0.49409491394E+03  0.18374210621E+04  0.25500000920E-02 0. -1.
</event>
<event>
 5   0  0.7261233E-08  0.3604890E+04  0.7818609E-02  0.8089373E-01
        1   -1    0    0  501    0  0.00000000000E+00  0.00000000000E+00  0.19091081981E+04  0.19091081982E+04  0.50400001928E-02 0. -1.
       -1   -1    0    0    0  501  0.00000000000E+00  0.00000000000E+00 -0.17017406834E+04  0.17017406834E+04  0.50400001928E-02 0.  1.
    10030    2    1    2    0    0  0.00000000000E+00  0.00000000000E+00  0.20736751475E+03  0.36108488816E+04  0.36048895072E+04 0.  0.
        3    1    3    3  502    0 -0.10769216375E+04 -0.48781787372E+03  0.14664771478E+04  0.18836883304E+04  0.10100000352E+00 0. -1.
       -3    1    3    3    0  502  0.10769216375E+04  0.48781787372E+03 -0.12591096330E+04  0.17271605511E+04  0.10100000352E+00 0.  1.
</event>
<event>
 5   0  0.2199902E-07  0.3581678E+04  0.7818609E-02  0.8094701E-01
        2   -1    0    0  501    0  0.00000000000E+00  0.00000000000E+00  0.26472901627E+04  0.26472901627E+04  0.25500000920E-02 0. -1.
       -2   -1    0    0    0  501  0.00000000000E+00  0.00000000000E+00 -0.12114671500E+04  0.12114671501E+04  0.25500000920E-02 0.  1.
    10030    2    1    2    0    0  0.00000000000E+00  0.00000000000E+00  0.14358230127E+04  0.38587573128E+04  0.35816784159E+04 0.  0.
        1    1    3    3  502    0  0.16051563922E+04  0.40160308692E+03  0.14559566169E+04  0.22040013052E+04  0.50400001928E-02 0. -1.
       -1    1    3    3    0  502 -0.16051563922E+04 -0.40160308692E+03 -0.20133604244E+02  0.16547560076E+04  0.50400001928E-02 0.  1.
</event>
<event>
 5   0  0.7236375E-08  0.3614209E+04  0.7818609E-02  0.8087245E-01
        1   -1    0    0  501    0  0.00000000000E+00  0.00000000000E+00  0.20229039975E+04  0.20229039975E+04  0.50400001928E-02 0.  1.
       -1   -1    0    0    0  501  0.00000000000E+00  0.00000000000E+00 -0.16143257163E+04  0.16143257163E+04  0.50400001928E-02 0. -1.
    10030    2    1    2    0    0  0.00000000000E+00  0.00000000000E+00  0.40857828119E+03  0.36372297138E+04  0.36142085965E+04 0.  0.
        5    1    3    3  502    0  0.17257615547E+04  0.52165737512E+03  0.80115632227E+02  0.18046661645E+04  0.46999998093E+01 0.  1.
       -5    1    3    3    0  502 -0.17257615547E+04 -0.52165737512E+03  0.32846264896E+03  0.18325635493E+04  0.46999998093E+01 0. -1.
</event>
<event>
 5   0  0.2198900E-07  0.3668277E+04  0.7818609E-02  0.8075029E-01
       -2   -1    0    0    0  501  0.00000000000E+00  0.00000000000E+00  0.12340400160E+04  0.12340400160E+04  0.25500000920E-02 0. -1.
        2   -1    0    0  501    0  0.00000000000E+00  0.00000000000E+00 -0.27260580394E+04  0.27260580394E+04  0.25500000920E-02 0.  1.
    10030    2    1    2    0    0  0.00000000000E+00  0.00000000000E+00 -0.14920180234E+04  0.39600980554E+04  0.36682773649E+04 0.  0.
        2    1    3    3  502    0 -0.17305996901E+04 -0.14762267779E+03 -0.13822098939E+04  0.22197459164E+04  0.25500000920E-02 0.  1.
       -2    1    3    3    0  502  0.17305996901E+04  0.14762267779E+03 -0.10980812955E+03  0.17403521390E+04  0.25500000920E-02 0. -1.
</event>
<event>
 5   0  0.7347303E-08  0.3614500E+04  0.7818609E-02  0.8087178E-01
        1   -1    0    0  501    0  0.00000000000E+00  0.00000000000E+00  0.17301979665E+04  0.17301979665E+04  0.50400001928E-02 0.  1.
       -1   -1    0    0    0  501  0.00000000000E+00  0.00000000000E+00 -0.18877335774E+04  0.18877335774E+04  0.50400001928E-02 0. -1.
    10030    2    1    2    0    0  0.00000000000E+00  0.00000000000E+00 -0.15753561082E+03  0.36179315439E+04  0.36145001297E+04 0.  0.
        2    1    3    3  502    0  0.12440441421E+03  0.47117681560E+03 -0.18207270445E+04  0.18848159116E+04  0.25500000920E-02 0. -1.
       -2    1    3    3    0  502 -0.12440441421E+03 -0.47117681560E+03  0.16631914337E+04  0.17331156323E+04  0.25500000920E-02 0.  1.
</event>
<event>
 5   0  0.2238968E-07  0.3590397E+04  0.7818609E-02  0.8092695E-01
       -2   -1    0    0    0  501  0.00000000000E+00  0.00000000000E+00  0.10947196871E+04  0.10947196871E+04  0.25500000920E-02 0.  1.
        2   -1    0    0  501    0  0.00000000000E+00  0.00000000000E+00 -0.29438922448E+04  0.29438922448E+04  0.25500000920E-02 0. -1.
    10030    2    1    2    0    0  0.00000000000E+00  0.00000000000E+00 -0.18491725577E+04  0.40386119319E+04  0.35903965224E+04 0.  0.
        3    1    3    3  502    0  0.12890439536E+04  0.99775645625E+03 -0.17705241522E+04  0.24066383285E+04  0.10100000352E+00 0.  1.
       -3    1    3    3    0  502 -0.12890439536E+04 -0.99775645625E+03 -0.78648405456E+02  0.16319736034E+04  0.10100000352E+00 0. -1.
</event>
<event>
 5   0  0.7236375E-08  0.3596907E+04  0.7818609E-02  0.8091200E-01
        1   -1    0    0  501    0  0.00000000000E+00  0.00000000000E+00  0.10751430246E+04  0.10751430247E+04  0.50400001928E-02 0.  1.
       -1   -1    0    0    0  501  0.00000000000E+00  0.00000000000E+00 -0.30083771381E+04  0.30083771381E+04  0.50400001928E-02 0. -1.
    10030    2    1    2    0    0  0.00000000000E+00  0.00000000000E+00 -0.19332341134E+04  0.40835201628E+04  0.35969073914E+04 0.  0.
        1    1    3    3  502    0 -0.10375779842E+04 -0.29939118195E+03 -0.25993123156E+04  0.28147162676E+04  0.50400001928E-02 0. -1.
       -1    1    3    3    0  502  0.10375779842E+04  0.29939118195E+03  0.66607820212E+03  0.12688038952E+04  0.50400001928E-02 0.  1.
</event>
<event>
 5   0  0.2238968E-07  0.3666362E+04  0.7818609E-02  0.8075458E-01
       -2   -1    0    0    0  501  0.00000000000E+00  0.00000000000E+00  0.13015356417E+04  0.13015356417E+04  0.25500000920E-02 0.  1.
        2   -1    0    0  501    0  0.00000000000E+00  0.00000000000E+00 -0.25819905379E+04  0.25819905379E+04  0.25500000920E-02 0. -1.
    10030    2    1    2    0    0  0.00000000000E+00  0.00000000000E+00 -0.12804548962E+04  0.38835261795E+04  0.36663620724E+04 0.  0.
        3    1    3    3  502    0 -0.22394379551E+03  0.94944901603E+03  0.10037832459E+04  0.13997089242E+04  0.10100000352E+00 0.  1.
       -3    1    3    3    0  502  0.22394379551E+03 -0.94944901603E+03 -0.22842381421E+04  0.24838172553E+04  0.10100000352E+00 0. -1.
</event>
<event>
 5   0  0.7261233E-08  0.3628374E+04  0.7818609E-02  0.8084023E-01
        1   -1    0    0  501    0  0.00000000000E+00  0.00000000000E+00  0.14857263532E+04  0.14857263532E+04  0.50400001928E-02 0.  1.
       -1   -1    0    0    0  501  0.00000000000E+00  0.00000000000E+00 -0.22152630215E+04  0.22152630215E+04  0.50400001928E-02 0. -1.
    10030    2    1    2    0    0  0.00000000000E+00  0.00000000000E+00 -0.72953666829E+03  0.37009893748E+04  0.36283740989E+04 0.  0.
        3    1    3    3  502    0  0.59834860266E+03  0.10187502357E+04 -0.17690570160E+04  0.21273071779E+04  0.10100000352E+00 0. -1.
       -3    1    3    3    0  502 -0.59834860266E+03 -0.10187502357E+04  0.10395203477E+04  0.15736821968E+04  0.10100000352E+00 0.  1.
</event>
<event>
 5   0  0.7236375E-08  0.3591806E+04  0.7818609E-02  0.8092371E-01
       -1   -1    0    0    0  501  0.00000000000E+00  0.00000000000E+00  0.18381635831E+04  0.18381635831E+04  0.50400001928E-02 0.  1.
        1   -1    0    0  501    0  0.00000000000E+00  0.00000000000E+00 -0.17546142927E+04  0.17546142927E+04  0.50400001928E-02 0. -1.
    10030    2    1    2    0    0  0.00000000000E+00  0.00000000000E+00  0.83549290364E+02  0.35927778758E+04  0.35918062839E+04 0.  0.
        5    1    3    3  502    0 -0.11783690370E+04 -0.98746302002E+03  0.97025480087E+03  0.18179805477E+04  0.46999998093E+01 0.  1.
       -5    1    3    3    0  502  0.11783690370E+04  0.98746302002E+03 -0.88670551051E+03  0.17747973281E+04  0.46999998093E+01 0. -1.
</event>
<event>
 5   0  0.7261233E-08  0.3595149E+04  0.7818609E-02  0.8091604E-01
        1   -1    0    0  501    0  0.00000000000E+00  0.00000000000E+00  0.19090994689E+04  0.19090994689E+04  0.50400001928E-02 0. -1.
       -1   -1    0    0    0  501  0.00000000000E+00  0.00000000000E+00 -0.16925647076E+04  0.16925647076E+04  0.50400001928E-02 0.  1.
    10030    2    1    2    0    0  0.00000000000E+00  0.00000000000E+00  0.21653476129E+03  0.36016641766E+04  0.35951491677E+04 0.  0.
        3    1    3    3  502    0 -0.93625344985E+03 -0.59562515393E+03  0.15250205434E+04  0.18860083548E+04  0.10100000352E+00 0. -1.
       -3    1    3    3    0  502  0.93625344985E+03  0.59562515393E+03 -0.13084857822E+04  0.17156558217E+04  0.10100000352E+00 0.  1.
</event>
<event>
 5   0  0.2342606E-07  0.3600604E+04  0.7818609E-02  0.8090353E-01
        2   -1    0    0  501    0  0.00000000000E+00  0.00000000000E+00  0.17815023326E+04  0.17815023326E+04  0.25500000920E-02 0. -1.
       -2   -1    0    0    0  501  0.00000000000E+00  0.00000000000E+00 -0.18192999514E+04  0.18192999514E+04  0.25500000920E-02 0.  1.
    10030    2    1    2    0    0  0.00000000000E+00  0.00000000000E+00 -0.37797618792E+02  0.36008022840E+04  0.36006038978E+04 0.  0.
        5    1    3    3  502    0  0.50983595607E+03  0.28081959905E+02  0.17075635128E+04  0.17822784684E+04  0.46999998093E+01 0. -1.
       -5    1    3    3    0  502 -0.50983595607E+03 -0.28081959905E+02 -0.17453611316E+04  0.18185238157E+04  0.46999998093E+01 0.  1.
</event>
<event>
 5   0  0.2199902E-07  0.3602328E+04  0.7818609E-02  0.8089959E-01
       -2   -1    0    0    0  501  0.00000000000E+00  0.00000000000E+00  0.24803866704E+04  0.24803866704E+04  0.25500000920E-02 0.  1.
        2   -1    0    0  501    0  0.00000000000E+00  0.00000000000E+00 -0.13079376231E+04  0.13079376231E+04  0.25500000920E-02 0. -1.
    10030    2    1    2    0    0  0.00000000000E+00  0.00000000000E+00  0.11724490473E+04  0.37883242935E+04  0.36023276065E+04 0.  0.
        1    1    3    3  502    0 -0.84791096271E+03  0.86117501565E+03 -0.81825230454E+03  0.14594904050E+04  0.50400001928E-02 0. -1.
       -1    1    3    3    0  502  0.84791096271E+03 -0.86117501565E+03  0.19907013518E+04  0.23288338886E+04  0.50400001928E-02 0.  1.
</event>
<event>
 5   0  0.2199902E-07  0.3583535E+04  0.7818609E-02  0.8094274E-01
       -2   -1    0    0    0  501  0.00000000000E+00  0.00000000000E+00  0.20065360547E+04  0.20065360547E+04  0.25500000920E-02 0.  1.
        2   -1    0    0  501    0  0.00000000000E+00  0.00000000000E+00 -0.15999864774E+04  0.15999864774E+04  0.25500000920E-02 0. -1.
    10030    2    1    2    0    0  0.00000000000E+00  0.00000000000E+00  0.40654957729E+03  0.36065225320E+04  0.35835348771E+04 0.  0.
        1    1    3    3  502    0 -0.85768816089E+03  0.14079398035E+04 -0.50301553152E+03  0.17236438427E+04  0.50400001928E-02 0. -1.
       -1    1    3    3    0  502  0.85768816089E+03 -0.14079398035E+04  0.90956510881E+03  0.18828786893E+04  0.50400001928E-02 0.  1.
</event>
<event>
 5   0  0.7347303E-08  0.3610821E+04  0.7818609E-02  0.8088018E-01
       -1   -1    0    0    0  501  0.00000000000E+00  0.00000000000E+00  0.13507375811E+04  0.13507375811E+04  0.50400001928E-02 0. -1.
        1   -1    0    0  501    0  0.00000000000E+00  0.00000000000E+00 -0.24131308633E+04  0.24131308633E+04  0.50400001928E-02 0.  1.
    10030    2    1    2    0    0  0.00000000000E+00  0.00000000000E+00 -0.10623932822E+04  0.37638684444E+04  0.36108207074E+04 0.  0.
        2    1    3    3  502    0 -0.72675788243E+03  0.40374102326E+02  0.11910126496E+04  0.13958217004E+04  0.25500000920E-02 0. -1.
       -2    1    3    3    0  502  0.72675788243E+03 -0.40374102326E+02 -0.22534059319E+04  0.23680467440E+04  0.25500000920E-02 0.  1.
</event>
<event>
 5   0  0.2342606E-07  0.3597273E+04  0.7818609E-02  0.8091117E-01
        2   -1    0    0  501    0  0.00000000000E+00  0.00000000000E+00  0.19955115386E+04  0.19955115386E+04  0.25500000920E-02 0. -1.
       -2   -1    0    0    0  501  0.00000000000E+00  0.00000000000E+00 -0.16211850352E+04  0.16211850352E+04  0.25500000920E-02 0.  1.
    10030    2    1    2    0    0  0.00000000000E+00  0.00000000000E+00  0.37432650347E+03  0.36166965738E+04  0.35972731027E+04 0.  0.
        5    1    3    3  502    0 -0.15903124068E+04 -0.40626573025E+03  0.92661114551E+03  0.18848808184E+04  0.46999998093E+01 0.  1.
       -5    1    3    3    0  502  0.15903124068E+04  0.40626573025E+03 -0.55228464204E+03  0.17318157554E+04  0.46999998093E+01 0. -1.
</event>
<event>
 5   0  0.2198900E-07  0.3637835E+04  0.7818609E-02  0.8081880E-01
       -2   -1    0    0    0  501  0.00000000000E+00  0.00000000000E+00  0.13682117677E+04  0.13682117677E+04  0.25500000920E-02 0. -1.
        2   -1    0    0  501    0  0.00000000000E+00  0.00000000000E+00 -0.24180910331E+04  0.24180910331E+04  0.25500000920E-02 0.  1.
    10030    2    1    2    0    0  0.00000000000E+00  0.00000000000E+00 -0.10498792654E+04  0.37863028008E+04  0.36378348543E+04 0.  0.
        2    1    3    3  502    0 -0.10744728999E+04 -0.28496199298E+03 -0.20234074614E+04  0.23086517938E+04  0.25500000920E-02 0.  1.
       -2    1    3    3    0  502  0.10744728999E+04  0.28496199298E+03  0.97352819597E+03  0.14776510070E+04  0.25500000920E-02 0. -1.
</event>
<event>
 5   0  0.7236375E-08  0.3600846E+04  0.7818609E-02  0.8090298E-01
       -1   -1    0    0    0  501  0.00000000000E+00  0.00000000000E+00  0.11890000768E+04  0.11890000768E+04  0.50400001928E-02 0. -1.
        1   -1    0    0  501    0  0.00000000000E+00  0.00000000000E+00 -0.27262593741E+04  0.27262593741E+04  0.50400001928E-02 0.  1.
    10030    2    1    2    0    0  0.00000000000E+00  0.00000000000E+00 -0.15372592973E+04  0.39152594509E+04  0.36008457924E+04 0.  0.
        5    1    3    3  502    0 -0.42341955183E+01 -0.10589718530E+04  0.81455008835E+03  0.13360214258E+04  0.46999998093E+01 0. -1.
       -5    1    3    3    0  502  0.42341955183E+01  0.10589718530E+04 -0.23518093856E+04  0.25792380251E+04  0.46999998093E+01 0.  1.
</event>
<event>
 5   0  0.7514289E-08  0.3530184E+04  0.7818609E-02  0.8106674E-01
       -1   -1    0    0    0  501  0.00000000000E+00  0.00000000000E+00  0.19409074660E+04  0.19409074660E+04  0.50400001928E-02 0. -1.
        1   -1    0    0  501    0  0.00000000000E+00  0.00000000000E+00 -0.16052025175E+04  0.16052025175E+04  0.50400001928E-02 0.  1.
    10030    2    1    2    0    0  0.00000000000E+00  0.00000000000E+00  0.33570494852E+03  0.35461099835E+04  0.35301838766E+04 0.  0.
        4    1    3    3  502    0  0.15520226204E+03  0.14656509263E+04 -0.80777974744E+03  0.16806933430E+04  0.12699999809E+01 0.  1.
       -4    1    3    3    0  502 -0.15520226204E+03 -0.14656509263E+04  0.11434846960E+04  0.18654166405E+04  0.12699999809E+01 0. -1.
</event>
<event>
 5   0  0.7261233E-08  0.3594463E+04  0.7818609E-02  0.8091761E-01
        1   -1    0    0  501    0  0.00000000000E+00  0.00000000000E+00  0.19515825257E+04  0.19515825257E+04  0.50400001928E-02 0.  1.
       -1   -1    0    0    0  501  0.00000000000E+00  0.00000000000E+00 -0.16550877469E+04  0.16550877469E+04  0.50400001928E-02 0. -1.
    10030    2    1    2    0    0  0.00000000000E+00  0.00000000000E+00  0.29649477887E+03  0.36066702726E+04  0.35944625887E+04 0.  0.
        3    1    3    3  502    0  0.53884669161E+03  0.11241749362E+04  0.14472155366E+04  0.19101198559E+04  0.10100000352E+00 0.  1.
       -3    1    3    3    0  502 -0.53884669161E+03 -0.11241749362E+04 -0.11507207577E+04  0.16965504168E+04  0.10100000352E+00 0. -1.
</event>
<event>
 5   0  0.7236375E-08  0.3610569E+04  0.7818609E-02  0.8088075E-01
        1   -1    0    0  501    0  0.00000000000E+00  0.00000000000E+00  0.12686578129E+04  0.12686578129E+04  0.50400001928E-02 0. -1.
       -1   -1    0    0    0  501  0.00000000000E+00  0.00000000000E+00 -0.25688972246E+04  0.25688972246E+04  0.50400001928E-02 0.  1.
    10030    2    1    2    0    0  0.00000000000E+00  0.00000000000E+00 -0.13002394117E+04  0.38375550374E+04  0.36105686723E+04 0.  0.
        5    1    3    3  502    0  0.41841178311E+03  0.68380977526E+03  0.10690873732E+04  0.13362762179E+04  0.46999998093E+01 0. -1.
       -5    1    3    3    0  502 -0.41841178311E+03 -0.68380977526E+03 -0.23693267849E+04  0.25012788195E+04  0.46999998093E+01 0.  1.
</event>
<event>
 5   0  0.2198900E-07  0.3607121E+04  0.7818609E-02  0.8088863E-01
       -2   -1    0    0    0  501  0.00000000000E+00  0.00000000000E+00  0.17104754792E+04  0.17104754792E+04  0.25500000920E-02 0. -1.
        2   -1    0    0  501    0  0.00000000000E+00  0.00000000000E+00 -0.19017107888E+04  0.19017107888E+04  0.25500000920E-02 0.  1.
    10030    2    1    2    0    0  0.00000000000E+00  0.00000000000E+00 -0.19123530953E+03  0.36121862680E+04  0.36071205540E+04 0.  0.
        2    1    3    3  502    0 -0.57032477921E+03  0.15350574913E+04  0.66119353171E+03  0.17660262574E+04  0.25500000920E-02 0. -1.
       -2    1    3    3    0  502  0.57032477921E+03 -0.15350574913E+04 -0.85242884125E+03  0.18461600106E+04  0.25500000920E-02 0.  1.
</event>
<event>
 5   0  0.2198900E-07  0.3622507E+04  0.7818609E-02  0.8085356E-01
        2   -1    0    0  501    0  0.00000000000E+00  0.00000000000E+00  0.27257897927E+04  0.27257897927E+04  0.25500000920E-02 0. -1.
       -2   -1    0    0    0  501  0.00000000000E+00  0.00000000000E+00 -0.12035555742E+04  0.12035555742E+04  0.25500000920E-02 0.  1.
    10030    2    1    2    0    0  0.00000000000E+00  0.00000000000E+00  0.15222342185E+04  0.39293453669E+04  0.36225071424E+04 0.  0.
        2    1    3    3  502    0 -0.17835326747E+04 -0.56061263368E+02  0.10980878808E+04  0.20952156598E+04  0.25500000920E-02 0. -1.
       -2    1    3    3    0  502  0.17835326747E+04  0.56061263368E+02  0.42414633769E+03  0.18341297072E+04  0.25500000920E-02 0.  1.
</event>
<event>
 5   0  0.7514289E-08  0.3543256E+04  0.7818609E-02  0.8103615E-01
        1   -1    0    0  501    0  0.00000000000E+00  0.00000000000E+00  0.23675642844E+04  0.23675642844E+04  0.50400001928E-02 0.  1.
       -1   -1    0    0    0  501  0.00000000000E+00  0.00000000000E+00 -0.13256938859E+04  0.13256938859E+04  0.50400001928E-02 0. -1.
    10030    2    1    2    0    0  0.00000000000E+00  0.00000000000E+00  0.10418703985E+04  0.36932581703E+04  0.35432558453E+04 0.  0.
        4    1    3    3  502    0  0.39357260191E+03  0.10653094422E+04 -0.89636402852E+03  0.14468081024E+04  0.12699999809E+01 0. -1.
       -4    1    3    3    0  502 -0.39357260191E+03 -0.10653094422E+04  0.19382344270E+04  0.22464500679E+04  0.12699999809E+01 0.  1.
</event>
<event>
 5   0  0.7236375E-08  0.3586068E+04  0.7818609E-02  0.8093690E-01
       -1   -1    0    0    0  501  0.00000000000E+00  0.00000000000E+00  0.16862437662E+04  0.16862437662E+04  0.50400001928E-02 0. -1.
        1   -1    0    0  501    0  0.00000000000E+00  0.00000000000E+00 -0.19065873722E+04  0.19065873722E+04  0.50400001928E-02 0.  1.
    10030    2    1    2    0    0  0.00000000000E+00  0.00000000000E+00 -0.22034360603E+03  0.35928311384E+04  0.35860680814E+04 0.  0.
        1    1    3    3  502    0 -0.64907502216E+03 -0.13415974304E+04  0.88859793018E+03  0.17351623357E+04  0.50400001928E-02 0. -1.
       -1    1    3    3    0  502  0.64907502216E+03  0.13415974304E+04 -0.11089415362E+04  0.18576688027E+04  0.50400001928E-02 0.  1.
</event>
<event>
 5   0  0.7236375E-08  0.3596814E+04  0.7818609E-02  0.8091222E-01
       -1   -1    0    0    0  501  0.00000000000E+00  0.00000000000E+00  0.15683266115E+04  0.15683266116E+04  0.50400001928E-02 0.  1.
        1   -1    0    0  501    0  0.00000000000E+00  0.00000000000E+00 -0.20622416106E+04  0.20622416106E+04  0.50400001928E-02 0. -1.
    10030    2    1    2    0    0  0.00000000000E+00  0.00000000000E+00 -0.49391499901E+03  0.36305682221E+04  0.35968143668E+04 0.  0.
        1    1    3    3  502    0 -0.11377504843E+04 -0.19778990514E+03  0.11446286453E+04  0.16259679414E+04  0.50400001928E-02 0.  1.
       -1    1    3    3    0  502  0.11377504843E+04  0.19778990514E+03 -0.16385436443E+04  0.20046002807E+04  0.50400001928E-02 0. -1.
</event>
<event>
 5   0  0.7236375E-08  0.3583546E+04  0.7818609E-02  0.8094271E-01
       -1   -1    0    0    0  501  0.00000000000E+00  0.00000000000E+00  0.12559961177E+04  0.12559961178E+04  0.50400001928E-02 0.  1.
        1   -1    0    0  501    0  0.00000000000E+00  0.00000000000E+00 -0.25560994221E+04  0.25560994221E+04  0.50400001928E-02 0. -1.
    10030    2    1    2    0    0  0.00000000000E+00  0.00000000000E+00 -0.13001033044E+04  0.38120955399E+04  0.35835462608E+04 0.  0.
        5    1    3    3  502    0  0.71981768426E+03 -0.12195051771E+04  0.51773103275E+03  0.15077791244E+04  0.46999998093E+01 0.  1.
       -5    1    3    3    0  502 -0.71981768426E+03  0.12195051771E+04 -0.18178343371E+04  0.23043164155E+04  0.46999998093E+01 0. -1.
</event>
<event>
 5   0  0.2309391E-07  0.3601978E+04  0.7818609E-02  0.8090039E-01
        2   -1    0    0  501    0  0.00000000000E+00  0.00000000000E+00  0.12166028672E+04  0.12166028672E+04  0.25500000920E-02 0.  1.
       -2   -1    0    0    0  501  0.00000000000E+00  0.00000000000E+00 -0.26660808361E+04  0.26660808361E+04  0.25500000920E-02 0. -1.
    10030    2    1    2    0    0  0.00000000000E+00  0.00000000000E+00 -0.14494779688E+04  0.38826837033E+04  0.36019781173E+04 0.  0.
        4    1    3    3  502    0  0.11434261217E+04  0.89442380577E+03 -0.18737055495E+04  0.23702724188E+04  0.12699999809E+01 0. -1.
       -4    1    3    3    0  502 -0.11434261217E+04 -0.89442380577E+03  0.42422758073E+03  0.15124112845E+04  0.12699999809E+01 0.  1.
</event>
<event>
 5   0  0.2238968E-07  0.3592051E+04  0.7818609E-02  0.8092315E-01
       -2   -1    0    0    0  501  0.00000000000E+00  0.00000000000E+00  0.23098765456E+04  0.23098765456E+04  0.25500000920E-02 0. -1.
        2   -1    0    0  501    0  0.00000000000E+00  0.00000000000E+00 -0.13964851321E+04  0.13964851321E+04  0.25500000920E-02 0.  1.
    10030    2    1    2    0    0  0.00000000000E+00  0.00000000000E+00  0.91339141351E+03  0.37063616777E+04  0.35920513654E+04 0.  0.
        3    1    3    3  502    0  0.14776503444E+03  0.17841848528E+04  0.60463967288E+03  0.18896399759E+04  0.10100000352E+00 0. -1.
       -3    1    3    3    0  502 -0.14776503444E+03 -0.17841848528E+04  0.30875174062E+03  0.18167217018E+04  0.10100000352E+00 0.  1.
</event>
<event>
 5   0  0.2199902E-07  0.3624801E+04  0.7818609E-02  0.8084834E-01
       -2   -1    0    0    0  501  0.00000000000E+00  0.00000000000E+00  0.16831103397E+04  0.16831103397E+04  0.25500000920E-02 0.  1.
        2   -1    0    0  501    0  0.00000000000E+00  0.00000000000E+00 -0.19516217913E+04  0.19516217913E+04  0.25500000920E-02 0. -1.
    10030    2    1    2    0    0  0.00000000000E+00  0.00000000000E+00 -0.26851145169E+03  0.36347321310E+04  0.36248005827E+04 0.  0.
        1    1    3    3  502    0  0.88828607536E+03  0.45782878993E+03  0.13818841544E+04  0.17053630607E+04  0.50400001928E-02 0.  1.
       -1    1    3    3    0  502 -0.88828607536E+03 -0.45782878993E+03 -0.16503956061E+04  0.19293690703E+04  0.50400001928E-02 0. -1.
</event>
<event>
 5   0  0.2238968E-07  0.3551843E+04  0.7818609E-02  0.8101613E-01
        2   -1    0    0  501    0  0.00000000000E+00  0.00000000000E+00  0.25011373257E+04  0.25011373257E+04  0.25500000920E-02 0.  1.
       -2   -1    0    0    0  501  0.00000000000E+00  0.00000000000E+00 -0.12609851032E+04  0.12609851032E+04  0.25500000920E-02 0. -1.
    10030    2    1    2    0    0  0.00000000000E+00  0.00000000000E+00  0.12401522226E+04  0.37621224289E+04  0.35518428505E+04 0.  0.
        3    1    3    3  502    0 -0.10782406119E+04 -0.10973262943E+04  0.15598279776E+04  0.21908425646E+04  0.10100000352E+00 0.  1.
       -3    1    3    3    0  502  0.10782406119E+04  0.10973262943E+04 -0.31967575500E+03  0.15712798643E+04  0.10100000352E+00 0. -1.
</event>
<event>
 5   0  0.2342606E-07  0.3598680E+04  0.7818609E-02  0.8090794E-01
       -2   -1    0    0    0  501  0.00000000000E+00  0.00000000000E+00  0.19507801659E+04  0.19507801659E+04  0.25500000920E-02 0.  1.
        2   -1    0    0  501    0  0.00000000000E+00  0.00000000000E+00 -0.16596558795E+04  0.16596558795E+04  0.25500000920E-02 0. -1.
    10030    2    1    2    0    0  0.00000000000E+00  0.00000000000E+00  0.29112428640E+03  0.36104360455E+04  0.35986796312E+04 0.  0.
        5    1    3    3  502    0 -0.80589845583E+03 -0.11763994664E+04  0.12465137881E+04  0.18939922755E+04  0.46999998093E+01 0.  1.
       -5    1    3    3    0  502  0.80589845583E+03  0.11763994664E+04 -0.95538950166E+03  0.17164437700E+04  0.46999998093E+01 0. -1.
</event>
<event>
 5   0  0.2342606E-07  0.3358062E+04  0.7818609E-02  0.8148277E-01
        2   -1    0    0  501    0  0.00000000000E+00  0.00000000000E+00  0.88520275319E+03  0.88520275319E+03  0.25500000920E-02 0.  1.
       -2   -1    0    0    0  501  0.00000000000E+00  0.00000000000E+00 -0.31847449947E+04  0.31847449947E+04  0.25500000920E-02 0. -1.
    10030    2    1    2    0    0  0.00000000000E+00  0.00000000000E+00 -0.22995422415E+04  0.40699477479E+04  0.33580619634E+04 0.  0.
        5    1    3    3  502    0  0.88646382670E+03  0.22149006908E+03  0.55748230211E+03  0.10703665605E+04  0.46999998093E+01 0.  1.
       -5    1    3    3    0  502 -0.88646382670E+03 -0.22149006908E+03 -0.28570245436E+04  0.29995811874E+04  0.46999998093E+01 0. -1.
</event>
<event>
 5   0  0.7261233E-08  0.3607732E+04  0.7818609E-02  0.8088723E-01
        1   -1    0    0  501    0  0.00000000000E+00  0.00000000000E+00  0.15583474086E+04  0.15583474087E+04  0.50400001928E-02 0. -1.
       -1   -1    0    0    0  501  0.00000000000E+00  0.00000000000E+00 -0.20880659295E+04  0.20880659295E+04  0.50400001928E-02 0.  1.
    10030    2    1    2    0    0  0.00000000000E+00  0.00000000000E+00 -0.52971852085E+03  0.36464133382E+04  0.36077317696E+04 0.  0.
        3    1    3    3  502    0  0.45104516920E+03  0.40735970853E+03 -0.19814650546E+04  0.20725799019E+04  0.10100000352E+00 0.  1.
       -3    1    3    3    0  502 -0.45104516920E+03 -0.40735970853E+03  0.14517465337E+04  0.15738334363E+04  0.10100000352E+00 0. -1.
</event>
<event>
 5   0  0.2199902E-07  0.3581931E+04  0.7818609E-02  0.8094643E-01
       -2   -1    0    0    0  501  0.00000000000E+00  0.00000000000E+00  0.15744475585E+04  0.15744475585E+04  0.25500000920E-02 0. -1.
        2   -1    0    0  501    0  0.00000000000E+00  0.00000000000E+00 -0.20372588934E+04  0.20372588934E+04  0.25500000920E-02 0.  1.
    10030    2    1    2    0    0  0.00000000000E+00  0.00000000000E+00 -0.46281133495E+03  0.36117064519E+04  0.35819309266E+04 0.  0.
        1    1    3    3  502    0 -0.11101776251E+04 -0.87835370882E+03  0.87478170100E+03  0.16641041498E+04  0.50400001928E-02 0. -1.
       -1    1    3    3    0  502  0.11101776251E+04  0.87835370882E+03 -0.13375930360E+04  0.19476023020E+04  0.50400001928E-02 0.  1.
</event>
<event>
 5   0  0.7261233E-08  0.3566899E+04  0.7818609E-02  0.8098116E-01
       -1   -1    0    0    0  501  0.00000000000E+00  0.00000000000E+00  0.17907682993E+04  0.17907682993E+04  0.50400001928E-02 0.  1.
        1   -1    0    0  501    0  0.00000000000E+00  0.00000000000E+00 -0.17761606545E+04  0.17761606545E+04  0.50400001928E-02 0. -1.
    10030    2    1    2    0    0  0.00000000000E+00  0.00000000000E+00  0.14607644828E+02  0.35669289538E+04  0.35668990423E+04 0.  0.
        3    1    3    3  502    0  0.16909621952E+04 -0.54653941984E+03 -0.14314245017E+03  0.17828483542E+04  0.10100000352E+00 0.  1.
       -3    1    3    3    0  502 -0.16909621952E+04  0.54653941984E+03  0.15775009500E+03  0.17840805995E+04  0.10100000352E+00 0. -1.
</event>
<event>
 5   0  0.7347303E-08  0.3597983E+04  0.7818609E-02  0.8090954E-01
        1   -1    0    0  501    0  0.00000000000E+00  0.00000000000E+00  0.25707166053E+04  0.25707166053E+04  0.50400001928E-02 0. -1.
       -1   -1    0    0    0  501  0.00000000000E+00  0.00000000000E+00 -0.12589368837E+04  0.12589368837E+04  0.50400001928E-02 0.  1.
    10030    2    1    2    0    0  0.00000000000E+00  0.00000000000E+00  0.13117797217E+04  0.38296534890E+04  0.35979827415E+04 0.  0.
        2    1    3    3  502    0 -0.32342910879E+03 -0.68942503266E+03  0.23906992908E+04  0.25090548745E+04  0.25500000920E-02 0. -1.
       -2    1    3    3    0  502  0.32342910879E+03  0.68942503266E+03 -0.10789195691E+04  0.13205986145E+04  0.25500000920E-02 0.  1.
</event>
<event>
 5   0  0.7514289E-08  0.3604444E+04  0.7818609E-02  0.8089475E-01
        1   -1    0    0  501    0  0.00000000000E+00  0.00000000000E+00  0.25385599948E+04  0.25385599948E+04  0.50400001928E-02 0.  1.
       -1   -1    0    0    0  501  0.00000000000E+00  0.00000000000E+00 -0.12794670005E+04  0.12794670005E+04  0.50400001928E-02 0. -1.
    10030    2    1    2    0    0  0.00000000000E+00  0.00000000000E+00  0.12590929944E+04  0.38180269953E+04  0.36044437807E+04 0.  0.
        4    1    3    3  502    0  0.12151533643E+04 -0.10848424204E+04 -0.18719470977E+03  0.16396719940E+04  0.12699999809E+01 0. -1.
       -4    1    3    3    0  502 -0.12151533643E+04  0.10848424204E+04  0.14462877041E+04  0.21783550013E+04  0.12699999809E+01 0.  1.
</event>
<event>
 5   0  0.2309391E-07  0.3578186E+04  0.7818609E-02  0.8095507E-01
        2   -1    0    0  501    0  0.00000000000E+00  0.00000000000E+00  0.13685939785E+04  0.13685939785E+04  0.25500000920E-02 0. -1.
       -2   -1    0    0    0  501  0.00000000000E+00  0.00000000000E+00 -0.23387893196E+04  0.23387893196E+04  0.25500000920E-02 0.  1.
    10030    2    1    2    0    0  0.00000000000E+00  0.00000000000E+00 -0.97019534113E+03  0.37073832981E+04  0.35781855624E+04 0.  0.
        4    1    3    3  502    0 -0.93919549023E+03 -0.13275960661E+04  0.28765475549E+03  0.16514679394E+04  0.12699999809E+01 0. -1.
       -4    1    3    3    0  502  0.93919549023E+03  0.13275960661E+04 -0.12578500966E+04  0.20559153587E+04  0.12699999809E+01 0.  1.
</event>
<event>
 5   0  0.7236375E-08  0.3602905E+04  0.7818609E-02  0.8089827E-01
        1   -1    0    0  501    0  0.00000000000E+00  0.00000000000E+00  0.22105659710E+04  0.22105659710E+04  0.50400001928E-02 0.  1.
       -1   -1    0    0    0  501  0.00000000000E+00  0.00000000000E+00 -0.14680543497E+04  0.14680543497E+04  0.50400001928E-02 0. -1.
    10030    2    1    2    0    0  0.00000000000E+00  0.00000000000E+00  0.74251162123E+03  0.36786203207E+04  0.36029049330E+04 0.  0.
        5    1    3    3  502    0 -0.55692120898E+03  0.15142458724E+04  0.11894113970E+04  0.20044508865E+04  0.46999998093E+01 0.  1.
       -5    1    3    3    0  502  0.55692120898E+03 -0.15142458724E+04 -0.44689977575E+03  0.16741694342E+04  0.46999998093E+01 0. -1.
</event>
<event>
 5   0  0.7236375E-08  0.3602826E+04  0.7818609E-02  0.8089845E-01
       -1   -1    0    0    0  501  0.00000000000E+00  0.00000000000E+00  0.24541314629E+04  0.24541314629E+04  0.50400001928E-02 0. -1.
        1   -1    0    0  501    0  0.00000000000E+00  0.00000000000E+00 -0.13222961050E+04  0.13222961050E+04  0.50400001928E-02 0.  1.
    10030    2    1    2    0    0  0.00000000000E+00  0.00000000000E+00  0.11318353579E+04  0.37764275678E+04  0.36028258212E+04 0.  0.
        5    1    3    3  502    0  0.14216552020E+04  0.67114779578E+02  0.17234187492E+04  0.22351291198E+04  0.46999998093E+01 0. -1.
       -5    1    3    3    0  502 -0.14216552020E+04 -0.67114779578E+02 -0.59158339134E+03  0.15412984480E+04  0.46999998093E+01 0.  1.
</event>
<event>
 5   0  0.7236375E-08  0.3596572E+04  0.7818609E-02  0.8091277E-01
       -1   -1    0    0    0  501  0.00000000000E+00  0.00000000000E+00  0.19883709906E+04  0.19883709906E+04  0.50400001928E-02 0.  1.
        1   -1    0    0  501    0  0.00000000000E+00  0.00000000000E+00 -0.16263725663E+04  0.16263725663E+04  0.50400001928E-02 0. -1.
    10030    2    1    2    0    0  0.00000000000E+00  0.00000000000E+00  0.36199842425E+03  0.36147435569E+04  0.35965717181E+04 0.  0.
        5    1    3    3  502    0  0.14852859858E+04 -0.99538857806E+03 -0.12162003146E+02  0.17880276523E+04  0.46999998093E+01 0.  1.
       -5    1    3    3    0  502 -0.14852859858E+04  0.99538857806E+03  0.37416042739E+03  0.18267159047E+04  0.46999998093E+01 0. -1.
</event>
<event>
 5   0  0.2342606E-07  0.3594606E+04  0.7818609E-02  0.8091728E-01
       -2   -1    0    0    0  501  0.00000000000E+00  0.00000000000E+00  0.16083078285E+04  0.16083078285E+04  0.25500000920E-02 0.  1.
        2   -1    0    0  501    0  0.00000000000E+00  0.00000000000E+00 -0.20085076115E+04  0.20085076115E+04  0.25500000920E-02 0. -1.
    10030    2    1    2    0    0  0.00000000000E+00  0.00000000000E+00 -0.40019978306E+03  0.36168154400E+04  0.35946062456E+04 0.  0.
        5    1    3    3  502    0  0.59566176434E+03 -0.87751763702E+03  0.12598738461E+04  0.16468619672E+04  0.46999998093E+01 0.  1.
       -5    1    3    3    0  502 -0.59566176434E+03  0.87751763702E+03 -0.16600736292E+04  0.19699534728E+04  0.46999998093E+01 0. -1.
</event>
<event>
 5   0  0.2199902E-07  0.3610274E+04  0.7818609E-02  0.8088142E-01
       -2   -1    0    0    0  501  0.00000000000E+00  0.00000000000E+00  0.18091955928E+04  0.18091955928E+04  0.25500000920E-02 0.  1.
        2   -1    0    0  501    0  0.00000000000E+00  0.00000000000E+00 -0.18010879202E+04  0.18010879202E+04  0.25500000920E-02 0. -1.
    10030    2    1    2    0    0  0.00000000000E+00  0.00000000000E+00  0.81076725762E+01  0.36102835130E+04  0.36102744092E+04 0.  0.
        1    1    3    3  502    0 -0.66789064696E+03 -0.10107480386E+04  0.13422764804E+04  0.18081470249E+04  0.50400001928E-02 0.  1.
       -1    1    3    3    0  502  0.66789064696E+03  0.10107480386E+04 -0.13341688078E+04  0.18021364881E+04  0.50400001928E-02 0. -1.
</event>
<event>
 5   0  0.7347303E-08  0.3529161E+04  0.7818609E-02  0.8106914E-01
        1   -1    0    0  501    0  0.00000000000E+00  0.00000000000E+00  0.12576329324E+04  0.12576329324E+04  0.50400001928E-02 0. -1.
       -1   -1    0    0    0  501  0.00000000000E+00  0.00000000000E+00 -0.24758769053E+04  0.24758769053E+04  0.50400001928E-02 0.  1.
    10030    2    1    2    0    0  0.00000000000E+00  0.00000000000E+00 -0.12182439729E+04  0.37335098377E+04  0.35291609953E+04 0.  0.
        2    1    3    3  502    0  0.13724631728E+04  0.83068279142E+03 -0.13865585005E+04  0.21204323936E+04  0.25500000920E-02 0.  1.
       -2    1    3    3    0  502 -0.13724631728E+04 -0.83068279142E+03  0.16831452756E+03  0.16130774441E+04  0.25500000920E-02 0. -1.
</event>
<event>
 5   0  0.2342606E-07  0.3574254E+04  0.7818609E-02  0.8096415E-01
       -2   -1    0    0    0  501  0.00000000000E+00  0.00000000000E+00  0.15834191452E+04  0.15834191452E+04  0.25500000920E-02 0.  1.
        2   -1    0    0  501    0  0.00000000000E+00  0.00000000000E+00 -0.20170422502E+04  0.20170422502E+04  0.25500000920E-02 0. -1.
    10030    2    1    2    0    0  0.00000000000E+00  0.00000000000E+00 -0.43362310495E+03  0.36004613954E+04  0.35742542247E+04 0.  0.
        5    1    3    3  502    0  0.17853476022E+03  0.15997953234E+04 -0.99876448452E+03  0.18944055328E+04  0.46999998093E+01 0. -1.
       -5    1    3    3    0  502 -0.17853476022E+03 -0.15997953234E+04  0.56514137956E+03  0.17060558626E+04  0.46999998093E+01 0.  1.
</event>
<event>
 5   0  0.2199902E-07  0.3496657E+04  0.7818609E-02  0.8114583E-01
        2   -1    0    0  501    0  0.00000000000E+00  0.00000000000E+00  0.19467811410E+04  0.19467811410E+04  0.25500000920E-02 0.  1.
       -2   -1    0    0    0  501  0.00000000000E+00  0.00000000000E+00 -0.15701055242E+04  0.15701055242E+04  0.25500000920E-02 0. -1.
    10030    2    1    2    0    0  0.00000000000E+00  0.00000000000E+00  0.37667561679E+03  0.35168866652E+04  0.34966565882E+04 0.  0.
        1    1    3    3  502    0  0.11664340513E+04 -0.11070012325E+04  0.87833286466E+03  0.18323451492E+04  0.50400001928E-02 0.  1.
       -1    1    3    3    0  502 -0.11664340513E+04  0.11070012325E+04 -0.50165724786E+03  0.16845415160E+04  0.50400001928E-02 0. -1.
</event>
<event>
 5   0  0.2199902E-07  0.3569006E+04  0.7818609E-02  0.8097628E-01
        2   -1    0    0  501    0  0.00000000000E+00  0.00000000000E+00  0.20948007385E+04  0.20948007385E+04  0.25500000920E-02 0.  1.
       -2   -1    0    0    0  501  0.00000000000E+00  0.00000000000E+00 -0.15201687890E+04  0.15201687890E+04  0.25500000920E-02 0. -1.
    10030    2    1    2    0    0  0.00000000000E+00  0.00000000000E+00  0.57463194954E+03  0.36149695275E+04  0.35690058570E+04 0.  0.
        1    1    3    3  502    0 -0.92368336536E+03  0.44273721990E+03 -0.11927500314E+04  0.15722149480E+04  0.50400001928E-02 0. -1.
       -1    1    3    3    0  502  0.92368336536E+03 -0.44273721990E+03  0.17673819809E+04  0.20427545795E+04  0.50400001928E-02 0.  1.
</event>
<event>
 5   0  0.2238968E-07  0.3573639E+04  0.7818609E-02  0.8096557E-01
       -2   -1    0    0    0  501  0.00000000000E+00  0.00000000000E+00  0.13213881739E+04  0.13213881739E+04  0.25500000920E-02 0.  1.
        2   -1    0    0  501    0  0.00000000000E+00  0.00000000000E+00 -0.24161896010E+04  0.24161896010E+04  0.25500000920E-02 0. -1.
    10030    2    1    2    0    0  0.00000000000E+00  0.00000000000E+00 -0.10948014271E+04  0.37375777749E+04  0.35736392457E+04 0.  0.
        3    1    3    3  502    0 -0.70611019931E+03  0.96987514114E+03  0.83753403771E+03  0.14631174517E+04  0.10100000352E+00 0.  1.
       -3    1    3    3    0  502  0.70611019931E+03 -0.96987514114E+03 -0.19323354648E+04  0.22744603232E+04  0.10100000352E+00 0. -1.
</event>
<event>
 5   0  0.7514289E-08  0.3630416E+04  0.7818609E-02  0.8083560E-01
        1   -1    0    0  501    0  0.00000000000E+00  0.00000000000E+00  0.15974498209E+04  0.15974498209E+04  0.50400001928E-02 0.  1.
       -1   -1    0    0    0  501  0.00000000000E+00  0.00000000000E+00 -0.20626498824E+04  0.20626498824E+04  0.50400001928E-02 0. -1.
    10030    2    1    2    0    0  0.00000000000E+00  0.00000000000E+00 -0.46520006156E+03  0.36600997033E+04  0.36304157807E+04 0.  0.
        4    1    3    3  502    0  0.15746739184E+04 -0.88765116124E+03 -0.39965197533E+03  0.18512822172E+04  0.12699999809E+01 0. -1.
       -4    1    3    3    0  502 -0.15746739184E+04  0.88765116124E+03 -0.65548086234E+02  0.18088174861E+04  0.12699999809E+01 0.  1.
</event>
<event>
 5   0  0.7514289E-08  0.3609331E+04  0.7818609E-02  0.8088358E-01
       -1   -1    0    0    0  501  0.00000000000E+00  0.00000000000E+00  0.12113003853E+04  0.12113003853E+04  0.50400001928E-02 0. -1.
        1   -1    0    0  501    0  0.00000000000E+00  0.00000000000E+00 -0.26886946824E+04  0.26886946824E+04  0.50400001928E-02 0.  1.
    10030    2    1    2    0    0  0.00000000000E+00  0.00000000000E+00 -0.14773942971E+04  0.38999950676E+04  0.36093306330E+04 0.  0.
        4    1    3    3  502    0 -0.56287241995E+03 -0.16805314362E+04 -0.37099242161E+03  0.18107038021E+04  0.12699999809E+01 0.  1.
       -4    1    3    3    0  502  0.56287241995E+03  0.16805314362E+04 -0.11064018755E+04  0.20892912655E+04  0.12699999809E+01 0. -1.
</event>
<event>
 5   0  0.7236375E-08  0.3590683E+04  0.7818609E-02  0.8092629E-01
        1   -1    0    0  501    0  0.00000000000E+00  0.00000000000E+00  0.18888684320E+04  0.18888684320E+04  0.50400001928E-02 0. -1.
       -1   -1    0    0    0  501  0.00000000000E+00  0.00000000000E+00 -0.17064458180E+04  0.17064458180E+04  0.50400001928E-02 0.  1.
    10030    2    1    2    0    0  0.00000000000E+00  0.00000000000E+00  0.18242261408E+03  0.35953142500E+04  0.35906832979E+04 0.  0.
        1    1    3    3  502    0 -0.67977278043E+03 -0.16597637544E+04  0.11453800991E+02  0.17936103097E+04  0.50400001928E-02 0. -1.
       -1    1    3    3    0  502  0.67977278043E+03  0.16597637544E+04  0.17096881308E+03  0.18017039403E+04  0.50400001928E-02 0.  1.
</event>
<event>
 5   0  0.2342606E-07  0.3585556E+04  0.7818609E-02  0.8093808E-01
       -2   -1    0    0    0  501  0.00000000000E+00  0.00000000000E+00  0.16569319070E+04  0.16569319070E+04  0.25500000920E-02 0. -1.
        2   -1    0    0  501    0  0.00000000000E+00  0.00000000000E+00 -0.19397615435E+04  0.19397615435E+04  0.25500000920E-02 0.  1.
    10030    2    1    2    0    0  0.00000000000E+00  0.00000000000E+00 -0.28282963657E+03  0.35966934505E+04  0.35855559086E+04 0.  0.
        5    1    3    3  502    0 -0.35250912263E+03  0.91562024791E+03 -0.16465447335E+04  0.19167041424E+04  0.46999998093E+01 0.  1.
       -5    1    3    3    0  502  0.35250912263E+03 -0.91562024791E+03  0.13637150969E+04  0.16799893082E+04  0.46999998093E+01 0. -1.
</event>
<event>
 5   0  0.7261233E-08  0.3599719E+04  0.7818609E-02  0.8090556E-01
        1   -1    0    0  501    0  0.00000000000E+00  0.00000000000E+00  0.23843737166E+04  0.23843737166E+04  0.50400001928E-02 0. -1.
       -1   -1    0    0    0  501  0.00000000000E+00  0.00000000000E+00 -0.13586354191E+04  0.13586354192E+04  0.50400001928E-02 0.  1.
    10030    2    1    2    0    0  0.00000000000E+00  0.00000000000E+00  0.10257382975E+04  0.37430091358E+04  0.35997192023E+04 0.  0.
        3    1    3    3  502    0  0.58477982317E+03 -0.93532107202E+03 -0.96596058484E+03  0.14662444581E+04  0.10100000352E+00 0.  1.
       -3    1    3    3    0  502 -0.58477982317E+03  0.93532107202E+03  0.19916988823E+04  0.22767646776E+04  0.10100000352E+00 0. -1.
</event>
<event>
 5   0  0.2342606E-07  0.3720591E+04  0.7818609E-02  0.8063414E-01
       -2   -1    0    0    0  501  0.00000000000E+00  0.00000000000E+00  0.26787886297E+04  0.26787886297E+04  0.25500000920E-02 0. -1.
        2   -1    0    0  501    0  0.00000000000E+00  0.00000000000E+00 -0.12918894582E+04  0.12918894582E+04  0.25500000920E-02 0.  1.
    10030    2    1    2    0    0  0.00000000000E+00  0.00000000000E+00  0.13868991715E+04  0.39706780879E+04  0.37205907012E+04 0.  0.
        5    1    3    3  502    0 -0.65106510742E+03 -0.17003496453E+04  0.11006764964E+04  0.21275773852E+04  0.46999998093E+01 0.  1.
       -5    1    3    3    0  502  0.65106510742E+03  0.17003496453E+04  0.28622267514E+03  0.18431007027E+04  0.46999998093E+01 0. -1.
</event>
<event>
 5   0  0.2199902E-07  0.3575466E+04  0.7818609E-02  0.8096135E-01
       -2   -1    0    0    0  501  0.00000000000E+00  0.00000000000E+00  0.15719168423E+04  0.15719168423E+04  0.25500000920E-02 0. -1.
        2   -1    0    0  501    0  0.00000000000E+00  0.00000000000E+00 -0.20331797069E+04  0.20331797069E+04  0.25500000920E-02 0.  1.
    10030    2    1    2    0    0  0.00000000000E+00  0.00000000000E+00 -0.46126286463E+03  0.36050965493E+04  0.35754660814E+04 0.  0.
        1    1    3    3  502    0 -0.10594412501E+03  0.17845632992E+04 -0.22059412711E+03  0.18012640271E+04  0.50400001928E-02 0. -1.
       -1    1    3    3    0  502  0.10594412501E+03 -0.17845632992E+04 -0.24066873752E+03  0.18038325221E+04  0.50400001928E-02 0.  1.
</event>
<event>
 5   0  0.2309391E-07  0.3579294E+04  0.7818609E-02  0.8095251E-01
       -2   -1    0    0    0  501  0.00000000000E+00  0.00000000000E+00  0.20267579217E+04  0.20267579217E+04  0.25500000920E-02 0.  1.
        2   -1    0    0  501    0  0.00000000000E+00  0.00000000000E+00 -0.15802759507E+04  0.15802759507E+04  0.25500000920E-02 0. -1.
    10030    2    1    2    0    0  0.00000000000E+00  0.00000000000E+00  0.44648197100E+03  0.36070338724E+04  0.35792942329E+04 0.  0.
        4    1    3    3  502    0 -0.79725313436E+03 -0.16009824541E+04  0.15888835278E+03  0.17955513081E+04  0.12699999809E+01 0.  1.
       -4    1    3    3    0  502  0.79725313436E+03  0.16009824541E+04  0.28759361823E+03  0.18114825643E+04  0.12699999809E+01 0. -1.
</event>
<event>
 5   0  0.2342606E-07  0.3566215E+04  0.7818609E-02  0.8098275E-01
       -2   -1    0    0    0  501  0.00000000000E+00  0.00000000000E+00  0.20516966317E+04  0.20516966317E+04  0.25500000920E-02 0.  1.
        2   -1    0    0  501    0  0.00000000000E+00  0.00000000000E+00 -0.15496794287E+04  0.15496794287E+04  0.25500000920E-02 0. -1.
    10030    2    1    2    0    0  0.00000000000E+00  0.00000000000E+00  0.50201720298E+03  0.36013760605E+04  0.35662148360E+04 0.  0.
        5    1    3    3  502    0 -0.36419313510E+03  0.14127335449E+04  0.12862979933E+04  0.19450031687E+04  0.46999998093E+01 0.  1.
       -5    1    3    3    0  502  0.36419313510E+03 -0.14127335449E+04 -0.78428079029E+03  0.16563728918E+04  0.46999998093E+01 0. -1.
</event>
<event>
 5   0  0.7514289E-08  0.3483048E+04  0.7818609E-02  0.8117819E-01
        1   -1    0    0  501    0  0.00000000000E+00  0.00000000000E+00  0.15994110777E+04  0.15994110777E+04  0.50400001928E-02 0. -1.
       -1   -1    0    0    0  501  0.00000000000E+00  0.00000000000E+00 -0.18962640904E+04  0.18962640904E+04  0.50400001928E-02 0.  1.
    10030    2    1    2    0    0  0.00000000000E+00  0.00000000000E+00 -0.29685301276E+03  0.34956751681E+04  0.34830479712E+04 0.  0.
        4    1    3    3  502    0 -0.84556331457E+03  0.61566105624E+03  0.12490612487E+04  0.16291628129E+04  0.12699999809E+01 0. -1.
       -4    1    3    3    0  502  0.84556331457E+03 -0.61566105624E+03 -0.15459142615E+04  0.18665123551E+04  0.12699999809E+01 0.  1.
</event>
<event>
 5   0  0.2199902E-07  0.3607080E+04  0.7818609E-02  0.8088872E-01
        2   -1    0    0  501    0  0.00000000000E+00  0.00000000000E+00  0.23115242334E+04  0.23115242334E+04  0.25500000920E-02 0. -1.
       -2   -1    0    0    0  501  0.00000000000E+00  0.00000000000E+00 -0.14071909211E+04  0.14071909211E+04  0.25500000920E-02 0.  1.
    10030    2    1    2    0    0  0.00000000000E+00  0.00000000000E+00  0.90433331228E+03  0.37187151544E+04  0.36070796581E+04 0.  0.
        1    1    3    3  502    0 -0.44208380932E+03 -0.13310268471E+04  0.16211397856E+04  0.21436335430E+04  0.50400001928E-02 0. -1.
       -1    1    3    3    0  502  0.44208380932E+03  0.13310268471E+04 -0.71680647335E+03  0.15750816114E+04  0.50400001928E-02 0.  1.
</event>
<event>
 5   0  0.7514289E-08  0.3574299E+04  0.7818609E-02  0.8096404E-01
        1   -1    0    0  501    0  0.00000000000E+00  0.00000000000E+00  0.12305477908E+04  0.12305477908E+04  0.50400001928E-02 0. -1.
       -1   -1    0    0    0  501  0.00000000000E+00  0.00000000000E+00 -0.25955138902E+04  0.25955138902E+04  0.50400001928E-02 0.  1.
    10030    2    1    2    0    0  0.00000000000E+00  0.00000000000E+00 -0.13649660994E+04  0.38260616810E+04  0.35742993068E+04 0.  0.
        4    1    3    3  502    0  0.68396173383E+02  0.14212190404E+04 -0.18400211434E+04  0.23259881811E+04  0.12699999809E+01 0. -1.
       -4    1    3    3    0  502 -0.68396173383E+02 -0.14212190404E+04  0.47505504404E+03  0.15000734999E+04  0.12699999809E+01 0.  1.
</event>
<event>
 5   0  0.7347303E-08  0.3616371E+04  0.7818609E-02  0.8086752E-01
        1   -1    0    0  501    0  0.00000000000E+00  0.00000000000E+00  0.21289340700E+04  0.21289340700E+04  0.50400001928E-02 0.  1.
       -1   -1    0    0    0  501  0.00000000000E+00  0.00000000000E+00 -0.15357611165E+04  0.15357611165E+04  0.50400001928E-02 0. -1.
    10030    2    1    2    0    0  0.00000000000E+00  0.00000000000E+00  0.59317295347E+03  0.36646951865E+04  0.36163706471E+04 0.  0.
        2    1    3    3  502    0  0.11523026608E+03  0.11431214432E+04 -0.11183268255E+04  0.16033276449E+04  0.25500000920E-02 0. -1.
       -2    1    3    3    0  502 -0.11523026608E+03 -0.11431214432E+04  0.17114997790E+04  0.20613675416E+04  0.25500000920E-02 0.  1.
</event>
<event>
 5   0  0.7347303E-08  0.3599196E+04  0.7818609E-02  0.8090676E-01
        1   -1    0    0  501    0  0.00000000000E+00  0.00000000000E+00  0.24352376474E+04  0.24352376474E+04  0.50400001928E-02 0.  1.
       -1   -1    0    0    0  501  0.00000000000E+00  0.00000000000E+00 -0.13298715700E+04  0.13298715700E+04  0.50400001928E-02 0. -1.
    10030    2    1    2    0    0  0.00000000000E+00  0.00000000000E+00  0.11053660774E+04  0.37651092175E+04  0.35991961956E+04 0.  0.
        2    1    3    3  502    0 -0.17808376403E+04  0.14420336207E+03  0.77796100399E+03  0.19486920317E+04  0.25500000920E-02 0. -1.
       -2    1    3    3    0  502  0.17808376403E+04 -0.14420336207E+03  0.32740507342E+03  0.18164171858E+04  0.25500000920E-02 0.  1.
</event>
<event>
 5   0  0.7236375E-08  0.3565495E+04  0.7818609E-02  0.8098442E-01
       -1   -1    0    0    0  501  0.00000000000E+00  0.00000000000E+00  0.13992006851E+04  0.13992006851E+04  0.50400001928E-02 0.  1.
        1   -1    0    0  501    0  0.00000000000E+00  0.00000000000E+00 -0.22714315492E+04  0.22714315492E+04  0.50400001928E-02 0. -1.
    10030    2    1    2    0    0  0.00000000000E+00  0.00000000000E+00 -0.87223086404E+03  0.36706322343E+04  0.35654949614E+04 0.  0.
        1    1    3    3  502    0  0.90353062408E+03 -0.53025229565E+03 -0.19210965351E+04  0.21881834893E+04  0.50400001928E-02 0. -1.
       -1    1    3    3    0  502 -0.90353062408E+03  0.53025229565E+03  0.10488656710E+04  0.14824487450E+04  0.50400001928E-02 0.  1.
</event>
<event>
 5   0  0.7514289E-08  0.3602932E+04  0.7818609E-02  0.8089820E-01
       -1   -1    0    0    0  501  0.00000000000E+00  0.00000000000E+00  0.16176164239E+04  0.16176164239E+04  0.50400001928E-02 0.  1.
        1   -1    0    0  501    0  0.00000000000E+00  0.00000000000E+00 -0.20062110929E+04  0.20062110929E+04  0.50400001928E-02 0. -1.
    10030    2    1    2    0    0  0.00000000000E+00  0.00000000000E+00 -0.38859466905E+03  0.36238275168E+04  0.36029321468E+04 0.  0.
        4    1    3    3  502    0  0.16331014203E+04 -0.14417511597E+03  0.55667310651E+03  0.17313847849E+04  0.12699999809E+01 0.  1.
       -4    1    3    3    0  502 -0.16331014203E+04  0.14417511597E+03 -0.94526777555E+03  0.18924427319E+04  0.12699999809E+01 0. -1.
</event>
<event>
 5   0  0.2309391E-07  0.3544523E+04  0.7818609E-02  0.8103319E-01
       -2   -1    0    0    0  501  0.00000000000E+00  0.00000000000E+00  0.27980126354E+04  0.27980126354E+04  0.25500000920E-02 0.  1.
        2   -1    0    0  501    0  0.00000000000E+00  0.00000000000E+00 -0.11225508217E+04  0.11225508217E+04  0.25500000920E-02 0. -1.
    10030    2    1    2    0    0  0.00000000000E+00  0.00000000000E+00  0.16754618137E+04  0.39205634572E+04  0.35445233153E+04 0.  0.
        4    1    3    3  502    0 -0.15374353536E+04 -0.44635622072E+03 -0.31659087417E+01  0.16009225397E+04  0.12699999809E+01 0.  1.
       -4    1    3    3    0  502  0.15374353536E+04  0.44635622072E+03  0.16786277224E+04  0.23196409174E+04  0.12699999809E+01 0. -1.
</event>
<event>
 5   0  0.2198900E-07  0.3591268E+04  0.7818609E-02  0.8092495E-01
        2   -1    0    0  501    0  0.00000000000E+00  0.00000000000E+00  0.22857500362E+04  0.22857500362E+04  0.25500000920E-02 0.  1.
       -2   -1    0    0    0  501  0.00000000000E+00  0.00000000000E+00 -0.14106098199E+04  0.14106098199E+04  0.25500000920E-02 0. -1.
    10030    2    1    2    0    0  0.00000000000E+00  0.00000000000E+00  0.87514021631E+03  0.36963598561E+04  0.35912679917E+04 0.  0.
        2    1    3    3  502    0 -0.20857054196E+02  0.17700158385E+04  0.74790679790E+03  0.19216544079E+04  0.25500000920E-02 0. -1.
       -2    1    3    3    0  502  0.20857054196E+02 -0.17700158385E+04  0.12723341842E+03  0.17747054482E+04  0.25500000920E-02 0.  1.
</event>
<event>
 5   0  0.7236375E-08  0.3610792E+04  0.7818609E-02  0.8088024E-01
        1   -1    0    0  501    0  0.00000000000E+00  0.00000000000E+00  0.19774536381E+04  0.19774536381E+04  0.50400001928E-02 0. -1.
       -1   -1    0    0    0  501  0.00000000000E+00  0.00000000000E+00 -0.16483087181E+04  0.16483087181E+04  0.50400001928E-02 0.  1.
    10030    2    1    2    0    0  0.00000000000E+00  0.00000000000E+00  0.32914492000E+03  0.36257623563E+04  0.36107916425E+04 0.  0.
        5    1    3    3  502    0  0.66883120599E+03  0.15441511281E+04 -0.49212227303E+03  0.17532667539E+04  0.46999998093E+01 0.  1.
       -5    1    3    3    0  502 -0.66883120599E+03 -0.15441511281E+04  0.82126719303E+03  0.18724956024E+04  0.46999998093E+01 0. -1.
</event>
<event>
 5   0  0.2198900E-07  0.3590226E+04  0.7818609E-02  0.8092734E-01
        2   -1    0    0  501    0  0.00000000000E+00  0.00000000000E+00  0.17851063436E+04  0.17851063436E+04  0.25500000920E-02 0. -1.
       -2   -1    0    0    0  501  0.00000000000E+00  0.00000000000E+00 -0.18051753790E+04  0.18051753790E+04  0.25500000920E-02 0.  1.
    10030    2    1    2    0    0  0.00000000000E+00  0.00000000000E+00 -0.20069035478E+02  0.35902817226E+04  0.35902256310E+04 0.  0.
        2    1    3    3  502    0 -0.26675522492E+03 -0.56942895068E+03 -0.16914359203E+04  0.18045395957E+04  0.25500000920E-02 0.  1.
       -2    1    3    3    0  502  0.26675522492E+03  0.56942895068E+03  0.16713668849E+04  0.17857421269E+04  0.25500000920E-02 0. -1.
</event>
<event>
 5   0  0.7236375E-08  0.3612308E+04  0.7818609E-02  0.8087678E-01
        1   -1    0    0  501    0  0.00000000000E+00  0.00000000000E+00  0.20191165390E+04  0.20191165390E+04  0.50400001928E-02 0. -1.
       -1   -1    0    0    0  501  0.00000000000E+00  0.00000000000E+00 -0.16156530323E+04  0.16156530323E+04  0.50400001928E-02 0.  1.
    10030    2    1    2    0    0  0.00000000000E+00  0.00000000000E+00  0.40346350666E+03  0.36347695713E+04  0.36123077160E+04 0.  0.
        5    1    3    3  502    0 -0.51279970860E+03  0.13485645539E+04  0.12950329254E+04  0.19387424443E+04  0.46999998093E+01 0. -1.
       -5    1    3    3    0  502  0.51279970860E+03 -0.13485645539E+04 -0.89156941874E+03  0.16960271271E+04  0.46999998093E+01 0.  1.
</event>
<event>
 5   0  0.2199902E-07  0.3686566E+04  0.7818609E-02  0.8070946E-01
       -2   -1    0    0    0  501  0.00000000000E+00  0.00000000000E+00  0.16746075998E+04  0.16746075998E+04  0.25500000920E-02 0.  1.
        2   -1    0    0  501    0  0.00000000000E+00  0.00000000000E+00 -0.20289480379E+04  0.20289480379E+04  0.25500000920E-02 0. -1.
    10030    2    1    2    0    0  0.00000000000E+00  0.00000000000E+00 -0.35434043819E+03  0.37035556377E+04  0.36865657753E+04 0.  0.
        1    1    3    3  502    0  0.14973668659E+03 -0.18288472390E+04 -0.14685001499E+01  0.18349674263E+04  0.50400001928E-02 0. -1.
       -1    1    3    3    0  502 -0.14973668659E+03  0.18288472390E+04 -0.35287193804E+03  0.18685882114E+04  0.50400001928E-02 0.  1.
</event>
<event>
 5   0  0.2309391E-07  0.3599851E+04  0.7818609E-02  0.8090526E-01
        2   -1    0    0  501    0  0.00000000000E+00  0.00000000000E+00  0.22618948430E+04  0.22618948430E+04  0.25500000920E-02 0. -1.
       -2   -1    0    0    0  501  0.00000000000E+00  0.00000000000E+00 -0.14323083688E+04  0.14323083688E+04  0.25500000920E-02 0.  1.
    10030    2    1    2    0    0  0.00000000000E+00  0.00000000000E+00  0.82958647422E+03  0.36942032117E+04  0.35998505040E+04 0.  0.
        4    1    3    3  502    0  0.83236934654E+03  0.32530969987E+03 -0.11885478210E+04  0.14870483064E+04  0.12699999809E+01 0.  1.
       -4    1    3    3    0  502 -0.83236934654E+03 -0.32530969987E+03  0.20181342952E+04  0.22071549054E+04  0.12699999809E+01 0. -1.
</event>
<event>
 5   0  0.7236375E-08  0.3613596E+04  0.7818609E-02  0.8087385E-01
       -1   -1    0    0    0  501  0.00000000000E+00  0.00000000000E+00  0.18248271348E+04  0.18248271348E+04  0.50400001928E-02 0.  1.
        1   -1    0    0  501    0  0.00000000000E+00  0.00000000000E+00 -0.17889465825E+04  0.17889465825E+04  0.50400001928E-02 0. -1.
    10030    2    1    2    0    0  0.00000000000E+00  0.00000000000E+00  0.35880552349E+02  0.36137737173E+04  0.36135955869E+04 0.  0.
        5    1    3    3  502    0  0.65363823679E+03  0.15884443735E+04 -0.54253155327E+03  0.18013220280E+04  0.46999998093E+01 0. -1.
       -5    1    3    3    0  502 -0.65363823679E+03 -0.15884443735E+04  0.57841210562E+03  0.18124516893E+04  0.46999998093E+01 0.  1.
</event>
<event>
 5   0  0.2309391E-07  0.3608534E+04  0.7818609E-02  0.8088540E-01
       -2   -1    0    0    0  501  0.00000000000E+00  0.00000000000E+00  0.26505906952E+04  0.26505906952E+04  0.25500000920E-02 0. -1.
        2   -1    0    0  501    0  0.00000000000E+00  0.00000000000E+00 -0.12281714573E+04  0.12281714573E+04  0.25500000920E-02 0.  1.
    10030    2    1    2    0    0  0.00000000000E+00  0.00000000000E+00  0.14224192379E+04  0.38787621526E+04  0.36085342381E+04 0.  0.
        4    1    3    3  502    0 -0.38010332197E+03  0.21834955390E+03 -0.11700625796E+04  0.12494811387E+04  0.12699999809E+01 0.  1.
       -4    1    3    3    0  502  0.38010332197E+03 -0.21834955390E+03  0.25924818174E+04  0.26292810138E+04  0.12699999809E+01 0. -1.
</event>
<event>
 5   0  0.2342606E-07  0.3604538E+04  0.7818609E-02  0.8089453E-01
       -2   -1    0    0    0  501  0.00000000000E+00  0.00000000000E+00  0.12114041177E+04  0.12114041177E+04  0.25500000920E-02 0. -1.
        2   -1    0    0  501    0  0.00000000000E+00  0.00000000000E+00 -0.26813301153E+04  0.26813301153E+04  0.25500000920E-02 0.  1.
    10030    2    1    2    0    0  0.00000000000E+00  0.00000000000E+00 -0.14699259976E+04  0.38927342330E+04  0.36045384407E+04 0.  0.
        5    1    3    3  502    0 -0.13937456810E+04  0.10996552583E+04 -0.10702421392E+04  0.20729710652E+04  0.46999998093E+01 0. -1.
       -5    1    3    3    0  502  0.13937456810E+04 -0.10996552583E+04 -0.39968385844E+03  0.18197631679E+04  0.46999998093E+01 0.  1.
</event>
<event>
 5   0  0.2199902E-07  0.3601189E+04  0.7818609E-02  0.8090219E-01
        2   -1    0    0  501    0  0.00000000000E+00  0.00000000000E+00  0.19343439183E+04  0.19343439183E+04  0.25500000920E-02 0. -1.
       -2   -1    0    0    0  501  0.00000000000E+00  0.00000000000E+00 -0.16760929045E+04  0.16760929045E+04  0.25500000920E-02 0.  1.
    10030    2    1    2    0    0  0.00000000000E+00  0.00000000000E+00  0.25825101382E+03  0.36104368227E+04  0.36011887572E+04 0.  0.
        1    1    3    3  502    0 -0.48766430242E+03  0.60319452603E+03 -0.15000028611E+04  0.16886884530E+04  0.50400001928E-02 0.  1.
       -1    1    3    3    0  502  0.48766430242E+03 -0.60319452603E+03  0.17582538749E+04  0.19217483698E+04  0.50400001928E-02 0. -1.
</event>
<event>
 5   0  0.7514289E-08  0.3596065E+04  0.7818609E-02  0.8091394E-01
       -1   -1    0    0    0  501  0.00000000000E+00  0.00000000000E+00  0.21365000457E+04  0.21365000457E+04  0.50400001928E-02 0.  1.
        1   -1    0    0  501    0  0.00000000000E+00  0.00000000000E+00 -0.15131857334E+04  0.15131857334E+04  0.50400001928E-02 0. -1.
    10030    2    1    2    0    0  0.00000000000E+00  0.00000000000E+00  0.62331431229E+03  0.36496857792E+04  0.35960652879E+04 0.  0.
        4    1    3    3  502    0  0.16781580060E+04  0.56322852839E+03 -0.84488681091E+01  0.17701733431E+04  0.12699999809E+01 0. -1.
       -4    1    3    3    0  502 -0.16781580060E+04 -0.56322852839E+03  0.63176318040E+03  0.18795124361E+04  0.12699999809E+01 0.  1.
</event>
<event>
 5   0  0.2199902E-07  0.3581674E+04  0.7818609E-02  0.8094702E-01
       -2   -1    0    0    0  501  0.00000000000E+00  0.00000000000E+00  0.22783724073E+04  0.22783724073E+04  0.25500000920E-02 0.  1.
        2   -1    0    0  501    0  0.00000000000E+00  0.00000000000E+00 -0.14076262124E+04  0.14076262124E+04  0.25500000920E-02 0. -1.
    10030    2    1    2    0    0  0.00000000000E+00  0.00000000000E+00  0.87074619484E+03  0.36859986197E+04  0.35816737551E+04 0.  0.
        1    1    3    3  502    0  0.11024913952E+04 -0.13605932902E+04  0.49765575828E+02  0.17519069583E+04  0.50400001928E-02 0.  1.
       -1    1    3    3    0  502 -0.11024913952E+04  0.13605932902E+04  0.82098061902E+03  0.19340916614E+04  0.50400001928E-02 0. -1.
</event>
<event>
 5   0  0.7347303E-08  0.3602838E+04  0.7818609E-02  0.8089842E-01
       -1   -1    0    0    0  501  0.00000000000E+00  0.00000000000E+00  0.18289136371E+04  0.18289136371E+04  0.50400001928E-02 0. -1.
        1   -1    0    0  501    0  0.00000000000E+00  0.00000000000E+00 -0.17743375715E+04  0.17743375716E+04  0.50400001928E-02 0.  1.
    10030    2    1    2    0    0  0.00000000000E+00  0.00000000000E+00  0.54576065543E+02  0.36032512087E+04  0.36028378711E+04 0.  0.
        2    1    3    3  502    0  0.84919896507E+03 -0.52015159852E+03 -0.14740216260E+04  0.17788862588E+04  0.25500000920E-02 0.  1.
       -2    1    3    3    0  502 -0.84919896507E+03  0.52015159852E+03  0.15285976916E+04  0.18243649499E+04  0.25500000920E-02 0. -1.
</event>
<event>
 5   0  0.2238968E-07  0.3603118E+04  0.7818609E-02  0.8089778E-01
        2   -1    0    0  501    0  0.00000000000E+00  0.00000000000E+00  0.19349998578E+04  0.19349998578E+04  0.25500000920E-02 0. -1.
       -2   -1    0    0    0  501  0.00000000000E+00  0.00000000000E+00 -0.16773208157E+04  0.16773208157E+04  0.25500000920E-02 0.  1.
    10030    2    1    2    0    0  0.00000000000E+00  0.00000000000E+00  0.25767904218E+03  0.36123206735E+04  0.36031183938E+04 0.  0.
        3    1    3    3  502    0 -0.11958655458E+04  0.13454586554E+04  0.56113696172E+02  0.18009725579E+04  0.10100000352E+00 0. -1.
       -3    1    3    3    0  502  0.11958655458E+04 -0.13454586554E+04  0.20156534601E+03  0.18113481156E+04  0.10100000352E+00 0.  1.
</event>
<event>
 5   0  0.7514289E-08  0.3604608E+04  0.7818609E-02  0.8089437E-01
        1   -1    0    0  501    0  0.00000000000E+00  0.00000000000E+00  0.17370887767E+04  0.17370887768E+04  0.50400001928E-02 0.  1.
       -1   -1    0    0    0  501  0.00000000000E+00  0.00000000000E+00 -0.18699673257E+04  0.18699673257E+04  0.50400001928E-02 0. -1.
    10030    2    1    2    0    0  0.00000000000E+00  0.00000000000E+00 -0.13287854898E+03  0.36070561025E+04  0.36046077481E+04 0.  0.
        4    1    3    3  502    0 -0.15604220125E+04  0.78828556846E+03  0.37202114734E+03  0.17873758254E+04  0.12699999809E+01 0.  1.
       -4    1    3    3    0  502  0.15604220125E+04 -0.78828556846E+03 -0.50489969632E+03  0.18196802770E+04  0.12699999809E+01 0. -1.
</event>
<event>
 5   0  0.7236375E-08  0.3604878E+04  0.7818609E-02  0.8089375E-01
        1   -1    0    0  501    0  0.00000000000E+00  0.00000000000E+00  0.20114242217E+04  0.20114242217E+04  0.50400001928E-02 0. -1.
       -1   -1    0    0    0  501  0.00000000000E+00  0.00000000000E+00 -0.16151674010E+04  0.16151674010E+04  0.50400001928E-02 0.  1.
    10030    2    1    2    0    0  0.00000000000E+00  0.00000000000E+00  0.39625682068E+03  0.36265916227E+04  0.36048782684E+04 0.  0.
        1    1    3    3  502    0  0.17739268869E+04  0.26288539961E+02 -0.12203232105E+03  0.17783136885E+04  0.50400001928E-02 0.  1.
       -1    1    3    3    0  502 -0.17739268869E+04 -0.26288539961E+02  0.51828914174E+03  0.18482779341E+04  0.50400001928E-02 0. -1.
</event>
<event>
 5   0  0.2199902E-07  0.3602818E+04  0.7818609E-02  0.8089847E-01
        2   -1    0    0  501    0  0.00000000000E+00  0.00000000000E+00  0.17306186273E+04  0.17306186273E+04  0.25500000920E-02 0. -1.
       -2   -1    0    0    0  501  0.00000000000E+00  0.00000000000E+00 -0.18750949953E+04  0.18750949953E+04  0.25500000920E-02 0.  1.
    10030    2    1    2    0    0  0.00000000000E+00  0.00000000000E+00 -0.14447636793E+03  0.36057136226E+04  0.36028179675E+04 0.  0.
        1    1    3    3  502    0  0.85955819800E+03  0.46038692977E+03  0.14436665953E+04  0.17421164310E+04  0.50400001928E-02 0. -1.
       -1    1    3    3    0  502 -0.85955819800E+03 -0.46038692977E+03 -0.15881429632E+04  0.18635971916E+04  0.50400001928E-02 0.  1.
</event>
<event>
 5   0  0.2309391E-07  0.3569650E+04  0.7818609E-02  0.8097479E-01
        2   -1    0    0  501    0  0.00000000000E+00  0.00000000000E+00  0.18826763956E+04  0.18826763956E+04  0.25500000920E-02 0. -1.
       -2   -1    0    0    0  501  0.00000000000E+00  0.00000000000E+00 -0.16920598056E+04  0.16920598056E+04  0.25500000920E-02 0.  1.
    10030    2    1    2    0    0  0.00000000000E+00  0.00000000000E+00  0.19061659000E+03  0.35747362011E+04  0.35696504343E+04 0.  0.
        4    1    3    3  502    0 -0.72442144435E+03  0.64849817699E+03 -0.14035750191E+04  0.17074427550E+04  0.12699999809E+01 0.  1.
       -4    1    3    3    0  502  0.72442144435E+03 -0.64849817699E+03  0.15941916091E+04  0.18672934461E+04  0.12699999809E+01 0. -1.
</event>
<event>
 5   0  0.7236375E-08  0.3620429E+04  0.7818609E-02  0.8085828E-01
       -1   -1    0    0    0  501  0.00000000000E+00  0.00000000000E+00  0.17343766060E+04  0.17343766060E+04  0.50400001928E-02 0. -1.
        1   -1    0    0  501    0  0.00000000000E+00  0.00000000000E+00 -0.18893683544E+04  0.18893683545E+04  0.50400001928E-02 0.  1.
    10030    2    1    2    0    0  0.00000000000E+00  0.00000000000E+00 -0.15499174844E+03  0.36237449605E+04  0.36204288553E+04 0.  0.
        5    1    3    3  502    0  0.15471397421E+04 -0.80897452225E+02 -0.10146591984E+04  0.18519560357E+04  0.46999998093E+01 0.  1.
       -5    1    3    3    0  502 -0.15471397421E+04  0.80897452225E+02  0.85966744992E+03  0.17717889247E+04  0.46999998093E+01 0. -1.
</event>
<event>
 5   0  0.2199902E-07  0.3541026E+04  0.7818609E-02  0.8104136E-01
        2   -1    0    0  501    0  0.00000000000E+00  0.00000000000E+00  0.21966262306E+04  0.21966262306E+04  0.25500000920E-02 0. -1.
       -2   -1    0    0    0  501  0.00000000000E+00  0.00000000000E+00 -0.14270594509E+04  0.14270594509E+04  0.25500000920E-02 0.  1.
    10030    2    1    2    0    0  0.00000000000E+00  0.00000000000E+00  0.76956677964E+03  0.36236856815E+04  0.35410259657E+04 0.  0.
        1    1    3    3  502    0 -0.16546791492E+03 -0.10540197456E+04 -0.10611320706E+04  0.15047719184E+04  0.50400001928E-02 0.  1.
       -1    1    3    3    0  502  0.16546791492E+03  0.10540197456E+04  0.18306988503E+04  0.21189137631E+04  0.50400001928E-02 0. -1.
</event>
<event>
 5   0  0.2238968E-07  0.3665243E+04  0.7818609E-02  0.8075708E-01
       -2   -1    0    0    0  501  0.00000000000E+00  0.00000000000E+00  0.10467488691E+04  0.10467488691E+04  0.25500000920E-02 0.  1.
        2   -1    0    0  501    0  0.00000000000E+00  0.00000000000E+00 -0.32085070726E+04  0.32085070726E+04  0.25500000920E-02 0. -1.
    10030    2    1    2    0    0  0.00000000000E+00  0.00000000000E+00 -0.21617582034E+04  0.42552559417E+04  0.36652427749E+04 0.  0.
        3    1    3    3  502    0 -0.10664017000E+04  0.14899642375E+04 -0.11226600933E+04  0.21488535804E+04  0.10100000352E+00 0. -1.
       -3    1    3    3    0  502  0.10664017000E+04 -0.14899642375E+04 -0.10390981102E+04  0.21064023613E+04  0.10100000352E+00 0.  1.
</event>
<event>
 5   0  0.7236375E-08  0.3563189E+04  0.7818609E-02  0.8098976E-01
        1   -1    0    0  501    0  0.00000000000E+00  0.00000000000E+00  0.31742782503E+04  0.31742782503E+04  0.50400001928E-02 0.  1.
       -1   -1    0    0    0  501  0.00000000000E+00  0.00000000000E+00 -0.99993715710E+03  0.99993715712E+03  0.50400001928E-02 0. -1.
    10030    2    1    2    0    0  0.00000000000E+00  0.00000000000E+00  0.21743410932E+04  0.41742154075E+04  0.35631888917E+04 0.  0.
        1    1    3    3  502    0  0.92608582032E+03  0.11284251625E+04  0.22836330228E+04  0.27103427969E+04  0.50400001928E-02 0.  1.
       -1    1    3    3    0  502 -0.92608582032E+03 -0.11284251625E+04 -0.10929192956E+03  0.14638726105E+04  0.50400001928E-02 0. -1.
</event>
<event>
 5   0  0.7236375E-08  0.3595768E+04  0.7818609E-02  0.8091462E-01
        1   -1    0    0  501    0  0.00000000000E+00  0.00000000000E+00  0.20590798901E+04  0.20590798901E+04  0.50400001928E-02 0. -1.
       -1   -1    0    0    0  501  0.00000000000E+00  0.00000000000E+00 -0.15698208288E+04  0.15698208288E+04  0.50400001928E-02 0.  1.
    10030    2    1    2    0    0  0.00000000000E+00  0.00000000000E+00  0.48925906131E+03  0.36289007189E+04  0.35957677898E+04 0.  0.
        1    1    3    3  502    0 -0.97755028351E+03 -0.84956946870E+03 -0.10138627420E+04  0.16447767322E+04  0.50400001928E-02 0.  1.
       -1    1    3    3    0  502  0.97755028351E+03  0.84956946870E+03  0.15031218033E+04  0.19841239867E+04  0.50400001928E-02 0. -1.
</event>
<event>
 5   0  0.7261233E-08  0.3592685E+04  0.7818609E-02  0.8092169E-01
        1   -1    0    0  501    0  0.00000000000E+00  0.00000000000E+00  0.18222598035E+04  0.18222598035E+04  0.50400001928E-02 0.  1.
       -1   -1    0    0    0  501  0.00000000000E+00  0.00000000000E+00 -0.17707939331E+04  0.17707939331E+04  0.50400001928E-02 0. -1.
    10030    2    1    2    0    0  0.00000000000E+00  0.00000000000E+00  0.51465870392E+02  0.35930537367E+04  0.35926851266E+04 0.  0.
        3    1    3    3  502    0  0.17529777418E+04  0.22648442495E+03 -0.29464417882E+03  0.17919378785E+04  0.10100000352E+00 0. -1.
       -3    1    3    3    0  502 -0.17529777418E+04 -0.22648442495E+03  0.34611004921E+03  0.18011158582E+04  0.10100000352E+00 0.  1.
</event>
<event>
 5   0  0.7236375E-08  0.3604070E+04  0.7818609E-02  0.8089560E-01
        1   -1    0    0  501    0  0.00000000000E+00  0.00000000000E+00  0.11741608704E+04  0.11741608704E+04  0.50400001928E-02 0.  1.
       -1   -1    0    0    0  501  0.00000000000E+00  0.00000000000E+00 -0.27656609263E+04  0.27656609263E+04  0.50400001928E-02 0. -1.
    10030    2    1    2    0    0  0.00000000000E+00  0.00000000000E+00 -0.15915000559E+04  0.39398217966E+04  0.36040703879E+04 0.  0.
        5    1    3    3  502    0  0.93612342052E+03  0.12810537531E+04 -0.17296705757E+04  0.23471702468E+04  0.46999998093E+01 0. -1.
       -5    1    3    3    0  502 -0.93612342052E+03 -0.12810537531E+04  0.13817051981E+03  0.15926515499E+04  0.46999998093E+01 0.  1.
</event>
<event>
 5   0  0.7236375E-08  0.3581275E+04  0.7818609E-02  0.8094794E-01
        1   -1    0    0  501    0  0.00000000000E+00  0.00000000000E+00  0.24744460142E+04  0.24744460142E+04  0.50400001928E-02 0.  1.
       -1   -1    0    0    0  501  0.00000000000E+00  0.00000000000E+00 -0.12957981630E+04  0.12957981630E+04  0.50400001928E-02 0. -1.
    10030    2    1    2    0    0  0.00000000000E+00  0.00000000000E+00  0.11786478512E+04  0.37702441772E+04  0.35812749683E+04 0.  0.
        5    1    3    3  502    0  0.81840763443E+02  0.71125390425E+03  0.23172012757E+04  0.24252884094E+04  0.46999998093E+01 0.  1.
       -5    1    3    3    0  502 -0.81840763443E+02 -0.71125390425E+03 -0.11385534245E+04  0.13449557678E+04  0.46999998093E+01 0. -1.
</event>
<event>
 5   0  0.2309391E-07  0.3580232E+04  0.7818609E-02  0.8095035E-01
       -2   -1    0    0    0  501  0.00000000000E+00  0.00000000000E+00  0.17394301155E+04  0.17394301155E+04  0.25500000920E-02 0. -1.
        2   -1    0    0  501    0  0.00000000000E+00  0.00000000000E+00 -0.18422787618E+04  0.18422787618E+04  0.25500000920E-02 0.  1.
    10030    2    1    2    0    0  0.00000000000E+00  0.00000000000E+00 -0.10284864626E+03  0.35817088773E+04  0.35802319251E+04 0.  0.
        4    1    3    3  502    0 -0.48907420457E+03  0.79996614579E+03 -0.15769711439E+04  0.18346604627E+04  0.12699999809E+01 0.  1.
       -4    1    3    3    0  502  0.48907420457E+03 -0.79996614579E+03  0.14741224976E+04  0.17470484146E+04  0.12699999809E+01 0. -1.
</event>
<event>
 5   0  0.2199902E-07  0.3615152E+04  0.7818609E-02  0.8087030E-01
        2   -1    0    0  501    0  0.00000000000E+00  0.00000000000E+00  0.20110446871E+04  0.20110446871E+04  0.25500000920E-02 0.  1.
       -2   -1    0    0    0  501  0.00000000000E+00  0.00000000000E+00 -0.16246937642E+04  0.16246937642E+04  0.25500000920E-02 0. -1.
    10030    2    1    2    0    0  0.00000000000E+00  0.00000000000E+00  0.38635092288E+03  0.36357384514E+04  0.36151524243E+04 0.  0.
        1    1    3    3  502    0  0.93728539414E+03  0.13074825871E+04 -0.63572485542E+03  0.17297863213E+04  0.50400001928E-02 0.  1.
       -1    1    3    3    0  502 -0.93728539414E+03 -0.13074825871E+04  0.10220757783E+04  0.19059521301E+04  0.50400001928E-02 0. -1.
</event>
<event>
 5   0  0.7347303E-08  0.3774225E+04  0.7818609E-02  0.8051709E-01
       -1   -1    0    0    0  501  0.00000000000E+00  0.00000000000E+00  0.16352884549E+04  0.16352884549E+04  0.50400001928E-02 0. -1.
        1   -1    0    0  501    0  0.00000000000E+00  0.00000000000E+00 -0.21777163411E+04  0.21777163411E+04  0.50400001928E-02 0.  1.
    10030    2    1    2    0    0  0.00000000000E+00  0.00000000000E+00 -0.54242788617E+03  0.38130047960E+04  0.37742254255E+04 0.  0.
        2    1    3    3  502    0  0.23951714644E+03 -0.91065619908E+03  0.13809888461E+04  0.16714644386E+04  0.25500000920E-02 0. -1.
       -2    1    3    3    0  502 -0.23951714644E+03  0.91065619908E+03 -0.19234167323E+04  0.21415403574E+04  0.25500000920E-02 0.  1.
</event>
<event>
 5   0  0.2342606E-07  0.3585301E+04  0.7818609E-02  0.8093867E-01
        2   -1    0    0  501    0  0.00000000000E+00  0.00000000000E+00  0.29857601751E+04  0.29857601751E+04  0.25500000920E-02 0. -1.
       -2   -1    0    0    0  501  0.00000000000E+00  0.00000000000E+00 -0.10763072172E+04  0.10763072172E+04  0.25500000920E-02 0.  1.
    10030    2    1    2    0    0  0.00000000000E+00  0.00000000000E+00  0.19094529579E+04  0.40620673923E+04  0.35853006710E+04 0.  0.
        5    1    3    3  502    0 -0.13623279433E+04  0.44418316714E+03 -0.26570560692E+03  0.14573461053E+04  0.46999998093E+01 0.  1.
       -5    1    3    3    0  502  0.13623279433E+04 -0.44418316714E+03  0.21751585648E+04  0.26047212870E+04  0.46999998093E+01 0. -1.
</event>
<event>
 5   0  0.7347303E-08  0.3595537E+04  0.7818609E-02  0.8091515E-01
        1   -1    0    0  501    0  0.00000000000E+00  0.00000000000E+00  0.25557249666E+04  0.25557249666E+04  0.50400001928E-02 0.  1.
       -1   -1    0    0    0  501  0.00000000000E+00  0.00000000000E+00 -0.12646009325E+04  0.12646009325E+04  0.50400001928E-02 0. -1.
    10030    2    1    2    0    0  0.00000000000E+00  0.00000000000E+00  0.12911240341E+04  0.38203258991E+04  0.35955373317E+04 0.  0.
        2    1    3    3  502    0  0.54413225074E+03  0.12255713935E+04  0.19178664772E+04  0.23401531940E+04  0.25500000920E-02 0.  1.
       -2    1    3    3    0  502 -0.54413225074E+03 -0.12255713935E+04 -0.62674244313E+03  0.14801727051E+04  0.25500000920E-02 0. -1.
</event>
<event>
 5   0  0.2198900E-07  0.3604703E+04  0.7818609E-02  0.8089415E-01
        2   -1    0    0  501    0  0.00000000000E+00  0.00000000000E+00  0.31430132264E+04  0.31430132264E+04  0.25500000920E-02 0. -1.
       -2   -1    0    0    0  501  0.00000000000E+00  0.00000000000E+00 -0.10335532364E+04  0.10335532365E+04  0.25500000920E-02 0.  1.
    10030    2    1    2    0    0  0.00000000000E+00  0.00000000000E+00  0.21094599900E+04  0.41765664629E+04  0.36047033123E+04 0.  0.
        2    1    3    3  502    0 -0.14523665308E+04  0.64822099711E+03  0.20371289372E+04  0.25844638337E+04  0.25500000920E-02 0. -1.
       -2    1    3    3    0  502  0.14523665308E+04 -0.64822099711E+03  0.72331052794E+02  0.15921026292E+04  0.25500000920E-02 0.  1.
</event>
<event>
 5   0  0.2238968E-07  0.3604049E+04  0.7818609E-02  0.8089565E-01
       -2   -1    0    0    0  501  0.00000000000E+00  0.00000000000E+00  0.13579718154E+04  0.13579718154E+04  0.25500000920E-02 0.  1.
        2   -1    0    0  501    0  0.00000000000E+00  0.00000000000E+00 -0.23912808269E+04  0.23912808269E+04  0.25500000920E-02 0. -1.
    10030    2    1    2    0    0  0.00000000000E+00  0.00000000000E+00 -0.10333090115E+04  0.37492526423E+04  0.36040488152E+04 0.  0.
        3    1    3    3  502    0  0.24875176348E+03 -0.17542172530E+04 -0.85874411584E+03  0.19689075848E+04  0.10100000352E+00 0. -1.
       -3    1    3    3    0  502 -0.24875176348E+03  0.17542172530E+04 -0.17456489567E+03  0.17803450575E+04  0.10100000352E+00 0.  1.
</event>
<event>
 5   0  0.2199902E-07  0.3622857E+04  0.7818609E-02  0.8085276E-01
        2   -1    0    0  501    0  0.00000000000E+00  0.00000000000E+00  0.12609664462E+04  0.12609664462E+04  0.25500000920E-02 0. -1.
       -2   -1    0    0    0  501  0.00000000000E+00  0.00000000000E+00 -0.26021898552E+04  0.26021898552E+04  0.25500000920E-02 0.  1.
    10030    2    1    2    0    0  0.00000000000E+00  0.00000000000E+00 -0.13412234089E+04  0.38631563014E+04  0.36228574877E+04 0.  0.
        1    1    3    3  502    0  0.14333799348E+04  0.11056996616E+04 -0.60213120269E+03  0.19078028631E+04  0.50400001928E-02 0.  1.
       -1    1    3    3    0  502 -0.14333799348E+04 -0.11056996616E+04 -0.73909220625E+03  0.19553534383E+04  0.50400001928E-02 0. -1.
</event>
<event>
 5   0  0.2309391E-07  0.3592847E+04  0.7818609E-02  0.8092132E-01
       -2   -1    0    0    0  501  0.00000000000E+00  0.00000000000E+00  0.14014253873E+04  0.14014253873E+04  0.25500000920E-02 0.  1.
        2   -1    0    0  501    0  0.00000000000E+00  0.00000000000E+00 -0.23027538678E+04  0.23027538678E+04  0.25500000920E-02 0. -1.
    10030    2    1    2    0    0  0.00000000000E+00  0.00000000000E+00 -0.90132848045E+03  0.37041792551E+04  0.35928471891E+04 0.  0.
        4    1    3    3  502    0  0.26827207722E+03 -0.99689882875E+03  0.10650477878E+04  0.14832752898E+04  0.12699999809E+01 0.  1.
       -4    1    3    3    0  502 -0.26827207722E+03  0.99689882875E+03 -0.19663762682E+04  0.22209039653E+04  0.12699999809E+01 0. -1.
</event>
<event>
 5   0  0.7236375E-08  0.3621888E+04  0.7818609E-02  0.8085496E-01
       -1   -1    0    0    0  501  0.00000000000E+00  0.00000000000E+00  0.25161895814E+04  0.25161895814E+04  0.50400001928E-02 0. -1.
        1   -1    0    0  501    0  0.00000000000E+00  0.00000000000E+00 -0.13033667058E+04  0.13033667058E+04  0.50400001928E-02 0.  1.
    10030    2    1    2    0    0  0.00000000000E+00  0.00000000000E+00  0.12128228757E+04  0.38195562872E+04  0.36218877541E+04 0.  0.
        5    1    3    3  502    0 -0.95795147896E+03 -0.10799365318E+04 -0.54668046390E+03  0.15436371233E+04  0.46999998093E+01 0.  1.
       -5    1    3    3    0  502  0.95795147896E+03  0.10799365318E+04  0.17595033396E+04  0.22759191639E+04  0.46999998093E+01 0. -1.
</event>
<event>
 5   0  0.7514289E-08  0.3602578E+04  0.7818609E-02  0.8089901E-01
        1   -1    0    0  501    0  0.00000000000E+00  0.00000000000E+00  0.10510172172E+04  0.10510172172E+04  0.50400001928E-02 0. -1.
       -1   -1    0    0    0  501  0.00000000000E+00  0.00000000000E+00 -0.30871442772E+04  0.30871442772E+04  0.50400001928E-02 0.  1.
    10030    2    1    2    0    0  0.00000000000E+00  0.00000000000E+00 -0.20361270600E+04  0.41381614945E+04  0.36025778478E+04 0.  0.
        4    1    3    3  502    0  0.10346056581E+04 -0.22157710046E+03 -0.26925718602E+04  0.28930001926E+04  0.12699999809E+01 0.  1.
       -4    1    3    3    0  502 -0.10346056581E+04  0.22157710046E+03  0.65644480016E+03  0.12451613019E+04  0.12699999809E+01 0. -1.
</event>
<event>
 5   0  0.7236375E-08  0.3597933E+04  0.7818609E-02  0.8090965E-01
        3   -1    0    0  501    0  0.00000000000E+00  0.00000000000E+00  0.19173823758E+04  0.19173823784E+04  0.10100000352E+00 0.  1.
       -3   -1    0    0    0  501  0.00000000000E+00  0.00000000000E+00 -0.16878638735E+04  0.16878638766E+04  0.10100000352E+00 0. -1.
    10030    2    1    2    0    0  0.00000000000E+00  0.00000000000E+00  0.22951850224E+03  0.36052462550E+04  0.35979329922E+04 0.  0.
        2    1    3    3  502    0 -0.12878166883E+04 -0.94849075161E+03  0.93994630829E+03  0.18551564869E+04  0.25500000920E-02 0.  1.
       -2    1    3    3    0  502  0.12878166883E+04  0.94849075161E+03 -0.71042780605E+03  0.17500897680E+04  0.25500000920E-02 0. -1.
</event>
<event>
 5   0  0.2238968E-07  0.3585817E+04  0.7818609E-02  0.8093748E-01
        2   -1    0    0  501    0  0.00000000000E+00  0.00000000000E+00  0.22001421667E+04  0.22001421667E+04  0.25500000920E-02 0.  1.
       -2   -1    0    0    0  501  0.00000000000E+00  0.00000000000E+00 -0.14610516610E+04  0.14610516610E+04  0.25500000920E-02 0. -1.
    10030    2    1    2    0    0  0.00000000000E+00  0.00000000000E+00  0.73909050570E+03  0.36611938278E+04  0.35858172665E+04 0.  0.
        3    1    3    3  502    0 -0.17420222748E+04  0.36548618430E+03  0.14984872814E+03  0.17862464579E+04  0.10100000352E+00 0.  1.
       -3    1    3    3    0  502  0.17420222748E+04 -0.36548618430E+03  0.58924177756E+03  0.18749473698E+04  0.10100000352E+00 0. -1.
</event>
<event>
 5   0  0.2198900E-07  0.3535591E+04  0.7818609E-02  0.8105407E-01
        2   -1    0    0  501    0  0.00000000000E+00  0.00000000000E+00  0.22269796466E+04  0.22269796466E+04  0.25500000920E-02 0. -1.
       -2   -1    0    0    0  501  0.00000000000E+00  0.00000000000E+00 -0.14032913852E+04  0.14032913852E+04  0.25500000920E-02 0.  1.
    10030    2    1    2    0    0  0.00000000000E+00  0.00000000000E+00  0.82368826142E+03  0.36302710318E+04  0.35355912394E+04 0.  0.
        2    1    3    3  502    0  0.30041762991E+03 -0.27771944227E+03 -0.13540136142E+04  0.14144722367E+04  0.25500000920E-02 0.  1.
       -2    1    3    3    0  502 -0.30041762991E+03  0.27771944227E+03  0.21777018756E+04  0.22157987951E+04  0.25500000920E-02 0. -1.
</event>
<event>
 5   0  0.2342606E-07  0.3592563E+04  0.7818609E-02  0.8092197E-01
        2   -1    0    0  501    0  0.00000000000E+00  0.00000000000E+00  0.30325004448E+04  0.30325004448E+04  0.25500000920E-02 0. -1.
       -2   -1    0    0    0  501  0.00000000000E+00  0.00000000000E+00 -0.10640151390E+04  0.10640151390E+04  0.25500000920E-02 0.  1.
    10030    2    1    2    0    0  0.00000000000E+00  0.00000000000E+00  0.19684853058E+04  0.40965155837E+04  0.35925625296E+04 0.  0.
        5    1    3    3  502    0 -0.99706712357E+03 -0.12678927576E+02 -0.71943184282E+03  0.12295966292E+04  0.46999998093E+01 0.  1.
       -5    1    3    3    0  502  0.99706712357E+03  0.12678927576E+02  0.26879171486E+04  0.28669189545E+04  0.46999998093E+01 0. -1.
</event>
<event>
 5   0  0.7514289E-08  0.3592063E+04  0.7818609E-02  0.8092312E-01
       -1   -1    0    0    0  501  0.00000000000E+00  0.00000000000E+00  0.24946162313E+04  0.24946162313E+04  0.50400001928E-02 0.  1.
        1   -1    0    0  501    0  0.00000000000E+00  0.00000000000E+00 -0.12930764803E+04  0.12930764803E+04  0.50400001928E-02 0. -1.
    10030    2    1    2    0    0  0.00000000000E+00  0.00000000000E+00  0.12015397510E+04  0.37876927116E+04  0.35920632378E+04 0.  0.
        4    1    3    3  502    0  0.88307058850E+03 -0.85431656035E+03 -0.78055770745E+03  0.14556587502E+04  0.12699999809E+01 0. -1.
       -4    1    3    3    0  502 -0.88307058850E+03  0.85431656035E+03  0.19820974584E+04  0.23320339614E+04  0.12699999809E+01 0.  1.
</event>
<event>
 5   0  0.7236375E-08  0.3588558E+04  0.7818609E-02  0.8093118E-01
       -1   -1    0    0    0  501  0.00000000000E+00  0.00000000000E+00  0.18580413582E+04  0.18580413582E+04  0.50400001928E-02 0.  1.
        1   -1    0    0  501    0  0.00000000000E+00  0.00000000000E+00 -0.17327052266E+04  0.17327052266E+04  0.50400001928E-02 0. -1.
    10030    2    1    2    0    0  0.00000000000E+00  0.00000000000E+00  0.12533613162E+03  0.35907465848E+04  0.35885584697E+04 0.  0.
        1    1    3    3  502    0  0.24169565732E+03  0.16456510772E+04  0.73602245641E+03  0.18188769378E+04  0.50400001928E-02 0.  1.
       -1    1    3    3    0  502 -0.24169565732E+03 -0.16456510772E+04 -0.61068632479E+03  0.17718696470E+04  0.50400001928E-02 0. -1.
</event>
<event>
 5   0  0.2198900E-07  0.3670976E+04  0.7818609E-02  0.8074424E-01
       -2   -1    0    0    0  501  0.00000000000E+00  0.00000000000E+00  0.25969438088E+04  0.25969438088E+04  0.25500000920E-02 0. -1.
        2   -1    0    0  501    0  0.00000000000E+00  0.00000000000E+00 -0.12973006165E+04  0.12973006165E+04  0.25500000920E-02 0.  1.
    10030    2    1    2    0    0  0.00000000000E+00  0.00000000000E+00  0.12996431924E+04  0.38942444253E+04  0.36709763301E+04 0.  0.
        2    1    3    3  502    0  0.17357697301E+02  0.15350027349E+04  0.17172415168E+04  0.23033569226E+04  0.25500000920E-02 0. -1.
       -2    1    3    3    0  502 -0.17357697301E+02 -0.15350027349E+04 -0.41759832436E+03  0.15908875027E+04  0.25500000920E-02 0.  1.
</event>
<event>
 5   0  0.7514289E-08  0.3624844E+04  0.7818609E-02  0.8084824E-01
        1   -1    0    0  501    0  0.00000000000E+00  0.00000000000E+00  0.22789555119E+04  0.22789555119E+04  0.50400001928E-02 0. -1.
       -1   -1    0    0    0  501  0.00000000000E+00  0.00000000000E+00 -0.14413944436E+04  0.14413944437E+04  0.50400001928E-02 0.  1.
    10030    2    1    2    0    0  0.00000000000E+00  0.00000000000E+00  0.83756106825E+03  0.37203499556E+04  0.36248441689E+04 0.  0.
        4    1    3    3  502    0 -0.39495932745E+03  0.88746403515E+03  0.19892220646E+04  0.22137279235E+04  0.12699999809E+01 0. -1.
       -4    1    3    3    0  502  0.39495932745E+03 -0.88746403515E+03 -0.11516609964E+04  0.15066220321E+04  0.12699999809E+01 0.  1.
</event>
<event>
 5   0  0.2309391E-07  0.3529860E+04  0.7818609E-02  0.8106750E-01
        2   -1    0    0  501    0  0.00000000000E+00  0.00000000000E+00  0.18209751865E+04  0.18209751865E+04  0.25500000920E-02 0. -1.
       -2   -1    0    0    0  501  0.00000000000E+00  0.00000000000E+00 -0.17106098096E+04  0.17106098096E+04  0.25500000920E-02 0.  1.
    10030    2    1    2    0    0  0.00000000000E+00  0.00000000000E+00  0.11036537689E+03  0.35315849960E+04  0.35298600635E+04 0.  0.
        4    1    3    3  502    0  0.94877405624E+03  0.14862347809E+04  0.13209918915E+03  0.17681962115E+04  0.12699999809E+01 0. -1.
       -4    1    3    3    0  502 -0.94877405624E+03 -0.14862347809E+04 -0.21733812260E+02  0.17633887845E+04  0.12699999809E+01 0.  1.
</event>
<event>
 5   0  0.7236375E-08  0.3598847E+04  0.7818609E-02  0.8090756E-01
        1   -1    0    0  501    0  0.00000000000E+00  0.00000000000E+00  0.22958903687E+04  0.22958903687E+04  0.50400001928E-02 0.  1.
       -1   -1    0    0    0  501  0.00000000000E+00  0.00000000000E+00 -0.14103131928E+04  0.14103131928E+04  0.50400001928E-02 0. -1.
    10030    2    1    2    0    0  0.00000000000E+00  0.00000000000E+00  0.88557717585E+03  0.37062035615E+04  0.35988467465E+04 0.  0.
        5    1    3    3  502    0  0.13997717289E+04  0.99853629220E+03  0.98914931952E+03  0.19836517048E+04  0.46999998093E+01 0.  1.
       -5    1    3    3    0  502 -0.13997717289E+04 -0.99853629220E+03 -0.10357214367E+03  0.17225518566E+04  0.46999998093E+01 0. -1.
</event>
<event>
 5   0  0.2238968E-07  0.3586526E+04  0.7818609E-02  0.8093585E-01
        2   -1    0    0  501    0  0.00000000000E+00  0.00000000000E+00  0.15128840360E+04  0.15128840360E+04  0.25500000920E-02 0. -1.
       -2   -1    0    0    0  501  0.00000000000E+00  0.00000000000E+00 -0.21256044472E+04  0.21256044472E+04  0.25500000920E-02 0.  1.
    10030    2    1    2    0    0  0.00000000000E+00  0.00000000000E+00 -0.61272041126E+03  0.36384884832E+04  0.35865264728E+04 0.  0.
        3    1    3    3  502    0  0.86170285284E+03 -0.14318529783E+04 -0.96621299466E+03  0.19303632610E+04  0.10100000352E+00 0. -1.
       -3    1    3    3    0  502 -0.86170285284E+03  0.14318529783E+04  0.35349258340E+03  0.17081252222E+04  0.10100000352E+00 0.  1.
</event>
<event>
 5   0  0.2199902E-07  0.3612821E+04  0.7818609E-02  0.8087561E-01
        2   -1    0    0  501    0  0.00000000000E+00  0.00000000000E+00  0.17604502790E+04  0.17604502790E+04  0.25500000920E-02 0. -1.
       -2   -1    0    0    0  501  0.00000000000E+00  0.00000000000E+00 -0.18535706949E+04  0.18535706949E+04  0.25500000920E-02 0.  1.
    10030    2    1    2    0    0  0.00000000000E+00  0.00000000000E+00 -0.93120415919E+02  0.36140209739E+04  0.36128210844E+04 0.  0.
        1    1    3    3  502    0 -0.13715764295E+04 -0.17962993895E+03  0.11155614969E+04  0.17770667602E+04  0.50400001928E-02 0. -1.
       -1    1    3    3    0  502  0.13715764295E+04  0.17962993895E+03 -0.12086819128E+04  0.18369542137E+04  0.50400001928E-02 0.  1.
</event>
<event>
 5   0  0.7261233E-08  0.3611519E+04  0.7818609E-02  0.8087858E-01
        1   -1    0    0  501    0  0.00000000000E+00  0.00000000000E+00  0.26594243634E+04  0.26594243634E+04  0.50400001928E-02 0.  1.
       -1   -1    0    0    0  501  0.00000000000E+00  0.00000000000E+00 -0.12261176039E+04  0.12261176039E+04  0.50400001928E-02 0. -1.
    10030    2    1    2    0    0  0.00000000000E+00  0.00000000000E+00  0.14333067596E+04  0.38855419673E+04  0.36115188097E+04 0.  0.
        3    1    3    3  502    0  0.13381429238E+04  0.83950476815E+03  0.16578884203E+04  0.22899757127E+04  0.10100000352E+00 0.  1.
       -3    1    3    3    0  502 -0.13381429238E+04 -0.83950476815E+03 -0.22458166075E+03  0.15955662546E+04  0.10100000352E+00 0. -1.
</event>
<event>
 5   0  0.7514289E-08  0.3603117E+04  0.7818609E-02  0.8089778E-01
       -1   -1    0    0    0  501  0.00000000000E+00  0.00000000000E+00  0.13635644321E+04  0.13635644321E+04  0.50400001928E-02 0.  1.
        1   -1    0    0  501    0  0.00000000000E+00  0.00000000000E+00 -0.23802411193E+04  0.23802411193E+04  0.50400001928E-02 0. -1.
    10030    2    1    2    0    0  0.00000000000E+00  0.00000000000E+00 -0.10166766872E+04  0.37438055514E+04  0.36031165011E+04 0.  0.
        4    1    3    3  502    0 -0.32708809118E+03  0.17105634744E+04 -0.29252837469E+02  0.17418011829E+04  0.12699999809E+01 0.  1.
       -4    1    3    3    0  502  0.32708809118E+03 -0.17105634744E+04 -0.98742384977E+03  0.20020043685E+04  0.12699999809E+01 0. -1.
</event>
<event>
 5   0  0.7514289E-08  0.3604372E+04  0.7818609E-02  0.8089491E-01
       -1   -1    0    0    0  501  0.00000000000E+00  0.00000000000E+00  0.14817809299E+04  0.14817809299E+04  0.50400001928E-02 0.  1.
        1   -1    0    0  501    0  0.00000000000E+00  0.00000000000E+00 -0.21918717129E+04  0.21918717129E+04  0.50400001928E-02 0. -1.
    10030    2    1    2    0    0  0.00000000000E+00  0.00000000000E+00 -0.71009078302E+03  0.36736526429E+04  0.36043716263E+04 0.  0.
        4    1    3    3  502    0  0.14520215227E+04 -0.10899902730E+03 -0.14373533135E+04  0.20460287024E+04  0.12699999809E+01 0. -1.
       -4    1    3    3    0  502 -0.14520215227E+04  0.10899902730E+03  0.72726253047E+03  0.16276239404E+04  0.12699999809E+01 0.  1.
</event>
<event>
 5   0  0.7514289E-08  0.3576777E+04  0.7818609E-02  0.8095832E-01
        1   -1    0    0  501    0  0.00000000000E+00  0.00000000000E+00  0.21942932446E+04  0.21942932446E+04  0.50400001928E-02 0.  1.
       -1   -1    0    0    0  501  0.00000000000E+00  0.00000000000E+00 -0.14575691017E+04  0.14575691017E+04  0.50400001928E-02 0. -1.
    10030    2    1    2    0    0  0.00000000000E+00  0.00000000000E+00  0.73672414287E+03  0.36518623463E+04  0.35767773391E+04 0.  0.
        4    1    3    3  502    0  0.10955912008E+04 -0.93226109006E+03  0.14531642232E+04  0.20447783968E+04  0.12699999809E+01 0.  1.
       -4    1    3    3    0  502 -0.10955912008E+04  0.93226109006E+03 -0.71644008033E+03  0.16070839496E+04  0.12699999809E+01 0. -1.
</event>
<event>
 5   0  0.7261233E-08  0.3547203E+04  0.7818609E-02  0.8102694E-01
        1   -1    0    0  501    0  0.00000000000E+00  0.00000000000E+00  0.17639753146E+04  0.17639753146E+04  0.50400001928E-02 0.  1.
       -1   -1    0    0    0  501  0.00000000000E+00  0.00000000000E+00 -0.17832797899E+04  0.17832797899E+04  0.50400001928E-02 0. -1.
    10030    2    1    2    0    0  0.00000000000E+00  0.00000000000E+00 -0.19304475300E+02  0.35472551045E+04  0.35472025757E+04 0.  0.
        3    1    3    3  502    0 -0.16756494716E+04 -0.52376613773E+03 -0.26170636089E+03  0.17749992530E+04  0.10100000352E+00 0. -1.
       -3    1    3    3    0  502  0.16756494716E+04  0.52376613773E+03  0.24240188559E+03  0.17722558514E+04  0.10100000352E+00 0.  1.
</event>
<event>
 5   0  0.2342606E-07  0.3603075E+04  0.7818609E-02  0.8089788E-01
       -2   -1    0    0    0  501  0.00000000000E+00  0.00000000000E+00  0.17295692686E+04  0.17295692686E+04  0.25500000920E-02 0. -1.
        2   -1    0    0  501    0  0.00000000000E+00  0.00000000000E+00 -0.18765000595E+04  0.18765000595E+04  0.25500000920E-02 0.  1.
    10030    2    1    2    0    0  0.00000000000E+00  0.00000000000E+00 -0.14693079092E+03  0.36060693281E+04  0.36030747067E+04 0.  0.
        5    1    3    3  502    0  0.14381990363E+02  0.67911292949E+03 -0.17434185006E+04  0.18710775962E+04  0.46999998093E+01 0.  1.
       -5    1    3    3    0  502 -0.14381990363E+02 -0.67911292949E+03  0.15964877097E+04  0.17349917319E+04  0.46999998093E+01 0. -1.
</event>
<event>
 5   0  0.2198900E-07  0.3600452E+04  0.7818609E-02  0.8090388E-01
        2   -1    0    0  501    0  0.00000000000E+00  0.00000000000E+00  0.25446498487E+04  0.25446498487E+04  0.25500000920E-02 0.  1.
       -2   -1    0    0    0  501  0.00000000000E+00  0.00000000000E+00 -0.12735796870E+04  0.12735796870E+04  0.25500000920E-02 0. -1.
    10030    2    1    2    0    0  0.00000000000E+00  0.00000000000E+00  0.12710701617E+04  0.38182295356E+04  0.36004523925E+04 0.  0.
        2    1    3    3  502    0 -0.45074027802E+03 -0.16235030071E+04  0.13078243094E+04  0.21329166033E+04  0.25500000920E-02 0.  1.
       -2    1    3    3    0  502  0.45074027802E+03  0.16235030071E+04 -0.36754147714E+02  0.16853129323E+04  0.25500000920E-02 0. -1.
</event>
<event>
 5   0  0.7347303E-08  0.3587108E+04  0.7818609E-02  0.8093451E-01
        1   -1    0    0  501    0  0.00000000000E+00  0.00000000000E+00  0.18731499586E+04  0.18731499587E+04  0.50400001928E-02 0. -1.
       -1   -1    0    0    0  501  0.00000000000E+00  0.00000000000E+00 -0.17173401349E+04  0.17173401349E+04  0.50400001928E-02 0.  1.
    10030    2    1    2    0    0  0.00000000000E+00  0.00000000000E+00  0.15580982377E+03  0.35904900935E+04  0.35871078058E+04 0.  0.
        2    1    3    3  502    0 -0.12847583384E+04  0.62049226943E+02  0.13290360958E+04  0.18495380609E+04  0.25500000920E-02 0. -1.
       -2    1    3    3    0  502  0.12847583384E+04 -0.62049226943E+02 -0.11732262720E+04  0.17409520327E+04  0.25500000920E-02 0.  1.
</event>
<event>
 5   0  0.7236375E-08  0.3662845E+04  0.7818609E-02  0.8076246E-01
       -1   -1    0    0    0  501  0.00000000000E+00  0.00000000000E+00  0.12896782101E+04  0.12896782102E+04  0.50400001928E-02 0. -1.
        1   -1    0    0  501    0  0.00000000000E+00  0.00000000000E+00 -0.26007331943E+04  0.26007331943E+04  0.50400001928E-02 0.  1.
    10030    2    1    2    0    0  0.00000000000E+00  0.00000000000E+00 -0.13110549842E+04  0.38904114045E+04  0.36628453045E+04 0.  0.
        1    1    3    3  502    0 -0.83443695301E+03  0.10743761985E+04 -0.19578975423E+04  0.23840998366E+04  0.50400001928E-02 0.  1.
       -1    1    3    3    0  502  0.83443695301E+03 -0.10743761985E+04  0.64684255814E+03  0.15063115679E+04  0.50400001928E-02 0. -1.
</event>
<event>
 5   0  0.7261233E-08  0.3603808E+04  0.7818609E-02  0.8089620E-01
        1   -1    0    0  501    0  0.00000000000E+00  0.00000000000E+00  0.11005665613E+04  0.11005665613E+04  0.50400001928E-02 0. -1.
       -1   -1    0    0    0  501  0.00000000000E+00  0.00000000000E+00 -0.29501695377E+04  0.29501695378E+04  0.50400001928E-02 0.  1.
    10030    2    1    2    0    0  0.00000000000E+00  0.00000000000E+00 -0.18496029764E+04  0.40507360991E+04  0.36038079547E+04 0.  0.
        3    1    3    3  502    0  0.59114812380E+03  0.68533502137E+03 -0.26761452769E+04  0.28250475658E+04  0.10100000352E+00 0.  1.
       -3    1    3    3    0  502 -0.59114812380E+03 -0.68533502137E+03  0.82654230052E+03  0.12256885333E+04  0.10100000352E+00 0. -1.
</event>
<event>
 5   0  0.7236375E-08  0.3597817E+04  0.7818609E-02  0.8090992E-01
       -1   -1    0    0    0  501  0.00000000000E+00  0.00000000000E+00  0.23050002069E+04  0.23050002069E+04  0.50400001928E-02 0.  1.
        1   -1    0    0  501    0  0.00000000000E+00  0.00000000000E+00 -0.14039358886E+04  0.14039358886E+04  0.50400001928E-02 0. -1.
    10030    2    1    2    0    0  0.00000000000E+00  0.00000000000E+00  0.90106431826E+03  0.37089360955E+04  0.35978174015E+04 0.  0.
        1    1    3    3  502    0 -0.15854499784E+04  0.38056887678E+03 -0.33293246641E+03  0.16641299021E+04  0.50400001928E-02 0. -1.
       -1    1    3    3    0  502  0.15854499784E+04 -0.38056887678E+03  0.12339967847E+04  0.20448061934E+04  0.50400001928E-02 0.  1.
</event>
<event>
 5   0  0.7514289E-08  0.3679785E+04  0.7818609E-02  0.8072457E-01
        1   -1    0    0  501    0  0.00000000000E+00  0.00000000000E+00  0.20415305446E+04  0.20415305446E+04  0.50400001928E-02 0.  1.
       -1   -1    0    0    0  501  0.00000000000E+00  0.00000000000E+00 -0.16581696971E+04  0.16581696971E+04  0.50400001928E-02 0. -1.
    10030    2    1    2    0    0  0.00000000000E+00  0.00000000000E+00  0.38336084748E+03  0.36997002418E+04  0.36797848225E+04 0.  0.
        4    1    3    3  502    0 -0.90403059060E+03 -0.14142996167E+04  0.94920875238E+03  0.19283447780E+04  0.12699999809E+01 0.  1.
       -4    1    3    3    0  502  0.90403059060E+03  0.14142996167E+04 -0.56584790490E+03  0.17713554637E+04  0.12699999809E+01 0. -1.
</event>
<event>
 5   0  0.7514289E-08  0.3605144E+04  0.7818609E-02  0.8089314E-01
       -1   -1    0    0    0  501  0.00000000000E+00  0.00000000000E+00  0.16609260053E+04  0.16609260053E+04  0.50400001928E-02 0.  1.
        1   -1    0    0  501    0  0.00000000000E+00  0.00000000000E+00 -0.19562981759E+04  0.19562981759E+04  0.50400001928E-02 0. -1.
    10030    2    1    2    0    0  0.00000000000E+00  0.00000000000E+00 -0.29537217057E+03  0.36172241812E+04  0.36051443879E+04 0.  0.
        4    1    3    3  502    0 -0.58079597218E+02 -0.85140828178E+03  0.14453983926E+04  0.16785253731E+04  0.12699999809E+01 0.  1.
       -4    1    3    3    0  502  0.58079597218E+02  0.85140828178E+03 -0.17407705632E+04  0.19386988081E+04  0.12699999809E+01 0. -1.
</event>
<event>
 5   0  0.7261233E-08  0.3481873E+04  0.7818609E-02  0.8118099E-01
        1   -1    0    0  501    0  0.00000000000E+00  0.00000000000E+00  0.19107876393E+04  0.19107876393E+04  0.50400001928E-02 0. -1.
       -1   -1    0    0    0  501  0.00000000000E+00  0.00000000000E+00 -0.15861835447E+04  0.15861835447E+04  0.50400001928E-02 0.  1.
    10030    2    1    2    0    0  0.00000000000E+00  0.00000000000E+00  0.32460409452E+03  0.34969711840E+04  0.34818730080E+04 0.  0.
        3    1    3    3  502    0  0.45296781527E+03  0.15826256823E+04  0.73130616913E+03  0.18013030326E+04  0.10100000352E+00 0. -1.
       -3    1    3    3    0  502 -0.45296781527E+03 -0.15826256823E+04 -0.40670207460E+03  0.16956681514E+04  0.10100000352E+00 0.  1.
</event>
<event>
 5   0  0.2198900E-07  0.3580249E+04  0.7818609E-02  0.8095031E-01
       -2   -1    0    0    0  501  0.00000000000E+00  0.00000000000E+00  0.14233020403E+04  0.14233020403E+04  0.25500000920E-02 0. -1.
        2   -1    0    0  501    0  0.00000000000E+00  0.00000000000E+00 -0.22514870329E+04  0.22514870329E+04  0.25500000920E-02 0.  1.
    10030    2    1    2    0    0  0.00000000000E+00  0.00000000000E+00 -0.82818499251E+03  0.36747890732E+04  0.35802492023E+04 0.  0.
        2    1    3    3  502    0  0.16813351498E+04  0.11153892664E+03  0.20619755021E+03  0.16976001437E+04  0.25500000920E-02 0. -1.
       -2    1    3    3    0  502 -0.16813351498E+04 -0.11153892664E+03 -0.10343825427E+04  0.19771889295E+04  0.25500000920E-02 0.  1.
</event>
<event>
 5   0  0.7236375E-08  0.3462657E+04  0.7818609E-02  0.8122697E-01
       -3   -1    0    0    0  501  0.00000000000E+00  0.00000000000E+00  0.14512008131E+04  0.14512008166E+04  0.10100000352E+00 0.  1.
        3   -1    0    0  501    0  0.00000000000E+00  0.00000000000E+00 -0.20655300372E+04  0.20655300397E+04  0.10100000352E+00 0. -1.
    10030    2    1    2    0    0  0.00000000000E+00  0.00000000000E+00 -0.61432922412E+03  0.35167308562E+04  0.34626572917E+04 0.  0.
        2    1    3    3  502    0 -0.14684256136E+04 -0.18272512696E+03 -0.12199977364E+04  0.19178260431E+04  0.25500000920E-02 0.  1.
       -2    1    3    3    0  502  0.14684256136E+04  0.18272512696E+03  0.60566851229E+03  0.15989048131E+04  0.25500000920E-02 0. -1.
</event>
<event>
 5   0  0.2199902E-07  0.3601358E+04  0.7818609E-02  0.8090181E-01
        2   -1    0    0  501    0  0.00000000000E+00  0.00000000000E+00  0.21758325942E+04  0.21758325942E+04  0.25500000920E-02 0.  1.
       -2   -1    0    0    0  501  0.00000000000E+00  0.00000000000E+00 -0.14902087110E+04  0.14902087110E+04  0.25500000920E-02 0. -1.
    10030    2    1    2    0    0  0.00000000000E+00  0.00000000000E+00  0.68562388319E+03  0.36660413052E+04  0.36013579026E+04 0.  0.
        1    1    3    3  502    0  0.17679789935E+04  0.27804981200E+03  0.14079539794E+03  0.17952394724E+04  0.50400001928E-02 0. -1.
       -1    1    3    3    0  502 -0.17679789935E+04 -0.27804981200E+03  0.54482848525E+03  0.18708018328E+04  0.50400001928E-02 0.  1.
</event>
<event>
 5   0  0.7261233E-08  0.3608598E+04  0.7818609E-02  0.8088525E-01
        1   -1    0    0  501    0  0.00000000000E+00  0.00000000000E+00  0.17008399223E+04  0.17008399223E+04  0.50400001928E-02 0. -1.
       -1   -1    0    0    0  501  0.00000000000E+00  0.00000000000E+00 -0.19140508004E+04  0.19140508004E+04  0.50400001928E-02 0.  1.
    10030    2    1    2    0    0  0.00000000000E+00  0.00000000000E+00 -0.21321087817E+03  0.36148907227E+04  0.36085975196E+04 0.  0.
        3    1    3    3  502    0 -0.14308613817E+04  0.63224873612E+03  0.79406835771E+03  0.17543224689E+04  0.10100000352E+00 0.  1.
       -3    1    3    3    0  502  0.14308613817E+04 -0.63224873612E+03 -0.10072792359E+04  0.18605682538E+04  0.10100000352E+00 0. -1.
</event>
<event>
 5   0  0.2199902E-07  0.3603926E+04  0.7818609E-02  0.8089593E-01
       -2   -1    0    0    0  501  0.00000000000E+00  0.00000000000E+00  0.19162471527E+04  0.19162471527E+04  0.25500000920E-02 0. -1.
        2   -1    0    0  501    0  0.00000000000E+00  0.00000000000E+00 -0.16944949940E+04  0.16944949940E+04  0.25500000920E-02 0.  1.
    10030    2    1    2    0    0  0.00000000000E+00  0.00000000000E+00  0.22175215867E+03  0.36107421466E+04  0.36039263075E+04 0.  0.
        1    1    3    3  502    0  0.13161953276E+04 -0.12264711287E+04  0.21339083817E+03  0.18116669726E+04  0.50400001928E-02 0.  1.
       -1    1    3    3    0  502 -0.13161953276E+04  0.12264711287E+04  0.83613205037E+01  0.17990751740E+04  0.50400001928E-02 0. -1.
</event>
<event>
 5   0  0.7236375E-08  0.3588108E+04  0.7818609E-02  0.8093221E-01
        1   -1    0    0  501    0  0.00000000000E+00  0.00000000000E+00  0.16192357563E+04  0.16192357564E+04  0.50400001928E-02 0.  1.
       -1   -1    0    0    0  501  0.00000000000E+00  0.00000000000E+00 -0.19877461297E+04  0.19877461298E+04  0.50400001928E-02 0. -1.
    10030    2    1    2    0    0  0.00000000000E+00  0.00000000000E+00 -0.36851037340E+03  0.36069818861E+04  0.35881079180E+04 0.  0.
        1    1    3    3  502    0  0.14495599789E+04  0.67925564996E+03 -0.99846454581E+03  0.18866753350E+04  0.50400001928E-02 0. -1.
       -1    1    3    3    0  502 -0.14495599789E+04 -0.67925564996E+03  0.62995417241E+03  0.17203065511E+04  0.50400001928E-02 0.  1.
</event>
<event>
 5   0  0.2342606E-07  0.3609319E+04  0.7818609E-02  0.8088360E-01
        2   -1    0    0  501    0  0.00000000000E+00  0.00000000000E+00  0.18550673058E+04  0.18550673058E+04  0.25500000920E-02 0. -1.
       -2   -1    0    0    0  501  0.00000000000E+00  0.00000000000E+00 -0.17556212834E+04  0.17556212834E+04  0.25500000920E-02 0.  1.
    10030    2    1    2    0    0  0.00000000000E+00  0.00000000000E+00  0.99446022426E+02  0.36106885892E+04  0.36093188522E+04 0.  0.
        5    1    3    3  502    0 -0.12515857873E+04  0.12949827626E+04 -0.65760026994E+02  0.18021636468E+04  0.46999998093E+01 0.  1.
       -5    1    3    3    0  502  0.12515857873E+04 -0.12949827626E+04  0.16520604942E+03  0.18085249424E+04  0.46999998093E+01 0. -1.
</event>
<event>
 5   0  0.7347303E-08  0.3591586E+04  0.7818609E-02  0.8092422E-01
       -1   -1    0    0    0  501  0.00000000000E+00  0.00000000000E+00  0.15142387128E+04  0.15142387128E+04  0.50400001928E-02 0.  1.
        1   -1    0    0  501    0  0.00000000000E+00  0.00000000000E+00 -0.21296986176E+04  0.21296986176E+04  0.50400001928E-02 0. -1.
    10030    2    1    2    0    0  0.00000000000E+00  0.00000000000E+00 -0.61545990479E+03  0.36439373304E+04  0.35915857742E+04 0.  0.
        2    1    3    3  502    0 -0.13971276668E+04  0.92213074321E+02  0.83311713186E+03  0.16292799403E+04  0.25500000920E-02 0.  1.
       -2    1    3    3    0  502  0.13971276668E+04 -0.92213074321E+02 -0.14485770367E+04  0.20146573901E+04  0.25500000920E-02 0. -1.
</event>
<event>
 5   0  0.2238968E-07  0.3598233E+04  0.7818609E-02  0.8090897E-01
       -2   -1    0    0    0  501  0.00000000000E+00  0.00000000000E+00  0.19604138094E+04  0.19604138094E+04  0.25500000920E-02 0.  1.
        2   -1    0    0  501    0  0.00000000000E+00  0.00000000000E+00 -0.16510902700E+04  0.16510902700E+04  0.25500000920E-02 0. -1.
    10030    2    1    2    0    0  0.00000000000E+00  0.00000000000E+00  0.30932353934E+03  0.36115040794E+04  0.35982329918E+04 0.  0.
        3    1    3    3  502    0  0.51444855726E+03  0.16953109587E+04 -0.15967631848E+03  0.17788291378E+04  0.10100000352E+00 0. -1.
       -3    1    3    3    0  502 -0.51444855726E+03 -0.16953109587E+04  0.46899985782E+03  0.18326749416E+04  0.10100000352E+00 0.  1.
</event>
<event>
 5   0  0.2198900E-07  0.3608095E+04  0.7818609E-02  0.8088640E-01
       -2   -1    0    0    0  501  0.00000000000E+00  0.00000000000E+00  0.15006774399E+04  0.15006774399E+04  0.25500000920E-02 0. -1.
        2   -1    0    0  501    0  0.00000000000E+00  0.00000000000E+00 -0.21687458256E+04  0.21687458256E+04  0.25500000920E-02 0.  1.
    10030    2    1    2    0    0  0.00000000000E+00  0.00000000000E+00 -0.66806838563E+03  0.36694232655E+04  0.36080953055E+04 0.  0.
        2    1    3    3  502    0 -0.48430594422E+03  0.77444746044E+03 -0.19161979534E+04  0.21227660524E+04  0.25500000920E-02 0.  1.
       -2    1    3    3    0  502  0.48430594422E+03 -0.77444746044E+03  0.12481295678E+04  0.15466572130E+04  0.25500000920E-02 0. -1.
</event>
<event>
 5   0  0.7347303E-08  0.3589236E+04  0.7818609E-02  0.8092962E-01
        1   -1    0    0  501    0  0.00000000000E+00  0.00000000000E+00  0.20055923074E+04  0.20055923074E+04  0.50400001928E-02 0. -1.
       -1   -1    0    0    0  501  0.00000000000E+00  0.00000000000E+00 -0.16058367763E+04  0.16058367763E+04  0.50400001928E-02 0.  1.
    10030    2    1    2    0    0  0.00000000000E+00  0.00000000000E+00  0.39975553110E+03  0.36114290837E+04  0.35892360667E+04 0.  0.
        2    1    3    3  502    0 -0.49066683126E+03 -0.11286270648E+02 -0.15369974851E+04  0.16134567203E+04  0.25500000920E-02 0.  1.
       -2    1    3    3    0  502  0.49066683126E+03  0.11286270648E+02  0.19367530162E+04  0.19979723634E+04  0.25500000920E-02 0. -1.
</event>
<event>
 5   0  0.2342606E-07  0.3648537E+04  0.7818609E-02  0.8079463E-01
        2   -1    0    0  501    0  0.00000000000E+00  0.00000000000E+00  0.31287394287E+04  0.31287394287E+04  0.25500000920E-02 0.  1.
       -2   -1    0    0    0  501  0.00000000000E+00  0.00000000000E+00 -0.10636727745E+04  0.10636727745E+04  0.25500000920E-02 0. -1.
    10030    2    1    2    0    0  0.00000000000E+00  0.00000000000E+00  0.20650666542E+04  0.41924122032E+04  0.36485366649E+04 0.  0.
        5    1    3    3  502    0  0.27174716780E+03 -0.25158096157E+03 -0.10200207171E+04  0.10851745743E+04  0.46999998093E+01 0. -1.
       -5    1    3    3    0  502 -0.27174716780E+03  0.25158096157E+03  0.30850873713E+04  0.31072376289E+04  0.46999998093E+01 0.  1.
</event>
<event>
 5   0  0.2342606E-07  0.3552433E+04  0.7818609E-02  0.8101475E-01
        2   -1    0    0  501    0  0.00000000000E+00  0.00000000000E+00  0.27460121533E+04  0.27460121533E+04  0.25500000920E-02 0. -1.
       -2   -1    0    0    0  501  0.00000000000E+00  0.00000000000E+00 -0.11489188703E+04  0.11489188703E+04  0.25500000920E-02 0.  1.
    10030    2    1    2    0    0  0.00000000000E+00  0.00000000000E+00  0.15970932830E+04  0.38949310236E+04  0.35524330710E+04 0.  0.
        5    1    3    3  502    0  0.10446545802E+04  0.92017136077E+03  0.20080362096E+04  0.24434095101E+04  0.46999998093E+01 0.  1.
       -5    1    3    3    0  502 -0.10446545802E+04 -0.92017136077E+03 -0.41094292659E+03  0.14515215135E+04  0.46999998093E+01 0. -1.
</event>
<event>
 5   0  0.2238968E-07  0.3601743E+04  0.7818609E-02  0.8090093E-01
       -2   -1    0    0    0  501  0.00000000000E+00  0.00000000000E+00  0.10718004308E+04  0.10718004308E+04  0.25500000920E-02 0. -1.
        2   -1    0    0  501    0  0.00000000000E+00  0.00000000000E+00 -0.30258784819E+04  0.30258784819E+04  0.25500000920E-02 0.  1.
    10030    2    1    2    0    0  0.00000000000E+00  0.00000000000E+00 -0.19540780511E+04  0.40976789127E+04  0.36017428340E+04 0.  0.
        3    1    3    3  502    0 -0.45009952224E+03  0.41329116692E+03 -0.29043260605E+04  0.29679132475E+04  0.10100000352E+00 0.  1.
       -3    1    3    3    0  502  0.45009952224E+03 -0.41329116692E+03  0.95024800947E+03  0.11297656652E+04  0.10100000352E+00 0. -1.
</event>
<event>
 5   0  0.2199902E-07  0.3651941E+04  0.7818609E-02  0.8078696E-01
        2   -1    0    0  501    0  0.00000000000E+00  0.00000000000E+00  0.24381866669E+04  0.24381866669E+04  0.25500000920E-02 0.  1.
       -2   -1    0    0    0  501  0.00000000000E+00  0.00000000000E+00 -0.13674789702E+04  0.13674789702E+04  0.25500000920E-02 0. -1.
    10030    2    1    2    0    0  0.00000000000E+00  0.00000000000E+00  0.10707076966E+04  0.38056656371E+04  0.36519413973E+04 0.  0.
        1    1    3    3  502    0 -0.12096276430E+04  0.92763549732E+03  0.15828848756E+04  0.21975511780E+04  0.50400001928E-02 0.  1.
       -1    1    3    3    0  502  0.12096276430E+04 -0.92763549732E+03 -0.51217717894E+03  0.16081144590E+04  0.50400001928E-02 0. -1.
</event>
<event>
 5   0  0.7236375E-08  0.3578144E+04  0.7818609E-02  0.8095516E-01
       -1   -1    0    0    0  501  0.00000000000E+00  0.00000000000E+00  0.21824915171E+04  0.21824915171E+04  0.50400001928E-02 0.  1.
        1   -1    0    0  501    0  0.00000000000E+00  0.00000000000E+00 -0.14665709846E+04  0.14665709846E+04  0.50400001928E-02 0. -1.
    10030    2    1    2    0    0  0.00000000000E+00  0.00000000000E+00  0.71592053256E+03  0.36490625017E+04  0.35781440625E+04 0.  0.
        5    1    3    3  502    0  0.13085467097E+04 -0.10950280692E+04  0.90655861242E+03  0.19321624081E+04  0.46999998093E+01 0.  1.
       -5    1    3    3    0  502 -0.13085467097E+04  0.10950280692E+04 -0.19063807986E+03  0.17169000935E+04  0.46999998093E+01 0. -1.
</event>
<event>
 5   0  0.7236375E-08  0.3575782E+04  0.7818609E-02  0.8096062E-01
       -1   -1    0    0    0  501  0.00000000000E+00  0.00000000000E+00  0.18826509074E+04  0.18826509074E+04  0.50400001928E-02 0.  1.
        1   -1    0    0  501    0  0.00000000000E+00  0.00000000000E+00 -0.16979002232E+04  0.16979002232E+04  0.50400001928E-02 0. -1.
    10030    2    1    2    0    0  0.00000000000E+00  0.00000000000E+00  0.18475068426E+03  0.35805511306E+04  0.35757815346E+04 0.  0.
        1    1    3    3  502    0  0.47543798005E+03  0.60554333415E+03 -0.15234155849E+04  0.17069033501E+04  0.50400001928E-02 0. -1.
       -1    1    3    3    0  502 -0.47543798005E+03 -0.60554333415E+03  0.17081662691E+04  0.18736477805E+04  0.50400001928E-02 0.  1.
</event>
<event>
 5   0  0.2198900E-07  0.3602757E+04  0.7818609E-02  0.8089860E-01
       -2   -1    0    0    0  501  0.00000000000E+00  0.00000000000E+00  0.16827956165E+04  0.16827956165E+04  0.25500000920E-02 0.  1.
        2   -1    0    0  501    0  0.00000000000E+00  0.00000000000E+00 -0.19283178856E+04  0.19283178856E+04  0.25500000920E-02 0. -1.
    10030    2    1    2    0    0  0.00000000000E+00  0.00000000000E+00 -0.24552226913E+03  0.36111135021E+04  0.36027572136E+04 0.  0.
        2    1    3    3  502    0 -0.93476671216E+03  0.42409140277E+03  0.13609839654E+04  0.17046758279E+04  0.25500000920E-02 0.  1.
       -2    1    3    3    0  502  0.93476671216E+03 -0.42409140277E+03 -0.16065062345E+04  0.19064376742E+04  0.25500000920E-02 0. -1.
</event>
<event>
 5   0  0.7347303E-08  0.3593307E+04  0.7818609E-02  0.8092027E-01
        1   -1    0    0  501    0  0.00000000000E+00  0.00000000000E+00  0.25807515499E+04  0.25807515499E+04  0.50400001928E-02 0. -1.
       -1   -1    0    0    0  501  0.00000000000E+00  0.00000000000E+00 -0.12507844118E+04  0.12507844119E+04  0.50400001928E-02 0.  1.
    10030    2    1    2    0    0  0.00000000000E+00  0.00000000000E+00  0.13299671381E+04  0.38315359618E+04  0.35933070058E+04 0.  0.
        2    1    3    3  502    0  0.31049629204E+03  0.13353977406E+04  0.19031151865E+04  0.23455367160E+04  0.25500000920E-02 0. -1.
       -2    1    3    3    0  502 -0.31049629204E+03 -0.13353977406E+04 -0.57314804840E+03  0.14859992458E+04  0.25500000920E-02 0.  1.
</event>
<event>
 5   0  0.2199902E-07  0.3594247E+04  0.7818609E-02  0.8091811E-01
       -2   -1    0    0    0  501  0.00000000000E+00  0.00000000000E+00  0.12297195175E+04  0.12297195175E+04  0.25500000920E-02 0. -1.
        2   -1    0    0  501    0  0.00000000000E+00  0.00000000000E+00 -0.26263331926E+04  0.26263331926E+04  0.25500000920E-02 0.  1.
    10030    2    1    2    0    0  0.00000000000E+00  0.00000000000E+00 -0.13966136752E+04  0.38560527101E+04  0.35942471736E+04 0.  0.
        1    1    3    3  502    0 -0.46951705175E+03 -0.12859005399E+04 -0.19474479152E+04  0.23804495044E+04  0.50400001928E-02 0.  1.
       -1    1    3    3    0  502  0.46951705175E+03  0.12859005399E+04  0.55083424007E+03  0.14756032057E+04  0.50400001928E-02 0. -1.
</event>
<event>
 5   0  0.2342606E-07  0.3600675E+04  0.7818609E-02  0.8090337E-01
        2   -1    0    0  501    0  0.00000000000E+00  0.00000000000E+00  0.27479680606E+04  0.27479680606E+04  0.25500000920E-02 0. -1.
       -2   -1    0    0    0  501  0.00000000000E+00  0.00000000000E+00 -0.11794953266E+04  0.11794953266E+04  0.25500000920E-02 0.  1.
    10030    2    1    2    0    0  0.00000000000E+00  0.00000000000E+00  0.15684727340E+04  0.39274633871E+04  0.36006752061E+04 0.  0.
        5    1    3    3  502    0  0.28231536374E+03  0.11113848211E+04 -0.72964510500E+03  0.13591476205E+04  0.46999998093E+01 0.  1.
       -5    1    3    3    0  502 -0.28231536374E+03 -0.11113848211E+04  0.22981178390E+04  0.25683157666E+04  0.46999998093E+01 0. -1.
</event>
<event>
 5   0  0.7236375E-08  0.3595775E+04  0.7818609E-02  0.8091460E-01
       -1   -1    0    0    0  501  0.00000000000E+00  0.00000000000E+00  0.14505146100E+04  0.14505146100E+04  0.50400001928E-02 0. -1.
        1   -1    0    0  501    0  0.00000000000E+00  0.00000000000E+00 -0.22284503201E+04  0.22284503201E+04  0.50400001928E-02 0.  1.
    10030    2    1    2    0    0  0.00000000000E+00  0.00000000000E+00 -0.77793571006E+03  0.36789649301E+04  0.35957751581E+04 0.  0.
        5    1    3    3  502    0  0.27990442013E+03 -0.15670714929E+04  0.46601965864E+03  0.16586910383E+04  0.46999998093E+01 0.  1.
       -5    1    3    3    0  502 -0.27990442013E+03  0.15670714929E+04 -0.12439553687E+04  0.20202738918E+04  0.46999998093E+01 0. -1.
</event>
<event>
 5   0  0.7236375E-08  0.3598691E+04  0.7818609E-02  0.8090792E-01
        1   -1    0    0  501    0  0.00000000000E+00  0.00000000000E+00  0.14351719431E+04  0.14351719431E+04  0.50400001928E-02 0.  1.
       -1   -1    0    0    0  501  0.00000000000E+00  0.00000000000E+00 -0.22559280367E+04  0.22559280367E+04  0.50400001928E-02 0. -1.
    10030    2    1    2    0    0  0.00000000000E+00  0.00000000000E+00 -0.82075609358E+03  0.36910999798E+04  0.35986912199E+04 0.  0.
        5    1    3    3  502    0  0.40745794907E+03  0.17451850368E+04 -0.24521597798E+03  0.18088244135E+04  0.46999998093E+01 0.  1.
       -5    1    3    3    0  502 -0.40745794907E+03 -0.17451850368E+04 -0.57554011559E+03  0.18822755663E+04  0.46999998093E+01 0. -1.
</event>
<event>
 5   0  0.2199902E-07  0.3663336E+04  0.7818609E-02  0.8076136E-01
       -2   -1    0    0    0  501  0.00000000000E+00  0.00000000000E+00  0.15893668633E+04  0.15893668633E+04  0.25500000920E-02 0. -1.
        2   -1    0    0  501    0  0.00000000000E+00  0.00000000000E+00 -0.21109081105E+04  0.21109081105E+04  0.25500000920E-02 0.  1.
    10030    2    1    2    0    0  0.00000000000E+00  0.00000000000E+00 -0.52154124717E+03  0.37002749738E+04  0.36633358581E+04 0.  0.
        1    1    3    3  502    0 -0.10868920292E+04 -0.97944451208E+03  0.85232190676E+03  0.16932508580E+04  0.50400001928E-02 0. -1.
       -1    1    3    3    0  502  0.10868920292E+04  0.97944451208E+03 -0.13738631539E+04  0.20070241158E+04  0.50400001928E-02 0.  1.
</event>
<event>
 5   0  0.2309391E-07  0.3609459E+04  0.7818609E-02  0.8088328E-01
        2   -1    0    0  501    0  0.00000000000E+00  0.00000000000E+00  0.21096530987E+04  0.21096530987E+04  0.25500000920E-02 0.  1.
       -2   -1    0    0    0  501  0.00000000000E+00  0.00000000000E+00 -0.15438790658E+04  0.15438790658E+04  0.25500000920E-02 0. -1.
    10030    2    1    2    0    0  0.00000000000E+00  0.00000000000E+00  0.56577403287E+03  0.36535321645E+04  0.36094593807E+04 0.  0.
        4    1    3    3  502    0  0.71679872241E+03  0.24876728138E+03  0.19403678206E+04  0.20834381346E+04  0.12699999809E+01 0.  1.
       -4    1    3    3    0  502 -0.71679872241E+03 -0.24876728138E+03 -0.13745937877E+04  0.15700940299E+04  0.12699999809E+01 0. -1.
</event>
<event>
 5   0  0.7347303E-08  0.3612610E+04  0.7818609E-02  0.8087609E-01
        1   -1    0    0  501    0  0.00000000000E+00  0.00000000000E+00  0.15994120505E+04  0.15994120505E+04  0.50400001928E-02 0. -1.
       -1   -1    0    0    0  501  0.00000000000E+00  0.00000000000E+00 -0.20399611595E+04  0.20399611595E+04  0.50400001928E-02 0.  1.
    10030    2    1    2    0    0  0.00000000000E+00  0.00000000000E+00 -0.44054910899E+03  0.36393732100E+04  0.36126103920E+04 0.  0.
        2    1    3    3  502    0 -0.14478157471E+04 -0.10769127096E+04 -0.30351256155E+03  0.18297626340E+04  0.25500000920E-02 0. -1.
       -2    1    3    3    0  502  0.14478157471E+04  0.10769127096E+04 -0.13703654744E+03  0.18096105761E+04  0.25500000920E-02 0.  1.
</event>
<event>
 5   0  0.7514289E-08  0.3605869E+04  0.7818609E-02  0.8089149E-01
       -1   -1    0    0    0  501  0.00000000000E+00  0.00000000000E+00  0.13504098238E+04  0.13504098238E+04  0.50400001928E-02 0. -1.
        1   -1    0    0  501    0  0.00000000000E+00  0.00000000000E+00 -0.24071006782E+04  0.24071006782E+04  0.50400001928E-02 0.  1.
    10030    2    1    2    0    0  0.00000000000E+00  0.00000000000E+00 -0.10566908544E+04  0.37575105021E+04  0.36058687735E+04 0.  0.
        4    1    3    3  502    0  0.53586841597E+03 -0.40391217051E+03  0.12154289847E+04  0.13883692702E+04  0.12699999809E+01 0. -1.
       -4    1    3    3    0  502 -0.53586841597E+03  0.40391217051E+03 -0.22721198391E+04  0.23691412319E+04  0.12699999809E+01 0.  1.
</event>
<event>
 5   0  0.2238968E-07  0.3604835E+04  0.7818609E-02  0.8089385E-01
        2   -1    0    0  501    0  0.00000000000E+00  0.00000000000E+00  0.21476132739E+04  0.21476132739E+04  0.25500000920E-02 0. -1.
       -2   -1    0    0    0  501  0.00000000000E+00  0.00000000000E+00 -0.15127064605E+04  0.15127064605E+04  0.25500000920E-02 0.  1.
    10030    2    1    2    0    0  0.00000000000E+00  0.00000000000E+00  0.63490681332E+03  0.36603197344E+04  0.36048347946E+04 0.  0.
        3    1    3    3  502    0 -0.12728176251E+04 -0.85324672577E+03  0.12810670745E+04  0.19973050697E+04  0.10100000352E+00 0. -1.
       -3    1    3    3    0  502  0.12728176251E+04  0.85324672577E+03 -0.64616026121E+03  0.16630146647E+04  0.10100000352E+00 0.  1.
</event>
<event>
 5   0  0.7236375E-08  0.3593624E+04  0.7818609E-02  0.8091954E-01
       -1   -1    0    0    0  501  0.00000000000E+00  0.00000000000E+00  0.11059565214E+04  0.11059565214E+04  0.50400001928E-02 0. -1.
        1   -1    0    0  501    0  0.00000000000E+00  0.00000000000E+00 -0.29192225821E+04  0.29192225821E+04  0.50400001928E-02 0.  1.
    10030    2    1    2    0    0  0.00000000000E+00  0.00000000000E+00 -0.18132660607E+04  0.40251791036E+04  0.35936239382E+04 0.  0.
        1    1    3    3  502    0 -0.17961173845E+03 -0.10990938396E+04  0.67275841723E+03  0.13011039670E+04  0.50400001928E-02 0. -1.
       -1    1    3    3    0  502  0.17961173845E+03  0.10990938396E+04 -0.24860244779E+04  0.27240751366E+04  0.50400001928E-02 0.  1.
</event>
<event>
 5   0  0.2238968E-07  0.3553422E+04  0.7818609E-02  0.8101245E-01
       -2   -1    0    0    0  501  0.00000000000E+00  0.00000000000E+00  0.19336970176E+04  0.19336970176E+04  0.25500000920E-02 0. -1.
        2   -1    0    0  501    0  0.00000000000E+00  0.00000000000E+00 -0.16324701352E+04  0.16324701352E+04  0.25500000920E-02 0.  1.
    10030    2    1    2    0    0  0.00000000000E+00  0.00000000000E+00  0.30122688233E+03  0.35661671528E+04  0.35534223683E+04 0.  0.
        3    1    3    3  502    0  0.16964783468E+04 -0.40495578209E+03 -0.18923758447E+03  0.17543770519E+04  0.10100000352E+00 0.  1.
       -3    1    3    3    0  502 -0.16964783468E+04  0.40495578209E+03  0.49046446679E+03  0.18117901010E+04  0.10100000352E+00 0. -1.
</event>
<event>
 5   0  0.7347303E-08  0.3607538E+04  0.7818609E-02  0.8088767E-01
        1   -1    0    0  501    0  0.00000000000E+00  0.00000000000E+00  0.16163866799E+04  0.16163866799E+04  0.50400001928E-02 0. -1.
       -1   -1    0    0    0  501  0.00000000000E+00  0.00000000000E+00 -0.20128736033E+04  0.20128736033E+04  0.50400001928E-02 0.  1.
    10030    2    1    2    0    0  0.00000000000E+00  0.00000000000E+00 -0.39648692342E+03  0.36292602832E+04  0.36075377091E+04 0.  0.
        2    1    3    3  502    0  0.24428567032E+03 -0.14512476512E+04 -0.12474938491E+04  0.19292579240E+04  0.25500000920E-02 0.  1.
       -2    1    3    3    0  502 -0.24428567032E+03  0.14512476512E+04  0.85100692568E+03  0.17000023592E+04  0.25500000920E-02 0. -1.
</event>
<event>
 5   0  0.2199902E-07  0.3609411E+04  0.7818609E-02  0.8088339E-01
        2   -1    0    0  501    0  0.00000000000E+00  0.00000000000E+00  0.91991152844E+03  0.91991152845E+03  0.25500000920E-02 0. -1.
       -2   -1    0    0    0  501  0.00000000000E+00  0.00000000000E+00 -0.35405174201E+04  0.35405174201E+04  0.25500000920E-02 0.  1.
    10030    2    1    2    0    0  0.00000000000E+00  0.00000000000E+00 -0.26206058917E+04  0.44604289486E+04  0.36094114708E+04 0.  0.
        1    1    3    3  502    0 -0.76126629162E+03  0.16314018265E+04 -0.11541615837E+04  0.21384777874E+04  0.50400001928E-02 0.  1.
       -1    1    3    3    0  502  0.76126629162E+03 -0.16314018265E+04 -0.14664443080E+04  0.23219511611E+04  0.50400001928E-02 0. -1.
</event>
<event>
 5   0  0.2198900E-07  0.3606418E+04  0.7818609E-02  0.8089023E-01
        2   -1    0    0  501    0  0.00000000000E+00  0.00000000000E+00  0.26488576419E+04  0.26488576419E+04  0.25500000920E-02 0. -1.
       -2   -1    0    0    0  501  0.00000000000E+00  0.00000000000E+00 -0.12275336266E+04  0.12275336266E+04  0.25500000920E-02 0.  1.
    10030    2    1    2    0    0  0.00000000000E+00  0.00000000000E+00  0.14213240152E+04  0.38763912685E+04  0.36064175174E+04 0.  0.
        2    1    3    3  502    0  0.15498076612E+04 -0.63772020890E+03  0.14260460338E+04  0.22004995211E+04  0.25500000920E-02 0. -1.
       -2    1    3    3    0  502 -0.15498076612E+04  0.63772020890E+03 -0.47220185963E+01  0.16758917474E+04  0.25500000920E-02 0.  1.
</event>
<event>
 5   0  0.7236375E-08  0.3594971E+04  0.7818609E-02  0.8091645E-01
        3   -1    0    0  501    0  0.00000000000E+00  0.00000000000E+00  0.23403209619E+04  0.23403209641E+04  0.10100000352E+00 0.  1.
       -3   -1    0    0    0  501  0.00000000000E+00  0.00000000000E+00 -0.13805603094E+04  0.13805603131E+04  0.10100000352E+00 0. -1.
    10030    2    1    2    0    0  0.00000000000E+00  0.00000000000E+00  0.95976065256E+03  0.37208812772E+04  0.35949710665E+04 0.  0.
        5    1    3    3  502    0  0.60344957084E+03 -0.13994421728E+04 -0.50656995424E+03  0.16059965716E+04  0.46999998093E+01 0. -1.
       -5    1    3    3    0  502 -0.60344957084E+03  0.13994421728E+04  0.14663306068E+04  0.21148847056E+04  0.46999998093E+01 0.  1.
</event>
<event>
 5   0  0.7514289E-08  0.3591770E+04  0.7818609E-02  0.8092379E-01
       -1   -1    0    0    0  501  0.00000000000E+00  0.00000000000E+00  0.12746466073E+04  0.12746466073E+04  0.50400001928E-02 0.  1.
        1   -1    0    0  501    0  0.00000000000E+00  0.00000000000E+00 -0.25302723231E+04  0.25302723231E+04  0.50400001928E-02 0. -1.
    10030    2    1    2    0    0  0.00000000000E+00  0.00000000000E+00 -0.12556257158E+04  0.38049189304E+04  0.35917700551E+04 0.  0.
        4    1    3    3  502    0  0.12743426007E+04  0.10116073232E+04  0.17749947310E+03  0.16367058735E+04  0.12699999809E+01 0.  1.
       -4    1    3    3    0  502 -0.12743426007E+04 -0.10116073232E+04 -0.14331251889E+04  0.21682130570E+04  0.12699999809E+01 0. -1.
</event>
<event>
 5   0  0.2309391E-07  0.3606911E+04  0.7818609E-02  0.8088910E-01
        2   -1    0    0  501    0  0.00000000000E+00  0.00000000000E+00  0.12234489638E+04  0.12234489638E+04  0.25500000920E-02 0.  1.
       -2   -1    0    0    0  501  0.00000000000E+00  0.00000000000E+00 -0.26584290753E+04  0.26584290753E+04  0.25500000920E-02 0. -1.
    10030    2    1    2    0    0  0.00000000000E+00  0.00000000000E+00 -0.14349801115E+04  0.38818780391E+04  0.36069113088E+04 0.  0.
        4    1    3    3  502    0  0.13173339115E+04 -0.68637902037E+03  0.38320035832E+03  0.15340563619E+04  0.12699999809E+01 0.  1.
       -4    1    3    3    0  502 -0.13173339115E+04  0.68637902037E+03 -0.18181804699E+04  0.23478216772E+04  0.12699999809E+01 0. -1.
</event>
<event>
 5   0  0.2342606E-07  0.3580360E+04  0.7818609E-02  0.8095005E-01
        2   -1    0    0  501    0  0.00000000000E+00  0.00000000000E+00  0.27398946138E+04  0.27398946138E+04  0.25500000920E-02 0.  1.
       -2   -1    0    0    0  501  0.00000000000E+00  0.00000000000E+00 -0.11696600479E+04  0.11696600480E+04  0.25500000920E-02 0. -1.
    10030    2    1    2    0    0  0.00000000000E+00  0.00000000000E+00  0.15702345659E+04  0.39095546618E+04  0.35803604653E+04 0.  0.
        5    1    3    3  502    0 -0.11618352734E+04 -0.29614243868E+03 -0.66645502064E+03  0.13717674479E+04  0.46999998093E+01 0. -1.
       -5    1    3    3    0  502  0.11618352734E+04  0.29614243868E+03  0.22366895865E+04  0.25377872139E+04  0.46999998093E+01 0.  1.
</event>
<event>
 5   0  0.7236375E-08  0.3598395E+04  0.7818609E-02  0.8090859E-01
        1   -1    0    0  501    0  0.00000000000E+00  0.00000000000E+00  0.13681519092E+04  0.13681519092E+04  0.50400001928E-02 0.  1.
       -1   -1    0    0    0  501  0.00000000000E+00  0.00000000000E+00 -0.23660472208E+04  0.23660472208E+04  0.50400001928E-02 0. -1.
    10030    2    1    2    0    0  0.00000000000E+00  0.00000000000E+00 -0.99789531161E+03  0.37341991299E+04  0.35983952103E+04 0.  0.
        1    1    3    3  502    0  0.99599105752E+02  0.17635648465E+04 -0.85395652746E+03  0.19619690875E+04  0.50400001928E-02 0. -1.
       -1    1    3    3    0  502 -0.99599105752E+02 -0.17635648465E+04 -0.14393878415E+03  0.17722300424E+04  0.50400001928E-02 0.  1.
</event>
<event>
 5   0  0.2309391E-07  0.3594801E+04  0.7818609E-02  0.8091684E-01
       -2   -1    0    0    0  501  0.00000000000E+00  0.00000000000E+00  0.25744154097E+04  0.25744154097E+04  0.25500000920E-02 0. -1.
        2   -1    0    0  501    0  0.00000000000E+00  0.00000000000E+00 -0.12549054121E+04  0.12549054121E+04  0.25500000920E-02 0.  1.
    10030    2    1    2    0    0  0.00000000000E+00  0.00000000000E+00  0.13195099976E+04  0.38293208218E+04  0.35948005957E+04 0.  0.
        4    1    3    3  502    0  0.97508902059E+03 -0.13694922504E+04  0.13371150000E+04  0.21480655851E+04  0.12699999809E+01 0. -1.
       -4    1    3    3    0  502 -0.97508902059E+03  0.13694922504E+04 -0.17605002367E+02  0.16812552367E+04  0.12699999809E+01 0.  1.
</event>
<event>
 5   0  0.7261233E-08  0.3600012E+04  0.7818609E-02  0.8090489E-01
       -1   -1    0    0    0  501  0.00000000000E+00  0.00000000000E+00  0.26777811689E+04  0.26777811689E+04  0.50400001928E-02 0.  1.
        1   -1    0    0  501    0  0.00000000000E+00  0.00000000000E+00 -0.12099651251E+04  0.12099651251E+04  0.50400001928E-02 0. -1.
    10030    2    1    2    0    0  0.00000000000E+00  0.00000000000E+00  0.14678160438E+04  0.38877462940E+04  0.36000121261E+04 0.  0.
        3    1    3    3  502    0 -0.17353082149E+04  0.40765860013E+03  0.46383653828E+03  0.18419078369E+04  0.10100000352E+00 0. -1.
       -3    1    3    3    0  502  0.17353082149E+04 -0.40765860013E+03  0.10039795055E+04  0.20458384571E+04  0.10100000352E+00 0.  1.
</event>
<event>
 5   0  0.7347303E-08  0.3590758E+04  0.7818609E-02  0.8092612E-01
       -1   -1    0    0    0  501  0.00000000000E+00  0.00000000000E+00  0.11413783725E+04  0.11413783725E+04  0.50400001928E-02 0.  1.
        1   -1    0    0  501    0  0.00000000000E+00  0.00000000000E+00 -0.28241164967E+04  0.28241164967E+04  0.50400001928E-02 0. -1.
    10030    2    1    2    0    0  0.00000000000E+00  0.00000000000E+00 -0.16827381242E+04  0.39654948692E+04  0.35907578536E+04 0.  0.
        2    1    3    3  502    0 -0.98286327450E+03  0.14666435141E+04 -0.48126916341E+03  0.18299408246E+04  0.25500000920E-02 0. -1.
       -2    1    3    3    0  502  0.98286327450E+03 -0.14666435141E+04 -0.12014689608E+04  0.21355540446E+04  0.25500000920E-02 0.  1.
</event>
<event>
 5   0  0.7347303E-08  0.3598929E+04  0.7818609E-02  0.8090737E-01
        1   -1    0    0  501    0  0.00000000000E+00  0.00000000000E+00  0.24897240111E+04  0.24897240111E+04  0.50400001928E-02 0.  1.
       -1   -1    0    0    0  501  0.00000000000E+00  0.00000000000E+00 -0.13005752275E+04  0.13005752275E+04  0.50400001928E-02 0. -1.
    10030    2    1    2    0    0  0.00000000000E+00  0.00000000000E+00  0.11891487836E+04  0.37902992386E+04  0.35989294920E+04 0.  0.
        2    1    3    3  502    0 -0.13627545015E+04 -0.60278632443E+03  0.16569875569E+04  0.22284656040E+04  0.25500000920E-02 0.  1.
       -2    1    3    3    0  502  0.13627545015E+04  0.60278632443E+03 -0.46783877329E+03  0.15618336346E+04  0.25500000920E-02 0. -1.
</event>
<event>
 5   0  0.7236375E-08  0.3593466E+04  0.7818609E-02  0.8091990E-01
        1   -1    0    0  501    0  0.00000000000E+00  0.00000000000E+00  0.17878884707E+04  0.17878884707E+04  0.50400001928E-02 0. -1.
       -1   -1    0    0    0  501  0.00000000000E+00  0.00000000000E+00 -0.18056209878E+04  0.18056209878E+04  0.50400001928E-02 0.  1.
    10030    2    1    2    0    0  0.00000000000E+00  0.00000000000E+00 -0.17732517073E+02  0.35935094585E+04  0.35934657069E+04 0.  0.
        1    1    3    3  502    0 -0.67145213172E+03  0.48267151058E+03 -0.16040123814E+04  0.18046261308E+04  0.50400001928E-02 0.  1.
       -1    1    3    3    0  502  0.67145213172E+03 -0.48267151058E+03  0.15862798643E+04  0.17888833277E+04  0.50400001928E-02 0. -1.
</event>
<event>
 5   0  0.7236375E-08  0.3600569E+04  0.7818609E-02  0.8090361E-01
       -1   -1    0    0    0  501  0.00000000000E+00  0.00000000000E+00  0.12359339893E+04  0.12359339893E+04  0.50400001928E-02 0.  1.
        1   -1    0    0  501    0  0.00000000000E+00  0.00000000000E+00 -0.26223285732E+04  0.26223285732E+04  0.50400001928E-02 0. -1.
    10030    2    1    2    0    0  0.00000000000E+00  0.00000000000E+00 -0.13863945840E+04  0.38582625625E+04  0.36005694076E+04 0.  0.
        5    1    3    3  502    0 -0.14883385536E+03 -0.86415120804E+03  0.99162108398E+03  0.13237232683E+04  0.46999998093E+01 0.  1.
       -5    1    3    3    0  502  0.14883385536E+03  0.86415120804E+03 -0.23780156679E+04  0.25345392942E+04  0.46999998093E+01 0. -1.
</event>
<event>
 5   0  0.7347303E-08  0.3624259E+04  0.7818609E-02  0.8084957E-01
       -1   -1    0    0    0  501  0.00000000000E+00  0.00000000000E+00  0.15065330717E+04  0.15065330717E+04  0.50400001928E-02 0. -1.
        1   -1    0    0  501    0  0.00000000000E+00  0.00000000000E+00 -0.21797153777E+04  0.21797153777E+04  0.50400001928E-02 0.  1.
    10030    2    1    2    0    0  0.00000000000E+00  0.00000000000E+00 -0.67318230607E+03  0.36862484494E+04  0.36242589882E+04 0.  0.
        2    1    3    3  502    0 -0.11414825337E+04 -0.13252304719E+04 -0.81861168847E+03  0.19311507644E+04  0.25500000920E-02 0.  1.
       -2    1    3    3    0  502  0.11414825337E+04  0.13252304719E+04  0.14542938240E+03  0.17550976850E+04  0.25500000920E-02 0. -1.
</event>
<event>
 5   0  0.2309391E-07  0.3586131E+04  0.7818609E-02  0.8093676E-01
        2   -1    0    0  501    0  0.00000000000E+00  0.00000000000E+00  0.14457255009E+04  0.14457255009E+04  0.25500000920E-02 0.  1.
       -2   -1    0    0    0  501  0.00000000000E+00  0.00000000000E+00 -0.22238553830E+04  0.22238553830E+04  0.25500000920E-02 0. -1.
    10030    2    1    2    0    0  0.00000000000E+00  0.00000000000E+00 -0.77812988219E+03  0.36695808839E+04  0.35861313068E+04 0.  0.
        4    1    3    3  502    0  0.16062415859E+03 -0.13625334513E+04  0.79226272276E+03  0.15842914381E+04  0.12699999809E+01 0.  1.
       -4    1    3    3    0  502 -0.16062415859E+03  0.13625334513E+04 -0.15703926049E+04  0.20852894458E+04  0.12699999809E+01 0. -1.
</event>
<event>
 5   0  0.2309391E-07  0.3593672E+04  0.7818609E-02  0.8091943E-01
       -2   -1    0    0    0  501  0.00000000000E+00  0.00000000000E+00  0.12409892493E+04  0.12409892493E+04  0.25500000920E-02 0. -1.
        2   -1    0    0  501    0  0.00000000000E+00  0.00000000000E+00 -0.26016492896E+04  0.26016492896E+04  0.25500000920E-02 0.  1.
    10030    2    1    2    0    0  0.00000000000E+00  0.00000000000E+00 -0.13606600404E+04  0.38426385389E+04  0.35936715480E+04 0.  0.
        4    1    3    3  502    0 -0.44841550456E+02  0.13497916925E+04 -0.19476261897E+04  0.23700628189E+04  0.12699999809E+01 0.  1.
       -4    1    3    3    0  502  0.44841550456E+02 -0.13497916925E+04  0.58696614936E+03  0.14725757200E+04  0.12699999809E+01 0. -1.
</event>
<event>
 5   0  0.2199902E-07  0.3629125E+04  0.7818609E-02  0.8083853E-01
       -2   -1    0    0    0  501  0.00000000000E+00  0.00000000000E+00  0.17247194539E+04  0.17247194539E+04  0.25500000920E-02 0. -1.
        2   -1    0    0  501    0  0.00000000000E+00  0.00000000000E+00 -0.19090855045E+04  0.19090855045E+04  0.25500000920E-02 0.  1.
    10030    2    1    2    0    0  0.00000000000E+00  0.00000000000E+00 -0.18436605061E+03  0.36338049583E+04  0.36291249131E+04 0.  0.
        1    1    3    3  502    0  0.14230423361E+04  0.68779317153E+03 -0.98469549407E+03  0.18621853165E+04  0.50400001928E-02 0. -1.
       -1    1    3    3    0  502 -0.14230423361E+04 -0.68779317153E+03  0.80032944346E+03  0.17716196418E+04  0.50400001928E-02 0.  1.
</event>
<event>
 5   0  0.7514289E-08  0.3604960E+04  0.7818609E-02  0.8089357E-01
       -1   -1    0    0    0  501  0.00000000000E+00  0.00000000000E+00  0.11285896467E+04  0.11285896467E+04  0.50400001928E-02 0.  1.
        1   -1    0    0  501    0  0.00000000000E+00  0.00000000000E+00 -0.28787556850E+04  0.28787556850E+04  0.50400001928E-02 0. -1.
    10030    2    1    2    0    0  0.00000000000E+00  0.00000000000E+00 -0.17501660384E+04  0.40073453317E+04  0.36049598397E+04 0.  0.
        4    1    3    3  502    0 -0.30122120474E+01 -0.15549789070E+04  0.13823877588E+03  0.15611150012E+04  0.12699999809E+01 0.  1.
       -4    1    3    3    0  502  0.30122120474E+01  0.15549789070E+04 -0.18884048143E+04  0.24462303306E+04  0.12699999809E+01 0. -1.
</event>
<event>
 5   0  0.7514289E-08  0.3609948E+04  0.7818609E-02  0.8088217E-01
       -1   -1    0    0    0  501  0.00000000000E+00  0.00000000000E+00  0.25735326403E+04  0.25735326403E+04  0.50400001928E-02 0. -1.
        1   -1    0    0  501    0  0.00000000000E+00  0.00000000000E+00 -0.12659375211E+04  0.12659375211E+04  0.50400001928E-02 0.  1.
    10030    2    1    2    0    0  0.00000000000E+00  0.00000000000E+00  0.13075951192E+04  0.38394701614E+04  0.36099482163E+04 0.  0.
        4    1    3    3  502    0 -0.17030946133E+04 -0.15035974794E+03  0.12691967975E+04  0.21293194780E+04  0.12699999809E+01 0. -1.
       -4    1    3    3    0  502  0.17030946133E+04  0.15035974794E+03  0.38398321667E+02  0.17101506833E+04  0.12699999809E+01 0.  1.
</event>
<event>
 5   0  0.2342606E-07  0.3658058E+04  0.7818609E-02  0.8077321E-01
        2   -1    0    0  501    0  0.00000000000E+00  0.00000000000E+00  0.23171669207E+04  0.23171669207E+04  0.25500000920E-02 0. -1.
       -2   -1    0    0    0  501  0.00000000000E+00  0.00000000000E+00 -0.14437232543E+04  0.14437232543E+04  0.25500000920E-02 0.  1.
    10030    2    1    2    0    0  0.00000000000E+00  0.00000000000E+00  0.87344366639E+03  0.37608901750E+04  0.36580583743E+04 0.  0.
        5    1    3    3  502    0 -0.84772899708E+03  0.10011527782E+04 -0.87361539499E+03  0.15761273064E+04  0.46999998093E+01 0.  1.
       -5    1    3    3    0  502  0.84772899708E+03 -0.10011527782E+04  0.17470590614E+04  0.21847628685E+04  0.46999998093E+01 0. -1.
</event>
<event>
 5   0  0.7236375E-08  0.3743900E+04  0.7818609E-02  0.8058302E-01
       -1   -1    0    0    0  501  0.00000000000E+00  0.00000000000E+00  0.20410542739E+04  0.20410542739E+04  0.50400001928E-02 0. -1.
        1   -1    0    0  501    0  0.00000000000E+00  0.00000000000E+00 -0.17168564283E+04  0.17168564283E+04  0.50400001928E-02 0.  1.
    10030    2    1    2    0    0  0.00000000000E+00  0.00000000000E+00  0.32419784567E+03  0.37579107022E+04  0.37439001860E+04 0.  0.
        5    1    3    3  502    0  0.26039637213E+03 -0.18114899776E+04  0.55711051531E+03  0.19130333049E+04  0.46999998093E+01 0. -1.
       -5    1    3    3    0  502 -0.26039637213E+03  0.18114899776E+04 -0.23291266965E+03  0.18448773973E+04  0.46999998093E+01 0.  1.
</event>
<event>
 5   0  0.7236375E-08  0.3587183E+04  0.7818609E-02  0.8093434E-01
       -3   -1    0    0    0  501  0.00000000000E+00  0.00000000000E+00  0.18065883712E+04  0.18065883740E+04  0.10100000352E+00 0.  1.
        3   -1    0    0  501    0  0.00000000000E+00  0.00000000000E+00 -0.17806880046E+04  0.17806880074E+04  0.10100000352E+00 0. -1.
    10030    2    1    2    0    0  0.00000000000E+00  0.00000000000E+00  0.25900366600E+02  0.35872763814E+04  0.35871828791E+04 0.  0.
        4    1    3    3  502    0  0.61295653239E+03 -0.47894927759E+02 -0.16720148030E+04  0.17814726350E+04  0.12699999809E+01 0. -1.
       -4    1    3    3    0  502 -0.61295653239E+03  0.47894927759E+02  0.16979151696E+04  0.18058037465E+04  0.12699999809E+01 0.  1.
</event>
<event>
 5   0  0.2198900E-07  0.3607506E+04  0.7818609E-02  0.8088775E-01
       -2   -1    0    0    0  501  0.00000000000E+00  0.00000000000E+00  0.15127975961E+04  0.15127975961E+04  0.25500000920E-02 0.  1.
        2   -1    0    0  501    0  0.00000000000E+00  0.00000000000E+00 -0.21506674174E+04  0.21506674174E+04  0.25500000920E-02 0. -1.
    10030    2    1    2    0    0  0.00000000000E+00  0.00000000000E+00 -0.63786982128E+03  0.36634650134E+04  0.36075057860E+04 0.  0.
        2    1    3    3  502    0  0.13045717985E+04 -0.42956863319E+03  0.86842724224E+03  0.16249931271E+04  0.25500000920E-02 0. -1.
       -2    1    3    3    0  502 -0.13045717985E+04  0.42956863319E+03 -0.15062970635E+04  0.20384718864E+04  0.25500000920E-02 0.  1.
</event>
<event>
 5   0  0.7261233E-08  0.3587982E+04  0.7818609E-02  0.8093250E-01
       -1   -1    0    0    0  501  0.00000000000E+00  0.00000000000E+00  0.17771446613E+04  0.17771446613E+04  0.50400001928E-02 0. -1.
        1   -1    0    0  501    0  0.00000000000E+00  0.00000000000E+00 -0.18109965785E+04  0.18109965785E+04  0.50400001928E-02 0.  1.
    10030    2    1    2    0    0  0.00000000000E+00  0.00000000000E+00 -0.33851917231E+02  0.35881412399E+04  0.35879815502E+04 0.  0.
        3    1    3    3  502    0 -0.30758467924E+03  0.14726879081E+04  0.96035081382E+03  0.17848506115E+04  0.10100000352E+00 0. -1.
       -3    1    3    3    0  502  0.30758467924E+03 -0.14726879081E+04 -0.99420273106E+03  0.18032906283E+04  0.10100000352E+00 0.  1.
</event>
<event>
 5   0  0.2238968E-07  0.3592111E+04  0.7818609E-02  0.8092301E-01
       -2   -1    0    0    0  501  0.00000000000E+00  0.00000000000E+00  0.13633185306E+04  0.13633185306E+04  0.25500000920E-02 0. -1.
        2   -1    0    0  501    0  0.00000000000E+00  0.00000000000E+00 -0.23661499437E+04  0.23661499437E+04  0.25500000920E-02 0.  1.
    10030    2    1    2    0    0  0.00000000000E+00  0.00000000000E+00 -0.10028314132E+04  0.37294684743E+04  0.35921113927E+04 0.  0.
        3    1    3    3  502    0  0.66296705538E+03  0.77555955221E+03 -0.20360425873E+04  0.22773860813E+04  0.10100000352E+00 0.  1.
       -3    1    3    3    0  502 -0.66296705538E+03 -0.77555955221E+03  0.10332111742E+04  0.14520823931E+04  0.10100000352E+00 0. -1.
</event>
<event>
 5   0  0.2309391E-07  0.3599803E+04  0.7818609E-02  0.8090537E-01
        2   -1    0    0  501    0  0.00000000000E+00  0.00000000000E+00  0.13145692830E+04  0.13145692830E+04  0.25500000920E-02 0. -1.
       -2   -1    0    0    0  501  0.00000000000E+00  0.00000000000E+00 -0.24644164267E+04  0.24644164267E+04  0.25500000920E-02 0.  1.
    10030    2    1    2    0    0  0.00000000000E+00  0.00000000000E+00 -0.11498471437E+04  0.37789857098E+04  0.35998034031E+04 0.  0.
        4    1    3    3  502    0 -0.11450036763E+04 -0.32881752653E+03 -0.19913389449E+04  0.23204712433E+04  0.12699999809E+01 0.  1.
       -4    1    3    3    0  502  0.11450036763E+04  0.32881752653E+03  0.84149180122E+03  0.14585144665E+04  0.12699999809E+01 0. -1.
</event>
<event>
 5   0  0.2309391E-07  0.3624149E+04  0.7818609E-02  0.8084982E-01
       -2   -1    0    0    0  501  0.00000000000E+00  0.00000000000E+00  0.17720057270E+04  0.17720057270E+04  0.25500000920E-02 0.  1.
        2   -1    0    0  501    0  0.00000000000E+00  0.00000000000E+00 -0.18530497327E+04  0.18530497327E+04  0.25500000920E-02 0. -1.
    10030    2    1    2    0    0  0.00000000000E+00  0.00000000000E+00 -0.81044005728E+02  0.36250554597E+04  0.36241494113E+04 0.  0.
        4    1    3    3  502    0  0.77814458020E+03 -0.15380207002E+04 -0.59976504821E+03  0.18250305169E+04  0.12699999809E+01 0.  1.
       -4    1    3    3    0  502 -0.77814458020E+03  0.15380207002E+04  0.51872104248E+03  0.18000249428E+04  0.12699999809E+01 0. -1.
</event>
<event>
 5   0  0.7347303E-08  0.3731398E+04  0.7818609E-02  0.8061039E-01
        1   -1    0    0  501    0  0.00000000000E+00  0.00000000000E+00  0.21418216019E+04  0.21418216019E+04  0.50400001928E-02 0.  1.
       -1   -1    0    0    0  501  0.00000000000E+00  0.00000000000E+00 -0.16251737990E+04  0.16251737990E+04  0.50400001928E-02 0. -1.
    10030    2    1    2    0    0  0.00000000000E+00  0.00000000000E+00  0.51664780290E+03  0.37669954010E+04  0.37313977808E+04 0.  0.
        2    1    3    3  502    0 -0.41185489253E+03 -0.29437977543E+03  0.20711577188E+04  0.21321299681E+04  0.25500000920E-02 0.  1.
       -2    1    3    3    0  502  0.41185489253E+03  0.29437977543E+03 -0.15545099159E+04  0.16348654328E+04  0.25500000920E-02 0. -1.
</event>
<event>
 5   0  0.2199902E-07  0.3607779E+04  0.7818609E-02  0.8088712E-01
        2   -1    0    0  501    0  0.00000000000E+00  0.00000000000E+00  0.21056331372E+04  0.21056331372E+04  0.25500000920E-02 0. -1.
       -2   -1    0    0    0  501  0.00000000000E+00  0.00000000000E+00 -0.15453863546E+04  0.15453863546E+04  0.25500000920E-02 0.  1.
    10030    2    1    2    0    0  0.00000000000E+00  0.00000000000E+00  0.56024678256E+03  0.36510194918E+04  0.36077786618E+04 0.  0.
        1    1    3    3  502    0  0.56460295042E+01 -0.57379270133E+03 -0.14505630904E+04  0.15599369285E+04  0.50400001928E-02 0.  1.
       -1    1    3    3    0  502 -0.56460295042E+01  0.57379270133E+03  0.20108098729E+04  0.20910825634E+04  0.50400001928E-02 0. -1.
</event>
<event>
 5   0  0.7236375E-08  0.3564036E+04  0.7818609E-02  0.8098780E-01
        1   -1    0    0  501    0  0.00000000000E+00  0.00000000000E+00  0.25659133483E+04  0.25659133483E+04  0.50400001928E-02 0. -1.
       -1   -1    0    0    0  501  0.00000000000E+00  0.00000000000E+00 -0.12376053365E+04  0.12376053366E+04  0.50400001928E-02 0.  1.
    10030    2    1    2    0    0  0.00000000000E+00  0.00000000000E+00  0.13283080117E+04  0.38035186848E+04  0.35640359442E+04 0.  0.
        1    1    3    3  502    0 -0.68640458877E+03  0.16206971600E+04  0.36652826191E+03  0.17978190984E+04  0.50400001928E-02 0.  1.
       -1    1    3    3    0  502  0.68640458877E+03 -0.16206971600E+04  0.96177974979E+03  0.20056995864E+04  0.50400001928E-02 0. -1.
</event>
<event>
 5   0  0.7236375E-08  0.3594472E+04  0.7818609E-02  0.8091759E-01
        1   -1    0    0  501    0  0.00000000000E+00  0.00000000000E+00  0.14532634109E+04  0.14532634109E+04  0.50400001928E-02 0. -1.
       -1   -1    0    0    0  501  0.00000000000E+00  0.00000000000E+00 -0.22226229777E+04  0.22226229778E+04  0.50400001928E-02 0.  1.
    10030    2    1    2    0    0  0.00000000000E+00  0.00000000000E+00 -0.76935956686E+03  0.36758863886E+04  0.35944716718E+04 0.  0.
        5    1    3    3  502    0  0.10603770848E+04  0.14391659072E+04 -0.19490589731E+03  0.17982236983E+04  0.46999998093E+01 0.  1.
       -5    1    3    3    0  502 -0.10603770848E+04 -0.14391659072E+04 -0.57445366954E+03  0.18776626904E+04  0.46999998093E+01 0. -1.
</event>
<event>
 5   0  0.2199902E-07  0.3606592E+04  0.7818609E-02  0.8088983E-01
        2   -1    0    0  501    0  0.00000000000E+00  0.00000000000E+00  0.20785445570E+04  0.20785445570E+04  0.25500000920E-02 0.  1.
       -2   -1    0    0    0  501  0.00000000000E+00  0.00000000000E+00 -0.15644969361E+04  0.15644969361E+04  0.25500000920E-02 0. -1.
    10030    2    1    2    0    0  0.00000000000E+00  0.00000000000E+00  0.51404762092E+03  0.36430414931E+04  0.36065920706E+04 0.  0.
        1    1    3    3  502    0  0.51121568264E+03 -0.10931877893E+04  0.16105193999E+04  0.20125043489E+04  0.50400001928E-02 0.  1.
       -1    1    3    3    0  502 -0.51121568264E+03  0.10931877893E+04 -0.10964717790E+04  0.16305371443E+04  0.50400001928E-02 0. -1.
</event>
<event>
 5   0  0.7236375E-08  0.3548270E+04  0.7818609E-02  0.8102445E-01
       -1   -1    0    0    0  501  0.00000000000E+00  0.00000000000E+00  0.12507725960E+04  0.12507725960E+04  0.50400001928E-02 0. -1.
        1   -1    0    0  501    0  0.00000000000E+00  0.00000000000E+00 -0.25164880570E+04  0.25164880570E+04  0.50400001928E-02 0.  1.
    10030    2    1    2    0    0  0.00000000000E+00  0.00000000000E+00 -0.12657154609E+04  0.37672606530E+04  0.35482696064E+04 0.  0.
        5    1    3    3  502    0  0.11200540121E+04 -0.54983806642E+03  0.70620752351E+03  0.14337343009E+04  0.46999998093E+01 0. -1.
       -5    1    3    3    0  502 -0.11200540121E+04  0.54983806642E+03 -0.19719229844E+04  0.23335263521E+04  0.46999998093E+01 0.  1.
</event>
<event>
 5   0  0.7261233E-08  0.3582550E+04  0.7818609E-02  0.8094501E-01
        1   -1    0    0  501    0  0.00000000000E+00  0.00000000000E+00  0.14548803048E+04  0.14548803048E+04  0.50400001928E-02 0.  1.
       -1   -1    0    0    0  501  0.00000000000E+00  0.00000000000E+00 -0.22054496767E+04  0.22054496767E+04  0.50400001928E-02 0. -1.
    10030    2    1    2    0    0  0.00000000000E+00  0.00000000000E+00 -0.75056937190E+03  0.36603299815E+04  0.35825495379E+04 0.  0.
        3    1    3    3  502    0  0.35180832519E+03 -0.45168471054E+03  0.13588802527E+04  0.14745656062E+04  0.10100000352E+00 0.  1.
       -3    1    3    3    0  502 -0.35180832519E+03  0.45168471054E+03 -0.21094496246E+04  0.21857643753E+04  0.10100000352E+00 0. -1.
</event>
<event>
 5   0  0.7514289E-08  0.3610795E+04  0.7818609E-02  0.8088023E-01
        1   -1    0    0  501    0  0.00000000000E+00  0.00000000000E+00  0.24000928768E+04  0.24000928768E+04  0.50400001928E-02 0. -1.
       -1   -1    0    0    0  501  0.00000000000E+00  0.00000000000E+00 -0.13580561531E+04  0.13580561531E+04  0.50400001928E-02 0.  1.
    10030    2    1    2    0    0  0.00000000000E+00  0.00000000000E+00  0.10420367237E+04  0.37581490299E+04  0.36107954245E+04 0.  0.
        4    1    3    3  502    0 -0.91531911296E+02 -0.10406913251E+04 -0.10114977058E+04  0.14541477733E+04  0.12699999809E+01 0.  1.
       -4    1    3    3    0  502  0.91531911296E+02  0.10406913251E+04  0.20535344294E+04  0.23040012566E+04  0.12699999809E+01 0. -1.
</event>
<event>
 5   0  0.2342606E-07  0.3591013E+04  0.7818609E-02  0.8092553E-01
        2   -1    0    0  501    0  0.00000000000E+00  0.00000000000E+00  0.16122898297E+04  0.16122898297E+04  0.25500000920E-02 0.  1.
       -2   -1    0    0    0  501  0.00000000000E+00  0.00000000000E+00 -0.19995439021E+04  0.19995439021E+04  0.25500000920E-02 0. -1.
    10030    2    1    2    0    0  0.00000000000E+00  0.00000000000E+00 -0.38725407246E+03  0.36118337318E+04  0.35910133931E+04 0.  0.
        5    1    3    3  502    0  0.10949725735E+04 -0.12971253102E+02  0.12375385621E+04  0.16524699612E+04  0.46999998093E+01 0.  1.
       -5    1    3    3    0  502 -0.10949725735E+04  0.12971253102E+02 -0.16247926346E+04  0.19593637706E+04  0.46999998093E+01 0. -1.
</event>
<event>
 5   0  0.2199902E-07  0.3674657E+04  0.7818609E-02  0.8073601E-01
       -2   -1    0    0    0  501  0.00000000000E+00  0.00000000000E+00  0.21989821641E+04  0.21989821641E+04  0.25500000920E-02 0.  1.
        2   -1    0    0  501    0  0.00000000000E+00  0.00000000000E+00 -0.15351537314E+04  0.15351537314E+04  0.25500000920E-02 0. -1.
    10030    2    1    2    0    0  0.00000000000E+00  0.00000000000E+00  0.66382843266E+03  0.37341358955E+04  0.36746568136E+04 0.  0.
        1    1    3    3  502    0  0.62135588203E+02  0.47515393949E+03 -0.14705331963E+04  0.15466415159E+04  0.50400001928E-02 0. -1.
       -1    1    3    3    0  502 -0.62135588203E+02 -0.47515393949E+03  0.21343616289E+04  0.21874943795E+04  0.50400001928E-02 0.  1.
</event>
<event>
 5   0  0.7347303E-08  0.3569202E+04  0.7818609E-02  0.8097583E-01
        1   -1    0    0  501    0  0.00000000000E+00  0.00000000000E+00  0.11588591478E+04  0.11588591478E+04  0.50400001928E-02 0.  1.
       -1   -1    0    0    0  501  0.00000000000E+00  0.00000000000E+00 -0.27482206426E+04  0.27482206426E+04  0.50400001928E-02 0. -1.
    10030    2    1    2    0    0  0.00000000000E+00  0.00000000000E+00 -0.15893614948E+04  0.39070797905E+04  0.35692019455E+04 0.  0.
        2    1    3    3  502    0 -0.17182748076E+04  0.41512177210E+03 -0.10628316959E+04  0.20626210544E+04  0.25500000920E-02 0.  1.
       -2    1    3    3    0  502  0.17182748076E+04 -0.41512177210E+03 -0.52652979890E+03  0.18444587361E+04  0.25500000920E-02 0. -1.
</event>
<event>
 5   0  0.7236375E-08  0.3592866E+04  0.7818609E-02  0.8092128E-01
        1   -1    0    0  501    0  0.00000000000E+00  0.00000000000E+00  0.24801449247E+04  0.24801449247E+04  0.50400001928E-02 0.  1.
       -1   -1    0    0    0  501  0.00000000000E+00  0.00000000000E+00 -0.13012025902E+04  0.13012025902E+04  0.50400001928E-02 0. -1.
    10030    2    1    2    0    0  0.00000000000E+00  0.00000000000E+00  0.11789423345E+04  0.37813475149E+04  0.35928657087E+04 0.  0.
        5    1    3    3  502    0 -0.15194632968E+03 -0.17897629820E+04  0.61941899401E+03  0.19000108418E+04  0.46999998093E+01 0.  1.
       -5    1    3    3    0  502  0.15194632968E+03  0.17897629820E+04  0.55952334048E+03  0.18813366731E+04  0.46999998093E+01 0. -1.
</event>
<event>
 5   0  0.2238968E-07  0.3594238E+04  0.7818609E-02  0.8091813E-01
       -2   -1    0    0    0  501  0.00000000000E+00  0.00000000000E+00  0.11885885829E+04  0.11885885829E+04  0.25500000920E-02 0.  1.
        2   -1    0    0  501    0  0.00000000000E+00  0.00000000000E+00 -0.27172032960E+04  0.27172032960E+04  0.25500000920E-02 0. -1.
    10030    2    1    2    0    0  0.00000000000E+00  0.00000000000E+00 -0.15286147131E+04  0.39057918789E+04  0.35942380639E+04 0.  0.
        3    1    3    3  502    0 -0.16668057023E+04 -0.67110849065E+03 -0.72979004458E+03  0.19393868553E+04  0.10100000352E+00 0. -1.
       -3    1    3    3    0  502  0.16668057023E+04  0.67110849065E+03 -0.79882466851E+03  0.19664050235E+04  0.10100000352E+00 0.  1.
</event>
<event>
 5   0  0.2199902E-07  0.3612959E+04  0.7818609E-02  0.8087530E-01
       -2   -1    0    0    0  501  0.00000000000E+00  0.00000000000E+00  0.11061853667E+04  0.11061853667E+04  0.25500000920E-02 0. -1.
        2   -1    0    0  501    0  0.00000000000E+00  0.00000000000E+00 -0.29501103549E+04  0.29501103549E+04  0.25500000920E-02 0.  1.
    10030    2    1    2    0    0  0.00000000000E+00  0.00000000000E+00 -0.18439249882E+04  0.40562957216E+04  0.36129593990E+04 0.  0.
        1    1    3    3  502    0  0.11112747345E+04  0.10965181263E+04  0.98457578849E+02  0.15642817622E+04  0.50400001928E-02 0. -1.
       -1    1    3    3    0  502 -0.11112747345E+04 -0.10965181263E+04 -0.19423825671E+04  0.24920139594E+04  0.50400001928E-02 0.  1.
</event>
<event>
 5   0  0.7236375E-08  0.3550194E+04  0.7818609E-02  0.8101997E-01
        3   -1    0    0  501    0  0.00000000000E+00  0.00000000000E+00  0.16873678756E+04  0.16873678786E+04  0.10100000352E+00 0. -1.
       -3   -1    0    0    0  501  0.00000000000E+00  0.00000000000E+00 -0.18673873476E+04  0.18673873504E+04  0.10100000352E+00 0.  1.
    10030    2    1    2    0    0  0.00000000000E+00  0.00000000000E+00 -0.18001947206E+03  0.35547552289E+04  0.35501940408E+04 0.  0.
        1    1    3    3  502    0 -0.12393915770E+04 -0.28506785122E+03  0.11499731228E+04  0.17145825568E+04  0.50400001928E-02 0. -1.
       -1    1    3    3    0  502  0.12393915770E+04  0.28506785122E+03 -0.13299925949E+04  0.18401726721E+04  0.50400001928E-02 0.  1.
</event>
<event>
 5   0  0.7347303E-08  0.3539731E+04  0.7818609E-02  0.8104438E-01
        1   -1    0    0  501    0  0.00000000000E+00  0.00000000000E+00  0.20390609927E+04  0.20390609927E+04  0.50400001928E-02 0. -1.
       -1   -1    0    0    0  501  0.00000000000E+00  0.00000000000E+00 -0.15362088485E+04  0.15362088486E+04  0.50400001928E-02 0.  1.
    10030    2    1    2    0    0  0.00000000000E+00  0.00000000000E+00  0.50285214416E+03  0.35752698413E+04  0.35397308032E+04 0.  0.
        2    1    3    3  502    0 -0.14384966655E+04 -0.83060533632E+03 -0.36564611570E+03  0.17008453673E+04  0.25500000920E-02 0.  1.
       -2    1    3    3    0  502  0.14384966655E+04  0.83060533632E+03  0.86849825986E+03  0.18744244740E+04  0.25500000920E-02 0. -1.
</event>
<event>
 5   0  0.7236375E-08  0.3586053E+04  0.7818609E-02  0.8093694E-01
       -1   -1    0    0    0  501  0.00000000000E+00  0.00000000000E+00  0.22637840012E+04  0.22637840012E+04  0.50400001928E-02 0.  1.
        1   -1    0    0  501    0  0.00000000000E+00  0.00000000000E+00 -0.14201634924E+04  0.14201634925E+04  0.50400001928E-02 0. -1.
    10030    2    1    2    0    0  0.00000000000E+00  0.00000000000E+00  0.84362050878E+03  0.36839474937E+04  0.35860526451E+04 0.  0.
        5    1    3    3  502    0 -0.13151850347E+04  0.11974795939E+04  0.18924049750E+03  0.17887154914E+04  0.46999998093E+01 0.  1.
       -5    1    3    3    0  502  0.13151850347E+04 -0.11974795939E+04  0.65438001128E+03  0.18952320023E+04  0.46999998093E+01 0. -1.
</event>
<event>
 5   0  0.7347303E-08  0.3613930E+04  0.7818609E-02  0.8087308E-01
        1   -1    0    0  501    0  0.00000000000E+00  0.00000000000E+00  0.10688126637E+04  0.10688126637E+04  0.50400001928E-02 0. -1.
       -1   -1    0    0    0  501  0.00000000000E+00  0.00000000000E+00 -0.30549065879E+04  0.30549065879E+04  0.50400001928E-02 0.  1.
    10030    2    1    2    0    0  0.00000000000E+00  0.00000000000E+00 -0.19860939241E+04  0.41237192516E+04  0.36139301862E+04 0.  0.
        2    1    3    3  502    0 -0.14034368613E+04  0.74851043583E+03 -0.19714504079E+04  0.25330849980E+04  0.25500000920E-02 0.  1.
       -2    1    3    3    0  502  0.14034368613E+04 -0.74851043583E+03 -0.14643516187E+02  0.15906342536E+04  0.25500000920E-02 0. -1.
</event>
<event>
 5   0  0.7236375E-08  0.3607432E+04  0.7818609E-02  0.8088791E-01
        1   -1    0    0  501    0  0.00000000000E+00  0.00000000000E+00  0.18377616041E+04  0.18377616041E+04  0.50400001928E-02 0.  1.
       -1   -1    0    0    0  501  0.00000000000E+00  0.00000000000E+00 -0.17703010611E+04  0.17703010611E+04  0.50400001928E-02 0. -1.
    10030    2    1    2    0    0  0.00000000000E+00  0.00000000000E+00  0.67460543018E+02  0.36080626652E+04  0.36074319496E+04 0.  0.
        5    1    3    3  502    0 -0.36721274368E+03 -0.16795013304E+04 -0.51207505283E+03  0.17938263204E+04  0.46999998093E+01 0. -1.
       -5    1    3    3    0  502  0.36721274368E+03  0.16795013304E+04  0.57953559585E+03  0.18142363448E+04  0.46999998093E+01 0.  1.
</event>
<event>
 5   0  0.7347303E-08  0.3597423E+04  0.7818609E-02  0.8091082E-01
        1   -1    0    0  501    0  0.00000000000E+00  0.00000000000E+00  0.20046959622E+04  0.20046959623E+04  0.50400001928E-02 0.  1.
       -1   -1    0    0    0  501  0.00000000000E+00  0.00000000000E+00 -0.16138922212E+04  0.16138922212E+04  0.50400001928E-02 0. -1.
    10030    2    1    2    0    0  0.00000000000E+00  0.00000000000E+00  0.39080374109E+03  0.36185881834E+04  0.35974230884E+04 0.  0.
        2    1    3    3  502    0  0.11897991664E+03 -0.16383465118E+04  0.93253509942E+03  0.18889037099E+04  0.25500000920E-02 0.  1.
       -2    1    3    3    0  502 -0.11897991664E+03  0.16383465118E+04 -0.54173135834E+03  0.17296844736E+04  0.25500000920E-02 0. -1.
</event>
<event>
 5   0  0.2238968E-07  0.3594106E+04  0.7818609E-02  0.8091843E-01
        2   -1    0    0  501    0  0.00000000000E+00  0.00000000000E+00  0.16945299837E+04  0.16945299837E+04  0.25500000920E-02 0.  1.
       -2   -1    0    0    0  501  0.00000000000E+00  0.00000000000E+00 -0.19057791699E+04  0.19057791699E+04  0.25500000920E-02 0. -1.
    10030    2    1    2    0    0  0.00000000000E+00  0.00000000000E+00 -0.21124918626E+03  0.36003091536E+04  0.35941062565E+04 0.  0.
        3    1    3    3  502    0  0.14191221025E+03  0.53950199035E+02  0.16880942146E+04  0.16949076043E+04  0.10100000352E+00 0.  1.
       -3    1    3    3    0  502 -0.14191221025E+03 -0.53950199035E+02 -0.18993434009E+04  0.19054015493E+04  0.10100000352E+00 0. -1.
</event>
<event>
 5   0  0.2198900E-07  0.3455924E+04  0.7818609E-02  0.8124315E-01
        2   -1    0    0  501    0  0.00000000000E+00  0.00000000000E+00  0.10173082029E+04  0.10173082029E+04  0.25500000920E-02 0.  1.
       -2   -1    0    0    0  501  0.00000000000E+00  0.00000000000E+00 -0.29350529315E+04  0.29350529315E+04  0.25500000920E-02 0. -1.
    10030    2    1    2    0    0  0.00000000000E+00  0.00000000000E+00 -0.19177447286E+04  0.39523611343E+04  0.34559244338E+04 0.  0.
        2    1    3    3  502    0  0.84531338044E+03 -0.59484250466E+03  0.62476472315E+03  0.12077761696E+04  0.25500000920E-02 0.  1.
       -2    1    3    3    0  502 -0.84531338044E+03  0.59484250466E+03 -0.25425094518E+04  0.27445849648E+04  0.25500000920E-02 0. -1.
</event>
<event>
 5   0  0.2199902E-07  0.3593609E+04  0.7818609E-02  0.8091957E-01
       -2   -1    0    0    0  501  0.00000000000E+00  0.00000000000E+00  0.12411184566E+04  0.12411184566E+04  0.25500000920E-02 0.  1.
        2   -1    0    0  501    0  0.00000000000E+00  0.00000000000E+00 -0.26012873801E+04  0.26012873801E+04  0.25500000920E-02 0. -1.
    10030    2    1    2    0    0  0.00000000000E+00  0.00000000000E+00 -0.13601689235E+04  0.38424058366E+04  0.35936086477E+04 0.  0.
        1    1    3    3  502    0 -0.10493607111E+04 -0.14582600824E+04 -0.64936547675E+03  0.19103287394E+04  0.50400001928E-02 0. -1.
       -1    1    3    3    0  502  0.10493607111E+04  0.14582600824E+04 -0.71080344674E+03  0.19320770973E+04  0.50400001928E-02 0.  1.
</event>
<event>
 5   0  0.7347303E-08  0.3598977E+04  0.7818609E-02  0.8090726E-01
        1   -1    0    0  501    0  0.00000000000E+00  0.00000000000E+00  0.15495147708E+04  0.15495147708E+04  0.50400001928E-02 0. -1.
       -1   -1    0    0    0  501  0.00000000000E+00  0.00000000000E+00 -0.20897889939E+04  0.20897889939E+04  0.50400001928E-02 0.  1.
    10030    2    1    2    0    0  0.00000000000E+00  0.00000000000E+00 -0.54027422307E+03  0.36393037648E+04  0.35989770291E+04 0.  0.
        2    1    3    3  502    0 -0.16534602818E+04  0.42330432150E+03 -0.84664945904E+03  0.19052382420E+04  0.25500000920E-02 0.  1.
       -2    1    3    3    0  502  0.16534602818E+04 -0.42330432150E+03  0.30637523598E+03  0.17340655228E+04  0.25500000920E-02 0. -1.
</event>
<event>
 5   0  0.2309391E-07  0.3609029E+04  0.7818609E-02  0.8088427E-01
       -2   -1    0    0    0  501  0.00000000000E+00  0.00000000000E+00  0.10745362302E+04  0.10745362302E+04  0.25500000920E-02 0.  1.
        2   -1    0    0  501    0  0.00000000000E+00  0.00000000000E+00 -0.30303986588E+04  0.30303986588E+04  0.25500000920E-02 0. -1.
    10030    2    1    2    0    0  0.00000000000E+00  0.00000000000E+00 -0.19558624287E+04  0.41049348890E+04  0.36090293159E+04 0.  0.
        4    1    3    3  502    0  0.12243582403E+04 -0.13119658883E+04 -0.11936309073E+04  0.21552410419E+04  0.12699999809E+01 0. -1.
       -4    1    3    3    0  502 -0.12243582403E+04  0.13119658883E+04 -0.76223152135E+03  0.19496938472E+04  0.12699999809E+01 0.  1.
</event>
<event>
 5   0  0.7236375E-08  0.3612708E+04  0.7818609E-02  0.8087587E-01
       -1   -1    0    0    0  501  0.00000000000E+00  0.00000000000E+00  0.14423880738E+04  0.14423880738E+04  0.50400001928E-02 0. -1.
        1   -1    0    0  501    0  0.00000000000E+00  0.00000000000E+00 -0.22621608860E+04  0.22621608860E+04  0.50400001928E-02 0.  1.
    10030    2    1    2    0    0  0.00000000000E+00  0.00000000000E+00 -0.81977281215E+03  0.37045489598E+04  0.36127075071E+04 0.  0.
        1    1    3    3  502    0  0.13887246568E+04  0.90217921365E+03 -0.11496345026E+04  0.20159719729E+04  0.50400001928E-02 0.  1.
       -1    1    3    3    0  502 -0.13887246568E+04 -0.90217921365E+03  0.32986169041E+03  0.16885769869E+04  0.50400001928E-02 0. -1.
</event>
<event>
 5   0  0.7514289E-08  0.3609030E+04  0.7818609E-02  0.8088426E-01
       -1   -1    0    0    0  501  0.00000000000E+00  0.00000000000E+00  0.16334934370E+04  0.16334934370E+04  0.50400001928E-02 0. -1.
        1   -1    0    0  501    0  0.00000000000E+00  0.00000000000E+00 -0.19934421430E+04  0.19934421430E+04  0.50400001928E-02 0.  1.
    10030    2    1    2    0    0  0.00000000000E+00  0.00000000000E+00 -0.35994870604E+03  0.36269355801E+04  0.36090301510E+04 0.  0.
        4    1    3    3  502    0  0.24767370516E+03  0.31895115407E+03 -0.19474498366E+04  0.19888777192E+04  0.12699999809E+01 0.  1.
       -4    1    3    3    0  502 -0.24767370516E+03 -0.31895115407E+03  0.15875011306E+04  0.16380578608E+04  0.12699999809E+01 0. -1.
</event>
<event>
 5   0  0.2238968E-07  0.3602156E+04  0.7818609E-02  0.8089998E-01
        2   -1    0    0  501    0  0.00000000000E+00  0.00000000000E+00  0.20031165081E+04  0.20031165081E+04  0.25500000920E-02 0. -1.
       -2   -1    0    0    0  501  0.00000000000E+00  0.00000000000E+00 -0.16194178866E+04  0.16194178867E+04  0.25500000920E-02 0.  1.
    10030    2    1    2    0    0  0.00000000000E+00  0.00000000000E+00  0.38369862149E+03  0.36225343948E+04  0.36021564110E+04 0.  0.
        3    1    3    3  502    0  0.80778805268E+03  0.55250597016E+03 -0.13286891231E+04  0.16502118595E+04  0.10100000352E+00 0.  1.
       -3    1    3    3    0  502 -0.80778805268E+03 -0.55250597016E+03  0.17123877446E+04  0.19723225353E+04  0.10100000352E+00 0. -1.
</event>
<event>
 5   0  0.7236375E-08  0.3555747E+04  0.7818609E-02  0.8100704E-01
        1   -1    0    0  501    0  0.00000000000E+00  0.00000000000E+00  0.13074732945E+04  0.13074732945E+04  0.50400001928E-02 0. -1.
       -1   -1    0    0    0  501  0.00000000000E+00  0.00000000000E+00 -0.24175139749E+04  0.24175139749E+04  0.50400001928E-02 0.  1.
    10030    2    1    2    0    0  0.00000000000E+00  0.00000000000E+00 -0.11100406804E+04  0.37249872694E+04  0.35557474383E+04 0.  0.
        5    1    3    3  502    0 -0.61396094100E+03  0.41371018471E+03  0.11383010098E+04  0.13578863844E+04  0.46999998093E+01 0. -1.
       -5    1    3    3    0  502  0.61396094100E+03 -0.41371018471E+03 -0.22483416902E+04  0.23671008851E+04  0.46999998093E+01 0.  1.
</event>
<event>
 5   0  0.2238968E-07  0.3481995E+04  0.7818609E-02  0.8118070E-01
        2   -1    0    0  501    0  0.00000000000E+00  0.00000000000E+00  0.23698366639E+04  0.23698366639E+04  0.25500000920E-02 0.  1.
       -2   -1    0    0    0  501  0.00000000000E+00  0.00000000000E+00 -0.12790214192E+04  0.12790214192E+04  0.25500000920E-02 0. -1.
    10030    2    1    2    0    0  0.00000000000E+00  0.00000000000E+00  0.10908152447E+04  0.36488580831E+04  0.34819947462E+04 0.  0.
        3    1    3    3  502    0  0.89378244876E+03 -0.14939228992E+04  0.52395339990E+03  0.18180153657E+04  0.10100000352E+00 0.  1.
       -3    1    3    3    0  502 -0.89378244876E+03  0.14939228992E+04  0.56686184482E+03  0.18308427174E+04  0.10100000352E+00 0. -1.
</event>
<event>
 5   0  0.7514289E-08  0.3440800E+04  0.7818609E-02  0.8127965E-01
       -1   -1    0    0    0  501  0.00000000000E+00  0.00000000000E+00  0.19791676118E+04  0.19791676118E+04  0.50400001928E-02 0.  1.
        1   -1    0    0  501    0  0.00000000000E+00  0.00000000000E+00 -0.14954654306E+04  0.14954654306E+04  0.50400001928E-02 0. -1.
    10030    2    1    2    0    0  0.00000000000E+00  0.00000000000E+00  0.48370218116E+03  0.34746330425E+04  0.34408003400E+04 0.  0.
        4    1    3    3  502    0  0.97253861710E+02  0.17136038013E+04  0.36081792670E+03  0.17538778436E+04  0.12699999809E+01 0. -1.
       -4    1    3    3    0  502 -0.97253861710E+02 -0.17136038013E+04  0.12288425446E+03  0.17207551988E+04  0.12699999809E+01 0.  1.
</event>
<event>
 5   0  0.7236375E-08  0.3600290E+04  0.7818609E-02  0.8090425E-01
       -1   -1    0    0    0  501  0.00000000000E+00  0.00000000000E+00  0.16651795796E+04  0.16651795796E+04  0.50400001928E-02 0.  1.
        1   -1    0    0  501    0  0.00000000000E+00  0.00000000000E+00 -0.19460496316E+04  0.19460496316E+04  0.50400001928E-02 0. -1.
    10030    2    1    2    0    0  0.00000000000E+00  0.00000000000E+00 -0.28087005206E+03  0.36112292112E+04  0.36002900480E+04 0.  0.
        5    1    3    3  502    0 -0.13600177025E+04 -0.11246667168E+04 -0.49644533944E+03  0.18333039683E+04  0.46999998093E+01 0.  1.
       -5    1    3    3    0  502  0.13600177025E+04  0.11246667168E+04  0.21557528738E+03  0.17779252430E+04  0.46999998093E+01 0. -1.
</event>
<event>
 5   0  0.2238968E-07  0.3605556E+04  0.7818609E-02  0.8089220E-01
       -2   -1    0    0    0  501  0.00000000000E+00  0.00000000000E+00  0.15565947500E+04  0.15565947500E+04  0.25500000920E-02 0.  1.
        2   -1    0    0  501    0  0.00000000000E+00  0.00000000000E+00 -0.20878958709E+04  0.20878958709E+04  0.25500000920E-02 0. -1.
    10030    2    1    2    0    0  0.00000000000E+00  0.00000000000E+00 -0.53130112084E+03  0.36444906209E+04  0.36055555751E+04 0.  0.
        3    1    3    3  502    0 -0.57995374499E+03  0.15513442331E+03  0.14525866079E+04  0.15717572647E+04  0.10100000352E+00 0.  1.
       -3    1    3    3    0  502  0.57995374499E+03 -0.15513442331E+03 -0.19838877287E+04  0.20727333562E+04  0.10100000352E+00 0. -1.
</event>
<event>
 5   0  0.7236375E-08  0.3591861E+04  0.7818609E-02  0.8092359E-01
       -1   -1    0    0    0  501  0.00000000000E+00  0.00000000000E+00  0.13185484024E+04  0.13185484025E+04  0.50400001928E-02 0. -1.
        1   -1    0    0  501    0  0.00000000000E+00  0.00000000000E+00 -0.24461493157E+04  0.24461493157E+04  0.50400001928E-02 0.  1.
    10030    2    1    2    0    0  0.00000000000E+00  0.00000000000E+00 -0.11276009132E+04  0.37646977181E+04  0.35918609507E+04 0.  0.
        1    1    3    3  502    0  0.56305877653E+03  0.77819520186E+03  0.10266983956E+04  0.14059632121E+04  0.50400001928E-02 0. -1.
       -1    1    3    3    0  502 -0.56305877653E+03 -0.77819520186E+03 -0.21542993089E+04  0.23587345061E+04  0.50400001928E-02 0.  1.
</event>
<event>
 5   0  0.2342606E-07  0.3592806E+04  0.7818609E-02  0.8092142E-01
        2   -1    0    0  501    0  0.00000000000E+00  0.00000000000E+00  0.21085757323E+04  0.21085757323E+04  0.25500000920E-02 0.  1.
       -2   -1    0    0    0  501  0.00000000000E+00  0.00000000000E+00 -0.15304472292E+04  0.15304472292E+04  0.25500000920E-02 0. -1.
    10030    2    1    2    0    0  0.00000000000E+00  0.00000000000E+00  0.57812850313E+03  0.36390229616E+04  0.35928060828E+04 0.  0.
        5    1    3    3  502    0  0.99558822096E+03 -0.19045233065E+03 -0.12131099105E+04  0.15808623409E+04  0.46999998093E+01 0. -1.
       -5    1    3    3    0  502 -0.99558822096E+03  0.19045233065E+03  0.17912384136E+04  0.20581606207E+04  0.46999998093E+01 0.  1.
</event>
<event>
 5   0  0.7347303E-08  0.3608664E+04  0.7818609E-02  0.8088510E-01
        1   -1    0    0  501    0  0.00000000000E+00  0.00000000000E+00  0.19153077708E+04  0.19153077708E+04  0.50400001928E-02 0.  1.
       -1   -1    0    0    0  501  0.00000000000E+00  0.00000000000E+00 -0.16997861885E+04  0.16997861885E+04  0.50400001928E-02 0. -1.
    10030    2    1    2    0    0  0.00000000000E+00  0.00000000000E+00  0.21552158228E+03  0.36150939593E+04  0.36086638500E+04 0.  0.
        2    1    3    3  502    0 -0.97946488749E+03 -0.12367106406E+02  0.16257526337E+04  0.18980453201E+04  0.25500000920E-02 0.  1.
       -2    1    3    3    0  502  0.97946488749E+03  0.12367106406E+02 -0.14102310514E+04  0.17170486392E+04  0.25500000920E-02 0. -1.
</event>
<event>
 5   0  0.7261233E-08  0.3598493E+04  0.7818609E-02  0.8090837E-01
        1   -1    0    0  501    0  0.00000000000E+00  0.00000000000E+00  0.21127112468E+04  0.21127112468E+04  0.50400001928E-02 0. -1.
       -1   -1    0    0    0  501  0.00000000000E+00  0.00000000000E+00 -0.15322910374E+04  0.15322910374E+04  0.50400001928E-02 0.  1.
    10030    2    1    2    0    0  0.00000000000E+00  0.00000000000E+00  0.58042020941E+03  0.36450022842E+04  0.35984933003E+04 0.  0.
        3    1    3    3  502    0  0.16697615885E+04 -0.66631708925E+03  0.21712303677E+03  0.18108629570E+04  0.10100000352E+00 0. -1.
       -3    1    3    3    0  502 -0.16697615885E+04  0.66631708925E+03  0.36329717264E+03  0.18341393272E+04  0.10100000352E+00 0.  1.
</event>
<event>
 5   0  0.7236375E-08  0.3601217E+04  0.7818609E-02  0.8090213E-01
        1   -1    0    0  501    0  0.00000000000E+00  0.00000000000E+00  0.27454251120E+04  0.27454251120E+04  0.50400001928E-02 0.  1.
       -1   -1    0    0    0  501  0.00000000000E+00  0.00000000000E+00 -0.11809428200E+04  0.11809428200E+04  0.50400001928E-02 0. -1.
    10030    2    1    2    0    0  0.00000000000E+00  0.00000000000E+00  0.15644822920E+04  0.39263679320E+04  0.36012165022E+04 0.  0.
        5    1    3    3  502    0 -0.45457478315E+03 -0.17186947690E+04  0.47075778860E+03  0.18390717571E+04  0.46999998093E+01 0. -1.
       -5    1    3    3    0  502  0.45457478315E+03  0.17186947690E+04  0.10937245034E+04  0.20872961749E+04  0.46999998093E+01 0.  1.
</event>
<event>
 5   0  0.2198900E-07  0.3493521E+04  0.7818609E-02  0.8115327E-01
       -2   -1    0    0    0  501  0.00000000000E+00  0.00000000000E+00  0.12289095986E+04  0.12289095986E+04  0.25500000920E-02 0. -1.
        2   -1    0    0  501    0  0.00000000000E+00  0.00000000000E+00 -0.24828288182E+04  0.24828288182E+04  0.25500000920E-02 0.  1.
    10030    2    1    2    0    0  0.00000000000E+00  0.00000000000E+00 -0.12539192197E+04  0.37117384168E+04  0.34935209553E+04 0.  0.
        2    1    3    3  502    0  0.88986912367E+03  0.18552324096E+03  0.95781649362E+03  0.13204917136E+04  0.25500000920E-02 0. -1.
       -2    1    3    3    0  502 -0.88986912367E+03 -0.18552324096E+03 -0.22117357133E+04  0.23912467032E+04  0.25500000920E-02 0.  1.
</event>
<event>
 5   0  0.2199902E-07  0.3603920E+04  0.7818609E-02  0.8089594E-01
        2   -1    0    0  501    0  0.00000000000E+00  0.00000000000E+00  0.21241188064E+04  0.21241188064E+04  0.25500000920E-02 0. -1.
       -2   -1    0    0    0  501  0.00000000000E+00  0.00000000000E+00 -0.15286620771E+04  0.15286620771E+04  0.25500000920E-02 0.  1.
    10030    2    1    2    0    0  0.00000000000E+00  0.00000000000E+00  0.59545672936E+03  0.36527808835E+04  0.36039200139E+04 0.  0.
        1    1    3    3  502    0 -0.35033744090E+03 -0.67964834167E+03 -0.13560803142E+04  0.15567954295E+04  0.50400001928E-02 0.  1.
       -1    1    3    3    0  502  0.35033744090E+03  0.67964834167E+03  0.19515370436E+04  0.20959854540E+04  0.50400001928E-02 0. -1.
</event>
<event>
 5   0  0.7236375E-08  0.3631727E+04  0.7818609E-02  0.8083263E-01
        1   -1    0    0  501    0  0.00000000000E+00  0.00000000000E+00  0.12453662279E+04  0.12453662280E+04  0.50400001928E-02 0.  1.
       -1   -1    0    0    0  501  0.00000000000E+00  0.00000000000E+00 -0.26477027233E+04  0.26477027233E+04  0.50400001928E-02 0. -1.
    10030    2    1    2    0    0  0.00000000000E+00  0.00000000000E+00 -0.14023364953E+04  0.38930689512E+04  0.36317266159E+04 0.  0.
        1    1    3    3  502    0  0.15208898727E+04  0.35832958968E+03  0.29052795558E+03  0.15893119873E+04  0.50400001928E-02 0.  1.
       -1    1    3    3    0  502 -0.15208898727E+04 -0.35832958968E+03 -0.16928644509E+04  0.23037569640E+04  0.50400001928E-02 0. -1.
</event>
<event>
 5   0  0.7261233E-08  0.3594061E+04  0.7818609E-02  0.8091853E-01
        1   -1    0    0  501    0  0.00000000000E+00  0.00000000000E+00  0.19953924328E+04  0.19953924328E+04  0.50400001928E-02 0.  1.
       -1   -1    0    0    0  501  0.00000000000E+00  0.00000000000E+00 -0.16183880359E+04  0.16183880359E+04  0.50400001928E-02 0. -1.
    10030    2    1    2    0    0  0.00000000000E+00  0.00000000000E+00  0.37700439688E+03  0.36137804687E+04  0.35940613463E+04 0.  0.
        3    1    3    3  502    0 -0.11002932607E+04  0.47325785710E+03  0.15355168808E+04  0.19474163295E+04  0.10100000352E+00 0.  1.
       -3    1    3    3    0  502  0.11002932607E+04 -0.47325785710E+03 -0.11585124840E+04  0.16663641392E+04  0.10100000352E+00 0. -1.
</event>
<event>
 5   0  0.7261233E-08  0.3594698E+04  0.7818609E-02  0.8091707E-01
        1   -1    0    0  501    0  0.00000000000E+00  0.00000000000E+00  0.14094362301E+04  0.14094362301E+04  0.50400001928E-02 0.  1.
       -1   -1    0    0    0  501  0.00000000000E+00  0.00000000000E+00 -0.22920252471E+04  0.22920252471E+04  0.50400001928E-02 0. -1.
    10030    2    1    2    0    0  0.00000000000E+00  0.00000000000E+00 -0.88258901701E+03  0.37014614773E+04  0.35946979977E+04 0.  0.
        3    1    3    3  502    0 -0.13347319730E+04 -0.70268619819E+03  0.56506885192E+03  0.16107700489E+04  0.10100000352E+00 0.  1.
       -3    1    3    3    0  502  0.13347319730E+04  0.70268619819E+03 -0.14476578689E+04  0.20906914283E+04  0.10100000352E+00 0. -1.
</event>
<event>
 5   0  0.7347303E-08  0.3586294E+04  0.7818609E-02  0.8093638E-01
        1   -1    0    0  501    0  0.00000000000E+00  0.00000000000E+00  0.16628489123E+04  0.16628489123E+04  0.50400001928E-02 0. -1.
       -1   -1    0    0    0  501  0.00000000000E+00  0.00000000000E+00 -0.19336547740E+04  0.19336547740E+04  0.50400001928E-02 0.  1.
    10030    2    1    2    0    0  0.00000000000E+00  0.00000000000E+00 -0.27080586164E+03  0.35965036863E+04  0.35862937625E+04 0.  0.
        2    1    3    3  502    0 -0.13834949429E+04  0.10259346040E+04 -0.63559707185E+03  0.18359149508E+04  0.25500000920E-02 0.  1.
       -2    1    3    3    0  502  0.13834949429E+04 -0.10259346040E+04  0.36479121020E+03  0.17605887355E+04  0.25500000920E-02 0. -1.
</event>
<event>
 5   0  0.2199902E-07  0.3596219E+04  0.7818609E-02  0.8091358E-01
        2   -1    0    0  501    0  0.00000000000E+00  0.00000000000E+00  0.25702340435E+04  0.25702340435E+04  0.25500000920E-02 0. -1.
       -2   -1    0    0    0  501  0.00000000000E+00  0.00000000000E+00 -0.12579389286E+04  0.12579389286E+04  0.25500000920E-02 0.  1.
    10030    2    1    2    0    0  0.00000000000E+00  0.00000000000E+00  0.13122951149E+04  0.38281729721E+04  0.35962188248E+04 0.  0.
        1    1    3    3  502    0  0.15099602884E+04  0.33170373467E+03 -0.32133309731E+03  0.15790067763E+04  0.50400001928E-02 0.  1.
       -1    1    3    3    0  502 -0.15099602884E+04 -0.33170373467E+03  0.16336282122E+04  0.22491661958E+04  0.50400001928E-02 0. -1.
</event>
<event>
 5   0  0.2238968E-07  0.3541453E+04  0.7818609E-02  0.8104036E-01
       -2   -1    0    0    0  501  0.00000000000E+00  0.00000000000E+00  0.18628272077E+04  0.18628272078E+04  0.25500000920E-02 0. -1.
        2   -1    0    0  501    0  0.00000000000E+00  0.00000000000E+00 -0.16831798274E+04  0.16831798274E+04  0.25500000920E-02 0.  1.
    10030    2    1    2    0    0  0.00000000000E+00  0.00000000000E+00  0.17964738039E+03  0.35460070351E+04  0.35414534745E+04 0.  0.
        3    1    3    3  502    0 -0.45321153357E+03 -0.14977425317E+04  0.91964727353E+03  0.18150439398E+04  0.10100000352E+00 0. -1.
       -3    1    3    3    0  502  0.45321153357E+03  0.14977425317E+04 -0.73999989314E+03  0.17309630953E+04  0.10100000352E+00 0.  1.
</event>
<event>
 5   0  0.7261233E-08  0.3608848E+04  0.7818609E-02  0.8088468E-01
        1   -1    0    0  501    0  0.00000000000E+00  0.00000000000E+00  0.30629677879E+04  0.30629677879E+04  0.50400001928E-02 0. -1.
       -1   -1    0    0    0  501  0.00000000000E+00  0.00000000000E+00 -0.10630037659E+04  0.10630037659E+04  0.50400001928E-02 0.  1.
    10030    2    1    2    0    0  0.00000000000E+00  0.00000000000E+00  0.19999640219E+04  0.41259715538E+04  0.36088481783E+04 0.  0.
        3    1    3    3  502    0  0.36629223600E+03 -0.70302769223E+03 -0.85325652529E+03  0.11646736222E+04  0.10100000352E+00 0.  1.
       -3    1    3    3    0  502 -0.36629223600E+03  0.70302769223E+03  0.28532205472E+04  0.29612979316E+04  0.10100000352E+00 0. -1.
</event>
<event>
 5   0  0.2309391E-07  0.3836392E+04  0.7818609E-02  0.8038390E-01
       -2   -1    0    0    0  501  0.00000000000E+00  0.00000000000E+00  0.15940906518E+04  0.15940906518E+04  0.25500000920E-02 0. -1.
        2   -1    0    0  501    0  0.00000000000E+00  0.00000000000E+00 -0.23081973970E+04  0.23081973970E+04  0.25500000920E-02 0.  1.
    10030    2    1    2    0    0  0.00000000000E+00  0.00000000000E+00 -0.71410674515E+03  0.39022880488E+04  0.38363919993E+04 0.  0.
        4    1    3    3  502    0 -0.48990632402E+03  0.52096152908E+03  0.14534252446E+04  0.16198319900E+04  0.12699999809E+01 0. -1.
       -4    1    3    3    0  502  0.48990632402E+03 -0.52096152908E+03 -0.21675319898E+04  0.22824560589E+04  0.12699999809E+01 0.  1.
</event>
<event>
 5   0  0.7261233E-08  0.3610831E+04  0.7818609E-02  0.8088015E-01
        1   -1    0    0  501    0  0.00000000000E+00  0.00000000000E+00  0.13052511990E+04  0.13052511990E+04  0.50400001928E-02 0.  1.
       -1   -1    0    0    0  501  0.00000000000E+00  0.00000000000E+00 -0.24972392339E+04  0.24972392339E+04  0.50400001928E-02 0. -1.
    10030    2    1    2    0    0  0.00000000000E+00  0.00000000000E+00 -0.11919880349E+04  0.38024904328E+04  0.36108306546E+04 0.  0.
        3    1    3    3  502    0  0.16269468424E+04  0.45955262812E+03  0.71179487824E+02  0.16921025901E+04  0.10100000352E+00 0.  1.
       -3    1    3    3    0  502 -0.16269468424E+04 -0.45955262812E+03 -0.12631675227E+04  0.21103878427E+04  0.10100000352E+00 0. -1.
</event>
<event>
 5   0  0.7261233E-08  0.3603156E+04  0.7818609E-02  0.8089769E-01
        1   -1    0    0  501    0  0.00000000000E+00  0.00000000000E+00  0.16347486490E+04  0.16347486490E+04  0.50400001928E-02 0.  1.
       -1   -1    0    0    0  501  0.00000000000E+00  0.00000000000E+00 -0.19854329206E+04  0.19854329206E+04  0.50400001928E-02 0. -1.
    10030    2    1    2    0    0  0.00000000000E+00  0.00000000000E+00 -0.35068427159E+03  0.36201815695E+04  0.36031562744E+04 0.  0.
        3    1    3    3  502    0 -0.33210537630E+03  0.82003276380E+03  0.14014477412E+04  0.16573483328E+04  0.10100000352E+00 0.  1.
       -3    1    3    3    0  502  0.33210537630E+03 -0.82003276380E+03 -0.17521320128E+04  0.19628332367E+04  0.10100000352E+00 0. -1.
</event>
<event>
 5   0  0.2238968E-07  0.3602115E+04  0.7818609E-02  0.8090007E-01
       -2   -1    0    0    0  501  0.00000000000E+00  0.00000000000E+00  0.31699229106E+04  0.31699229106E+04  0.25500000920E-02 0. -1.
        2   -1    0    0  501    0  0.00000000000E+00  0.00000000000E+00 -0.10233083089E+04  0.10233083089E+04  0.25500000920E-02 0.  1.
    10030    2    1    2    0    0  0.00000000000E+00  0.00000000000E+00  0.21466146016E+04  0.41932312195E+04  0.36021151859E+04 0.  0.
        3    1    3    3  502    0 -0.11889075984E+03  0.17131727653E+04  0.17052686201E+04  0.24201316108E+04  0.10100000352E+00 0. -1.
       -3    1    3    3    0  502  0.11889075984E+03 -0.17131727653E+04  0.44134598152E+03  0.17730996087E+04  0.10100000352E+00 0.  1.
</event>
<event>
 5   0  0.7514289E-08  0.3601071E+04  0.7818609E-02  0.8090246E-01
       -1   -1    0    0    0  501  0.00000000000E+00  0.00000000000E+00  0.19387196004E+04  0.19387196004E+04  0.50400001928E-02 0.  1.
        1   -1    0    0  501    0  0.00000000000E+00  0.00000000000E+00 -0.16722003766E+04  0.16722003766E+04  0.50400001928E-02 0. -1.
    10030    2    1    2    0    0  0.00000000000E+00  0.00000000000E+00  0.26651922379E+03  0.36109199771E+04  0.36010707552E+04 0.  0.
        4    1    3    3  502    0  0.12731073117E+04  0.66400790449E+03  0.12226090133E+04  0.18858640293E+04  0.12699999809E+01 0.  1.
       -4    1    3    3    0  502 -0.12731073117E+04 -0.66400790449E+03 -0.95608978956E+03  0.17250559478E+04  0.12699999809E+01 0. -1.
</event>
<event>
 5   0  0.7261233E-08  0.3574405E+04  0.7818609E-02  0.8096380E-01
       -1   -1    0    0    0  501  0.00000000000E+00  0.00000000000E+00  0.23591432436E+04  0.23591432436E+04  0.50400001928E-02 0. -1.
        1   -1    0    0  501    0  0.00000000000E+00  0.00000000000E+00 -0.13539204040E+04  0.13539204040E+04  0.50400001928E-02 0.  1.
    10030    2    1    2    0    0  0.00000000000E+00  0.00000000000E+00  0.10052228396E+04  0.37130636476E+04  0.35744046629E+04 0.  0.
        3    1    3    3  502    0  0.66917729488E+02  0.47223674638E+01  0.23578349089E+04  0.23587890434E+04  0.10100000352E+00 0. -1.
       -3    1    3    3    0  502 -0.66917729488E+02 -0.47223674638E+01 -0.13526120693E+04  0.13542746042E+04  0.10100000352E+00 0.  1.
</event>
<event>
 5   0  0.2198900E-07  0.3591905E+04  0.7818609E-02  0.8092348E-01
       -2   -1    0    0    0  501  0.00000000000E+00  0.00000000000E+00  0.10688446855E+04  0.10688446855E+04  0.25500000920E-02 0.  1.
        2   -1    0    0  501    0  0.00000000000E+00  0.00000000000E+00 -0.30176932308E+04  0.30176932308E+04  0.25500000920E-02 0. -1.
    10030    2    1    2    0    0  0.00000000000E+00  0.00000000000E+00 -0.19488485453E+04  0.40865379163E+04  0.35919049944E+04 0.  0.
        2    1    3    3  502    0  0.13610871249E+04 -0.97195451267E+03 -0.22994984994E+03  0.16882330022E+04  0.25500000920E-02 0.  1.
       -2    1    3    3    0  502 -0.13610871249E+04  0.97195451267E+03 -0.17188986954E+04  0.23983049141E+04  0.25500000920E-02 0. -1.
</event>
<event>
 5   0  0.7514289E-08  0.3600243E+04  0.7818609E-02  0.8090436E-01
        1   -1    0    0  501    0  0.00000000000E+00  0.00000000000E+00  0.17122525904E+04  0.17122525904E+04  0.50400001928E-02 0.  1.
       -1   -1    0    0    0  501  0.00000000000E+00  0.00000000000E+00 -0.18925000028E+04  0.18925000028E+04  0.50400001928E-02 0. -1.
    10030    2    1    2    0    0  0.00000000000E+00  0.00000000000E+00 -0.18024741237E+03  0.36047525932E+04  0.36002433429E+04 0.  0.
        4    1    3    3  502    0  0.52959741381E+02 -0.17878365396E+04  0.11328633071E+03  0.17922052427E+04  0.12699999809E+01 0. -1.
       -4    1    3    3    0  502 -0.52959741381E+02  0.17878365396E+04 -0.29353374308E+03  0.18125473505E+04  0.12699999809E+01 0.  1.
</event>
<event>
 5   0  0.2199902E-07  0.3598808E+04  0.7818609E-02  0.8090765E-01
       -2   -1    0    0    0  501  0.00000000000E+00  0.00000000000E+00  0.18308304344E+04  0.18308304344E+04  0.25500000920E-02 0. -1.
        2   -1    0    0  501    0  0.00000000000E+00  0.00000000000E+00 -0.17685165927E+04  0.17685165927E+04  0.25500000920E-02 0.  1.
    10030    2    1    2    0    0  0.00000000000E+00  0.00000000000E+00  0.62313841682E+02  0.35993470272E+04  0.35988075813E+04 0.  0.
        1    1    3    3  502    0  0.17174405601E+04  0.46982826823E+03 -0.22871528667E+03  0.17951744654E+04  0.50400001928E-02 0. -1.
       -1    1    3    3    0  502 -0.17174405601E+04 -0.46982826823E+03  0.29102912835E+03  0.18041725617E+04  0.50400001928E-02 0.  1.
</event>
<event>
 5   0  0.7347303E-08  0.3660742E+04  0.7818609E-02  0.8076718E-01
        1   -1    0    0  501    0  0.00000000000E+00  0.00000000000E+00  0.16246480898E+04  0.16246480898E+04  0.50400001928E-02 0.  1.
       -1   -1    0    0    0  501  0.00000000000E+00  0.00000000000E+00 -0.20621439134E+04  0.20621439134E+04  0.50400001928E-02 0. -1.
    10030    2    1    2    0    0  0.00000000000E+00  0.00000000000E+00 -0.43749582359E+03  0.36867920032E+04  0.36607420941E+04 0.  0.
        2    1    3    3  502    0  0.13804427866E+03  0.17766269421E+04  0.20231651074E+03  0.17934300892E+04  0.25500000920E-02 0.  1.
       -2    1    3    3    0  502 -0.13804427866E+03 -0.17766269421E+04 -0.63981233434E+03  0.18933619140E+04  0.25500000920E-02 0. -1.
</event>
<event>
 5   0  0.7514289E-08  0.3603415E+04  0.7818609E-02  0.8089710E-01
       -1   -1    0    0    0  501  0.00000000000E+00  0.00000000000E+00  0.25475534137E+04  0.25475534137E+04  0.50400001928E-02 0.  1.
        1   -1    0    0  501    0  0.00000000000E+00  0.00000000000E+00 -0.12742221951E+04  0.12742221951E+04  0.50400001928E-02 0. -1.
    10030    2    1    2    0    0  0.00000000000E+00  0.00000000000E+00  0.12733312186E+04  0.38217756089E+04  0.36034145491E+04 0.  0.
        4    1    3    3  502    0  0.12398834984E+04  0.82555631653E+03  0.17116400957E+04  0.22690455596E+04  0.12699999809E+01 0.  1.
       -4    1    3    3    0  502 -0.12398834984E+04 -0.82555631653E+03 -0.43830887712E+03  0.15527300493E+04  0.12699999809E+01 0. -1.
</event>
<event>
 5   0  0.2238968E-07  0.3597061E+04  0.7818609E-02  0.8091165E-01
       -2   -1    0    0    0  501  0.00000000000E+00  0.00000000000E+00  0.16262994214E+04  0.16262994214E+04  0.25500000920E-02 0. -1.
        2   -1    0    0  501    0  0.00000000000E+00  0.00000000000E+00 -0.19890015563E+04  0.19890015563E+04  0.25500000920E-02 0.  1.
    10030    2    1    2    0    0  0.00000000000E+00  0.00000000000E+00 -0.36270213489E+03  0.36153009777E+04  0.35970610671E+04 0.  0.
        3    1    3    3  502    0 -0.20578236763E+03  0.10913964924E+04 -0.16031690350E+04  0.19502932219E+04  0.10100000352E+00 0.  1.
       -3    1    3    3    0  502  0.20578236763E+03 -0.10913964924E+04  0.12404669001E+04  0.16650077558E+04  0.10100000352E+00 0. -1.
</event>
<event>
 5   0  0.7261233E-08  0.3608750E+04  0.7818609E-02  0.8088490E-01
       -1   -1    0    0    0  501  0.00000000000E+00  0.00000000000E+00  0.14359677867E+04  0.14359677867E+04  0.50400001928E-02 0.  1.
        1   -1    0    0  501    0  0.00000000000E+00  0.00000000000E+00 -0.22672998612E+04  0.22672998612E+04  0.50400001928E-02 0. -1.
    10030    2    1    2    0    0  0.00000000000E+00  0.00000000000E+00 -0.83133207449E+03  0.37032676479E+04  0.36087502343E+04 0.  0.
        3    1    3    3  502    0 -0.85067963251E+03 -0.52030340063E+03 -0.19588467486E+04  0.21980564280E+04  0.10100000352E+00 0. -1.
       -3    1    3    3    0  502  0.85067963251E+03  0.52030340063E+03  0.11275146741E+04  0.15052112199E+04  0.10100000352E+00 0.  1.
</event>
<event>
 5   0  0.2198900E-07  0.3617372E+04  0.7818609E-02  0.8086524E-01
        2   -1    0    0  501    0  0.00000000000E+00  0.00000000000E+00  0.15700975258E+04  0.15700975258E+04  0.25500000920E-02 0.  1.
       -2   -1    0    0    0  501  0.00000000000E+00  0.00000000000E+00 -0.20835294156E+04  0.20835294156E+04  0.25500000920E-02 0. -1.
    10030    2    1    2    0    0  0.00000000000E+00  0.00000000000E+00 -0.51343188983E+03  0.36536269414E+04  0.36173716316E+04 0.  0.
        2    1    3    3  502    0 -0.73632700117E+02 -0.59112227207E+03 -0.19816076930E+04  0.20692066992E+04  0.25500000920E-02 0. -1.
       -2    1    3    3    0  502  0.73632700117E+02  0.59112227207E+03  0.14681758031E+04  0.15844202422E+04  0.25500000920E-02 0.  1.
</event>
<event>
 5   0  0.2238968E-07  0.3567401E+04  0.7818609E-02  0.8098000E-01
        2   -1    0    0  501    0  0.00000000000E+00  0.00000000000E+00  0.24262212944E+04  0.24262212944E+04  0.25500000920E-02 0.  1.
       -2   -1    0    0    0  501  0.00000000000E+00  0.00000000000E+00 -0.13113347249E+04  0.13113347249E+04  0.25500000920E-02 0. -1.
    10030    2    1    2    0    0  0.00000000000E+00  0.00000000000E+00  0.11148865695E+04  0.37375560193E+04  0.35674014260E+04 0.  0.
        3    1    3    3  502    0  0.10008575704E+04 -0.97668253244E+03 -0.60260085129E+03  0.15227450350E+04  0.10100000352E+00 0. -1.
       -3    1    3    3    0  502 -0.10008575704E+04  0.97668253244E+03  0.17174874208E+04  0.22148109843E+04  0.10100000352E+00 0.  1.
</event>
<event>
 5   0  0.2198900E-07  0.3602449E+04  0.7818609E-02  0.8089931E-01
       -2   -1    0    0    0  501  0.00000000000E+00  0.00000000000E+00  0.12545204826E+04  0.12545204826E+04  0.25500000920E-02 0.  1.
        2   -1    0    0  501    0  0.00000000000E+00  0.00000000000E+00 -0.25861750785E+04  0.25861750785E+04  0.25500000920E-02 0. -1.
    10030    2    1    2    0    0  0.00000000000E+00  0.00000000000E+00 -0.13316545959E+04  0.38406955611E+04  0.36024489490E+04 0.  0.
        2    1    3    3  502    0 -0.88457394679E+03  0.15295727520E+04 -0.29291520404E+03  0.17910508613E+04  0.25500000920E-02 0. -1.
       -2    1    3    3    0  502  0.88457394679E+03 -0.15295727520E+04 -0.10387393919E+04  0.20496446998E+04  0.25500000920E-02 0.  1.
</event>
<event>
 5   0  0.2198900E-07  0.3610635E+04  0.7818609E-02  0.8088060E-01
        2   -1    0    0  501    0  0.00000000000E+00  0.00000000000E+00  0.19814314755E+04  0.19814314755E+04  0.25500000920E-02 0. -1.
       -2   -1    0    0    0  501  0.00000000000E+00  0.00000000000E+00 -0.16448568369E+04  0.16448568369E+04  0.25500000920E-02 0.  1.
    10030    2    1    2    0    0  0.00000000000E+00  0.00000000000E+00  0.33657463862E+03  0.36262883124E+04  0.36106349078E+04 0.  0.
        2    1    3    3  502    0 -0.78547873711E+03  0.21050235213E+03 -0.14504953624E+04  0.16628965341E+04  0.25500000920E-02 0.  1.
       -2    1    3    3    0  502  0.78547873711E+03 -0.21050235213E+03  0.17870700010E+04  0.19633917783E+04  0.25500000920E-02 0. -1.
</event>
<event>
 5   0  0.7236375E-08  0.3581920E+04  0.7818609E-02  0.8094646E-01
       -1   -1    0    0    0  501  0.00000000000E+00  0.00000000000E+00  0.23561454604E+04  0.23561454604E+04  0.50400001928E-02 0.  1.
        1   -1    0    0  501    0  0.00000000000E+00  0.00000000000E+00 -0.13613496355E+04  0.13613496355E+04  0.50400001928E-02 0. -1.
    10030    2    1    2    0    0  0.00000000000E+00  0.00000000000E+00  0.99479582492E+03  0.37174950959E+04  0.35819200235E+04 0.  0.
        5    1    3    3  502    0 -0.53909499850E+03 -0.46100444053E+03 -0.12093420069E+04  0.14020266371E+04  0.46999998093E+01 0. -1.
       -5    1    3    3    0  502  0.53909499850E+03  0.46100444053E+03  0.22041378318E+04  0.23154684587E+04  0.46999998093E+01 0.  1.
</event>
<event>
 5   0  0.7236375E-08  0.3592676E+04  0.7818609E-02  0.8092171E-01
        1   -1    0    0  501    0  0.00000000000E+00  0.00000000000E+00  0.99917668190E+03  0.99917668191E+03  0.50400001928E-02 0.  1.
       -1   -1    0    0    0  501  0.00000000000E+00  0.00000000000E+00 -0.32294886699E+04  0.32294886699E+04  0.50400001928E-02 0. -1.
    10030    2    1    2    0    0  0.00000000000E+00  0.00000000000E+00 -0.22303119880E+04  0.42286653518E+04  0.35926757568E+04 0.  0.
        1    1    3    3  502    0 -0.12981546863E+04 -0.10172663117E+04 -0.27723941389E+03  0.16723929058E+04  0.50400001928E-02 0.  1.
       -1    1    3    3    0  502  0.12981546863E+04  0.10172663117E+04 -0.19530725741E+04  0.25562724460E+04  0.50400001928E-02 0. -1.
</event>
<event>
 5   0  0.2198900E-07  0.3587951E+04  0.7818609E-02  0.8093257E-01
       -2   -1    0    0    0  501  0.00000000000E+00  0.00000000000E+00  0.13819439420E+04  0.13819439420E+04  0.25500000920E-02 0.  1.
        2   -1    0    0  501    0  0.00000000000E+00  0.00000000000E+00 -0.23288555190E+04  0.23288555190E+04  0.25500000920E-02 0. -1.
    10030    2    1    2    0    0  0.00000000000E+00  0.00000000000E+00 -0.94691157705E+03  0.37107994610E+04  0.35879508226E+04 0.  0.
        2    1    3    3  502    0 -0.12873482687E+04  0.56831931641E+03  0.67733943864E+03  0.15617429768E+04  0.25500000920E-02 0.  1.
       -2    1    3    3    0  502  0.12873482687E+04 -0.56831931641E+03 -0.16242510157E+04  0.21490564842E+04  0.25500000920E-02 0. -1.
</event>
<event>
 5   0  0.2198900E-07  0.3624895E+04  0.7818609E-02  0.8084813E-01
        2   -1    0    0  501    0  0.00000000000E+00  0.00000000000E+00  0.27588015479E+04  0.27588015479E+04  0.25500000920E-02 0. -1.
       -2   -1    0    0    0  501  0.00000000000E+00  0.00000000000E+00 -0.11907217835E+04  0.11907217835E+04  0.25500000920E-02 0.  1.
    10030    2    1    2    0    0  0.00000000000E+00  0.00000000000E+00  0.15680797645E+04  0.39495233314E+04  0.36248945361E+04 0.  0.
        2    1    3    3  502    0 -0.14301608658E+03  0.12849092495E+04 -0.59996125437E+03  0.14252715135E+04  0.25500000920E-02 0.  1.
       -2    1    3    3    0  502  0.14301608658E+03 -0.12849092495E+04  0.21680410188E+04  0.25242518179E+04  0.25500000920E-02 0. -1.
</event>
<event>
 5   0  0.2238968E-07  0.3617750E+04  0.7818609E-02  0.8086438E-01
        2   -1    0    0  501    0  0.00000000000E+00  0.00000000000E+00  0.14713614776E+04  0.14713614776E+04  0.25500000920E-02 0. -1.
       -2   -1    0    0    0  501  0.00000000000E+00  0.00000000000E+00 -0.22238107020E+04  0.22238107020E+04  0.25500000920E-02 0.  1.
    10030    2    1    2    0    0  0.00000000000E+00  0.00000000000E+00 -0.75244922439E+03  0.36951721796E+04  0.36177503509E+04 0.  0.
        3    1    3    3  502    0  0.20057227815E+03 -0.12333203006E+04  0.95971153913E+03  0.15755489364E+04  0.10100000352E+00 0. -1.
       -3    1    3    3    0  502 -0.20057227815E+03  0.12333203006E+04 -0.17121607635E+04  0.21196232432E+04  0.10100000352E+00 0.  1.
</event>
<event>
 5   0  0.7347303E-08  0.3592691E+04  0.7818609E-02  0.8092168E-01
        1   -1    0    0  501    0  0.00000000000E+00  0.00000000000E+00  0.23388835944E+04  0.23388835944E+04  0.50400001928E-02 0. -1.
       -1   -1    0    0    0  501  0.00000000000E+00  0.00000000000E+00 -0.13796568553E+04  0.13796568554E+04  0.50400001928E-02 0.  1.
    10030    2    1    2    0    0  0.00000000000E+00  0.00000000000E+00  0.95922673905E+03  0.37185404498E+04  0.35926907938E+04 0.  0.
        2    1    3    3  502    0 -0.81990165162E+03 -0.47994812116E+03 -0.10983457877E+04  0.14522232565E+04  0.25500000920E-02 0.  1.
       -2    1    3    3    0  502  0.81990165162E+03  0.47994812116E+03  0.20575725268E+04  0.22663171932E+04  0.25500000920E-02 0. -1.
</event>
<event>
 5   0  0.7236375E-08  0.3611751E+04  0.7818609E-02  0.8087805E-01
       -1   -1    0    0    0  501  0.00000000000E+00  0.00000000000E+00  0.30859717077E+04  0.30859717077E+04  0.50400001928E-02 0. -1.
        1   -1    0    0  501    0  0.00000000000E+00  0.00000000000E+00 -0.10567779310E+04  0.10567779310E+04  0.50400001928E-02 0.  1.
    10030    2    1    2    0    0  0.00000000000E+00  0.00000000000E+00  0.20291937767E+04  0.41427496387E+04  0.36117512629E+04 0.  0.
        1    1    3    3  502    0  0.14626688681E+03  0.13443657781E+04  0.23874186196E+04  0.27438077580E+04  0.50400001928E-02 0. -1.
       -1    1    3    3    0  502 -0.14626688681E+03 -0.13443657781E+04 -0.35822484291E+03  0.13989418807E+04  0.50400001928E-02 0.  1.
</event>
<event>
 5   0  0.2198900E-07  0.3597302E+04  0.7818609E-02  0.8091110E-01
        2   -1    0    0  501    0  0.00000000000E+00  0.00000000000E+00  0.21535478481E+04  0.21535478481E+04  0.25500000920E-02 0.  1.
       -2   -1    0    0    0  501  0.00000000000E+00  0.00000000000E+00 -0.15022396439E+04  0.15022396439E+04  0.25500000920E-02 0. -1.
    10030    2    1    2    0    0  0.00000000000E+00  0.00000000000E+00  0.65130820421E+03  0.36557874920E+04  0.35973017402E+04 0.  0.
        2    1    3    3  502    0  0.65485708570E+03 -0.15648444094E+04  0.93334688731E+03  0.19361591464E+04  0.25500000920E-02 0.  1.
       -2    1    3    3    0  502 -0.65485708570E+03  0.15648444094E+04 -0.28203868310E+03  0.17196283456E+04  0.25500000920E-02 0. -1.
</event>
<event>
 5   0  0.2238968E-07  0.3591420E+04  0.7818609E-02  0.8092460E-01
        2   -1    0    0  501    0  0.00000000000E+00  0.00000000000E+00  0.16726137771E+04  0.16726137771E+04  0.25500000920E-02 0.  1.
       -2   -1    0    0    0  501  0.00000000000E+00  0.00000000000E+00 -0.19278655150E+04  0.19278655150E+04  0.25500000920E-02 0. -1.
    10030    2    1    2    0    0  0.00000000000E+00  0.00000000000E+00 -0.25525173791E+03  0.36004792922E+04  0.35914200093E+04 0.  0.
        3    1    3    3  502    0  0.70243476276E+03  0.13829866765E+04 -0.10346221274E+04  0.18645400773E+04  0.10100000352E+00 0. -1.
       -3    1    3    3    0  502 -0.70243476276E+03 -0.13829866765E+04  0.77937038950E+03  0.17359392148E+04  0.10100000352E+00 0.  1.
</event>
<event>
 5   0  0.7347303E-08  0.3618764E+04  0.7818609E-02  0.8086207E-01
       -1   -1    0    0    0  501  0.00000000000E+00  0.00000000000E+00  0.15426371993E+04  0.15426371993E+04  0.50400001928E-02 0. -1.
        1   -1    0    0  501    0  0.00000000000E+00  0.00000000000E+00 -0.21222505845E+04  0.21222505845E+04  0.50400001928E-02 0.  1.
    10030    2    1    2    0    0  0.00000000000E+00  0.00000000000E+00 -0.57961338517E+03  0.36648877838E+04  0.36187637104E+04 0.  0.
        2    1    3    3  502    0 -0.45337314497E+03  0.30096742392E+03 -0.20374122296E+04  0.21088331352E+04  0.25500000920E-02 0.  1.
       -2    1    3    3    0  502  0.45337314497E+03 -0.30096742392E+03  0.14577988444E+04  0.15560546486E+04  0.25500000920E-02 0. -1.
</event>
<event>
 5   0  0.7236375E-08  0.3602181E+04  0.7818609E-02  0.8089992E-01
        1   -1    0    0  501    0  0.00000000000E+00  0.00000000000E+00  0.22258690884E+04  0.22258690884E+04  0.50400001928E-02 0. -1.
       -1   -1    0    0    0  501  0.00000000000E+00  0.00000000000E+00 -0.14573750636E+04  0.14573750636E+04  0.50400001928E-02 0.  1.
    10030    2    1    2    0    0  0.00000000000E+00  0.00000000000E+00  0.76849402486E+03  0.36832441520E+04  0.36021805086E+04 0.  0.
        5    1    3    3  502    0  0.12168276151E+04 -0.31614714466E+03  0.17029544136E+04  0.21167650523E+04  0.46999998093E+01 0. -1.
       -5    1    3    3    0  502 -0.12168276151E+04  0.31614714466E+03 -0.93446038869E+03  0.15664790997E+04  0.46999998093E+01 0.  1.
</event>
<event>
 5   0  0.2309391E-07  0.3587639E+04  0.7818609E-02  0.8093329E-01
       -2   -1    0    0    0  501  0.00000000000E+00  0.00000000000E+00  0.19514735115E+04  0.19514735115E+04  0.25500000920E-02 0. -1.
        2   -1    0    0  501    0  0.00000000000E+00  0.00000000000E+00 -0.16489015677E+04  0.16489015677E+04  0.25500000920E-02 0.  1.
    10030    2    1    2    0    0  0.00000000000E+00  0.00000000000E+00  0.30257194379E+03  0.36003750793E+04  0.35876386287E+04 0.  0.
        4    1    3    3  502    0 -0.79396716565E+03  0.12582037301E+03 -0.14580190144E+04  0.16649431478E+04  0.12699999809E+01 0.  1.
       -4    1    3    3    0  502  0.79396716565E+03 -0.12582037301E+03  0.17605909581E+04  0.19354319314E+04  0.12699999809E+01 0. -1.
</event>
<event>
 5   0  0.7261233E-08  0.3608747E+04  0.7818609E-02  0.8088491E-01
        1   -1    0    0  501    0  0.00000000000E+00  0.00000000000E+00  0.22828567235E+04  0.22828567235E+04  0.50400001928E-02 0. -1.
       -1   -1    0    0    0  501  0.00000000000E+00  0.00000000000E+00 -0.14261796453E+04  0.14261796453E+04  0.50400001928E-02 0.  1.
    10030    2    1    2    0    0  0.00000000000E+00  0.00000000000E+00  0.85667707814E+03  0.37090363688E+04  0.36087470358E+04 0.  0.
        3    1    3    3  502    0  0.15209956372E+04 -0.13650942997E+03  0.14161417019E+04  0.20826713334E+04  0.10100000352E+00 0. -1.
       -3    1    3    3    0  502 -0.15209956372E+04  0.13650942997E+03 -0.55946462375E+03  0.16263650354E+04  0.10100000352E+00 0.  1.
</event>
<event>
 5   0  0.7347303E-08  0.3598566E+04  0.7818609E-02  0.8090820E-01
       -1   -1    0    0    0  501  0.00000000000E+00  0.00000000000E+00  0.19189575353E+04  0.19189575353E+04  0.50400001928E-02 0.  1.
        1   -1    0    0  501    0  0.00000000000E+00  0.00000000000E+00 -0.16870717321E+04  0.16870717321E+04  0.50400001928E-02 0. -1.
    10030    2    1    2    0    0  0.00000000000E+00  0.00000000000E+00  0.23188580320E+03  0.36060292675E+04  0.35985658327E+04 0.  0.
        2    1    3    3  502    0  0.90523717408E+03 -0.26165800583E+02  0.16739279177E+04  0.19032008996E+04  0.25500000920E-02 0.  1.
       -2    1    3    3    0  502 -0.90523717408E+03  0.26165800583E+02 -0.14420421145E+04  0.17028283679E+04  0.25500000920E-02 0. -1.
</event>
<event>
 5   0  0.2198900E-07  0.3670727E+04  0.7818609E-02  0.8074480E-01
        2   -1    0    0  501    0  0.00000000000E+00  0.00000000000E+00  0.21410988300E+04  0.21410988300E+04  0.25500000920E-02 0.  1.
       -2   -1    0    0    0  501  0.00000000000E+00  0.00000000000E+00 -0.15732852764E+04  0.15732852764E+04  0.25500000920E-02 0. -1.
    10030    2    1    2    0    0  0.00000000000E+00  0.00000000000E+00  0.56781355354E+03  0.37143841064E+04  0.36707270476E+04 0.  0.
        2    1    3    3  502    0 -0.27608423650E+03 -0.81316569922E+03 -0.13574510023E+04  0.16062796094E+04  0.25500000920E-02 0. -1.
       -2    1    3    3    0  502  0.27608423650E+03  0.81316569922E+03  0.19252645558E+04  0.21081044969E+04  0.25500000920E-02 0.  1.
</event>
<event>
 5   0  0.2238968E-07  0.3603473E+04  0.7818609E-02  0.8089697E-01
        2   -1    0    0  501    0  0.00000000000E+00  0.00000000000E+00  0.21007601107E+04  0.21007601107E+04  0.25500000920E-02 0.  1.
       -2   -1    0    0    0  501  0.00000000000E+00  0.00000000000E+00 -0.15452760495E+04  0.15452760495E+04  0.25500000920E-02 0. -1.
    10030    2    1    2    0    0  0.00000000000E+00  0.00000000000E+00  0.55548406121E+03  0.36460361603E+04  0.36034729276E+04 0.  0.
        3    1    3    3  502    0  0.24477448147E+03 -0.79182252205E+03 -0.13409533499E+04  0.15764051986E+04  0.10100000352E+00 0. -1.
       -3    1    3    3    0  502 -0.24477448147E+03  0.79182252205E+03  0.18964374111E+04  0.20696309617E+04  0.10100000352E+00 0.  1.
</event>
<event>
 5   0  0.7514289E-08  0.3588332E+04  0.7818609E-02  0.8093170E-01
       -1   -1    0    0    0  501  0.00000000000E+00  0.00000000000E+00  0.21857772193E+04  0.21857772193E+04  0.50400001928E-02 0.  1.
        1   -1    0    0  501    0  0.00000000000E+00  0.00000000000E+00 -0.14727169535E+04  0.14727169535E+04  0.50400001928E-02 0. -1.
    10030    2    1    2    0    0  0.00000000000E+00  0.00000000000E+00  0.71306026578E+03  0.36584941728E+04  0.35883317391E+04 0.  0.
        4    1    3    3  502    0 -0.14849186702E+04  0.31928021498E+03  0.13302465559E+04  0.20190296742E+04  0.12699999809E+01 0.  1.
       -4    1    3    3    0  502  0.14849186702E+04 -0.31928021498E+03 -0.61718629017E+03  0.16394644987E+04  0.12699999809E+01 0. -1.
</event>
<event>
 5   0  0.2238968E-07  0.3587091E+04  0.7818609E-02  0.8093455E-01
        2   -1    0    0  501    0  0.00000000000E+00  0.00000000000E+00  0.17197692258E+04  0.17197692258E+04  0.25500000920E-02 0. -1.
       -2   -1    0    0    0  501  0.00000000000E+00  0.00000000000E+00 -0.18704868869E+04  0.18704868869E+04  0.25500000920E-02 0.  1.
    10030    2    1    2    0    0  0.00000000000E+00  0.00000000000E+00 -0.15071766109E+03  0.35902561127E+04  0.35870911810E+04 0.  0.
        3    1    3    3  502    0 -0.17726896402E+04 -0.10268587343E+03  0.17751567683E+03  0.17845124754E+04  0.10100000352E+00 0. -1.
       -3    1    3    3    0  502  0.17726896402E+04  0.10268587343E+03 -0.32823333792E+03  0.18057436373E+04  0.10100000352E+00 0.  1.
</event>
<event>
 5   0  0.7261233E-08  0.3588577E+04  0.7818609E-02  0.8093113E-01
        1   -1    0    0  501    0  0.00000000000E+00  0.00000000000E+00  0.28334723061E+04  0.28334723061E+04  0.50400001928E-02 0. -1.
       -1   -1    0    0    0  501  0.00000000000E+00  0.00000000000E+00 -0.11362283934E+04  0.11362283934E+04  0.50400001928E-02 0.  1.
    10030    2    1    2    0    0  0.00000000000E+00  0.00000000000E+00  0.16972439127E+04  0.39697006995E+04  0.35885772590E+04 0.  0.
        3    1    3    3  502    0  0.17599592259E+03  0.17829873898E+04  0.95617485027E+03  0.20308345456E+04  0.10100000352E+00 0.  1.
       -3    1    3    3    0  502 -0.17599592259E+03 -0.17829873898E+04  0.74106906247E+03  0.19388661539E+04  0.10100000352E+00 0. -1.
</event>
<event>
 5   0  0.2198900E-07  0.3578441E+04  0.7818609E-02  0.8095448E-01
        2   -1    0    0  501    0  0.00000000000E+00  0.00000000000E+00  0.15663133385E+04  0.15663133385E+04  0.25500000920E-02 0. -1.
       -2   -1    0    0    0  501  0.00000000000E+00  0.00000000000E+00 -0.20438508492E+04  0.20438508492E+04  0.25500000920E-02 0.  1.
    10030    2    1    2    0    0  0.00000000000E+00  0.00000000000E+00 -0.47753751074E+03  0.36101641877E+04  0.35784414748E+04 0.  0.
        2    1    3    3  502    0 -0.15059156377E+04 -0.91274022603E+03  0.80954251154E+02  0.17627904637E+04  0.25500000920E-02 0.  1.
       -2    1    3    3    0  502  0.15059156377E+04  0.91274022603E+03 -0.55849176190E+03  0.18473737240E+04  0.25500000920E-02 0. -1.
</event>
<event>
 5   0  0.2238968E-07  0.3599776E+04  0.7818609E-02  0.8090543E-01
        2   -1    0    0  501    0  0.00000000000E+00  0.00000000000E+00  0.20582809216E+04  0.20582809217E+04  0.25500000920E-02 0. -1.
       -2   -1    0    0    0  501  0.00000000000E+00  0.00000000000E+00 -0.15739333177E+04  0.15739333177E+04  0.25500000920E-02 0.  1.
    10030    2    1    2    0    0  0.00000000000E+00  0.00000000000E+00  0.48434760392E+03  0.36322142394E+04  0.35997760596E+04 0.  0.
        3    1    3    3  502    0 -0.14141294745E+04  0.44765551838E+03  0.12708898946E+04  0.19532840982E+04  0.10100000352E+00 0. -1.
       -3    1    3    3    0  502  0.14141294745E+04 -0.44765551838E+03 -0.78654229063E+03  0.16789301412E+04  0.10100000352E+00 0.  1.
</event>
<event>
 5   0  0.2199902E-07  0.3583558E+04  0.7818609E-02  0.8094268E-01
       -2   -1    0    0    0  501  0.00000000000E+00  0.00000000000E+00  0.27976765335E+04  0.27976765335E+04  0.25500000920E-02 0. -1.
        2   -1    0    0  501    0  0.00000000000E+00  0.00000000000E+00 -0.11475494584E+04  0.11475494584E+04  0.25500000920E-02 0.  1.
    10030    2    1    2    0    0  0.00000000000E+00  0.00000000000E+00  0.16501270751E+04  0.39452259918E+04  0.35835581148E+04 0.  0.
        1    1    3    3  502    0  0.90847115092E+03 -0.13140520150E+04 -0.68260106961E+02  0.15989721612E+04  0.50400001928E-02 0.  1.
       -1    1    3    3    0  502 -0.90847115092E+03  0.13140520150E+04  0.17183871821E+04  0.23462538306E+04  0.50400001928E-02 0. -1.
</event>
<event>
 5   0  0.7236375E-08  0.3605154E+04  0.7818609E-02  0.8089312E-01
        1   -1    0    0  501    0  0.00000000000E+00  0.00000000000E+00  0.11605746923E+04  0.11605746923E+04  0.50400001928E-02 0. -1.
       -1   -1    0    0    0  501  0.00000000000E+00  0.00000000000E+00 -0.27997201449E+04  0.27997201449E+04  0.50400001928E-02 0.  1.
    10030    2    1    2    0    0  0.00000000000E+00  0.00000000000E+00 -0.16391454527E+04  0.39602948372E+04  0.36051542800E+04 0.  0.
        1    1    3    3  502    0  0.31802688552E+03 -0.47301319824E+03  0.10589747834E+04  0.12026263666E+04  0.50400001928E-02 0. -1.
       -1    1    3    3    0  502 -0.31802688552E+03  0.47301319824E+03 -0.26981202361E+04  0.27576684706E+04  0.50400001928E-02 0.  1.
</event>
<event>
 5   0  0.2238968E-07  0.3599445E+04  0.7818609E-02  0.8090619E-01
       -2   -1    0    0    0  501  0.00000000000E+00  0.00000000000E+00  0.17103663515E+04  0.17103663515E+04  0.25500000920E-02 0.  1.
        2   -1    0    0  501    0  0.00000000000E+00  0.00000000000E+00 -0.18937470016E+04  0.18937470016E+04  0.25500000920E-02 0. -1.
    10030    2    1    2    0    0  0.00000000000E+00  0.00000000000E+00 -0.18338065015E+03  0.36041133531E+04  0.35994450405E+04 0.  0.
        3    1    3    3  502    0  0.10074742491E+04  0.14234104036E+04 -0.53712636545E+03  0.18247208779E+04  0.10100000352E+00 0. -1.
       -3    1    3    3    0  502 -0.10074742491E+04 -0.14234104036E+04  0.35374571530E+03  0.17793924752E+04  0.10100000352E+00 0.  1.
</event>
<event>
 5   0  0.7514289E-08  0.3609551E+04  0.7818609E-02  0.8088307E-01
        1   -1    0    0  501    0  0.00000000000E+00  0.00000000000E+00  0.13565169793E+04  0.13565169793E+04  0.50400001928E-02 0. -1.
       -1   -1    0    0    0  501  0.00000000000E+00  0.00000000000E+00 -0.24011601309E+04  0.24011601309E+04  0.50400001928E-02 0.  1.
    10030    2    1    2    0    0  0.00000000000E+00  0.00000000000E+00 -0.10446431516E+04  0.37576771102E+04  0.36095509348E+04 0.  0.
        4    1    3    3  502    0 -0.15030088378E+04  0.46470050329E+03 -0.14430546141E+04  0.21348045242E+04  0.12699999809E+01 0.  1.
       -4    1    3    3    0  502  0.15030088378E+04 -0.46470050329E+03  0.39841146247E+03  0.16228725861E+04  0.12699999809E+01 0. -1.
</event>
<event>
 5   0  0.2342606E-07  0.3692130E+04  0.7818609E-02  0.8069708E-01
        2   -1    0    0  501    0  0.00000000000E+00  0.00000000000E+00  0.24909083366E+04  0.24909083366E+04  0.25500000920E-02 0. -1.
       -2   -1    0    0    0  501  0.00000000000E+00  0.00000000000E+00 -0.13681582105E+04  0.13681582105E+04  0.25500000920E-02 0.  1.
    10030    2    1    2    0    0  0.00000000000E+00  0.00000000000E+00  0.11227501262E+04  0.38590665471E+04  0.36921303835E+04 0.  0.
        5    1    3    3  502    0 -0.10059229524E+04 -0.12867533105E+04 -0.33794616097E+03  0.16678863168E+04  0.46999998093E+01 0. -1.
       -5    1    3    3    0  502  0.10059229524E+04  0.12867533105E+04  0.14606962871E+04  0.21911802303E+04  0.46999998093E+01 0.  1.
</event>
<event>
 5   0  0.7514289E-08  0.3595072E+04  0.7818609E-02  0.8091622E-01
       -1   -1    0    0    0  501  0.00000000000E+00  0.00000000000E+00  0.23912369839E+04  0.23912369839E+04  0.50400001928E-02 0.  1.
        1   -1    0    0  501    0  0.00000000000E+00  0.00000000000E+00 -0.13512399762E+04  0.13512399762E+04  0.50400001928E-02 0. -1.
    10030    2    1    2    0    0  0.00000000000E+00  0.00000000000E+00  0.10399970076E+04  0.37424769601E+04  0.35950716295E+04 0.  0.
        4    1    3    3  502    0  0.83261006253E+03  0.14215560178E+04  0.12685595976E+04  0.20792561394E+04  0.12699999809E+01 0. -1.
       -4    1    3    3    0  502 -0.83261006253E+03 -0.14215560178E+04 -0.22856258993E+03  0.16632208207E+04  0.12699999809E+01 0.  1.
</event>
<event>
 5   0  0.7236375E-08  0.3592980E+04  0.7818609E-02  0.8092102E-01
        1   -1    0    0  501    0  0.00000000000E+00  0.00000000000E+00  0.28437720331E+04  0.28437720331E+04  0.50400001928E-02 0.  1.
       -1   -1    0    0    0  501  0.00000000000E+00  0.00000000000E+00 -0.11348925501E+04  0.11348925501E+04  0.50400001928E-02 0. -1.
    10030    2    1    2    0    0  0.00000000000E+00  0.00000000000E+00  0.17088794830E+04  0.39786645832E+04  0.35929796518E+04 0.  0.
        5    1    3    3  502    0 -0.24283262968E+03  0.96171367412E+03  0.25130521241E+04  0.27017242542E+04  0.46999998093E+01 0.  1.
       -5    1    3    3    0  502  0.24283262968E+03 -0.96171367412E+03 -0.80417264114E+03  0.12769403290E+04  0.46999998093E+01 0. -1.
</event>
<event>
 5   0  0.2199902E-07  0.3607490E+04  0.7818609E-02  0.8088778E-01
        2   -1    0    0  501    0  0.00000000000E+00  0.00000000000E+00  0.21083179773E+04  0.21083179773E+04  0.25500000920E-02 0. -1.
       -2   -1    0    0    0  501  0.00000000000E+00  0.00000000000E+00 -0.15431715885E+04  0.15431715885E+04  0.25500000920E-02 0.  1.
    10030    2    1    2    0    0  0.00000000000E+00  0.00000000000E+00  0.56514638883E+03  0.36514895658E+04  0.36074902090E+04 0.  0.
        1    1    3    3  502    0 -0.82720010862E+03  0.10031670568E+04  0.15479778272E+04  0.20215933115E+04  0.50400001928E-02 0. -1.
       -1    1    3    3    0  502  0.82720010862E+03 -0.10031670568E+04 -0.98283143835E+03  0.16298962543E+04  0.50400001928E-02 0.  1.
</event>
<event>
 5   0  0.2309391E-07  0.3641849E+04  0.7818609E-02  0.8080972E-01
       -2   -1    0    0    0  501  0.00000000000E+00  0.00000000000E+00  0.26660150530E+04  0.26660150530E+04  0.25500000920E-02 0. -1.
        2   -1    0    0  501    0  0.00000000000E+00  0.00000000000E+00 -0.12437159853E+04  0.12437159853E+04  0.25500000920E-02 0.  1.
    10030    2    1    2    0    0  0.00000000000E+00  0.00000000000E+00  0.14222990677E+04  0.39097310383E+04  0.36418487275E+04 0.  0.
        4    1    3    3  502    0 -0.92611714659E+03  0.40048330256E+03 -0.91615988177E+03  0.13628757782E+04  0.12699999809E+01 0.  1.
       -4    1    3    3    0  502  0.92611714659E+03 -0.40048330256E+03  0.23384589495E+04  0.25468552602E+04  0.12699999809E+01 0. -1.
</event>
<event>
 5   0  0.2238968E-07  0.3606021E+04  0.7818609E-02  0.8089114E-01
       -2   -1    0    0    0  501  0.00000000000E+00  0.00000000000E+00  0.16677225223E+04  0.16677225223E+04  0.25500000920E-02 0.  1.
        2   -1    0    0  501    0  0.00000000000E+00  0.00000000000E+00 -0.19492729005E+04  0.19492729005E+04  0.25500000920E-02 0. -1.
    10030    2    1    2    0    0  0.00000000000E+00  0.00000000000E+00 -0.28155037828E+03  0.36169954228E+04  0.36060206978E+04 0.  0.
        3    1    3    3  502    0  0.11582273505E+04  0.52678178558E+03 -0.14221044635E+04  0.19082376059E+04  0.10100000352E+00 0. -1.
       -3    1    3    3    0  502 -0.11582273505E+04 -0.52678178558E+03  0.11405540853E+04  0.17087578169E+04  0.10100000352E+00 0.  1.
</event>
<event>
 5   0  0.7514289E-08  0.3595873E+04  0.7818609E-02  0.8091438E-01
       -1   -1    0    0    0  501  0.00000000000E+00  0.00000000000E+00  0.21908881363E+04  0.21908881363E+04  0.50400001928E-02 0.  1.
        1   -1    0    0  501    0  0.00000000000E+00  0.00000000000E+00 -0.14754637978E+04  0.14754637978E+04  0.50400001928E-02 0. -1.
    10030    2    1    2    0    0  0.00000000000E+00  0.00000000000E+00  0.71542433853E+03  0.36663519342E+04  0.35958732626E+04 0.  0.
        4    1    3    3  502    0 -0.12541838350E+04  0.64434650917E+02  0.16695713871E+04  0.20891623072E+04  0.12699999809E+01 0.  1.
       -4    1    3    3    0  502  0.12541838350E+04 -0.64434650917E+02 -0.95414704861E+03  0.15771896270E+04  0.12699999809E+01 0. -1.
</event>
<event>
 5   0  0.7347303E-08  0.3596901E+04  0.7818609E-02  0.8091202E-01
        1   -1    0    0  501    0  0.00000000000E+00  0.00000000000E+00  0.16583199146E+04  0.16583199146E+04  0.50400001928E-02 0.  1.
       -1   -1    0    0    0  501  0.00000000000E+00  0.00000000000E+00 -0.19504219998E+04  0.19504219998E+04  0.50400001928E-02 0. -1.
    10030    2    1    2    0    0  0.00000000000E+00  0.00000000000E+00 -0.29210208521E+03  0.36087419144E+04  0.35969006904E+04 0.  0.
        2    1    3    3  502    0 -0.99345238939E+03  0.25771127826E+03 -0.16277544235E+04  0.19243043461E+04  0.25500000920E-02 0. -1.
       -2    1    3    3    0  502  0.99345238939E+03 -0.25771127826E+03  0.13356523383E+04  0.16844375684E+04  0.25500000920E-02 0.  1.
</event>
<event>
 5   0  0.2342606E-07  0.3607684E+04  0.7818609E-02  0.8088734E-01
        2   -1    0    0  501    0  0.00000000000E+00  0.00000000000E+00  0.22216922780E+04  0.22216922780E+04  0.25500000920E-02 0.  1.
       -2   -1    0    0    0  501  0.00000000000E+00  0.00000000000E+00 -0.14645800062E+04  0.14645800062E+04  0.25500000920E-02 0. -1.
    10030    2    1    2    0    0  0.00000000000E+00  0.00000000000E+00  0.75711227180E+03  0.36862722842E+04  0.36076840717E+04 0.  0.
        5    1    3    3  502    0  0.84861116698E+03 -0.11081082767E+04  0.15461552972E+04  0.20829457887E+04  0.46999998093E+01 0.  1.
       -5    1    3    3    0  502 -0.84861116698E+03  0.11081082767E+04 -0.78904302537E+03  0.16033264956E+04  0.46999998093E+01 0. -1.
</event>
<event>
 5   0  0.7236375E-08  0.3606947E+04  0.7818609E-02  0.8088902E-01
        1   -1    0    0  501    0  0.00000000000E+00  0.00000000000E+00  0.12336774584E+04  0.12336774584E+04  0.50400001928E-02 0.  1.
       -1   -1    0    0    0  501  0.00000000000E+00  0.00000000000E+00 -0.26364395857E+04  0.26364395857E+04  0.50400001928E-02 0. -1.
    10030    2    1    2    0    0  0.00000000000E+00  0.00000000000E+00 -0.14027621273E+04  0.38701170441E+04  0.36069466796E+04 0.  0.
        1    1    3    3  502    0 -0.19103212942E+03 -0.17748929093E+04 -0.97656597755E+03  0.20348020106E+04  0.50400001928E-02 0. -1.
       -1    1    3    3    0  502  0.19103212942E+03  0.17748929093E+04 -0.42619614977E+03  0.18353150335E+04  0.50400001928E-02 0.  1.
</event>
<event>
 5   0  0.2199902E-07  0.3590041E+04  0.7818609E-02  0.8092777E-01
       -2   -1    0    0    0  501  0.00000000000E+00  0.00000000000E+00  0.13987277963E+04  0.13987277963E+04  0.25500000920E-02 0.  1.
        2   -1    0    0  501    0  0.00000000000E+00  0.00000000000E+00 -0.23035918175E+04  0.23035918175E+04  0.25500000920E-02 0. -1.
    10030    2    1    2    0    0  0.00000000000E+00  0.00000000000E+00 -0.90486402114E+03  0.37023196138E+04  0.35900406162E+04 0.  0.
        1    1    3    3  502    0 -0.27455523818E+03 -0.13416235826E+04 -0.16492282421E+04  0.21436623360E+04  0.50400001928E-02 0. -1.
       -1    1    3    3    0  502  0.27455523818E+03  0.13416235826E+04  0.74436422092E+03  0.15586572778E+04  0.50400001928E-02 0.  1.
</event>
<event>
 5   0  0.7347303E-08  0.3586908E+04  0.7818609E-02  0.8093497E-01
        1   -1    0    0  501    0  0.00000000000E+00  0.00000000000E+00  0.15848526247E+04  0.15848526247E+04  0.50400001928E-02 0.  1.
       -1   -1    0    0    0  501  0.00000000000E+00  0.00000000000E+00 -0.20295122834E+04  0.20295122834E+04  0.50400001928E-02 0. -1.
    10030    2    1    2    0    0  0.00000000000E+00  0.00000000000E+00 -0.44465965872E+03  0.36143649081E+04  0.35869083452E+04 0.  0.
        2    1    3    3  502    0 -0.69596324573E+03  0.13730073440E+04 -0.11496808581E+04  0.19212704342E+04  0.25500000920E-02 0. -1.
       -2    1    3    3    0  502  0.69596324573E+03 -0.13730073440E+04  0.70502119934E+03  0.16930944739E+04  0.25500000920E-02 0.  1.
</event>
<event>
 5   0  0.7514289E-08  0.3582390E+04  0.7818609E-02  0.8094537E-01
       -1   -1    0    0    0  501  0.00000000000E+00  0.00000000000E+00  0.14191655850E+04  0.14191655850E+04  0.50400001928E-02 0.  1.
        1   -1    0    0  501    0  0.00000000000E+00  0.00000000000E+00 -0.22607512515E+04  0.22607512515E+04  0.50400001928E-02 0. -1.
    10030    2    1    2    0    0  0.00000000000E+00  0.00000000000E+00 -0.84158566648E+03  0.36799168366E+04  0.35823904715E+04 0.  0.
        4    1    3    3  502    0 -0.96005550494E+03 -0.11691078677E+04  0.56441012983E+03  0.16146455297E+04  0.12699999809E+01 0.  1.
       -4    1    3    3    0  502  0.96005550494E+03  0.11691078677E+04 -0.14059957963E+04  0.20652713069E+04  0.12699999809E+01 0. -1.
</event>
<event>
 5   0  0.7236375E-08  0.3597697E+04  0.7818609E-02  0.8091019E-01
        3   -1    0    0  501    0  0.00000000000E+00  0.00000000000E+00  0.21235657495E+04  0.21235657519E+04  0.10100000352E+00 0. -1.
       -3   -1    0    0    0  501  0.00000000000E+00  0.00000000000E+00 -0.15237843608E+04  0.15237843641E+04  0.10100000352E+00 0.  1.
    10030    2    1    2    0    0  0.00000000000E+00  0.00000000000E+00  0.59978138874E+03  0.36473501160E+04  0.35976972016E+04 0.  0.
        3    1    3    3  502    0  0.99100434665E+02  0.78809478794E+03 -0.13363676475E+04  0.15546037406E+04  0.10100000352E+00 0.  1.
       -3    1    3    3    0  502 -0.99100434665E+02 -0.78809478794E+03  0.19361490362E+04  0.20927463754E+04  0.10100000352E+00 0. -1.
</event>
<event>
 5   0  0.2309391E-07  0.3593712E+04  0.7818609E-02  0.8091933E-01
        2   -1    0    0  501    0  0.00000000000E+00  0.00000000000E+00  0.23389525637E+04  0.23389525637E+04  0.25500000920E-02 0. -1.
       -2   -1    0    0    0  501  0.00000000000E+00  0.00000000000E+00 -0.13804008328E+04  0.13804008328E+04  0.25500000920E-02 0.  1.
    10030    2    1    2    0    0  0.00000000000E+00  0.00000000000E+00  0.95855173093E+03  0.37193533965E+04  0.35937123239E+04 0.  0.
        4    1    3    3  502    0  0.51556890402E+03 -0.16996283050E+04  0.19746445075E+03  0.17870482625E+04  0.12699999809E+01 0.  1.
       -4    1    3    3    0  502 -0.51556890402E+03  0.16996283050E+04  0.76108728018E+03  0.19323051340E+04  0.12699999809E+01 0. -1.
</event>
<event>
 5   0  0.7236375E-08  0.3639139E+04  0.7818609E-02  0.8081585E-01
        1   -1    0    0  501    0  0.00000000000E+00  0.00000000000E+00  0.23140680994E+04  0.23140680994E+04  0.50400001928E-02 0. -1.
       -1   -1    0    0    0  501  0.00000000000E+00  0.00000000000E+00 -0.14307411667E+04  0.14307411667E+04  0.50400001928E-02 0.  1.
    10030    2    1    2    0    0  0.00000000000E+00  0.00000000000E+00  0.88332693274E+03  0.37448092661E+04  0.36391386301E+04 0.  0.
        5    1    3    3  502    0 -0.75413626754E+03 -0.16526861428E+03 -0.12538374838E+04  0.14724692699E+04  0.46999998093E+01 0.  1.
       -5    1    3    3    0  502  0.75413626754E+03  0.16526861428E+03  0.21371644166E+04  0.22723399962E+04  0.46999998093E+01 0. -1.
</event>
<event>
 5   0  0.2198900E-07  0.3595291E+04  0.7818609E-02  0.8091571E-01
        2   -1    0    0  501    0  0.00000000000E+00  0.00000000000E+00  0.19056103872E+04  0.19056103872E+04  0.25500000920E-02 0.  1.
       -2   -1    0    0    0  501  0.00000000000E+00  0.00000000000E+00 -0.16957978215E+04  0.16957978215E+04  0.25500000920E-02 0. -1.
    10030    2    1    2    0    0  0.00000000000E+00  0.00000000000E+00  0.20981256573E+03  0.36014082087E+04  0.35952913335E+04 0.  0.
        2    1    3    3  502    0  0.11124186968E+04  0.97263425038E+03  0.11303849060E+04  0.18604469295E+04  0.25500000920E-02 0.  1.
       -2    1    3    3    0  502 -0.11124186968E+04 -0.97263425038E+03 -0.92057234024E+03  0.17409612792E+04  0.25500000920E-02 0. -1.
</event>
<event>
 5   0  0.7514289E-08  0.3591674E+04  0.7818609E-02  0.8092402E-01
        1   -1    0    0  501    0  0.00000000000E+00  0.00000000000E+00  0.22020277681E+04  0.22020277681E+04  0.50400001928E-02 0. -1.
       -1   -1    0    0    0  501  0.00000000000E+00  0.00000000000E+00 -0.14645730690E+04  0.14645730690E+04  0.50400001928E-02 0.  1.
    10030    2    1    2    0    0  0.00000000000E+00  0.00000000000E+00  0.73745469909E+03  0.36666008370E+04  0.35916740199E+04 0.  0.
        4    1    3    3  502    0  0.17617490688E+04 -0.16173296271E+03  0.68356271523E+03  0.18966225062E+04  0.12699999809E+01 0. -1.
       -4    1    3    3    0  502 -0.17617490688E+04  0.16173296271E+03  0.53891983858E+02  0.17699783308E+04  0.12699999809E+01 0.  1.
</event>
<event>
 5   0  0.7236375E-08  0.3625430E+04  0.7818609E-02  0.8084691E-01
        1   -1    0    0  501    0  0.00000000000E+00  0.00000000000E+00  0.15230182277E+04  0.15230182277E+04  0.50400001928E-02 0.  1.
       -1   -1    0    0    0  501  0.00000000000E+00  0.00000000000E+00 -0.21575157510E+04  0.21575157510E+04  0.50400001928E-02 0. -1.
    10030    2    1    2    0    0  0.00000000000E+00  0.00000000000E+00 -0.63449752329E+03  0.36805339787E+04  0.36254300795E+04 0.  0.
        1    1    3    3  502    0 -0.13647631094E+04  0.61194551734E+03 -0.13569635757E+04  0.20195063275E+04  0.50400001928E-02 0. -1.
       -1    1    3    3    0  502  0.13647631094E+04 -0.61194551734E+03  0.72246605243E+03  0.16610276512E+04  0.50400001928E-02 0.  1.
</event>
<event>
 5   0  0.2198900E-07  0.3532922E+04  0.7818609E-02  0.8106032E-01
       -2   -1    0    0    0  501  0.00000000000E+00  0.00000000000E+00  0.15399988991E+04  0.15399988991E+04  0.25500000920E-02 0.  1.
        2   -1    0    0  501    0  0.00000000000E+00  0.00000000000E+00 -0.20262255460E+04  0.20262255460E+04  0.25500000920E-02 0. -1.
    10030    2    1    2    0    0  0.00000000000E+00  0.00000000000E+00 -0.48622664684E+03  0.35662244451E+04  0.35329223655E+04 0.  0.
        2    1    3    3  502    0 -0.15078731140E+04  0.85238050326E+03 -0.59300913461E+03  0.18308177637E+04  0.25500000920E-02 0. -1.
       -2    1    3    3    0  502  0.15078731140E+04 -0.85238050326E+03  0.10678248776E+03  0.17354066814E+04  0.25500000920E-02 0.  1.
</event>
<event>
 5   0  0.2309391E-07  0.3608033E+04  0.7818609E-02  0.8088654E-01
        2   -1    0    0  501    0  0.00000000000E+00  0.00000000000E+00  0.25299726975E+04  0.25299726975E+04  0.25500000920E-02 0.  1.
       -2   -1    0    0    0  501  0.00000000000E+00  0.00000000000E+00 -0.12863676599E+04  0.12863676599E+04  0.25500000920E-02 0. -1.
    10030    2    1    2    0    0  0.00000000000E+00  0.00000000000E+00  0.12436050376E+04  0.38163403574E+04  0.36080327374E+04 0.  0.
        4    1    3    3  502    0  0.95348541116E+03 -0.12616267294E+04 -0.29644072168E+03  0.16089484603E+04  0.12699999809E+01 0. -1.
       -4    1    3    3    0  502 -0.95348541116E+03  0.12616267294E+04  0.15400457593E+04  0.22073918971E+04  0.12699999809E+01 0.  1.
</event>
<event>
 5   0  0.7347303E-08  0.3614631E+04  0.7818609E-02  0.8087149E-01
       -1   -1    0    0    0  501  0.00000000000E+00  0.00000000000E+00  0.20645307151E+04  0.20645307151E+04  0.50400001928E-02 0.  1.
        1   -1    0    0  501    0  0.00000000000E+00  0.00000000000E+00 -0.15821459272E+04  0.15821459272E+04  0.50400001928E-02 0. -1.
    10030    2    1    2    0    0  0.00000000000E+00  0.00000000000E+00  0.48238478788E+03  0.36466766423E+04  0.36146307488E+04 0.  0.
        2    1    3    3  502    0 -0.14662847280E+04 -0.10563297690E+04  0.26518087303E+03  0.18265115330E+04  0.25500000920E-02 0. -1.
       -2    1    3    3    0  502  0.14662847280E+04  0.10563297690E+04  0.21720391484E+03  0.18201651093E+04  0.25500000920E-02 0.  1.
</event>
<event>
 5   0  0.7236375E-08  0.3600618E+04  0.7818609E-02  0.8090350E-01
       -1   -1    0    0    0  501  0.00000000000E+00  0.00000000000E+00  0.22686160110E+04  0.22686160110E+04  0.50400001928E-02 0. -1.
        1   -1    0    0  501    0  0.00000000000E+00  0.00000000000E+00 -0.14286740839E+04  0.14286740839E+04  0.50400001928E-02 0.  1.
    10030    2    1    2    0    0  0.00000000000E+00  0.00000000000E+00  0.83994192719E+03  0.36972900949E+04  0.36006182254E+04 0.  0.
        1    1    3    3  502    0 -0.38870006991E+03  0.17088685861E+04  0.84309406966E+03  0.19447691892E+04  0.50400001928E-02 0.  1.
       -1    1    3    3    0  502  0.38870006991E+03 -0.17088685861E+04 -0.31521424656E+01  0.17525209057E+04  0.50400001928E-02 0. -1.
</event>
<event>
 5   0  0.7236375E-08  0.3532394E+04  0.7818609E-02  0.8106156E-01
        1   -1    0    0  501    0  0.00000000000E+00  0.00000000000E+00  0.25117254516E+04  0.25117254516E+04  0.50400001928E-02 0. -1.
       -1   -1    0    0    0  501  0.00000000000E+00  0.00000000000E+00 -0.12419560897E+04  0.12419560897E+04  0.50400001928E-02 0.  1.
    10030    2    1    2    0    0  0.00000000000E+00  0.00000000000E+00  0.12697693619E+04  0.37536815413E+04  0.35323944968E+04 0.  0.
        1    1    3    3  502    0 -0.21340299431E+03  0.11768222855E+04  0.20159149680E+04  0.23440061194E+04  0.50400001928E-02 0. -1.
       -1    1    3    3    0  502  0.21340299431E+03 -0.11768222855E+04 -0.74614560608E+03  0.14096754219E+04  0.50400001928E-02 0.  1.
</event>
<event>
 5   0  0.2309391E-07  0.3601020E+04  0.7818609E-02  0.8090258E-01
       -2   -1    0    0    0  501  0.00000000000E+00  0.00000000000E+00  0.13084993961E+04  0.13084993961E+04  0.25500000920E-02 0.  1.
        2   -1    0    0  501    0  0.00000000000E+00  0.00000000000E+00 -0.24775225809E+04  0.24775225809E+04  0.25500000920E-02 0. -1.
    10030    2    1    2    0    0  0.00000000000E+00  0.00000000000E+00 -0.11690231848E+04  0.37860219770E+04  0.36010203004E+04 0.  0.
        4    1    3    3  502    0 -0.14268014062E+04  0.10980864537E+04 -0.56694778852E+03  0.18875877517E+04  0.12699999809E+01 0. -1.
       -4    1    3    3    0  502  0.14268014062E+04 -0.10980864537E+04 -0.60207539630E+03  0.18984342254E+04  0.12699999809E+01 0.  1.
</event>
<event>
 5   0  0.7261233E-08  0.3600849E+04  0.7818609E-02  0.8090297E-01
        1   -1    0    0  501    0  0.00000000000E+00  0.00000000000E+00  0.12696391076E+04  0.12696391077E+04  0.50400001928E-02 0.  1.
       -1   -1    0    0    0  501  0.00000000000E+00  0.00000000000E+00 -0.25531095650E+04  0.25531095650E+04  0.50400001928E-02 0. -1.
    10030    2    1    2    0    0  0.00000000000E+00  0.00000000000E+00 -0.12834704573E+04  0.38227486726E+04  0.36008486499E+04 0.  0.
        3    1    3    3  502    0 -0.14259073392E+04 -0.98959150492E+03 -0.11497917093E+04  0.20819519859E+04  0.10100000352E+00 0.  1.
       -3    1    3    3    0  502  0.14259073392E+04  0.98959150492E+03 -0.13367874803E+03  0.17407966867E+04  0.10100000352E+00 0. -1.
</event>
<event>
 5   0  0.7236375E-08  0.3596215E+04  0.7818609E-02  0.8091359E-01
        1   -1    0    0  501    0  0.00000000000E+00  0.00000000000E+00  0.17587558816E+04  0.17587558816E+04  0.50400001928E-02 0. -1.
       -1   -1    0    0    0  501  0.00000000000E+00  0.00000000000E+00 -0.18383399487E+04  0.18383399488E+04  0.50400001928E-02 0.  1.
    10030    2    1    2    0    0  0.00000000000E+00  0.00000000000E+00 -0.79584067175E+02  0.35970958303E+04  0.35962153424E+04 0.  0.
        1    1    3    3  502    0 -0.15969421546E+04 -0.60621660517E+03  0.52201120209E+03  0.17861182807E+04  0.50400001928E-02 0. -1.
       -1    1    3    3    0  502  0.15969421546E+04  0.60621660517E+03 -0.60159526927E+03  0.18109775497E+04  0.50400001928E-02 0.  1.
</event>
<event>
 5   0  0.7236375E-08  0.3605997E+04  0.7818609E-02  0.8089119E-01
        1   -1    0    0  501    0  0.00000000000E+00  0.00000000000E+00  0.23004971462E+04  0.23004971462E+04  0.50400001928E-02 0. -1.
       -1   -1    0    0    0  501  0.00000000000E+00  0.00000000000E+00 -0.14130874190E+04  0.14130874191E+04  0.50400001928E-02 0.  1.
    10030    2    1    2    0    0  0.00000000000E+00  0.00000000000E+00  0.88740972718E+03  0.37135845653E+04  0.36059969911E+04 0.  0.
        1    1    3    3  502    0 -0.21274285456E+03 -0.10733294297E+04 -0.10320565690E+04  0.15041397370E+04  0.50400001928E-02 0.  1.
       -1    1    3    3    0  502  0.21274285456E+03  0.10733294297E+04  0.19194662962E+04  0.22094448283E+04  0.50400001928E-02 0. -1.
</event>
<event>
 5   0  0.2309391E-07  0.3600303E+04  0.7818609E-02  0.8090422E-01
       -2   -1    0    0    0  501  0.00000000000E+00  0.00000000000E+00  0.15190313825E+04  0.15190313825E+04  0.25500000920E-02 0. -1.
        2   -1    0    0  501    0  0.00000000000E+00  0.00000000000E+00 -0.21332971397E+04  0.21332971397E+04  0.25500000920E-02 0.  1.
    10030    2    1    2    0    0  0.00000000000E+00  0.00000000000E+00 -0.61426575715E+03  0.36523285222E+04  0.36003029336E+04 0.  0.
        4    1    3    3  502    0  0.13057512590E+04 -0.99876755832E+03  0.43696537449E+03  0.17010183236E+04  0.12699999809E+01 0.  1.
       -4    1    3    3    0  502 -0.13057512590E+04  0.99876755832E+03 -0.10512311316E+04  0.19513101986E+04  0.12699999809E+01 0. -1.
</event>
<event>
 5   0  0.2238968E-07  0.3614021E+04  0.7818609E-02  0.8087288E-01
       -2   -1    0    0    0  501  0.00000000000E+00  0.00000000000E+00  0.13577780917E+04  0.13577780917E+04  0.25500000920E-02 0.  1.
        2   -1    0    0  501    0  0.00000000000E+00  0.00000000000E+00 -0.24048748603E+04  0.24048748603E+04  0.25500000920E-02 0. -1.
    10030    2    1    2    0    0  0.00000000000E+00  0.00000000000E+00 -0.10470967686E+04  0.37626529519E+04  0.36140206964E+04 0.  0.
        3    1    3    3  502    0 -0.12288368939E+04 -0.18421125557E+03 -0.18894939346E+04  0.22614511354E+04  0.10100000352E+00 0. -1.
       -3    1    3    3    0  502  0.12288368939E+04  0.18421125557E+03  0.84239716607E+03  0.15012018166E+04  0.10100000352E+00 0.  1.
</event>
<event>
 5   0  0.2342606E-07  0.3694462E+04  0.7818609E-02  0.8069190E-01
       -2   -1    0    0    0  501  0.00000000000E+00  0.00000000000E+00  0.15882528828E+04  0.15882528828E+04  0.25500000920E-02 0.  1.
        2   -1    0    0  501    0  0.00000000000E+00  0.00000000000E+00 -0.21484379559E+04  0.21484379559E+04  0.25500000920E-02 0. -1.
    10030    2    1    2    0    0  0.00000000000E+00  0.00000000000E+00 -0.56018507308E+03  0.37366908387E+04  0.36944622218E+04 0.  0.
        5    1    3    3  502    0  0.47299345957E+03  0.50606026119E+03  0.14519122558E+04  0.16086923538E+04  0.46999998093E+01 0.  1.
       -5    1    3    3    0  502 -0.47299345957E+03 -0.50606026119E+03 -0.20120973289E+04  0.21279984849E+04  0.46999998093E+01 0. -1.
</event>
<event>
 5   0  0.2238968E-07  0.3602580E+04  0.7818609E-02  0.8089901E-01
        2   -1    0    0  501    0  0.00000000000E+00  0.00000000000E+00  0.23482089592E+04  0.23482089592E+04  0.25500000920E-02 0.  1.
       -2   -1    0    0    0  501  0.00000000000E+00  0.00000000000E+00 -0.13817536433E+04  0.13817536433E+04  0.25500000920E-02 0. -1.
    10030    2    1    2    0    0  0.00000000000E+00  0.00000000000E+00  0.96645531582E+03  0.37299626025E+04  0.36025803445E+04 0.  0.
        3    1    3    3  502    0 -0.11033499038E+04  0.14223882679E+04  0.41711954829E+03  0.18478523000E+04  0.10100000352E+00 0. -1.
       -3    1    3    3    0  502  0.11033499038E+04 -0.14223882679E+04  0.54933576753E+03  0.18821103025E+04  0.10100000352E+00 0.  1.
</event>
<event>
 5   0  0.7236375E-08  0.3640975E+04  0.7818609E-02  0.8081170E-01
        1   -1    0    0  501    0  0.00000000000E+00  0.00000000000E+00  0.28708308856E+04  0.28708308857E+04  0.50400001928E-02 0. -1.
       -1   -1    0    0    0  501  0.00000000000E+00  0.00000000000E+00 -0.11544306452E+04  0.11544306452E+04  0.50400001928E-02 0.  1.
    10030    2    1    2    0    0  0.00000000000E+00  0.00000000000E+00  0.17164002405E+04  0.40252615309E+04  0.36409752274E+04 0.  0.
        5    1    3    3  502    0 -0.15030125730E+04 -0.51532037627E+03 -0.12415049448E+03  0.15937494534E+04  0.46999998093E+01 0. -1.
       -5    1    3    3    0  502  0.15030125730E+04  0.51532037627E+03  0.18405507349E+04  0.24315120775E+04  0.46999998093E+01 0.  1.
</event>
<event>
 5   0  0.2342606E-07  0.3608235E+04  0.7818609E-02  0.8088608E-01
       -2   -1    0    0    0  501  0.00000000000E+00  0.00000000000E+00  0.14822903488E+04  0.14822903488E+04  0.25500000920E-02 0.  1.
        2   -1    0    0  501    0  0.00000000000E+00  0.00000000000E+00 -0.21958182049E+04  0.21958182049E+04  0.25500000920E-02 0. -1.
    10030    2    1    2    0    0  0.00000000000E+00  0.00000000000E+00 -0.71352785618E+03  0.36781085537E+04  0.36082350992E+04 0.  0.
        5    1    3    3  502    0 -0.90947667358E+01 -0.49594559576E+03  0.14114078262E+04  0.14960410725E+04  0.46999998093E+01 0.  1.
       -5    1    3    3    0  502  0.90947667358E+01  0.49594559576E+03 -0.21249356823E+04  0.21820674813E+04  0.46999998093E+01 0. -1.
</event>
<event>
 5   0  0.2198900E-07  0.3613024E+04  0.7818609E-02  0.8087515E-01
       -2   -1    0    0    0  501  0.00000000000E+00  0.00000000000E+00  0.22615686491E+04  0.22615686492E+04  0.25500000920E-02 0. -1.
        2   -1    0    0  501    0  0.00000000000E+00  0.00000000000E+00 -0.14430185296E+04  0.14430185296E+04  0.25500000920E-02 0.  1.
    10030    2    1    2    0    0  0.00000000000E+00  0.00000000000E+00  0.81855011957E+03  0.37045871787E+04  0.36130239228E+04 0.  0.
        2    1    3    3  502    0 -0.13545876296E+04  0.45191037506E+03 -0.72527230704E+03  0.16016087389E+04  0.25500000920E-02 0.  1.
       -2    1    3    3    0  502  0.13545876296E+04 -0.45191037506E+03  0.15438224266E+04  0.21029784398E+04  0.25500000920E-02 0. -1.
</event>
<event>
 5   0  0.2342606E-07  0.3620088E+04  0.7818609E-02  0.8085906E-01
        2   -1    0    0  501    0  0.00000000000E+00  0.00000000000E+00  0.14243814972E+04  0.14243814972E+04  0.25500000920E-02 0. -1.
       -2   -1    0    0    0  501  0.00000000000E+00  0.00000000000E+00 -0.23001271256E+04  0.23001271256E+04  0.25500000920E-02 0.  1.
    10030    2    1    2    0    0  0.00000000000E+00  0.00000000000E+00 -0.87574562849E+03  0.37245086228E+04  0.36200875784E+04 0.  0.
        5    1    3    3  502    0  0.16105860150E+03 -0.12917667678E+04  0.85603419079E+03  0.15580172917E+04  0.46999998093E+01 0. -1.
       -5    1    3    3    0  502 -0.16105860150E+03  0.12917667678E+04 -0.17317798193E+04  0.21664913311E+04  0.46999998093E+01 0.  1.
</event>
<event>
 5   0  0.7236375E-08  0.3580859E+04  0.7818609E-02  0.8094890E-01
       -1   -1    0    0    0  501  0.00000000000E+00  0.00000000000E+00  0.10698339662E+04  0.10698339662E+04  0.50400001928E-02 0. -1.
        1   -1    0    0  501    0  0.00000000000E+00  0.00000000000E+00 -0.29963884875E+04  0.29963884875E+04  0.50400001928E-02 0.  1.
    10030    2    1    2    0    0  0.00000000000E+00  0.00000000000E+00 -0.19265545214E+04  0.40662224537E+04  0.35808592153E+04 0.  0.
        1    1    3    3  502    0  0.18466823570E+03  0.43723161381E+03  0.99709508145E+03  0.11042972620E+04  0.50400001928E-02 0. -1.
       -1    1    3    3    0  502 -0.18466823570E+03 -0.43723161381E+03 -0.29236496028E+04  0.29619251917E+04  0.50400001928E-02 0.  1.
</event>
<event>
 5   0  0.2198900E-07  0.3598505E+04  0.7818609E-02  0.8090834E-01
        2   -1    0    0  501    0  0.00000000000E+00  0.00000000000E+00  0.18702538055E+04  0.18702538055E+04  0.25500000920E-02 0. -1.
       -2   -1    0    0    0  501  0.00000000000E+00  0.00000000000E+00 -0.17309464769E+04  0.17309464769E+04  0.25500000920E-02 0.  1.
    10030    2    1    2    0    0  0.00000000000E+00  0.00000000000E+00  0.13930732858E+03  0.36012002824E+04  0.35985048204E+04 0.  0.
        2    1    3    3  502    0 -0.15891361386E+04 -0.40462376315E+03  0.81063733354E+03  0.18292640442E+04  0.25500000920E-02 0. -1.
       -2    1    3    3    0  502  0.15891361386E+04  0.40462376315E+03 -0.67133000495E+03  0.17719362382E+04  0.25500000920E-02 0.  1.
</event>
<event>
 5   0  0.7236375E-08  0.3595524E+04  0.7818609E-02  0.8091518E-01
       -1   -1    0    0    0  501  0.00000000000E+00  0.00000000000E+00  0.20611824864E+04  0.20611824864E+04  0.50400001928E-02 0. -1.
        1   -1    0    0  501    0  0.00000000000E+00  0.00000000000E+00 -0.15680071160E+04  0.15680071160E+04  0.50400001928E-02 0.  1.
    10030    2    1    2    0    0  0.00000000000E+00  0.00000000000E+00  0.49317537038E+03  0.36291896024E+04  0.35955243323E+04 0.  0.
        5    1    3    3  502    0 -0.74474798187E+03  0.13997157358E+04  0.11019137960E+04  0.19308261965E+04  0.46999998093E+01 0. -1.
       -5    1    3    3    0  502  0.74474798187E+03 -0.13997157358E+04 -0.60873842562E+03  0.16983634058E+04  0.46999998093E+01 0.  1.
</event>
<event>
 5   0  0.7261233E-08  0.3577937E+04  0.7818609E-02  0.8095564E-01
        1   -1    0    0  501    0  0.00000000000E+00  0.00000000000E+00  0.18361206620E+04  0.18361206620E+04  0.50400001928E-02 0.  1.
       -1   -1    0    0    0  501  0.00000000000E+00  0.00000000000E+00 -0.17430273295E+04  0.17430273295E+04  0.50400001928E-02 0. -1.
    10030    2    1    2    0    0  0.00000000000E+00  0.00000000000E+00  0.93093332490E+02  0.35791479916E+04  0.35779371119E+04 0.  0.
        3    1    3    3  502    0  0.43936214465E+02  0.63866340178E+02  0.18344397580E+04  0.18360769419E+04  0.10100000352E+00 0.  1.
       -3    1    3    3    0  502 -0.43936214465E+02 -0.63866340178E+02 -0.17413464256E+04  0.17430710497E+04  0.10100000352E+00 0. -1.
</event>
<event>
 5   0  0.2309391E-07  0.3598601E+04  0.7818609E-02  0.8090812E-01
       -2   -1    0    0    0  501  0.00000000000E+00  0.00000000000E+00  0.15076586908E+04  0.15076586908E+04  0.25500000920E-02 0.  1.
        2   -1    0    0  501    0  0.00000000000E+00  0.00000000000E+00 -0.21473575797E+04  0.21473575797E+04  0.25500000920E-02 0. -1.
    10030    2    1    2    0    0  0.00000000000E+00  0.00000000000E+00 -0.63969888892E+03  0.36550162705E+04  0.35986010155E+04 0.  0.
        4    1    3    3  502    0  0.86719806688E+03  0.10176554589E+03  0.12780567812E+04  0.15478434877E+04  0.12699999809E+01 0.  1.
       -4    1    3    3    0  502 -0.86719806688E+03 -0.10176554589E+03 -0.19177556701E+04  0.21071727828E+04  0.12699999809E+01 0. -1.
</event>
<event>
 5   0  0.7236375E-08  0.3600913E+04  0.7818609E-02  0.8090282E-01
       -1   -1    0    0    0  501  0.00000000000E+00  0.00000000000E+00  0.13037531880E+04  0.13037531880E+04  0.50400001928E-02 0. -1.
        1   -1    0    0  501    0  0.00000000000E+00  0.00000000000E+00 -0.24863941903E+04  0.24863941903E+04  0.50400001928E-02 0.  1.
    10030    2    1    2    0    0  0.00000000000E+00  0.00000000000E+00 -0.11826410022E+04  0.37901473783E+04  0.36009134132E+04 0.  0.
        5    1    3    3  502    0  0.97653161564E+03 -0.24110475587E+03 -0.21630718800E+04  0.23855078175E+04  0.46999998093E+01 0.  1.
       -5    1    3    3    0  502 -0.97653161564E+03  0.24110475587E+03  0.98043087773E+03  0.14046395608E+04  0.46999998093E+01 0. -1.
</event>
<event>
 5   0  0.7236375E-08  0.3571382E+04  0.7818609E-02  0.8097079E-01
       -1   -1    0    0    0  501  0.00000000000E+00  0.00000000000E+00  0.12072019363E+04  0.12072019364E+04  0.50400001928E-02 0. -1.
        1   -1    0    0  501    0  0.00000000000E+00  0.00000000000E+00 -0.26413912092E+04  0.26413912092E+04  0.50400001928E-02 0.  1.
    10030    2    1    2    0    0  0.00000000000E+00  0.00000000000E+00 -0.14341892728E+04  0.38485931455E+04  0.35713821315E+04 0.  0.
        1    1    3    3  502    0 -0.55992670480E+03 -0.15703590093E+04 -0.27799048472E+02  0.16674285951E+04  0.50400001928E-02 0. -1.
       -1    1    3    3    0  502  0.55992670480E+03  0.15703590093E+04 -0.14063902244E+04  0.21811645504E+04  0.50400001928E-02 0.  1.
</event>
<event>
 5   0  0.7236375E-08  0.3598670E+04  0.7818609E-02  0.8090796E-01
       -1   -1    0    0    0  501  0.00000000000E+00  0.00000000000E+00  0.15157704035E+04  0.15157704035E+04  0.50400001928E-02 0.  1.
        1   -1    0    0  501    0  0.00000000000E+00  0.00000000000E+00 -0.21359476783E+04  0.21359476783E+04  0.50400001928E-02 0. -1.
    10030    2    1    2    0    0  0.00000000000E+00  0.00000000000E+00 -0.62017727476E+03  0.36517180818E+04  0.35986699066E+04 0.  0.
        5    1    3    3  502    0  0.46835559354E+03 -0.14394203698E+03  0.14467642586E+04  0.15274898304E+04  0.46999998093E+01 0.  1.
       -5    1    3    3    0  502 -0.46835559354E+03  0.14394203698E+03 -0.20669415333E+04  0.21242282514E+04  0.46999998093E+01 0. -1.
</event>
<event>
 5   0  0.2238968E-07  0.3598948E+04  0.7818609E-02  0.8090733E-01
        2   -1    0    0  501    0  0.00000000000E+00  0.00000000000E+00  0.23990685616E+04  0.23990685616E+04  0.25500000920E-02 0. -1.
       -2   -1    0    0    0  501  0.00000000000E+00  0.00000000000E+00 -0.13497349265E+04  0.13497349265E+04  0.25500000920E-02 0.  1.
    10030    2    1    2    0    0  0.00000000000E+00  0.00000000000E+00  0.10493336351E+04  0.37488034881E+04  0.35989479734E+04 0.  0.
        3    1    3    3  502    0  0.12944204067E+03  0.11920486593E+04 -0.87298230411E+03  0.14831835226E+04  0.10100000352E+00 0.  1.
       -3    1    3    3    0  502 -0.12944204067E+03 -0.11920486593E+04  0.19223159392E+04  0.22656199656E+04  0.10100000352E+00 0. -1.
</event>
<event>
 5   0  0.7514289E-08  0.3602060E+04  0.7818609E-02  0.8090020E-01
        1   -1    0    0  501    0  0.00000000000E+00  0.00000000000E+00  0.22667195225E+04  0.22667195225E+04  0.50400001928E-02 0. -1.
       -1   -1    0    0    0  501  0.00000000000E+00  0.00000000000E+00 -0.14310147518E+04  0.14310147518E+04  0.50400001928E-02 0.  1.
    10030    2    1    2    0    0  0.00000000000E+00  0.00000000000E+00  0.83570477071E+03  0.36977342744E+04  0.36020600078E+04 0.  0.
        4    1    3    3  502    0  0.26003660563E+03  0.11786783256E+04 -0.95436663775E+03  0.15387393944E+04  0.12699999809E+01 0.  1.
       -4    1    3    3    0  502 -0.26003660563E+03 -0.11786783256E+04  0.17900714085E+04  0.21589948800E+04  0.12699999809E+01 0. -1.
</event>
<event>
 5   0  0.7236375E-08  0.3635670E+04  0.7818609E-02  0.8082369E-01
       -3   -1    0    0    0  501  0.00000000000E+00  0.00000000000E+00  0.13214648306E+04  0.13214648344E+04  0.10100000352E+00 0. -1.
        3   -1    0    0  501    0  0.00000000000E+00  0.00000000000E+00 -0.25006529573E+04  0.25006529593E+04  0.10100000352E+00 0.  1.
    10030    2    1    2    0    0  0.00000000000E+00  0.00000000000E+00 -0.11791881267E+04  0.38221177938E+04  0.36356704734E+04 0.  0.
        4    1    3    3  502    0  0.10840243476E+04 -0.11844418472E+04  0.30647393619E+03  0.16346067301E+04  0.12699999809E+01 0. -1.
       -4    1    3    3    0  502 -0.10840243476E+04  0.11844418472E+04 -0.14856620629E+04  0.21875110637E+04  0.12699999809E+01 0.  1.
</event>
<event>
 5   0  0.2342606E-07  0.3593069E+04  0.7818609E-02  0.8092081E-01
       -2   -1    0    0    0  501  0.00000000000E+00  0.00000000000E+00  0.18286339080E+04  0.18286339080E+04  0.25500000920E-02 0.  1.
        2   -1    0    0  501    0  0.00000000000E+00  0.00000000000E+00 -0.17649985571E+04  0.17649985571E+04  0.25500000920E-02 0. -1.
    10030    2    1    2    0    0  0.00000000000E+00  0.00000000000E+00  0.63635350919E+02  0.35936324650E+04  0.35930689996E+04 0.  0.
        5    1    3    3  502    0 -0.40750455459E+02  0.16463711131E+04 -0.68614981252E+03  0.17841026026E+04  0.46999998093E+01 0. -1.
       -5    1    3    3    0  502  0.40750455459E+02 -0.16463711131E+04  0.74978516344E+03  0.18095298624E+04  0.46999998093E+01 0.  1.
</event>
<event>
 5   0  0.7236375E-08  0.3610711E+04  0.7818609E-02  0.8088043E-01
       -1   -1    0    0    0  501  0.00000000000E+00  0.00000000000E+00  0.22226461202E+04  0.22226461202E+04  0.50400001928E-02 0.  1.
        1   -1    0    0  501    0  0.00000000000E+00  0.00000000000E+00 -0.14664090877E+04  0.14664090877E+04  0.50400001928E-02 0. -1.
    10030    2    1    2    0    0  0.00000000000E+00  0.00000000000E+00  0.75623703247E+03  0.36890552079E+04  0.36107109933E+04 0.  0.
        5    1    3    3  502    0  0.24148357193E+03 -0.14326873582E+04  0.14729947959E+04  0.20689715176E+04  0.46999998093E+01 0.  1.
       -5    1    3    3    0  502 -0.24148357193E+03  0.14326873582E+04 -0.71675776346E+03  0.16200836902E+04  0.46999998093E+01 0. -1.
</event>
<event>
 5   0  0.2309391E-07  0.3612633E+04  0.7818609E-02  0.8087604E-01
        2   -1    0    0  501    0  0.00000000000E+00  0.00000000000E+00  0.21757287771E+04  0.21757287771E+04  0.25500000920E-02 0. -1.
       -2   -1    0    0    0  501  0.00000000000E+00  0.00000000000E+00 -0.14996255506E+04  0.14996255506E+04  0.25500000920E-02 0.  1.
    10030    2    1    2    0    0  0.00000000000E+00  0.00000000000E+00  0.67610322643E+03  0.36753543277E+04  0.36126325390E+04 0.  0.
        4    1    3    3  502    0 -0.11603238276E+04 -0.27342532524E+03  0.17186921843E+04  0.20916541852E+04  0.12699999809E+01 0. -1.
       -4    1    3    3    0  502  0.11603238276E+04  0.27342532524E+03 -0.10425889579E+04  0.15837001425E+04  0.12699999809E+01 0.  1.
</event>
<event>
 5   0  0.7514289E-08  0.3592222E+04  0.7818609E-02  0.8092276E-01
        1   -1    0    0  501    0  0.00000000000E+00  0.00000000000E+00  0.12290022320E+04  0.12290022320E+04  0.50400001928E-02 0.  1.
       -1   -1    0    0    0  501  0.00000000000E+00  0.00000000000E+00 -0.26249059966E+04  0.26249059966E+04  0.50400001928E-02 0. -1.
    10030    2    1    2    0    0  0.00000000000E+00  0.00000000000E+00 -0.13959037646E+04  0.38539082287E+04  0.35922223365E+04 0.  0.
        4    1    3    3  502    0  0.39779686002E+03  0.27475566920E+03 -0.25537867294E+04  0.25991462621E+04  0.12699999809E+01 0. -1.
       -4    1    3    3    0  502 -0.39779686002E+03 -0.27475566920E+03  0.11578829648E+04  0.12547619666E+04  0.12699999809E+01 0.  1.
</event>
<event>
 5   0  0.7347303E-08  0.3607180E+04  0.7818609E-02  0.8088849E-01
        1   -1    0    0  501    0  0.00000000000E+00  0.00000000000E+00  0.96139440991E+03  0.96139440992E+03  0.50400001928E-02 0.  1.
       -1   -1    0    0    0  501  0.00000000000E+00  0.00000000000E+00 -0.33835609124E+04  0.33835609124E+04  0.50400001928E-02 0. -1.
    10030    2    1    2    0    0  0.00000000000E+00  0.00000000000E+00 -0.24221665025E+04  0.43449553224E+04  0.36071798108E+04 0.  0.
        2    1    3    3  502    0  0.23415324472E+03 -0.15465388655E+03  0.93493815728E+03  0.97614288123E+03  0.25500000920E-02 0.  1.
       -2    1    3    3    0  502 -0.23415324472E+03  0.15465388655E+03 -0.33571046598E+04  0.33688124411E+04  0.25500000920E-02 0. -1.
</event>
<event>
 5   0  0.7261233E-08  0.3597573E+04  0.7818609E-02  0.8091048E-01
        1   -1    0    0  501    0  0.00000000000E+00  0.00000000000E+00  0.18365660537E+04  0.18365660537E+04  0.50400001928E-02 0.  1.
       -1   -1    0    0    0  501  0.00000000000E+00  0.00000000000E+00 -0.17617838930E+04  0.17617838930E+04  0.50400001928E-02 0. -1.
    10030    2    1    2    0    0  0.00000000000E+00  0.00000000000E+00  0.74782160733E+02  0.35983499467E+04  0.35975727883E+04 0.  0.
        3    1    3    3  502    0  0.24373553565E+03  0.15095881476E+04 -0.91010923175E+03  0.17794836922E+04  0.10100000352E+00 0. -1.
       -3    1    3    3    0  502 -0.24373553565E+03 -0.15095881476E+04  0.98489139248E+03  0.18188662546E+04  0.10100000352E+00 0.  1.
</event>
<event>
 5   0  0.2238968E-07  0.3597316E+04  0.7818609E-02  0.8091107E-01
        2   -1    0    0  501    0  0.00000000000E+00  0.00000000000E+00  0.27210845077E+04  0.27210845077E+04  0.25500000920E-02 0.  1.
       -2   -1    0    0    0  501  0.00000000000E+00  0.00000000000E+00 -0.11889267211E+04  0.11889267211E+04  0.25500000920E-02 0. -1.
    10030    2    1    2    0    0  0.00000000000E+00  0.00000000000E+00  0.15321577866E+04  0.39100112288E+04  0.35973157113E+04 0.  0.
        3    1    3    3  502    0 -0.79058973625E+03 -0.14831947062E+04  0.69877202120E+02  0.16821954408E+04  0.10100000352E+00 0. -1.
       -3    1    3    3    0  502  0.79058973625E+03  0.14831947062E+04  0.14622805845E+04  0.22278157880E+04  0.10100000352E+00 0.  1.
</event>
<event>
 5   0  0.7347303E-08  0.3604326E+04  0.7818609E-02  0.8089502E-01
        1   -1    0    0  501    0  0.00000000000E+00  0.00000000000E+00  0.21484255463E+04  0.21484255463E+04  0.50400001928E-02 0. -1.
       -1   -1    0    0    0  501  0.00000000000E+00  0.00000000000E+00 -0.15117074098E+04  0.15117074098E+04  0.50400001928E-02 0.  1.
    10030    2    1    2    0    0  0.00000000000E+00  0.00000000000E+00  0.63671813652E+03  0.36601329560E+04  0.36043256333E+04 0.  0.
        2    1    3    3  502    0  0.17918378028E+04 -0.59177732257E+02  0.13220097952E+03  0.17976823453E+04  0.25500000920E-02 0. -1.
       -2    1    3    3    0  502 -0.17918378028E+04  0.59177732257E+02  0.50451715699E+03  0.18624506107E+04  0.25500000920E-02 0.  1.
</event>
<event>
 5   0  0.7347303E-08  0.3611817E+04  0.7818609E-02  0.8087790E-01
       -1   -1    0    0    0  501  0.00000000000E+00  0.00000000000E+00  0.21441247191E+04  0.21441247192E+04  0.50400001928E-02 0.  1.
        1   -1    0    0  501    0  0.00000000000E+00  0.00000000000E+00 -0.15210429794E+04  0.15210429794E+04  0.50400001928E-02 0. -1.
    10030    2    1    2    0    0  0.00000000000E+00  0.00000000000E+00  0.62308173975E+03  0.36651676986E+04  0.36118171886E+04 0.  0.
        2    1    3    3  502    0 -0.16694776521E+04  0.40113990765E+03 -0.25640195096E+03  0.17360330691E+04  0.25500000920E-02 0. -1.
       -2    1    3    3    0  502  0.16694776521E+04 -0.40113990765E+03  0.87948369071E+03  0.19291346295E+04  0.25500000920E-02 0.  1.
</event>
<event>
 5   0  0.2342606E-07  0.3608387E+04  0.7818609E-02  0.8088573E-01
       -2   -1    0    0    0  501  0.00000000000E+00  0.00000000000E+00  0.12962522037E+04  0.12962522038E+04  0.25500000920E-02 0. -1.
        2   -1    0    0  501    0  0.00000000000E+00  0.00000000000E+00 -0.25111733867E+04  0.25111733867E+04  0.25500000920E-02 0.  1.
    10030    2    1    2    0    0  0.00000000000E+00  0.00000000000E+00 -0.12149211830E+04  0.38074255905E+04  0.36083869175E+04 0.  0.
        5    1    3    3  502    0  0.17870589889E+04 -0.48863902094E+02 -0.86402820234E+03  0.19855816113E+04  0.46999998093E+01 0.  1.
       -5    1    3    3    0  502 -0.17870589889E+04  0.48863902094E+02 -0.35089298061E+03  0.18218439792E+04  0.46999998093E+01 0. -1.
</event>
<event>
 5   0  0.2309391E-07  0.3595687E+04  0.7818609E-02  0.8091480E-01
       -2   -1    0    0    0  501  0.00000000000E+00  0.00000000000E+00  0.24053555211E+04  0.24053555211E+04  0.25500000920E-02 0.  1.
        2   -1    0    0  501    0  0.00000000000E+00  0.00000000000E+00 -0.13437685193E+04  0.13437685193E+04  0.25500000920E-02 0. -1.
    10030    2    1    2    0    0  0.00000000000E+00  0.00000000000E+00  0.10615870017E+04  0.37491240404E+04  0.35956868757E+04 0.  0.
        4    1    3    3  502    0  0.55347130391E+02 -0.12477277999E+04 -0.81758469021E+03  0.14927606326E+04  0.12699999809E+01 0. -1.
       -4    1    3    3    0  502 -0.55347130391E+02  0.12477277999E+04  0.18791716920E+04  0.22563634079E+04  0.12699999809E+01 0.  1.
</event>
<event>
 5   0  0.7347303E-08  0.3572150E+04  0.7818609E-02  0.8096901E-01
        1   -1    0    0  501    0  0.00000000000E+00  0.00000000000E+00  0.18346807719E+04  0.18346807719E+04  0.50400001928E-02 0.  1.
       -1   -1    0    0    0  501  0.00000000000E+00  0.00000000000E+00 -0.17387570223E+04  0.17387570223E+04  0.50400001928E-02 0. -1.
    10030    2    1    2    0    0  0.00000000000E+00  0.00000000000E+00  0.95923749560E+02  0.35734377942E+04  0.35721500953E+04 0.  0.
        2    1    3    3  502    0 -0.61691227371E+03  0.38795983362E+03 -0.15832609371E+04  0.17429310890E+04  0.25500000920E-02 0. -1.
       -2    1    3    3    0  502  0.61691227371E+03 -0.38795983362E+03  0.16791846867E+04  0.18305067052E+04  0.25500000920E-02 0.  1.
</event>
<event>
 5   0  0.7261233E-08  0.3594627E+04  0.7818609E-02  0.8091723E-01
       -1   -1    0    0    0  501  0.00000000000E+00  0.00000000000E+00  0.14235599950E+04  0.14235599950E+04  0.50400001928E-02 0. -1.
        1   -1    0    0  501    0  0.00000000000E+00  0.00000000000E+00 -0.22691958623E+04  0.22691958623E+04  0.50400001928E-02 0.  1.
    10030    2    1    2    0    0  0.00000000000E+00  0.00000000000E+00 -0.84563586730E+03  0.36927558572E+04  0.35946273522E+04 0.  0.
        3    1    3    3  502    0  0.57978901931E+03 -0.10899317439E+04 -0.17647035527E+04  0.21536678371E+04  0.10100000352E+00 0.  1.
       -3    1    3    3    0  502 -0.57978901931E+03  0.10899317439E+04  0.91906768538E+03  0.15390880202E+04  0.10100000352E+00 0. -1.
</event>
<event>
 5   0  0.7261233E-08  0.3613185E+04  0.7818609E-02  0.8087478E-01
        1   -1    0    0  501    0  0.00000000000E+00  0.00000000000E+00  0.24898685627E+04  0.24898685627E+04  0.50400001928E-02 0. -1.
       -1   -1    0    0    0  501  0.00000000000E+00  0.00000000000E+00 -0.13108226829E+04  0.13108226829E+04  0.50400001928E-02 0.  1.
    10030    2    1    2    0    0  0.00000000000E+00  0.00000000000E+00  0.11790458798E+04  0.38006912455E+04  0.36131848496E+04 0.  0.
        3    1    3    3  502    0 -0.68191416145E+03  0.75946439736E+03  0.21575111189E+04  0.23867650351E+04  0.10100000352E+00 0. -1.
       -3    1    3    3    0  502  0.68191416145E+03 -0.75946439736E+03 -0.97846523905E+03  0.14139262105E+04  0.10100000352E+00 0.  1.
</event>
<event>
 5   0  0.2198900E-07  0.3593195E+04  0.7818609E-02  0.8092052E-01
        2   -1    0    0  501    0  0.00000000000E+00  0.00000000000E+00  0.19413875927E+04  0.19413875927E+04  0.25500000920E-02 0. -1.
       -2   -1    0    0    0  501  0.00000000000E+00  0.00000000000E+00 -0.16626063975E+04  0.16626063975E+04  0.25500000920E-02 0.  1.
    10030    2    1    2    0    0  0.00000000000E+00  0.00000000000E+00  0.27878119526E+03  0.36039939902E+04  0.35931954757E+04 0.  0.
        2    1    3    3  502    0 -0.16854650236E+04 -0.25832130690E+03  0.70698984145E+03  0.18459027275E+04  0.25500000920E-02 0. -1.
       -2    1    3    3    0  502  0.16854650236E+04  0.25832130690E+03 -0.42820864618E+03  0.17580912627E+04  0.25500000920E-02 0.  1.
</event>
<event>
 5   0  0.7236375E-08  0.3597506E+04  0.7818609E-02  0.8091063E-01
       -1   -1    0    0    0  501  0.00000000000E+00  0.00000000000E+00  0.16715109454E+04  0.16715109454E+04  0.50400001928E-02 0. -1.
        1   -1    0    0  501    0  0.00000000000E+00  0.00000000000E+00 -0.19356815427E+04  0.19356815427E+04  0.50400001928E-02 0.  1.
    10030    2    1    2    0    0  0.00000000000E+00  0.00000000000E+00 -0.26417059730E+03  0.36071924880E+04  0.35975062948E+04 0.  0.
        1    1    3    3  502    0 -0.10174997672E+04 -0.10867421074E+04 -0.11443572099E+04  0.18777293756E+04  0.50400001928E-02 0.  1.
       -1    1    3    3    0  502  0.10174997672E+04  0.10867421074E+04  0.88018661262E+03  0.17294631124E+04  0.50400001928E-02 0. -1.
</event>
<event>
 5   0  0.2342606E-07  0.3605521E+04  0.7818609E-02  0.8089228E-01
       -2   -1    0    0    0  501  0.00000000000E+00  0.00000000000E+00  0.25546542990E+04  0.25546542990E+04  0.25500000920E-02 0.  1.
        2   -1    0    0  501    0  0.00000000000E+00  0.00000000000E+00 -0.12721666961E+04  0.12721666961E+04  0.25500000920E-02 0. -1.
    10030    2    1    2    0    0  0.00000000000E+00  0.00000000000E+00  0.12824876030E+04  0.38268209951E+04  0.36055213876E+04 0.  0.
        5    1    3    3  502    0 -0.12201176088E+03  0.49602887185E+02 -0.12670467144E+04  0.12738825623E+04  0.46999998093E+01 0. -1.
       -5    1    3    3    0  502  0.12201176088E+03 -0.49602887185E+02  0.25495343173E+04  0.25529384328E+04  0.46999998093E+01 0.  1.
</event>
<event>
 5   0  0.7261233E-08  0.3631986E+04  0.7818609E-02  0.8083204E-01
       -1   -1    0    0    0  501  0.00000000000E+00  0.00000000000E+00  0.31466524808E+04  0.31466524808E+04  0.50400001928E-02 0.  1.
        1   -1    0    0  501    0  0.00000000000E+00  0.00000000000E+00 -0.10480440754E+04  0.10480440754E+04  0.50400001928E-02 0. -1.
    10030    2    1    2    0    0  0.00000000000E+00  0.00000000000E+00  0.20986084053E+04  0.41946965562E+04  0.36319859526E+04 0.  0.
        3    1    3    3  502    0  0.18965924898E+03 -0.15694373187E+04  0.20814840984E+04  0.26137483027E+04  0.10100000352E+00 0.  1.
       -3    1    3    3    0  502 -0.18965924898E+03  0.15694373187E+04  0.17124306981E+02  0.15809482535E+04  0.10100000352E+00 0. -1.
</event>
<event>
 5   0  0.2198900E-07  0.3581807E+04  0.7818609E-02  0.8094672E-01
       -2   -1    0    0    0  501  0.00000000000E+00  0.00000000000E+00  0.17192616794E+04  0.17192616794E+04  0.25500000920E-02 0.  1.
        2   -1    0    0  501    0  0.00000000000E+00  0.00000000000E+00 -0.18655301855E+04  0.18655301855E+04  0.25500000920E-02 0. -1.
    10030    2    1    2    0    0  0.00000000000E+00  0.00000000000E+00 -0.14626850611E+03  0.35847918649E+04  0.35818065608E+04 0.  0.
        2    1    3    3  502    0  0.18686982279E+03  0.17226565493E+03  0.17011204273E+04  0.17200018880E+04  0.25500000920E-02 0.  1.
       -2    1    3    3    0  502 -0.18686982279E+03 -0.17226565493E+03 -0.18473889334E+04  0.18647899769E+04  0.25500000920E-02 0. -1.
</event>
<event>
 5   0  0.2238968E-07  0.3594492E+04  0.7818609E-02  0.8091755E-01
        2   -1    0    0  501    0  0.00000000000E+00  0.00000000000E+00  0.24981806274E+04  0.24981806274E+04  0.25500000920E-02 0. -1.
       -2   -1    0    0    0  501  0.00000000000E+00  0.00000000000E+00 -0.12929781486E+04  0.12929781486E+04  0.25500000920E-02 0.  1.
    10030    2    1    2    0    0  0.00000000000E+00  0.00000000000E+00  0.12052024788E+04  0.37911587761E+04  0.35944918765E+04 0.  0.
        3    1    3    3  502    0  0.10390665874E+04  0.53412408495E+03 -0.83782416350E+03  0.14376707726E+04  0.10100000352E+00 0.  1.
       -3    1    3    3    0  502 -0.10390665874E+04 -0.53412408495E+03  0.20430266423E+04  0.23534880035E+04  0.10100000352E+00 0. -1.
</event>
<event>
 5   0  0.7236375E-08  0.3601892E+04  0.7818609E-02  0.8090058E-01
        1   -1    0    0  501    0  0.00000000000E+00  0.00000000000E+00  0.10612176092E+04  0.10612176092E+04  0.50400001928E-02 0.  1.
       -1   -1    0    0    0  501  0.00000000000E+00  0.00000000000E+00 -0.30563067820E+04  0.30563067820E+04  0.50400001928E-02 0. -1.
    10030    2    1    2    0    0  0.00000000000E+00  0.00000000000E+00 -0.19950891728E+04  0.41175243912E+04  0.36018920451E+04 0.  0.
        1    1    3    3  502    0 -0.45977568267E+03 -0.15835533824E+04 -0.16974527193E+03  0.16576635517E+04  0.50400001928E-02 0.  1.
       -1    1    3    3    0  502  0.45977568267E+03  0.15835533824E+04 -0.18253439009E+04  0.24598608395E+04  0.50400001928E-02 0. -1.
</event>
<event>
 5   0  0.7514289E-08  0.3507899E+04  0.7818609E-02  0.8111921E-01
        1   -1    0    0  501    0  0.00000000000E+00  0.00000000000E+00  0.10864821341E+04  0.10864821342E+04  0.50400001928E-02 0. -1.
       -1   -1    0    0    0  501  0.00000000000E+00  0.00000000000E+00 -0.28314672260E+04  0.28314672260E+04  0.50400001928E-02 0.  1.
    10030    2    1    2    0    0  0.00000000000E+00  0.00000000000E+00 -0.17449850918E+04  0.39179493601E+04  0.35078988323E+04 0.  0.
        4    1    3    3  502    0  0.11135057130E+04 -0.36940667115E+03 -0.23287352128E+04  0.26075593120E+04  0.12699999809E+01 0.  1.
       -4    1    3    3    0  502 -0.11135057130E+04  0.36940667115E+03  0.58375012098E+03  0.13103900481E+04  0.12699999809E+01 0. -1.
</event>
<event>
 5   0  0.2238968E-07  0.3591619E+04  0.7818609E-02  0.8092414E-01
        2   -1    0    0  501    0  0.00000000000E+00  0.00000000000E+00  0.17685777691E+04  0.17685777691E+04  0.25500000920E-02 0.  1.
       -2   -1    0    0    0  501  0.00000000000E+00  0.00000000000E+00 -0.18234605890E+04  0.18234605890E+04  0.25500000920E-02 0. -1.
    10030    2    1    2    0    0  0.00000000000E+00  0.00000000000E+00 -0.54882819934E+02  0.35920383581E+04  0.35916190559E+04 0.  0.
        3    1    3    3  502    0 -0.82500034195E+03  0.13159342325E+04 -0.92900290636E+03  0.18097941537E+04  0.10100000352E+00 0. -1.
       -3    1    3    3    0  502  0.82500034195E+03 -0.13159342325E+04  0.87412008642E+03  0.17822442044E+04  0.10100000352E+00 0.  1.
</event>
<event>
 5   0  0.7236375E-08  0.3600849E+04  0.7818609E-02  0.8090297E-01
        1   -1    0    0  501    0  0.00000000000E+00  0.00000000000E+00  0.12748823136E+04  0.12748823136E+04  0.50400001928E-02 0. -1.
       -1   -1    0    0    0  501  0.00000000000E+00  0.00000000000E+00 -0.25426101289E+04  0.25426101289E+04  0.50400001928E-02 0.  1.
    10030    2    1    2    0    0  0.00000000000E+00  0.00000000000E+00 -0.12677278153E+04  0.38174924425E+04  0.36008491685E+04 0.  0.
        5    1    3    3  502    0  0.13084197711E+04  0.77958754891E+02 -0.19424121632E+04  0.23432940419E+04  0.46999998093E+01 0. -1.
       -5    1    3    3    0  502 -0.13084197711E+04 -0.77958754891E+02  0.67468434793E+03  0.14741984006E+04  0.46999998093E+01 0.  1.
</event>
<event>
 5   0  0.2199902E-07  0.3582270E+04  0.7818609E-02  0.8094565E-01
        2   -1    0    0  501    0  0.00000000000E+00  0.00000000000E+00  0.18058947097E+04  0.18058947097E+04  0.25500000920E-02 0. -1.
       -2   -1    0    0    0  501  0.00000000000E+00  0.00000000000E+00 -0.17764960778E+04  0.17764960778E+04  0.25500000920E-02 0.  1.
    10030    2    1    2    0    0  0.00000000000E+00  0.00000000000E+00  0.29398631897E+02  0.35823907876E+04  0.35822701567E+04 0.  0.
        1    1    3    3  502    0 -0.14542073111E+03  0.67577243037E+02  0.17987019320E+04  0.18058356827E+04  0.50400001928E-02 0. -1.
       -1    1    3    3    0  502  0.14542073111E+03 -0.67577243037E+02 -0.17693033001E+04  0.17765551049E+04  0.50400001928E-02 0.  1.
</event>
<event>
 5   0  0.7236375E-08  0.3597062E+04  0.7818609E-02  0.8091165E-01
        1   -1    0    0  501    0  0.00000000000E+00  0.00000000000E+00  0.19602997678E+04  0.19602997678E+04  0.50400001928E-02 0. -1.
       -1   -1    0    0    0  501  0.00000000000E+00  0.00000000000E+00 -0.16501119316E+04  0.16501119316E+04  0.50400001928E-02 0.  1.
    10030    2    1    2    0    0  0.00000000000E+00  0.00000000000E+00  0.31018783620E+03  0.36104116993E+04  0.35970621547E+04 0.  0.
        1    1    3    3  502    0 -0.27275862903E+03  0.11636402464E+04  0.15040527463E+04  0.19211013915E+04  0.50400001928E-02 0. -1.
       -1    1    3    3    0  502  0.27275862903E+03 -0.11636402464E+04 -0.11938649100E+04  0.16893103079E+04  0.50400001928E-02 0.  1.
</event>
<event>
 5   0  0.2198900E-07  0.3612755E+04  0.7818609E-02  0.8087576E-01
        2   -1    0    0  501    0  0.00000000000E+00  0.00000000000E+00  0.24441548741E+04  0.24441548741E+04  0.25500000920E-02 0. -1.
       -2   -1    0    0    0  501  0.00000000000E+00  0.00000000000E+00 -0.13350214417E+04  0.13350214417E+04  0.25500000920E-02 0.  1.
    10030    2    1    2    0    0  0.00000000000E+00  0.00000000000E+00  0.11091334323E+04  0.37791763158E+04  0.36127547184E+04 0.  0.
        2    1    3    3  502    0 -0.14168590513E+04 -0.53142599168E+03 -0.47733069470E+03  0.15867412353E+04  0.25500000920E-02 0.  1.
       -2    1    3    3    0  502  0.14168590513E+04  0.53142599168E+03  0.15864641270E+04  0.21924350805E+04  0.25500000920E-02 0. -1.
</event>
<event>
 5   0  0.7261233E-08  0.3577363E+04  0.7818609E-02  0.8095697E-01
        1   -1    0    0  501    0  0.00000000000E+00  0.00000000000E+00  0.12432115353E+04  0.12432115353E+04  0.50400001928E-02 0.  1.
       -1   -1    0    0    0  501  0.00000000000E+00  0.00000000000E+00 -0.25734814504E+04  0.25734814504E+04  0.50400001928E-02 0. -1.
    10030    2    1    2    0    0  0.00000000000E+00  0.00000000000E+00 -0.13302699151E+04  0.38166929857E+04  0.35773631770E+04 0.  0.
        3    1    3    3  502    0 -0.59647934457E+03 -0.50889923946E+03 -0.23803642677E+04  0.25061724006E+04  0.10100000352E+00 0. -1.
       -3    1    3    3    0  502  0.59647934457E+03  0.50889923946E+03  0.10500943526E+04  0.13105205851E+04  0.10100000352E+00 0.  1.
</event>
<event>
 5   0  0.2309391E-07  0.3586095E+04  0.7818609E-02  0.8093684E-01
       -2   -1    0    0    0  501  0.00000000000E+00  0.00000000000E+00  0.11060515318E+04  0.11060515318E+04  0.25500000920E-02 0. -1.
        2   -1    0    0  501    0  0.00000000000E+00  0.00000000000E+00 -0.29067544163E+04  0.29067544163E+04  0.25500000920E-02 0.  1.
    10030    2    1    2    0    0  0.00000000000E+00  0.00000000000E+00 -0.18007028845E+04  0.40128059480E+04  0.35860954670E+04 0.  0.
        4    1    3    3  502    0  0.67593830547E+03  0.22402248637E+03  0.94103873404E+03  0.11800992243E+04  0.12699999809E+01 0. -1.
       -4    1    3    3    0  502 -0.67593830547E+03 -0.22402248637E+03 -0.27417416186E+04  0.28327067238E+04  0.12699999809E+01 0.  1.
</event>
<event>
 5   0  0.2199902E-07  0.3589819E+04  0.7818609E-02  0.8092828E-01
        2   -1    0    0  501    0  0.00000000000E+00  0.00000000000E+00  0.21349369356E+04  0.21349369356E+04  0.25500000920E-02 0.  1.
       -2   -1    0    0    0  501  0.00000000000E+00  0.00000000000E+00 -0.15090372929E+04  0.15090372930E+04  0.25500000920E-02 0. -1.
    10030    2    1    2    0    0  0.00000000000E+00  0.00000000000E+00  0.62589964268E+03  0.36439742286E+04  0.35898186327E+04 0.  0.
        1    1    3    3  502    0  0.40859259426E+03 -0.18001557519E+03 -0.14517663911E+04  0.15188743101E+04  0.50400001928E-02 0. -1.
       -1    1    3    3    0  502 -0.40859259426E+03  0.18001557519E+03  0.20776660338E+04  0.21250999185E+04  0.50400001928E-02 0.  1.
</event>
<event>
 5   0  0.7261233E-08  0.3604155E+04  0.7818609E-02  0.8089541E-01
        1   -1    0    0  501    0  0.00000000000E+00  0.00000000000E+00  0.23905403859E+04  0.23905403859E+04  0.50400001928E-02 0.  1.
       -1   -1    0    0    0  501  0.00000000000E+00  0.00000000000E+00 -0.13584721408E+04  0.13584721408E+04  0.50400001928E-02 0. -1.
    10030    2    1    2    0    0  0.00000000000E+00  0.00000000000E+00  0.10320682451E+04  0.37490125267E+04  0.36041545559E+04 0.  0.
        3    1    3    3  502    0  0.16415632407E+04  0.73436854281E+03  0.63669403664E+03  0.19077228143E+04  0.10100000352E+00 0.  1.
       -3    1    3    3    0  502 -0.16415632407E+04 -0.73436854281E+03  0.39537420848E+03  0.18412897124E+04  0.10100000352E+00 0. -1.
</event>
<event>
 5   0  0.7236375E-08  0.3555652E+04  0.7818609E-02  0.8100726E-01
        1   -1    0    0  501    0  0.00000000000E+00  0.00000000000E+00  0.10450196838E+04  0.10450196839E+04  0.50400001928E-02 0.  1.
       -1   -1    0    0    0  501  0.00000000000E+00  0.00000000000E+00 -0.30245038603E+04  0.30245038603E+04  0.50400001928E-02 0. -1.
    10030    2    1    2    0    0  0.00000000000E+00  0.00000000000E+00 -0.19794841765E+04  0.40695235441E+04  0.35556524396E+04 0.  0.
        5    1    3    3  502    0  0.10330375048E+04 -0.47000189259E+03  0.57644614180E+03  0.12729416757E+04  0.46999998093E+01 0.  1.
       -5    1    3    3    0  502 -0.10330375048E+04  0.47000189259E+03 -0.25559303182E+04  0.27965818685E+04  0.46999998093E+01 0. -1.
</event>
<event>
 5   0  0.7261233E-08  0.3611937E+04  0.7818609E-02  0.8087763E-01
        1   -1    0    0  501    0  0.00000000000E+00  0.00000000000E+00  0.16735941029E+04  0.16735941029E+04  0.50400001928E-02 0. -1.
       -1   -1    0    0    0  501  0.00000000000E+00  0.00000000000E+00 -0.19488126986E+04  0.19488126986E+04  0.50400001928E-02 0.  1.
    10030    2    1    2    0    0  0.00000000000E+00  0.00000000000E+00 -0.27521859569E+03  0.36224068016E+04  0.36119365665E+04 0.  0.
        3    1    3    3  502    0  0.22045973414E+03 -0.14609893193E+04  0.90387544977E+03  0.17320748033E+04  0.10100000352E+00 0. -1.
       -3    1    3    3    0  502 -0.22045973414E+03  0.14609893193E+04 -0.11790940455E+04  0.18903319983E+04  0.10100000352E+00 0.  1.
</event>
<event>
 5   0  0.7236375E-08  0.3624717E+04  0.7818609E-02  0.8084853E-01
       -3   -1    0    0    0  501  0.00000000000E+00  0.00000000000E+00  0.15684502056E+04  0.15684502089E+04  0.10100000352E+00 0. -1.
        3   -1    0    0  501    0  0.00000000000E+00  0.00000000000E+00 -0.20941962417E+04  0.20941962441E+04  0.10100000352E+00 0.  1.
    10030    2    1    2    0    0  0.00000000000E+00  0.00000000000E+00 -0.52574603605E+03  0.36626464530E+04  0.36247165607E+04 0.  0.
        4    1    3    3  502    0 -0.14043178936E+04  0.91299331426E+03  0.43644955195E+03  0.17309406005E+04  0.12699999809E+01 0. -1.
       -4    1    3    3    0  502  0.14043178936E+04 -0.91299331426E+03 -0.96219558800E+03  0.19317058525E+04  0.12699999809E+01 0.  1.
</event>
<event>
 5   0  0.2198900E-07  0.3549046E+04  0.7818609E-02  0.8102264E-01
        2   -1    0    0  501    0  0.00000000000E+00  0.00000000000E+00  0.20956457197E+04  0.20956457197E+04  0.25500000920E-02 0. -1.
       -2   -1    0    0    0  501  0.00000000000E+00  0.00000000000E+00 -0.15026067358E+04  0.15026067358E+04  0.25500000920E-02 0.  1.
    10030    2    1    2    0    0  0.00000000000E+00  0.00000000000E+00  0.59303898398E+03  0.35982524555E+04  0.35490457164E+04 0.  0.
        2    1    3    3  502    0  0.12907426859E+04  0.30666140577E+03  0.14913639641E+04  0.19960521968E+04  0.25500000920E-02 0. -1.
       -2    1    3    3    0  502 -0.12907426859E+04 -0.30666140577E+03 -0.89832498013E+03  0.16022002587E+04  0.25500000920E-02 0.  1.
</event>
<event>
 5   0  0.7261233E-08  0.3561633E+04  0.7818609E-02  0.8099337E-01
       -1   -1    0    0    0  501  0.00000000000E+00  0.00000000000E+00  0.98819445019E+03  0.98819445020E+03  0.50400001928E-02 0. -1.
        1   -1    0    0  501    0  0.00000000000E+00  0.00000000000E+00 -0.32091929583E+04  0.32091929583E+04  0.50400001928E-02 0.  1.
    10030    2    1    2    0    0  0.00000000000E+00  0.00000000000E+00 -0.22209985081E+04  0.41973874085E+04  0.35616325869E+04 0.  0.
        3    1    3    3  502    0  0.21452784643E+03  0.36640628919E+03 -0.31486691779E+04  0.31771675070E+04  0.10100000352E+00 0.  1.
       -3    1    3    3    0  502 -0.21452784643E+03 -0.36640628919E+03  0.92767066977E+03  0.10202199015E+04  0.10100000352E+00 0. -1.
</event>
<event>
 5   0  0.2199902E-07  0.3558622E+04  0.7818609E-02  0.8100036E-01
       -2   -1    0    0    0  501  0.00000000000E+00  0.00000000000E+00  0.20216724759E+04  0.20216724759E+04  0.25500000920E-02 0. -1.
        2   -1    0    0  501    0  0.00000000000E+00  0.00000000000E+00 -0.15660039765E+04  0.15660039765E+04  0.25500000920E-02 0.  1.
    10030    2    1    2    0    0  0.00000000000E+00  0.00000000000E+00  0.45566849937E+03  0.35876764523E+04  0.35586217199E+04 0.  0.
        1    1    3    3  502    0  0.16768737897E+04  0.52227638161E+03  0.51523863998E+03  0.18303412746E+04  0.50400001928E-02 0. -1.
       -1    1    3    3    0  502 -0.16768737897E+04 -0.52227638161E+03 -0.59570140609E+02  0.17573351778E+04  0.50400001928E-02 0.  1.
</event>
<event>
 5   0  0.2309391E-07  0.3439002E+04  0.7818609E-02  0.8128400E-01
        2   -1    0    0  501    0  0.00000000000E+00  0.00000000000E+00  0.25324158188E+04  0.25324158188E+04  0.25500000920E-02 0.  1.
       -2   -1    0    0    0  501  0.00000000000E+00  0.00000000000E+00 -0.11675351713E+04  0.11675351713E+04  0.25500000920E-02 0. -1.
    10030    2    1    2    0    0  0.00000000000E+00  0.00000000000E+00  0.13648806474E+04  0.36999509901E+04  0.34390024931E+04 0.  0.
        4    1    3    3  502    0 -0.41124469302E+03  0.15599820610E+04  0.42299752769E+02  0.16138330490E+04  0.12699999809E+01 0. -1.
       -4    1    3    3    0  502  0.41124469302E+03 -0.15599820610E+04  0.13225808947E+04  0.20861179411E+04  0.12699999809E+01 0.  1.
</event>
<event>
 5   0  0.7236375E-08  0.3513893E+04  0.7818609E-02  0.8110505E-01
       -1   -1    0    0    0  501  0.00000000000E+00  0.00000000000E+00  0.13350025399E+04  0.13350025399E+04  0.50400001928E-02 0.  1.
        1   -1    0    0  501    0  0.00000000000E+00  0.00000000000E+00 -0.23122510685E+04  0.23122510685E+04  0.50400001928E-02 0. -1.
    10030    2    1    2    0    0  0.00000000000E+00  0.00000000000E+00 -0.97724852860E+03  0.36472536084E+04  0.35138930259E+04 0.  0.
        5    1    3    3  502    0  0.44358445182E+03  0.11749859746E+04  0.78661322804E+03  0.14819384829E+04  0.46999998093E+01 0.  1.
       -5    1    3    3    0  502 -0.44358445182E+03 -0.11749859746E+04 -0.17638617566E+04  0.21653151256E+04  0.46999998093E+01 0. -1.
</event>
<event>
 5   0  0.2238968E-07  0.3594263E+04  0.7818609E-02  0.8091807E-01
       -2   -1    0    0    0  501  0.00000000000E+00  0.00000000000E+00  0.17856022523E+04  0.17856022523E+04  0.25500000920E-02 0.  1.
        2   -1    0    0  501    0  0.00000000000E+00  0.00000000000E+00 -0.18087353414E+04  0.18087353414E+04  0.25500000920E-02 0. -1.
    10030    2    1    2    0    0  0.00000000000E+00  0.00000000000E+00 -0.23133089012E+02  0.35943375937E+04  0.35942631509E+04 0.  0.
        3    1    3    3  502    0 -0.98362728386E+03 -0.25692014598E+03 -0.14935389689E+04  0.18067067434E+04  0.10100000352E+00 0. -1.
       -3    1    3    3    0  502  0.98362728386E+03  0.25692014598E+03  0.14704058799E+04  0.17876308503E+04  0.10100000352E+00 0.  1.
</event>
<event>
 5   0  0.2199902E-07  0.3614053E+04  0.7818609E-02  0.8087280E-01
        2   -1    0    0  501    0  0.00000000000E+00  0.00000000000E+00  0.16395419254E+04  0.16395419254E+04  0.25500000920E-02 0. -1.
       -2   -1    0    0    0  501  0.00000000000E+00  0.00000000000E+00 -0.19916205982E+04  0.19916205982E+04  0.25500000920E-02 0.  1.
    10030    2    1    2    0    0  0.00000000000E+00  0.00000000000E+00 -0.35207867284E+03  0.36311625237E+04  0.36140533866E+04 0.  0.
        1    1    3    3  502    0  0.18440397820E+03 -0.13753729777E+03 -0.19768479691E+04  0.19901882394E+04  0.50400001928E-02 0.  1.
       -1    1    3    3    0  502 -0.18440397820E+03  0.13753729777E+03  0.16247692962E+04  0.16409742842E+04  0.50400001928E-02 0. -1.
</event>
<event>
 5   0  0.7347303E-08  0.3390254E+04  0.7818609E-02  0.8140302E-01
       -1   -1    0    0    0  501  0.00000000000E+00  0.00000000000E+00  0.13077469651E+04  0.13077469651E+04  0.50400001928E-02 0.  1.
        1   -1    0    0  501    0  0.00000000000E+00  0.00000000000E+00 -0.21972570792E+04  0.21972570792E+04  0.50400001928E-02 0. -1.
    10030    2    1    2    0    0  0.00000000000E+00  0.00000000000E+00 -0.88951011406E+03  0.35050040443E+04  0.33902544311E+04 0.  0.
        2    1    3    3  502    0 -0.44411864469E+03 -0.12949707259E+04 -0.14782223267E+04  0.20147783497E+04  0.25500000920E-02 0. -1.
       -2    1    3    3    0  502  0.44411864469E+03  0.12949707259E+04  0.58871221259E+03  0.14902256946E+04  0.25500000920E-02 0.  1.
</event>
<event>
 5   0  0.7236375E-08  0.3624699E+04  0.7818609E-02  0.8084857E-01
       -1   -1    0    0    0  501  0.00000000000E+00  0.00000000000E+00  0.18555106025E+04  0.18555106025E+04  0.50400001928E-02 0.  1.
        1   -1    0    0  501    0  0.00000000000E+00  0.00000000000E+00 -0.17701924047E+04  0.17701924047E+04  0.50400001928E-02 0. -1.
    10030    2    1    2    0    0  0.00000000000E+00  0.00000000000E+00  0.85318197732E+02  0.36257030072E+04  0.36246990360E+04 0.  0.
        5    1    3    3  502    0  0.12050124009E+04 -0.63283014558E+03  0.12396775704E+04  0.18410191330E+04  0.46999998093E+01 0.  1.
       -5    1    3    3    0  502 -0.12050124009E+04  0.63283014558E+03 -0.11543593727E+04  0.17846838742E+04  0.46999998093E+01 0. -1.
</event>
<event>
 5   0  0.7236375E-08  0.3521834E+04  0.7818609E-02  0.8108635E-01
        1   -1    0    0  501    0  0.00000000000E+00  0.00000000000E+00  0.17055280663E+04  0.17055280663E+04  0.50400001928E-02 0. -1.
       -1   -1    0    0    0  501  0.00000000000E+00  0.00000000000E+00 -0.18181050781E+04  0.18181050782E+04  0.50400001928E-02 0.  1.
    10030    2    1    2    0    0  0.00000000000E+00  0.00000000000E+00 -0.11257701182E+03  0.35236331445E+04  0.35218343166E+04 0.  0.
        1    1    3    3  502    0 -0.22662624358E+03  0.76206195150E+02 -0.18017891170E+04  0.18175837974E+04  0.50400001928E-02 0.  1.
       -1    1    3    3    0  502  0.22662624358E+03 -0.76206195150E+02  0.16892121052E+04  0.17060493471E+04  0.50400001928E-02 0. -1.
</event>
<event>
 5   0  0.2342606E-07  0.3688749E+04  0.7818609E-02  0.8070460E-01
        2   -1    0    0  501    0  0.00000000000E+00  0.00000000000E+00  0.13441672571E+04  0.13441672571E+04  0.25500000920E-02 0.  1.
       -2   -1    0    0    0  501  0.00000000000E+00  0.00000000000E+00 -0.25307244530E+04  0.25307244530E+04  0.25500000920E-02 0. -1.
    10030    2    1    2    0    0  0.00000000000E+00  0.00000000000E+00 -0.11865571959E+04  0.38748917101E+04  0.36887488104E+04 0.  0.
        5    1    3    3  502    0  0.77091535812E+03 -0.16599093843E+04 -0.35354016185E+03  0.18640339025E+04  0.46999998093E+01 0.  1.
       -5    1    3    3    0  502 -0.77091535812E+03  0.16599093843E+04 -0.83301703407E+03  0.20108578076E+04  0.46999998093E+01 0. -1.
</event>
<event>
 5   0  0.2238968E-07  0.3604490E+04  0.7818609E-02  0.8089464E-01
        2   -1    0    0  501    0  0.00000000000E+00  0.00000000000E+00  0.21198661763E+04  0.21198661763E+04  0.25500000920E-02 0. -1.
       -2   -1    0    0    0  501  0.00000000000E+00  0.00000000000E+00 -0.15322136714E+04  0.15322136714E+04  0.25500000920E-02 0.  1.
    10030    2    1    2    0    0  0.00000000000E+00  0.00000000000E+00  0.58765250496E+03  0.36520798477E+04  0.36044904976E+04 0.  0.
        3    1    3    3  502    0  0.17603869873E+04  0.37360849183E+03  0.39280053877E+03  0.18419657770E+04  0.10100000352E+00 0. -1.
       -3    1    3    3    0  502 -0.17603869873E+04 -0.37360849183E+03  0.19485196618E+03  0.18101140707E+04  0.10100000352E+00 0.  1.
</event>
<event>
 5   0  0.2309391E-07  0.3610837E+04  0.7818609E-02  0.8088014E-01
        2   -1    0    0  501    0  0.00000000000E+00  0.00000000000E+00  0.19763630716E+04  0.19763630716E+04  0.25500000920E-02 0.  1.
       -2   -1    0    0    0  501  0.00000000000E+00  0.00000000000E+00 -0.16492595809E+04  0.16492595809E+04  0.25500000920E-02 0. -1.
    10030    2    1    2    0    0  0.00000000000E+00  0.00000000000E+00  0.32710349073E+03  0.36256226525E+04  0.36108368732E+04 0.  0.
        4    1    3    3  502    0 -0.26487500071E+03  0.17811166711E+04  0.29446490532E+03  0.18246223049E+04  0.12699999809E+01 0. -1.
       -4    1    3    3    0  502  0.26487500071E+03 -0.17811166711E+04  0.32638585413E+02  0.18010003477E+04  0.12699999809E+01 0.  1.
</event>
<event>
 5   0  0.2238968E-07  0.3601315E+04  0.7818609E-02  0.8090191E-01
       -2   -1    0    0    0  501  0.00000000000E+00  0.00000000000E+00  0.14472191457E+04  0.14472191457E+04  0.25500000920E-02 0.  1.
        2   -1    0    0  501    0  0.00000000000E+00  0.00000000000E+00 -0.22404120534E+04  0.22404120534E+04  0.25500000920E-02 0. -1.
    10030    2    1    2    0    0  0.00000000000E+00  0.00000000000E+00 -0.79319290765E+03  0.36876311991E+04  0.36013148810E+04 0.  0.
        3    1    3    3  502    0 -0.10445002248E+04  0.13911652251E+04  0.79351324031E+02  0.17414413703E+04  0.10100000352E+00 0. -1.
       -3    1    3    3    0  502  0.10445002248E+04 -0.13911652251E+04 -0.87254423169E+03  0.19461898288E+04  0.10100000352E+00 0.  1.
</event>
<event>
 5   0  0.7236375E-08  0.3617330E+04  0.7818609E-02  0.8086534E-01
        1   -1    0    0  501    0  0.00000000000E+00  0.00000000000E+00  0.17383158903E+04  0.17383158903E+04  0.50400001928E-02 0. -1.
       -1   -1    0    0    0  501  0.00000000000E+00  0.00000000000E+00 -0.18818606372E+04  0.18818606372E+04  0.50400001928E-02 0.  1.
    10030    2    1    2    0    0  0.00000000000E+00  0.00000000000E+00 -0.14354474691E+03  0.36201765275E+04  0.36173295393E+04 0.  0.
        5    1    3    3  502    0  0.51408457427E+03 -0.12547828990E+04  0.11260334623E+04  0.17625936915E+04  0.46999998093E+01 0. -1.
       -5    1    3    3    0  502 -0.51408457427E+03  0.12547828990E+04 -0.12695782092E+04  0.18575828360E+04  0.46999998093E+01 0.  1.
</event>
<event>
 5   0  0.7514289E-08  0.3604751E+04  0.7818609E-02  0.8089404E-01
        1   -1    0    0  501    0  0.00000000000E+00  0.00000000000E+00  0.28134767981E+04  0.28134767981E+04  0.50400001928E-02 0. -1.
       -1   -1    0    0    0  501  0.00000000000E+00  0.00000000000E+00 -0.11546414307E+04  0.11546414307E+04  0.50400001928E-02 0.  1.
    10030    2    1    2    0    0  0.00000000000E+00  0.00000000000E+00  0.16588353674E+04  0.39681182289E+04  0.36047506852E+04 0.  0.
        4    1    3    3  502    0 -0.82115981850E+03 -0.23835188191E+03 -0.91716420100E+03  0.12539166047E+04  0.12699999809E+01 0.  1.
       -4    1    3    3    0  502  0.82115981850E+03  0.23835188191E+03  0.25759995684E+04  0.27142016241E+04  0.12699999809E+01 0. -1.
</event>
<event>
 5   0  0.7236375E-08  0.3596149E+04  0.7818609E-02  0.8091374E-01
       -1   -1    0    0    0  501  0.00000000000E+00  0.00000000000E+00  0.23037100026E+04  0.23037100026E+04  0.50400001928E-02 0. -1.
        1   -1    0    0  501    0  0.00000000000E+00  0.00000000000E+00 -0.14034195071E+04  0.14034195071E+04  0.50400001928E-02 0.  1.
    10030    2    1    2    0    0  0.00000000000E+00  0.00000000000E+00  0.90029049553E+03  0.37071295097E+04  0.35961488047E+04 0.  0.
        5    1    3    3  502    0  0.17427191239E+04  0.14185324077E+03  0.88244019197E+03  0.19585492256E+04  0.46999998093E+01 0.  1.
       -5    1    3    3    0  502 -0.17427191239E+04 -0.14185324077E+03  0.17850303559E+02  0.17485802841E+04  0.46999998093E+01 0. -1.
</event>
<event>
 5   0  0.7514289E-08  0.3603071E+04  0.7818609E-02  0.8089789E-01
        1   -1    0    0  501    0  0.00000000000E+00  0.00000000000E+00  0.26270484849E+04  0.26270484849E+04  0.50400001928E-02 0.  1.
       -1   -1    0    0    0  501  0.00000000000E+00  0.00000000000E+00 -0.12354282930E+04  0.12354282930E+04  0.50400001928E-02 0. -1.
    10030    2    1    2    0    0  0.00000000000E+00  0.00000000000E+00  0.13916201919E+04  0.38624767778E+04  0.36030709264E+04 0.  0.
        4    1    3    3  502    0  0.72634012469E+03 -0.20740795272E+03 -0.10574652389E+04  0.12995469903E+04  0.12699999809E+01 0. -1.
       -4    1    3    3    0  502 -0.72634012469E+03  0.20740795272E+03  0.24490854308E+04  0.25629297875E+04  0.12699999809E+01 0.  1.
</event>
<event>
 5   0  0.2238968E-07  0.3609327E+04  0.7818609E-02  0.8088359E-01
        2   -1    0    0  501    0  0.00000000000E+00  0.00000000000E+00  0.15587700462E+04  0.15587700462E+04  0.25500000920E-02 0.  1.
       -2   -1    0    0    0  501  0.00000000000E+00  0.00000000000E+00 -0.20893463590E+04  0.20893463590E+04  0.25500000920E-02 0. -1.
    10030    2    1    2    0    0  0.00000000000E+00  0.00000000000E+00 -0.53057631285E+03  0.36481164052E+04  0.36093270954E+04 0.  0.
        3    1    3    3  502    0 -0.15297603689E+04 -0.19622009402E+03 -0.12124510412E+04  0.19618120830E+04  0.10100000352E+00 0. -1.
       -3    1    3    3    0  502  0.15297603689E+04  0.19622009402E+03  0.68187472840E+03  0.16863043221E+04  0.10100000352E+00 0.  1.
</event>
<event>
 5   0  0.7261233E-08  0.3591550E+04  0.7818609E-02  0.8092430E-01
        1   -1    0    0  501    0  0.00000000000E+00  0.00000000000E+00  0.17437842608E+04  0.17437842608E+04  0.50400001928E-02 0. -1.
       -1   -1    0    0    0  501  0.00000000000E+00  0.00000000000E+00 -0.18493162103E+04  0.18493162103E+04  0.50400001928E-02 0.  1.
    10030    2    1    2    0    0  0.00000000000E+00  0.00000000000E+00 -0.10553194953E+03  0.35931004711E+04  0.35915503620E+04 0.  0.
        3    1    3    3  502    0  0.17988684605E+03  0.14054742440E+04  0.10509288109E+04  0.17641339245E+04  0.10100000352E+00 0. -1.
       -3    1    3    3    0  502 -0.17988684605E+03 -0.14054742440E+04 -0.11564607605E+04  0.18289665466E+04  0.10100000352E+00 0.  1.
</event>
<event>
 5   0  0.2342606E-07  0.3594619E+04  0.7818609E-02  0.8091725E-01
       -2   -1    0    0    0  501  0.00000000000E+00  0.00000000000E+00  0.18331079658E+04  0.18331079658E+04  0.25500000920E-02 0. -1.
        2   -1    0    0  501    0  0.00000000000E+00  0.00000000000E+00 -0.17622100487E+04  0.17622100487E+04  0.25500000920E-02 0.  1.
    10030    2    1    2    0    0  0.00000000000E+00  0.00000000000E+00  0.70897917052E+02  0.35953180145E+04  0.35946189104E+04 0.  0.
        5    1    3    3  502    0 -0.10739382953E+04  0.60377691591E+03 -0.12733960691E+04  0.17718492219E+04  0.46999998093E+01 0.  1.
       -5    1    3    3    0  502  0.10739382953E+04 -0.60377691591E+03  0.13442939862E+04  0.18234687926E+04  0.46999998093E+01 0. -1.
</event>
<event>
 5   0  0.2238968E-07  0.3609352E+04  0.7818609E-02  0.8088353E-01
       -2   -1    0    0    0  501  0.00000000000E+00  0.00000000000E+00  0.21576009749E+04  0.21576009749E+04  0.25500000920E-02 0. -1.
        2   -1    0    0  501    0  0.00000000000E+00  0.00000000000E+00 -0.15094802998E+04  0.15094802998E+04  0.25500000920E-02 0.  1.
    10030    2    1    2    0    0  0.00000000000E+00  0.00000000000E+00  0.64812067506E+03  0.36670812747E+04  0.36093523887E+04 0.  0.
        3    1    3    3  502    0 -0.10979844182E+04  0.16610833101E+03  0.17693793471E+04  0.20889866070E+04  0.10100000352E+00 0. -1.
       -3    1    3    3    0  502  0.10979844182E+04 -0.16610833101E+03 -0.11212586720E+04  0.15780946676E+04  0.10100000352E+00 0.  1.
</event>
<event>
 5   0  0.7261233E-08  0.3588523E+04  0.7818609E-02  0.8093126E-01
       -1   -1    0    0    0  501  0.00000000000E+00  0.00000000000E+00  0.15293035890E+04  0.15293035890E+04  0.50400001928E-02 0. -1.
        1   -1    0    0  501    0  0.00000000000E+00  0.00000000000E+00 -0.21051242515E+04  0.21051242515E+04  0.50400001928E-02 0.  1.
    10030    2    1    2    0    0  0.00000000000E+00  0.00000000000E+00 -0.57582066250E+03  0.36344278405E+04  0.35885228566E+04 0.  0.
        3    1    3    3  502    0 -0.15193513952E+04  0.94370288584E+03 -0.43246052006E+03  0.18401157329E+04  0.10100000352E+00 0. -1.
       -3    1    3    3    0  502  0.15193513952E+04 -0.94370288584E+03 -0.14336014244E+03  0.17943121076E+04  0.10100000352E+00 0.  1.
</event>
<event>
 5   0  0.2309391E-07  0.3602109E+04  0.7818609E-02  0.8090009E-01
       -2   -1    0    0    0  501  0.00000000000E+00  0.00000000000E+00  0.15051277017E+04  0.15051277017E+04  0.25500000920E-02 0.  1.
        2   -1    0    0  501    0  0.00000000000E+00  0.00000000000E+00 -0.21551643349E+04  0.21551643349E+04  0.25500000920E-02 0. -1.
    10030    2    1    2    0    0  0.00000000000E+00  0.00000000000E+00 -0.65003663320E+03  0.36602920365E+04  0.36021091277E+04 0.  0.
        4    1    3    3  502    0 -0.35497170488E+03 -0.17596888754E+04 -0.17676421676E+03  0.18038173552E+04  0.12699999809E+01 0. -1.
       -4    1    3    3    0  502  0.35497170488E+03  0.17596888754E+04 -0.47327241645E+03  0.18564746814E+04  0.12699999809E+01 0.  1.
</event>
<event>
 5   0  0.2342606E-07  0.3587805E+04  0.7818609E-02  0.8093291E-01
        2   -1    0    0  501    0  0.00000000000E+00  0.00000000000E+00  0.22249857493E+04  0.22249857493E+04  0.25500000920E-02 0.  1.
       -2   -1    0    0    0  501  0.00000000000E+00  0.00000000000E+00 -0.14463399457E+04  0.14463399457E+04  0.25500000920E-02 0. -1.
    10030    2    1    2    0    0  0.00000000000E+00  0.00000000000E+00  0.77864580362E+03  0.36713256949E+04  0.35878047704E+04 0.  0.
        5    1    3    3  502    0 -0.54253036967E+03  0.15449196998E+04  0.11391481542E+04  0.19946921286E+04  0.46999998093E+01 0.  1.
       -5    1    3    3    0  502  0.54253036967E+03 -0.15449196998E+04 -0.36050235058E+03  0.16766335663E+04  0.46999998093E+01 0. -1.
</event>
<event>
 5   0  0.7347303E-08  0.3600407E+04  0.7818609E-02  0.8090399E-01
        1   -1    0    0  501    0  0.00000000000E+00  0.00000000000E+00  0.24765686947E+04  0.24765686947E+04  0.50400001928E-02 0.  1.
       -1   -1    0    0    0  501  0.00000000000E+00  0.00000000000E+00 -0.13085571800E+04  0.13085571800E+04  0.50400001928E-02 0. -1.
    10030    2    1    2    0    0  0.00000000000E+00  0.00000000000E+00  0.11680115147E+04  0.37851258747E+04  0.36004065033E+04 0.  0.
        2    1    3    3  502    0  0.38085992372E+03  0.12877089479E+04 -0.67645743366E+03  0.15036100809E+04  0.25500000920E-02 0. -1.
       -2    1    3    3    0  502 -0.38085992372E+03 -0.12877089479E+04  0.18444689483E+04  0.22815157938E+04  0.25500000920E-02 0.  1.
</event>
<event>
 5   0  0.7514289E-08  0.3600197E+04  0.7818609E-02  0.8090447E-01
       -1   -1    0    0    0  501  0.00000000000E+00  0.00000000000E+00  0.27854103422E+04  0.27854103422E+04  0.50400001928E-02 0.  1.
        1   -1    0    0  501    0  0.00000000000E+00  0.00000000000E+00 -0.11633311528E+04  0.11633311528E+04  0.50400001928E-02 0. -1.
    10030    2    1    2    0    0  0.00000000000E+00  0.00000000000E+00  0.16220791893E+04  0.39487414950E+04  0.36001970082E+04 0.  0.
        4    1    3    3  502    0 -0.65681692325E+03 -0.12709873265E+04 -0.38721790012E+03  0.14821459341E+04  0.12699999809E+01 0. -1.
       -4    1    3    3    0  502  0.65681692325E+03  0.12709873265E+04  0.20092970895E+04  0.24665955610E+04  0.12699999809E+01 0.  1.
</event>
<event>
 5   0  0.7261233E-08  0.3583537E+04  0.7818609E-02  0.8094273E-01
       -1   -1    0    0    0  501  0.00000000000E+00  0.00000000000E+00  0.12873044839E+04  0.12873044839E+04  0.50400001928E-02 0. -1.
        1   -1    0    0  501    0  0.00000000000E+00  0.00000000000E+00 -0.24939194906E+04  0.24939194906E+04  0.50400001928E-02 0.  1.
    10030    2    1    2    0    0  0.00000000000E+00  0.00000000000E+00 -0.12066150067E+04  0.37812239745E+04  0.35835366568E+04 0.  0.
        3    1    3    3  502    0  0.10369285402E+04 -0.12218278702E+04 -0.14489879269E+04  0.21604745230E+04  0.10100000352E+00 0. -1.
       -3    1    3    3    0  502 -0.10369285402E+04  0.12218278702E+04  0.24237292018E+03  0.16207494515E+04  0.10100000352E+00 0.  1.
</event>
<event>
 5   0  0.7236375E-08  0.3590600E+04  0.7818609E-02  0.8092648E-01
        1   -1    0    0  501    0  0.00000000000E+00  0.00000000000E+00  0.20346547489E+04  0.20346547489E+04  0.50400001928E-02 0.  1.
       -1   -1    0    0    0  501  0.00000000000E+00  0.00000000000E+00 -0.15841030059E+04  0.15841030059E+04  0.50400001928E-02 0. -1.
    10030    2    1    2    0    0  0.00000000000E+00  0.00000000000E+00  0.45055174299E+03  0.36187577548E+04  0.35906003418E+04 0.  0.
        5    1    3    3  502    0 -0.86830400255E+03  0.88507530027E+03  0.15338299242E+04  0.19722997882E+04  0.46999998093E+01 0.  1.
       -5    1    3    3    0  502  0.86830400255E+03 -0.88507530027E+03 -0.10832781812E+04  0.16464579666E+04  0.46999998093E+01 0. -1.
</event>
<event>
 5   0  0.2199902E-07  0.3603758E+04  0.7818609E-02  0.8089632E-01
       -2   -1    0    0    0  501  0.00000000000E+00  0.00000000000E+00  0.18388495268E+04  0.18388495268E+04  0.25500000920E-02 0.  1.
        2   -1    0    0  501    0  0.00000000000E+00  0.00000000000E+00 -0.17656513924E+04  0.17656513924E+04  0.25500000920E-02 0. -1.
    10030    2    1    2    0    0  0.00000000000E+00  0.00000000000E+00  0.73198134422E+02  0.36045009191E+04  0.36037576097E+04 0.  0.
        1    1    3    3  502    0  0.10612802100E+04  0.68398678560E+03 -0.12492062934E+04  0.17761390628E+04  0.50400001928E-02 0. -1.
       -1    1    3    3    0  502 -0.10612802100E+04 -0.68398678560E+03  0.13224044278E+04  0.18283618563E+04  0.50400001928E-02 0.  1.
</event>
<event>
 5   0  0.7236375E-08  0.3596608E+04  0.7818609E-02  0.8091269E-01
       -1   -1    0    0    0  501  0.00000000000E+00  0.00000000000E+00  0.24311955661E+04  0.24311955661E+04  0.50400001928E-02 0.  1.
        1   -1    0    0  501    0  0.00000000000E+00  0.00000000000E+00 -0.13301675986E+04  0.13301675986E+04  0.50400001928E-02 0. -1.
    10030    2    1    2    0    0  0.00000000000E+00  0.00000000000E+00  0.11010279675E+04  0.37613631647E+04  0.35966081621E+04 0.  0.
        1    1    3    3  502    0  0.12019661675E+04  0.35914170719E+03 -0.79699390888E+03  0.14862384480E+04  0.50400001928E-02 0. -1.
       -1    1    3    3    0  502 -0.12019661675E+04 -0.35914170719E+03  0.18980218764E+04  0.22751247167E+04  0.50400001928E-02 0.  1.
</event>
<event>
 5   0  0.2199902E-07  0.3610468E+04  0.7818609E-02  0.8088098E-01
       -2   -1    0    0    0  501  0.00000000000E+00  0.00000000000E+00  0.16176710728E+04  0.16176710728E+04  0.25500000920E-02 0.  1.
        2   -1    0    0  501    0  0.00000000000E+00  0.00000000000E+00 -0.20145439423E+04  0.20145439423E+04  0.25500000920E-02 0. -1.
    10030    2    1    2    0    0  0.00000000000E+00  0.00000000000E+00 -0.39687286949E+03  0.36322150151E+04  0.36104678147E+04 0.  0.
        1    1    3    3  502    0 -0.18928393442E+03 -0.46464298028E+03  0.15461217940E+04  0.16254888830E+04  0.50400001928E-02 0.  1.
       -1    1    3    3    0  502  0.18928393442E+03  0.46464298028E+03 -0.19429946634E+04  0.20067261321E+04  0.50400001928E-02 0. -1.
</event>
<event>
 5   0  0.7261233E-08  0.3662777E+04  0.7818609E-02  0.8076261E-01
       -1   -1    0    0    0  501  0.00000000000E+00  0.00000000000E+00  0.21500411543E+04  0.21500411543E+04  0.50400001928E-02 0.  1.
        1   -1    0    0  501    0  0.00000000000E+00  0.00000000000E+00 -0.15599622073E+04  0.15599622073E+04  0.50400001928E-02 0. -1.
    10030    2    1    2    0    0  0.00000000000E+00  0.00000000000E+00  0.59007894696E+03  0.37100033616E+04  0.36627765124E+04 0.  0.
        3    1    3    3  502    0 -0.14092609501E+04 -0.59318879121E+03  0.13160512080E+04  0.20173943987E+04  0.10100000352E+00 0.  1.
       -3    1    3    3    0  502  0.14092609501E+04  0.59318879121E+03 -0.72597226099E+03  0.16926089630E+04  0.10100000352E+00 0. -1.
</event>
<event>
 5   0  0.7347303E-08  0.3597357E+04  0.7818609E-02  0.8091097E-01
        1   -1    0    0  501    0  0.00000000000E+00  0.00000000000E+00  0.16839924758E+04  0.16839924759E+04  0.50400001928E-02 0. -1.
       -1   -1    0    0    0  501  0.00000000000E+00  0.00000000000E+00 -0.19211755788E+04  0.19211755789E+04  0.50400001928E-02 0.  1.
    10030    2    1    2    0    0  0.00000000000E+00  0.00000000000E+00 -0.23718310300E+03  0.36051680547E+04  0.35973574855E+04 0.  0.
        2    1    3    3  502    0 -0.51358906434E+03 -0.56510199511E+03 -0.17506639534E+04  0.19099576617E+04  0.25500000920E-02 0.  1.
       -2    1    3    3    0  502  0.51358906434E+03  0.56510199511E+03  0.15134808504E+04  0.16952103930E+04  0.25500000920E-02 0. -1.
</event>
<event>
 5   0  0.7236375E-08  0.3603406E+04  0.7818609E-02  0.8089712E-01
       -1   -1    0    0    0  501  0.00000000000E+00  0.00000000000E+00  0.20157115343E+04  0.20157115343E+04  0.50400001928E-02 0. -1.
        1   -1    0    0  501    0  0.00000000000E+00  0.00000000000E+00 -0.16104157091E+04  0.16104157091E+04  0.50400001928E-02 0.  1.
    10030    2    1    2    0    0  0.00000000000E+00  0.00000000000E+00  0.40529582522E+03  0.36261272435E+04  0.36034059000E+04 0.  0.
        5    1    3    3  502    0  0.15702507218E+04 -0.34662553846E+03  0.10203445800E+04  0.19044583863E+04  0.46999998093E+01 0. -1.
       -5    1    3    3    0  502 -0.15702507218E+04  0.34662553846E+03 -0.61504875475E+03  0.17216688572E+04  0.46999998093E+01 0.  1.
</event>
<event>
 5   0  0.2342606E-07  0.3384907E+04  0.7818609E-02  0.8141621E-01
        2   -1    0    0  501    0  0.00000000000E+00  0.00000000000E+00  0.27795933731E+04  0.27795933731E+04  0.25500000920E-02 0.  1.
       -2   -1    0    0    0  501  0.00000000000E+00  0.00000000000E+00 -0.10305099910E+04  0.10305099910E+04  0.25500000920E-02 0. -1.
    10030    2    1    2    0    0  0.00000000000E+00  0.00000000000E+00  0.17490833821E+04  0.38101033642E+04  0.33849069364E+04 0.  0.
        5    1    3    3  502    0  0.10680844370E+04 -0.10152692944E+04 -0.62360244162E+02  0.14749532179E+04  0.46999998093E+01 0. -1.
       -5    1    3    3    0  502 -0.10680844370E+04  0.10152692944E+04  0.18114436262E+04  0.23351501463E+04  0.46999998093E+01 0.  1.
</event>
<event>
 5   0  0.2342606E-07  0.3602846E+04  0.7818609E-02  0.8089840E-01
       -2   -1    0    0    0  501  0.00000000000E+00  0.00000000000E+00  0.23305775602E+04  0.23305775602E+04  0.25500000920E-02 0. -1.
        2   -1    0    0  501    0  0.00000000000E+00  0.00000000000E+00 -0.13924119797E+04  0.13924119797E+04  0.25500000920E-02 0.  1.
    10030    2    1    2    0    0  0.00000000000E+00  0.00000000000E+00  0.93816558051E+03  0.37229895399E+04  0.36028456056E+04 0.  0.
        5    1    3    3  502    0  0.11779144120E+04  0.15683686236E+03 -0.92995674324E+03  0.15089472481E+04  0.46999998093E+01 0.  1.
       -5    1    3    3    0  502 -0.11779144120E+04 -0.15683686236E+03  0.18681223238E+04  0.22140422918E+04  0.46999998093E+01 0. -1.
</event>
<event>
 5   0  0.2342606E-07  0.3605279E+04  0.7818609E-02  0.8089283E-01
        2   -1    0    0  501    0  0.00000000000E+00  0.00000000000E+00  0.25148443022E+04  0.25148443022E+04  0.25500000920E-02 0.  1.
       -2   -1    0    0    0  501  0.00000000000E+00  0.00000000000E+00 -0.12921315687E+04  0.12921315687E+04  0.25500000920E-02 0. -1.
    10030    2    1    2    0    0  0.00000000000E+00  0.00000000000E+00  0.12227127336E+04  0.38069758709E+04  0.36052793030E+04 0.  0.
        5    1    3    3  502    0  0.13820875635E+04 -0.65464395323E+03  0.16190856315E+04  0.22271473033E+04  0.46999998093E+01 0.  1.
       -5    1    3    3    0  502 -0.13820875635E+04  0.65464395323E+03 -0.39637289792E+03  0.15798285676E+04  0.46999998093E+01 0. -1.
</event>
<event>
 5   0  0.7514289E-08  0.3604802E+04  0.7818609E-02  0.8089393E-01
       -1   -1    0    0    0  501  0.00000000000E+00  0.00000000000E+00  0.21830004287E+04  0.21830004287E+04  0.50400001928E-02 0.  1.
        1   -1    0    0  501    0  0.00000000000E+00  0.00000000000E+00 -0.14881578241E+04  0.14881578241E+04  0.50400001928E-02 0. -1.
    10030    2    1    2    0    0  0.00000000000E+00  0.00000000000E+00  0.69484260456E+03  0.36711582528E+04  0.36048018908E+04 0.  0.
        4    1    3    3  502    0 -0.11954846029E+04 -0.13324294803E+04  0.56127674857E+03  0.18760556913E+04  0.12699999809E+01 0. -1.
       -4    1    3    3    0  502  0.11954846029E+04  0.13324294803E+04  0.13356585600E+03  0.17951025615E+04  0.12699999809E+01 0.  1.
</event>
<event>
 5   0  0.2198900E-07  0.3597774E+04  0.7818609E-02  0.8091002E-01
        2   -1    0    0  501    0  0.00000000000E+00  0.00000000000E+00  0.24349483659E+04  0.24349483659E+04  0.25500000920E-02 0. -1.
       -2   -1    0    0    0  501  0.00000000000E+00  0.00000000000E+00 -0.13289784621E+04  0.13289784621E+04  0.25500000920E-02 0.  1.
    10030    2    1    2    0    0  0.00000000000E+00  0.00000000000E+00  0.11059699038E+04  0.37639268280E+04  0.35977737197E+04 0.  0.
        2    1    3    3  502    0 -0.25723195517E+03 -0.36299680950E+03 -0.12705136168E+04  0.13461574250E+04  0.25500000920E-02 0.  1.
       -2    1    3    3    0  502  0.25723195517E+03  0.36299680950E+03  0.23764835206E+04  0.24177694030E+04  0.25500000920E-02 0. -1.
</event>
<event>
 5   0  0.2238968E-07  0.3610940E+04  0.7818609E-02  0.8087990E-01
        2   -1    0    0  501    0  0.00000000000E+00  0.00000000000E+00  0.24027494988E+04  0.24027494988E+04  0.25500000920E-02 0.  1.
       -2   -1    0    0    0  501  0.00000000000E+00  0.00000000000E+00 -0.13566630320E+04  0.13566630320E+04  0.25500000920E-02 0. -1.
    10030    2    1    2    0    0  0.00000000000E+00  0.00000000000E+00  0.10460864669E+04  0.37594125308E+04  0.36109397226E+04 0.  0.
        3    1    3    3  502    0  0.11789885473E+04 -0.70652366337E+02  0.19447369851E+04  0.22753038705E+04  0.10100000352E+00 0.  1.
       -3    1    3    3    0  502 -0.11789885473E+04  0.70652366337E+02 -0.89865051823E+03  0.14841086603E+04  0.10100000352E+00 0. -1.
</event>
<event>
 5   0  0.7261233E-08  0.3529170E+04  0.7818609E-02  0.8106912E-01
        1   -1    0    0  501    0  0.00000000000E+00  0.00000000000E+00  0.18917810282E+04  0.18917810282E+04  0.50400001928E-02 0.  1.
       -1   -1    0    0    0  501  0.00000000000E+00  0.00000000000E+00 -0.16459414231E+04  0.16459414231E+04  0.50400001928E-02 0. -1.
    10030    2    1    2    0    0  0.00000000000E+00  0.00000000000E+00  0.24583960508E+03  0.35377224513E+04  0.35291703035E+04 0.  0.
        3    1    3    3  502    0 -0.93104243960E+03  0.14321638293E+04  0.56651615812E+03  0.17996871467E+04  0.10100000352E+00 0.  1.
       -3    1    3    3    0  502  0.93104243960E+03 -0.14321638293E+04 -0.32067655304E+03  0.17380353046E+04  0.10100000352E+00 0. -1.
</event>
<event>
 5   0  0.2238968E-07  0.3601316E+04  0.7818609E-02  0.8090190E-01
       -2   -1    0    0    0  501  0.00000000000E+00  0.00000000000E+00  0.20400045051E+04  0.20400045051E+04  0.25500000920E-02 0. -1.
        2   -1    0    0  501    0  0.00000000000E+00  0.00000000000E+00 -0.15893933053E+04  0.15893933053E+04  0.25500000920E-02 0.  1.
    10030    2    1    2    0    0  0.00000000000E+00  0.00000000000E+00  0.45061119979E+03  0.36293978104E+04  0.36013161501E+04 0.  0.
        3    1    3    3  502    0 -0.32462818215E+03 -0.17585234823E+04  0.43809460975E+03  0.18411179191E+04  0.10100000352E+00 0.  1.
       -3    1    3    3    0  502  0.32462818215E+03  0.17585234823E+04  0.12516590040E+02  0.17882798913E+04  0.10100000352E+00 0. -1.
</event>
<event>
 5   0  0.7514289E-08  0.3607049E+04  0.7818609E-02  0.8088879E-01
       -1   -1    0    0    0  501  0.00000000000E+00  0.00000000000E+00  0.20097034532E+04  0.20097034532E+04  0.50400001928E-02 0. -1.
        1   -1    0    0  501    0  0.00000000000E+00  0.00000000000E+00 -0.16184976759E+04  0.16184976759E+04  0.50400001928E-02 0.  1.
    10030    2    1    2    0    0  0.00000000000E+00  0.00000000000E+00  0.39120577726E+03  0.36282011291E+04  0.36070488593E+04 0.  0.
        4    1    3    3  502    0  0.10419409330E+04  0.10559322205E+04 -0.83611417645E+03  0.17028570965E+04  0.12699999809E+01 0.  1.
       -4    1    3    3    0  502 -0.10419409330E+04 -0.10559322205E+04  0.12273199537E+04  0.19253440326E+04  0.12699999809E+01 0. -1.
</event>
<event>
 5   0  0.2342606E-07  0.3615912E+04  0.7818609E-02  0.8086857E-01
        2   -1    0    0  501    0  0.00000000000E+00  0.00000000000E+00  0.15381368195E+04  0.15381368195E+04  0.25500000920E-02 0. -1.
       -2   -1    0    0    0  501  0.00000000000E+00  0.00000000000E+00 -0.21251062792E+04  0.21251062792E+04  0.25500000920E-02 0.  1.
    10030    2    1    2    0    0  0.00000000000E+00  0.00000000000E+00 -0.58696945966E+03  0.36632430987E+04  0.36159116214E+04 0.  0.
        5    1    3    3  502    0 -0.17130206984E+03 -0.17158187470E+04 -0.84401653658E+03  0.19198344657E+04  0.46999998093E+01 0.  1.
       -5    1    3    3    0  502  0.17130206984E+03  0.17158187470E+04  0.25704707691E+03  0.17434086330E+04  0.46999998093E+01 0. -1.
</event>
<event>
 5   0  0.7261233E-08  0.3621852E+04  0.7818609E-02  0.8085504E-01
        1   -1    0    0  501    0  0.00000000000E+00  0.00000000000E+00  0.12881397511E+04  0.12881397511E+04  0.50400001928E-02 0.  1.
       -1   -1    0    0    0  501  0.00000000000E+00  0.00000000000E+00 -0.25458834837E+04  0.25458834837E+04  0.50400001928E-02 0. -1.
    10030    2    1    2    0    0  0.00000000000E+00  0.00000000000E+00 -0.12577437326E+04  0.38340232348E+04  0.36218524084E+04 0.  0.
        3    1    3    3  502    0  0.16137110998E+04  0.72568934741E+02 -0.14954376947E+04  0.22012868220E+04  0.10100000352E+00 0. -1.
       -3    1    3    3    0  502 -0.16137110998E+04 -0.72568934741E+02  0.23769396208E+03  0.16327364128E+04  0.10100000352E+00 0.  1.
</event>
<event>
 5   0  0.2198900E-07  0.3600793E+04  0.7818609E-02  0.8090310E-01
        2   -1    0    0  501    0  0.00000000000E+00  0.00000000000E+00  0.24680275757E+04  0.24680275757E+04  0.25500000920E-02 0. -1.
       -2   -1    0    0    0  501  0.00000000000E+00  0.00000000000E+00 -0.13133673616E+04  0.13133673616E+04  0.25500000920E-02 0.  1.
    10030    2    1    2    0    0  0.00000000000E+00  0.00000000000E+00  0.11546602141E+04  0.37813949374E+04  0.36007926158E+04 0.  0.
        2    1    3    3  502    0 -0.11187034356E+04 -0.95434323294E+03 -0.51359903556E+03  0.15575790036E+04  0.25500000920E-02 0.  1.
       -2    1    3    3    0  502  0.11187034356E+04  0.95434323294E+03  0.16682592497E+04  0.22238159338E+04  0.25500000920E-02 0. -1.
</event>
<event>
 5   0  0.7236375E-08  0.3600082E+04  0.7818609E-02  0.8090473E-01
       -1   -1    0    0    0  501  0.00000000000E+00  0.00000000000E+00  0.22849324947E+04  0.22849324947E+04  0.50400001928E-02 0.  1.
        1   -1    0    0  501    0  0.00000000000E+00  0.00000000000E+00 -0.14180496566E+04  0.14180496566E+04  0.50400001928E-02 0. -1.
    10030    2    1    2    0    0  0.00000000000E+00  0.00000000000E+00  0.86688283813E+03  0.37029821513E+04  0.36000820766E+04 0.  0.
        5    1    3    3  502    0  0.43484116410E+03 -0.10373000552E+04  0.18789743131E+04  0.21898960711E+04  0.46999998093E+01 0.  1.
       -5    1    3    3    0  502 -0.43484116410E+03  0.10373000552E+04 -0.10120914750E+04  0.15130860803E+04  0.46999998093E+01 0. -1.
</event>
<event>
 5   0  0.7347303E-08  0.3599914E+04  0.7818609E-02  0.8090511E-01
       -1   -1    0    0    0  501  0.00000000000E+00  0.00000000000E+00  0.14110223961E+04  0.14110223961E+04  0.50400001928E-02 0. -1.
        1   -1    0    0  501    0  0.00000000000E+00  0.00000000000E+00 -0.22960977536E+04  0.22960977536E+04  0.50400001928E-02 0.  1.
    10030    2    1    2    0    0  0.00000000000E+00  0.00000000000E+00 -0.88507535752E+03  0.37071201498E+04  0.35999140846E+04 0.  0.
        2    1    3    3  502    0  0.50417633412E+03 -0.15437373025E+04  0.35680441019E+03  0.16627170602E+04  0.25500000920E-02 0. -1.
       -2    1    3    3    0  502 -0.50417633412E+03  0.15437373025E+04 -0.12418797677E+04  0.20444030896E+04  0.25500000920E-02 0.  1.
</event>
<event>
 5   0  0.7236375E-08  0.3773412E+04  0.7818609E-02  0.8051885E-01
       -1   -1    0    0    0  501  0.00000000000E+00  0.00000000000E+00  0.12942454729E+04  0.12942454729E+04  0.50400001928E-02 0.  1.
        1   -1    0    0  501    0  0.00000000000E+00  0.00000000000E+00 -0.27503742602E+04  0.27503742602E+04  0.50400001928E-02 0. -1.
    10030    2    1    2    0    0  0.00000000000E+00  0.00000000000E+00 -0.14561287873E+04  0.40446197332E+04  0.37734119495E+04 0.  0.
        5    1    3    3  502    0  0.66430100770E+03  0.34187097120E+03  0.11289282030E+04  0.13537623748E+04  0.46999998093E+01 0.  1.
       -5    1    3    3    0  502 -0.66430100770E+03 -0.34187097120E+03 -0.25850569903E+04  0.26908573584E+04  0.46999998093E+01 0. -1.
</event>
<event>
 5   0  0.2238968E-07  0.3604547E+04  0.7818609E-02  0.8089451E-01
       -2   -1    0    0    0  501  0.00000000000E+00  0.00000000000E+00  0.17334211756E+04  0.17334211756E+04  0.25500000920E-02 0.  1.
        2   -1    0    0  501    0  0.00000000000E+00  0.00000000000E+00 -0.18738609911E+04  0.18738609911E+04  0.25500000920E-02 0. -1.
    10030    2    1    2    0    0  0.00000000000E+00  0.00000000000E+00 -0.14043981552E+03  0.36072821668E+04  0.36045473071E+04 0.  0.
        3    1    3    3  502    0 -0.73759016172E+03 -0.13844141908E+04  0.81789265953E+03  0.17690648126E+04  0.10100000352E+00 0.  1.
       -3    1    3    3    0  502  0.73759016172E+03  0.13844141908E+04 -0.95833247506E+03  0.18382173542E+04  0.10100000352E+00 0. -1.
</event>
<event>
 5   0  0.7236375E-08  0.3613768E+04  0.7818609E-02  0.8087345E-01
       -1   -1    0    0    0  501  0.00000000000E+00  0.00000000000E+00  0.14390948840E+04  0.14390948840E+04  0.50400001928E-02 0.  1.
        1   -1    0    0  501    0  0.00000000000E+00  0.00000000000E+00 -0.22686686462E+04  0.22686686462E+04  0.50400001928E-02 0. -1.
    10030    2    1    2    0    0  0.00000000000E+00  0.00000000000E+00 -0.82957376218E+03  0.37077635302E+04  0.36137678078E+04 0.  0.
        5    1    3    3  502    0 -0.15517572678E+04  0.90222568524E+03 -0.62716248619E+03  0.19013986114E+04  0.46999998093E+01 0. -1.
       -5    1    3    3    0  502  0.15517572678E+04 -0.90222568524E+03 -0.20241127599E+03  0.18063649188E+04  0.46999998093E+01 0.  1.
</event>
<event>
 5   0  0.2199902E-07  0.3642903E+04  0.7818609E-02  0.8080734E-01
        2   -1    0    0  501    0  0.00000000000E+00  0.00000000000E+00  0.14532070457E+04  0.14532070457E+04  0.25500000920E-02 0. -1.
       -2   -1    0    0    0  501  0.00000000000E+00  0.00000000000E+00 -0.22830094774E+04  0.22830094774E+04  0.25500000920E-02 0.  1.
    10030    2    1    2    0    0  0.00000000000E+00  0.00000000000E+00 -0.82980243178E+03  0.37362165231E+04  0.36429029402E+04 0.  0.
        1    1    3    3  502    0  0.58642783701E+03 -0.12658560973E+04 -0.16159645412E+04  0.21348608071E+04  0.50400001928E-02 0.  1.
       -1    1    3    3    0  502 -0.58642783701E+03  0.12658560973E+04  0.78616210943E+03  0.16013557161E+04  0.50400001928E-02 0. -1.
</event>
<event>
 5   0  0.2342606E-07  0.3612329E+04  0.7818609E-02  0.8087673E-01
       -2   -1    0    0    0  501  0.00000000000E+00  0.00000000000E+00  0.25398624229E+04  0.25398624229E+04  0.25500000920E-02 0.  1.
        2   -1    0    0  501    0  0.00000000000E+00  0.00000000000E+00 -0.12844124065E+04  0.12844124065E+04  0.25500000920E-02 0. -1.
    10030    2    1    2    0    0  0.00000000000E+00  0.00000000000E+00  0.12554500164E+04  0.38242748294E+04  0.36123293354E+04 0.  0.
        5    1    3    3  502    0 -0.78719692938E+03 -0.40003162421E+03  0.22957662010E+04  0.24597294253E+04  0.46999998093E+01 0.  1.
       -5    1    3    3    0  502  0.78719692938E+03  0.40003162421E+03 -0.10403161846E+04  0.13645454042E+04  0.46999998093E+01 0. -1.
</event>
<event>
 5   0  0.2342606E-07  0.3591581E+04  0.7818609E-02  0.8092423E-01
        2   -1    0    0  501    0  0.00000000000E+00  0.00000000000E+00  0.26753247122E+04  0.26753247122E+04  0.25500000920E-02 0.  1.
       -2   -1    0    0    0  501  0.00000000000E+00  0.00000000000E+00 -0.12054098729E+04  0.12054098729E+04  0.25500000920E-02 0. -1.
    10030    2    1    2    0    0  0.00000000000E+00  0.00000000000E+00  0.14699148393E+04  0.38807345851E+04  0.35915806110E+04 0.  0.
        5    1    3    3  502    0  0.96322926568E+03 -0.39476387670E+03 -0.84613074468E+03  0.13414948616E+04  0.46999998093E+01 0. -1.
       -5    1    3    3    0  502 -0.96322926568E+03  0.39476387670E+03  0.23160455840E+04  0.25392397235E+04  0.46999998093E+01 0.  1.
</event>
<event>
 5   0  0.7236375E-08  0.3563103E+04  0.7818609E-02  0.8098996E-01
        1   -1    0    0  501    0  0.00000000000E+00  0.00000000000E+00  0.14459083957E+04  0.14459083957E+04  0.50400001928E-02 0. -1.
       -1   -1    0    0    0  501  0.00000000000E+00  0.00000000000E+00 -0.21951081216E+04  0.21951081216E+04  0.50400001928E-02 0.  1.
    10030    2    1    2    0    0  0.00000000000E+00  0.00000000000E+00 -0.74919972587E+03  0.36410165173E+04  0.35631027280E+04 0.  0.
        5    1    3    3  502    0 -0.16229517081E+04  0.66899038179E+03 -0.64008157363E+02  0.17565988478E+04  0.46999998093E+01 0. -1.
       -5    1    3    3    0  502  0.16229517081E+04 -0.66899038179E+03 -0.68519156851E+03  0.18844176695E+04  0.46999998093E+01 0.  1.
</event>
<event>
 5   0  0.7236375E-08  0.3591193E+04  0.7818609E-02  0.8092512E-01
       -1   -1    0    0    0  501  0.00000000000E+00  0.00000000000E+00  0.12324414044E+04  0.12324414044E+04  0.50400001928E-02 0.  1.
        1   -1    0    0  501    0  0.00000000000E+00  0.00000000000E+00 -0.26160807894E+04  0.26160807894E+04  0.50400001928E-02 0. -1.
    10030    2    1    2    0    0  0.00000000000E+00  0.00000000000E+00 -0.13836393850E+04  0.38485221938E+04  0.35911927167E+04 0.  0.
        5    1    3    3  502    0  0.22083474042E+03  0.87829569351E+03  0.96975575499E+03  0.13268834245E+04  0.46999998093E+01 0.  1.
       -5    1    3    3    0  502 -0.22083474042E+03 -0.87829569351E+03 -0.23533951400E+04  0.25216387693E+04  0.46999998093E+01 0. -1.
</event>
<event>
 5   0  0.2342606E-07  0.3607359E+04  0.7818609E-02  0.8088808E-01
       -2   -1    0    0    0  501  0.00000000000E+00  0.00000000000E+00  0.13076761109E+04  0.13076761109E+04  0.25500000920E-02 0.  1.
        2   -1    0    0  501    0  0.00000000000E+00  0.00000000000E+00 -0.24878177482E+04  0.24878177482E+04  0.25500000920E-02 0. -1.
    10030    2    1    2    0    0  0.00000000000E+00  0.00000000000E+00 -0.11801416373E+04  0.37954938591E+04  0.36073590548E+04 0.  0.
        5    1    3    3  502    0  0.15391396593E+04 -0.83547362877E+03 -0.10441704639E+04  0.20389411769E+04  0.46999998093E+01 0. -1.
       -5    1    3    3    0  502 -0.15391396593E+04  0.83547362877E+03 -0.13597117340E+03  0.17565526822E+04  0.46999998093E+01 0.  1.
</event>
<event>
 5   0  0.7514289E-08  0.3612669E+04  0.7818609E-02  0.8087596E-01
        1   -1    0    0  501    0  0.00000000000E+00  0.00000000000E+00  0.21115764087E+04  0.21115764087E+04  0.50400001928E-02 0.  1.
       -1   -1    0    0    0  501  0.00000000000E+00  0.00000000000E+00 -0.15452169668E+04  0.15452169668E+04  0.50400001928E-02 0. -1.
    10030    2    1    2    0    0  0.00000000000E+00  0.00000000000E+00  0.56635944186E+03  0.36567933755E+04  0.36126686499E+04 0.  0.
        4    1    3    3  502    0  0.13516713062E+03  0.14800164451E+04 -0.75606538322E+03  0.16674397463E+04  0.12699999809E+01 0. -1.
       -4    1    3    3    0  502 -0.13516713062E+03 -0.14800164451E+04  0.13224248251E+04  0.19893536292E+04  0.12699999809E+01 0.  1.
</event>
<event>
 5   0  0.2199902E-07  0.3578284E+04  0.7818609E-02  0.8095484E-01
        2   -1    0    0  501    0  0.00000000000E+00  0.00000000000E+00  0.14145768579E+04  0.14145768579E+04  0.25500000920E-02 0. -1.
       -2   -1    0    0    0  501  0.00000000000E+00  0.00000000000E+00 -0.22628881199E+04  0.22628881199E+04  0.25500000920E-02 0.  1.
    10030    2    1    2    0    0  0.00000000000E+00  0.00000000000E+00 -0.84831126196E+03  0.36774649778E+04  0.35782840393E+04 0.  0.
        1    1    3    3  502    0 -0.20162249292E+03  0.17621361330E+04 -0.66573216923E+03  0.18944589470E+04  0.50400001928E-02 0.  1.
       -1    1    3    3    0  502  0.20162249292E+03 -0.17621361330E+04 -0.18257909273E+03  0.17830060308E+04  0.50400001928E-02 0. -1.
</event>
<event>
 5   0  0.7236375E-08  0.3608793E+04  0.7818609E-02  0.8088481E-01
        1   -1    0    0  501    0  0.00000000000E+00  0.00000000000E+00  0.19560840308E+04  0.19560840308E+04  0.50400001928E-02 0.  1.
       -1   -1    0    0    0  501  0.00000000000E+00  0.00000000000E+00 -0.16644717949E+04  0.16644717949E+04  0.50400001928E-02 0. -1.
    10030    2    1    2    0    0  0.00000000000E+00  0.00000000000E+00  0.29161223598E+03  0.36205558257E+04  0.36087929826E+04 0.  0.
        5    1    3    3  502    0 -0.20035172991E+03  0.32204009163E+03 -0.16240226766E+04  0.16677297084E+04  0.46999998093E+01 0. -1.
       -5    1    3    3    0  502  0.20035172991E+03 -0.32204009163E+03  0.19156349125E+04  0.19528261173E+04  0.46999998093E+01 0.  1.
</event>
<event>
 5   0  0.7236375E-08  0.3599352E+04  0.7818609E-02  0.8090640E-01
        1   -1    0    0  501    0  0.00000000000E+00  0.00000000000E+00  0.20526470538E+04  0.20526470538E+04  0.50400001928E-02 0.  1.
       -1   -1    0    0    0  501  0.00000000000E+00  0.00000000000E+00 -0.15778815367E+04  0.15778815367E+04  0.50400001928E-02 0. -1.
    10030    2    1    2    0    0  0.00000000000E+00  0.00000000000E+00  0.47476551712E+03  0.36305285905E+04  0.35993521015E+04 0.  0.
        1    1    3    3  502    0 -0.12577341789E+04  0.18797112357E+03  0.15218354994E+04  0.19832326378E+04  0.50400001928E-02 0.  1.
       -1    1    3    3    0  502  0.12577341789E+04 -0.18797112357E+03 -0.10470699823E+04  0.16472959528E+04  0.50400001928E-02 0. -1.
</event>
<event>
 5   0  0.7236375E-08  0.3600178E+04  0.7818609E-02  0.8090451E-01
        1   -1    0    0  501    0  0.00000000000E+00  0.00000000000E+00  0.19820749948E+04  0.19820749948E+04  0.50400001928E-02 0.  1.
       -1   -1    0    0    0  501  0.00000000000E+00  0.00000000000E+00 -0.16348118597E+04  0.16348118597E+04  0.50400001928E-02 0. -1.
    10030    2    1    2    0    0  0.00000000000E+00  0.00000000000E+00  0.34726313512E+03  0.36168868545E+04  0.36001776114E+04 0.  0.
        1    1    3    3  502    0 -0.15570259238E+04 -0.88956326352E+03  0.33141840001E+03  0.18235927953E+04  0.50400001928E-02 0.  1.
       -1    1    3    3    0  502  0.15570259238E+04  0.88956326352E+03  0.15844735106E+02  0.17932940592E+04  0.50400001928E-02 0. -1.
</event>
<event>
 5   0  0.7514289E-08  0.3611550E+04  0.7818609E-02  0.8087851E-01
       -1   -1    0    0    0  501  0.00000000000E+00  0.00000000000E+00  0.15710601959E+04  0.15710601959E+04  0.50400001928E-02 0. -1.
        1   -1    0    0  501    0  0.00000000000E+00  0.00000000000E+00 -0.20755559068E+04  0.20755559068E+04  0.50400001928E-02 0.  1.
    10030    2    1    2    0    0  0.00000000000E+00  0.00000000000E+00 -0.50449571087E+03  0.36466161027E+04  0.36115499551E+04 0.  0.
        4    1    3    3  502    0 -0.30407934266E+03 -0.14645161456E+04 -0.12737773783E+04  0.19646328435E+04  0.12699999809E+01 0.  1.
       -4    1    3    3    0  502  0.30407934266E+03  0.14645161456E+04  0.76928166744E+03  0.16819832592E+04  0.12699999809E+01 0. -1.
</event>
<event>
 5   0  0.2309391E-07  0.3599246E+04  0.7818609E-02  0.8090664E-01
       -2   -1    0    0    0  501  0.00000000000E+00  0.00000000000E+00  0.16111823147E+04  0.16111823147E+04  0.25500000920E-02 0.  1.
        2   -1    0    0  501    0  0.00000000000E+00  0.00000000000E+00 -0.20101030991E+04  0.20101030991E+04  0.25500000920E-02 0. -1.
    10030    2    1    2    0    0  0.00000000000E+00  0.00000000000E+00 -0.39892078435E+03  0.36212854138E+04  0.35992457899E+04 0.  0.
        4    1    3    3  502    0 -0.11316116334E+04 -0.12568251593E+04 -0.81844021657E+03  0.18788295215E+04  0.12699999809E+01 0. -1.
       -4    1    3    3    0  502  0.11316116334E+04  0.12568251593E+04  0.41951943222E+03  0.17424558923E+04  0.12699999809E+01 0.  1.
</event>
<event>
 5   0  0.2199902E-07  0.3600863E+04  0.7818609E-02  0.8090294E-01
       -2   -1    0    0    0  501  0.00000000000E+00  0.00000000000E+00  0.12237309135E+04  0.12237309135E+04  0.25500000920E-02 0. -1.
        2   -1    0    0  501    0  0.00000000000E+00  0.00000000000E+00 -0.26489104750E+04  0.26489104750E+04  0.25500000920E-02 0.  1.
    10030    2    1    2    0    0  0.00000000000E+00  0.00000000000E+00 -0.14251795614E+04  0.38726413885E+04  0.36008630273E+04 0.  0.
        1    1    3    3  502    0  0.13472142088E+04  0.11752045360E+04 -0.94190033299E+03  0.20207097919E+04  0.50400001928E-02 0.  1.
       -1    1    3    3    0  502 -0.13472142088E+04 -0.11752045360E+04 -0.48327922845E+03  0.18519315966E+04  0.50400001928E-02 0. -1.
</event>
<event>
 5   0  0.7514289E-08  0.3598716E+04  0.7818609E-02  0.8090786E-01
        1   -1    0    0  501    0  0.00000000000E+00  0.00000000000E+00  0.14491339188E+04  0.14491339188E+04  0.50400001928E-02 0. -1.
       -1   -1    0    0    0  501  0.00000000000E+00  0.00000000000E+00 -0.22342238211E+04  0.22342238211E+04  0.50400001928E-02 0.  1.
    10030    2    1    2    0    0  0.00000000000E+00  0.00000000000E+00 -0.78508990233E+03  0.36833577399E+04  0.35987161719E+04 0.  0.
        4    1    3    3  502    0 -0.28821209804E+03  0.16049946527E+04 -0.11711025032E+04  0.20076246498E+04  0.12699999809E+01 0.  1.
       -4    1    3    3    0  502  0.28821209804E+03 -0.16049946527E+04  0.38601260082E+03  0.16757330902E+04  0.12699999809E+01 0. -1.
</event>
<event>
 5   0  0.2342606E-07  0.3575659E+04  0.7818609E-02  0.8096090E-01
       -2   -1    0    0    0  501  0.00000000000E+00  0.00000000000E+00  0.20423326814E+04  0.20423326814E+04  0.25500000920E-02 0.  1.
        2   -1    0    0  501    0  0.00000000000E+00  0.00000000000E+00 -0.15650409786E+04  0.15650409786E+04  0.25500000920E-02 0. -1.
    10030    2    1    2    0    0  0.00000000000E+00  0.00000000000E+00  0.47729170284E+03  0.36073736600E+04  0.35756590096E+04 0.  0.
        5    1    3    3  502    0 -0.10405382794E+04  0.69999987959E+03  0.15241502086E+04  0.19737719449E+04  0.46999998093E+01 0.  1.
       -5    1    3    3    0  502  0.10405382794E+04 -0.69999987959E+03 -0.10468585058E+04  0.16336017150E+04  0.46999998093E+01 0. -1.
</event>
<event>
 5   0  0.2238968E-07  0.3597722E+04  0.7818609E-02  0.8091014E-01
        2   -1    0    0  501    0  0.00000000000E+00  0.00000000000E+00  0.15124196660E+04  0.15124196660E+04  0.25500000920E-02 0. -1.
       -2   -1    0    0    0  501  0.00000000000E+00  0.00000000000E+00 -0.21395526469E+04  0.21395526469E+04  0.25500000920E-02 0.  1.
    10030    2    1    2    0    0  0.00000000000E+00  0.00000000000E+00 -0.62713298091E+03  0.36519723129E+04  0.35977223348E+04 0.  0.
        3    1    3    3  502    0  0.18492685663E+03  0.48645771544E+03  0.14343342067E+04  0.15258288495E+04  0.10100000352E+00 0. -1.
       -3    1    3    3    0  502 -0.18492685663E+03 -0.48645771544E+03 -0.20614671876E+04  0.21261434634E+04  0.10100000352E+00 0.  1.
</event>
<event>
 5   0  0.2309391E-07  0.3571460E+04  0.7818609E-02  0.8097061E-01
       -2   -1    0    0    0  501  0.00000000000E+00  0.00000000000E+00  0.14308131962E+04  0.14308131962E+04  0.25500000920E-02 0. -1.
        2   -1    0    0  501    0  0.00000000000E+00  0.00000000000E+00 -0.22286850497E+04  0.22286850497E+04  0.25500000920E-02 0.  1.
    10030    2    1    2    0    0  0.00000000000E+00  0.00000000000E+00 -0.79787185344E+03  0.36594982459E+04  0.35714601940E+04 0.  0.
        4    1    3    3  502    0  0.81070729677E+03 -0.11253616582E+04  0.75357728492E+03  0.15784693599E+04  0.12699999809E+01 0. -1.
       -4    1    3    3    0  502 -0.81070729677E+03  0.11253616582E+04 -0.15514491384E+04  0.20810288861E+04  0.12699999809E+01 0.  1.
</event>
<event>
 5   0  0.2198900E-07  0.3566230E+04  0.7818609E-02  0.8098271E-01
        2   -1    0    0  501    0  0.00000000000E+00  0.00000000000E+00  0.18832676150E+04  0.18832676150E+04  0.25500000920E-02 0. -1.
       -2   -1    0    0    0  501  0.00000000000E+00  0.00000000000E+00 -0.16882882724E+04  0.16882882724E+04  0.25500000920E-02 0.  1.
    10030    2    1    2    0    0  0.00000000000E+00  0.00000000000E+00  0.19497934261E+03  0.35715558873E+04  0.35662297335E+04 0.  0.
        2    1    3    3  502    0  0.10692198817E+03 -0.14901406799E+04  0.10723637666E+04  0.18389985333E+04  0.25500000920E-02 0. -1.
       -2    1    3    3    0  502 -0.10692198817E+03  0.14901406799E+04 -0.87738442401E+03  0.17325573540E+04  0.25500000920E-02 0.  1.
</event>
<event>
 5   0  0.2198900E-07  0.3600156E+04  0.7818609E-02  0.8090456E-01
        2   -1    0    0  501    0  0.00000000000E+00  0.00000000000E+00  0.23733324805E+04  0.23733324805E+04  0.25500000920E-02 0.  1.
       -2   -1    0    0    0  501  0.00000000000E+00  0.00000000000E+00 -0.13652870860E+04  0.13652870860E+04  0.25500000920E-02 0. -1.
    10030    2    1    2    0    0  0.00000000000E+00  0.00000000000E+00  0.10080453945E+04  0.37386195665E+04  0.36001556558E+04 0.  0.
        2    1    3    3  502    0  0.15269421957E+04 -0.95302092834E+03  0.48129896734E+03  0.18631827755E+04  0.25500000920E-02 0. -1.
       -2    1    3    3    0  502 -0.15269421957E+04  0.95302092834E+03  0.52674642720E+03  0.18754367911E+04  0.25500000920E-02 0.  1.
</event>
<event>
 5   0  0.2198900E-07  0.3596537E+04  0.7818609E-02  0.8091285E-01
        2   -1    0    0  501    0  0.00000000000E+00  0.00000000000E+00  0.21383738954E+04  0.21383738954E+04  0.25500000920E-02 0. -1.
       -2   -1    0    0    0  501  0.00000000000E+00  0.00000000000E+00 -0.15122566716E+04  0.15122566716E+04  0.25500000920E-02 0.  1.
    10030    2    1    2    0    0  0.00000000000E+00  0.00000000000E+00  0.62611722376E+03  0.36506305670E+04  0.35965373290E+04 0.  0.
        2    1    3    3  502    0 -0.18598726020E+03  0.15075812854E+04 -0.66390263161E+03  0.16577573095E+04  0.25500000920E-02 0.  1.
       -2    1    3    3    0  502  0.18598726020E+03 -0.15075812854E+04  0.12900198554E+04  0.19928732574E+04  0.25500000920E-02 0. -1.
</event>
<event>
 5   0  0.2238968E-07  0.3609788E+04  0.7818609E-02  0.8088253E-01
       -2   -1    0    0    0  501  0.00000000000E+00  0.00000000000E+00  0.13572967581E+04  0.13572967581E+04  0.25500000920E-02 0. -1.
        2   -1    0    0  501    0  0.00000000000E+00  0.00000000000E+00 -0.24000961828E+04  0.24000961828E+04  0.25500000920E-02 0.  1.
    10030    2    1    2    0    0  0.00000000000E+00  0.00000000000E+00 -0.10427994248E+04  0.37573929409E+04  0.36097882309E+04 0.  0.
        3    1    3    3  502    0 -0.16194666232E+04 -0.60551691705E+03  0.17777232744E+02  0.17290572347E+04  0.10100000352E+00 0. -1.
       -3    1    3    3    0  502  0.16194666232E+04  0.60551691705E+03 -0.10605766575E+04  0.20283357062E+04  0.10100000352E+00 0.  1.
</event>
<event>
 5   0  0.2309391E-07  0.3599708E+04  0.7818609E-02  0.8090559E-01
        2   -1    0    0  501    0  0.00000000000E+00  0.00000000000E+00  0.28204539216E+04  0.28204539216E+04  0.25500000920E-02 0. -1.
       -2   -1    0    0    0  501  0.00000000000E+00  0.00000000000E+00 -0.11485648303E+04  0.11485648303E+04  0.25500000920E-02 0.  1.
    10030    2    1    2    0    0  0.00000000000E+00  0.00000000000E+00  0.16718890913E+04  0.39690187519E+04  0.35997078659E+04 0.  0.
        4    1    3    3  502    0  0.75842157694E+03  0.11539068682E+04 -0.43695229227E+03  0.14483208441E+04  0.12699999809E+01 0.  1.
       -4    1    3    3    0  502 -0.75842157694E+03 -0.11539068682E+04  0.21088413835E+04  0.25206979078E+04  0.12699999809E+01 0. -1.
</event>
<event>
 5   0  0.2199902E-07  0.3597571E+04  0.7818609E-02  0.8091048E-01
       -2   -1    0    0    0  501  0.00000000000E+00  0.00000000000E+00  0.14081978982E+04  0.14081978982E+04  0.25500000920E-02 0. -1.
        2   -1    0    0  501    0  0.00000000000E+00  0.00000000000E+00 -0.22977094934E+04  0.22977094934E+04  0.25500000920E-02 0.  1.
    10030    2    1    2    0    0  0.00000000000E+00  0.00000000000E+00 -0.88951159520E+03  0.37059073916E+04  0.35975712248E+04 0.  0.
        1    1    3    3  502    0  0.11638270198E+04  0.94336034558E+03 -0.14703309126E+04  0.20991176876E+04  0.50400001928E-02 0.  1.
       -1    1    3    3    0  502 -0.11638270198E+04 -0.94336034558E+03  0.58081931742E+03  0.16067897041E+04  0.50400001928E-02 0. -1.
</event>
<event>
 5   0  0.7236375E-08  0.3611717E+04  0.7818609E-02  0.8087813E-01
        1   -1    0    0  501    0  0.00000000000E+00  0.00000000000E+00  0.14200337375E+04  0.14200337375E+04  0.50400001928E-02 0. -1.
       -1   -1    0    0    0  501  0.00000000000E+00  0.00000000000E+00 -0.22965126191E+04  0.22965126191E+04  0.50400001928E-02 0.  1.
    10030    2    1    2    0    0  0.00000000000E+00  0.00000000000E+00 -0.87647888160E+03  0.37165463566E+04  0.36117172634E+04 0.  0.
        1    1    3    3  502    0 -0.72625016848E+02  0.86918767520E+03 -0.20653887626E+04  0.22420063222E+04  0.50400001928E-02 0.  1.
       -1    1    3    3    0  502  0.72625016848E+02 -0.86918767520E+03  0.11889098810E+04  0.14745400344E+04  0.50400001928E-02 0. -1.
</event>
<event>
 5   0  0.7261233E-08  0.3577025E+04  0.7818609E-02  0.8095775E-01
       -1   -1    0    0    0  501  0.00000000000E+00  0.00000000000E+00  0.16110055935E+04  0.16110055935E+04  0.50400001928E-02 0.  1.
        1   -1    0    0  501    0  0.00000000000E+00  0.00000000000E+00 -0.19855782865E+04  0.19855782865E+04  0.50400001928E-02 0. -1.
    10030    2    1    2    0    0  0.00000000000E+00  0.00000000000E+00 -0.37457269307E+03  0.35965838800E+04  0.35770254267E+04 0.  0.
        3    1    3    3  502    0 -0.17818881356E+04 -0.31078358620E+02 -0.33873037110E+03  0.18140643502E+04  0.10100000352E+00 0. -1.
       -3    1    3    3    0  502  0.17818881356E+04  0.31078358620E+02 -0.35842321975E+02  0.17825195298E+04  0.10100000352E+00 0.  1.
</event>
<event>
 5   0  0.7236375E-08  0.3599536E+04  0.7818609E-02  0.8090598E-01
       -1   -1    0    0    0  501  0.00000000000E+00  0.00000000000E+00  0.12658180877E+04  0.12658180877E+04  0.50400001928E-02 0.  1.
        1   -1    0    0  501    0  0.00000000000E+00  0.00000000000E+00 -0.25589500779E+04  0.25589500779E+04  0.50400001928E-02 0. -1.
    10030    2    1    2    0    0  0.00000000000E+00  0.00000000000E+00 -0.12931319902E+04  0.38247681657E+04  0.35995362447E+04 0.  0.
        1    1    3    3  502    0 -0.13871834345E+04  0.37189161422E+03 -0.17991432413E+04  0.23020637820E+04  0.50400001928E-02 0. -1.
       -1    1    3    3    0  502  0.13871834345E+04 -0.37189161422E+03  0.50601125113E+03  0.15227043837E+04  0.50400001928E-02 0.  1.
</event>
<event>
 5   0  0.2309391E-07  0.3615131E+04  0.7818609E-02  0.8087034E-01
       -2   -1    0    0    0  501  0.00000000000E+00  0.00000000000E+00  0.19783298038E+04  0.19783298038E+04  0.25500000920E-02 0. -1.
        2   -1    0    0  501    0  0.00000000000E+00  0.00000000000E+00 -0.16515414654E+04  0.16515414654E+04  0.25500000920E-02 0.  1.
    10030    2    1    2    0    0  0.00000000000E+00  0.00000000000E+00  0.32678833840E+03  0.36298712692E+04  0.36151313687E+04 0.  0.
        4    1    3    3  502    0  0.14046150109E+04 -0.25845887270E+03  0.12758591304E+04  0.19150881054E+04  0.12699999809E+01 0. -1.
       -4    1    3    3    0  502 -0.14046150109E+04  0.25845887270E+03 -0.94907079204E+03  0.17147831638E+04  0.12699999809E+01 0.  1.
</event>
<event>
 5   0  0.2198900E-07  0.3579568E+04  0.7818609E-02  0.8095188E-01
       -2   -1    0    0    0  501  0.00000000000E+00  0.00000000000E+00  0.19919987834E+04  0.19919987834E+04  0.25500000920E-02 0. -1.
        2   -1    0    0  501    0  0.00000000000E+00  0.00000000000E+00 -0.16080968204E+04  0.16080968204E+04  0.25500000920E-02 0.  1.
    10030    2    1    2    0    0  0.00000000000E+00  0.00000000000E+00  0.38390196296E+03  0.36000956038E+04  0.35795680800E+04 0.  0.
        2    1    3    3  502    0 -0.11454146820E+04 -0.75773892267E+03 -0.96231688197E+03  0.16769605989E+04  0.25500000920E-02 0.  1.
       -2    1    3    3    0  502  0.11454146820E+04  0.75773892267E+03  0.13462188449E+04  0.19231350049E+04  0.25500000920E-02 0. -1.
</event>
<event>
 5   0  0.2198900E-07  0.3623236E+04  0.7818609E-02  0.8085190E-01
        2   -1    0    0  501    0  0.00000000000E+00  0.00000000000E+00  0.24400833729E+04  0.24400833729E+04  0.25500000920E-02 0.  1.
       -2   -1    0    0    0  501  0.00000000000E+00  0.00000000000E+00 -0.13450196119E+04  0.13450196119E+04  0.25500000920E-02 0. -1.
    10030    2    1    2    0    0  0.00000000000E+00  0.00000000000E+00  0.10950637610E+04  0.37851029849E+04  0.36232361178E+04 0.  0.
        2    1    3    3  502    0 -0.10981285622E+04  0.21507557200E+03  0.20358967656E+04  0.23231486136E+04  0.25500000920E-02 0.  1.
       -2    1    3    3    0  502  0.10981285622E+04 -0.21507557200E+03 -0.94083300464E+03  0.14619543712E+04  0.25500000920E-02 0. -1.
</event>
<event>
 5   0  0.2199902E-07  0.3587164E+04  0.7818609E-02  0.8093438E-01
       -2   -1    0    0    0  501  0.00000000000E+00  0.00000000000E+00  0.28388300884E+04  0.28388300884E+04  0.25500000920E-02 0.  1.
        2   -1    0    0  501    0  0.00000000000E+00  0.00000000000E+00 -0.11331908341E+04  0.11331908341E+04  0.25500000920E-02 0. -1.
    10030    2    1    2    0    0  0.00000000000E+00  0.00000000000E+00  0.17056392542E+04  0.39720209225E+04  0.35871639136E+04 0.  0.
        1    1    3    3  502    0 -0.18058766473E+03 -0.47870420478E+03  0.27563126594E+04  0.28033959935E+04  0.50400001928E-02 0.  1.
       -1    1    3    3    0  502  0.18058766473E+03  0.47870420478E+03 -0.10506734051E+04  0.11686249289E+04  0.50400001928E-02 0. -1.
</event>
<event>
 5   0  0.2342606E-07  0.3602817E+04  0.7818609E-02  0.8089847E-01
       -2   -1    0    0    0  501  0.00000000000E+00  0.00000000000E+00  0.14429858757E+04  0.14429858757E+04  0.25500000920E-02 0. -1.
        2   -1    0    0  501    0  0.00000000000E+00  0.00000000000E+00 -0.22488597056E+04  0.22488597056E+04  0.25500000920E-02 0.  1.
    10030    2    1    2    0    0  0.00000000000E+00  0.00000000000E+00 -0.80587382997E+03  0.36918455813E+04  0.36028171153E+04 0.  0.
        5    1    3    3  502    0 -0.87209776158E+03 -0.15674892134E+04 -0.57278489035E+03  0.18829980245E+04  0.46999998093E+01 0. -1.
       -5    1    3    3    0  502  0.87209776158E+03  0.15674892134E+04 -0.23308893962E+03  0.18088475568E+04  0.46999998093E+01 0.  1.
</event>
<event>
 5   0  0.7347303E-08  0.3608214E+04  0.7818609E-02  0.8088613E-01
        1   -1    0    0  501    0  0.00000000000E+00  0.00000000000E+00  0.16670590551E+04  0.16670590551E+04  0.50400001928E-02 0. -1.
       -1   -1    0    0    0  501  0.00000000000E+00  0.00000000000E+00 -0.19524215781E+04  0.19524215781E+04  0.50400001928E-02 0.  1.
    10030    2    1    2    0    0  0.00000000000E+00  0.00000000000E+00 -0.28536252297E+03  0.36194806332E+04  0.36082140020E+04 0.  0.
        2    1    3    3  502    0 -0.50782800053E+03  0.12773824885E+04 -0.13147502804E+04  0.19021471026E+04  0.25500000920E-02 0.  1.
       -2    1    3    3    0  502  0.50782800053E+03 -0.12773824885E+04  0.10293877575E+04  0.17173335306E+04  0.25500000920E-02 0. -1.
</event>
<event>
 5   0  0.7261233E-08  0.3612651E+04  0.7818609E-02  0.8087600E-01
       -1   -1    0    0    0  501  0.00000000000E+00  0.00000000000E+00  0.19142418765E+04  0.19142418765E+04  0.50400001928E-02 0.  1.
        1   -1    0    0  501    0  0.00000000000E+00  0.00000000000E+00 -0.17044929396E+04  0.17044929396E+04  0.50400001928E-02 0. -1.
    10030    2    1    2    0    0  0.00000000000E+00  0.00000000000E+00  0.20974893690E+03  0.36187348161E+04  0.36126509730E+04 0.  0.
        3    1    3    3  502    0  0.15503485278E+04 -0.88778838063E+03 -0.16215087462E+03  0.17938900977E+04  0.10100000352E+00 0.  1.
       -3    1    3    3    0  502 -0.15503485278E+04  0.88778838063E+03  0.37189981152E+03  0.18248447184E+04  0.10100000352E+00 0. -1.
</event>
<event>
 5   0  0.7236375E-08  0.3584929E+04  0.7818609E-02  0.8093953E-01
        1   -1    0    0  501    0  0.00000000000E+00  0.00000000000E+00  0.18371715776E+04  0.18371715776E+04  0.50400001928E-02 0.  1.
       -1   -1    0    0    0  501  0.00000000000E+00  0.00000000000E+00 -0.17488451320E+04  0.17488451320E+04  0.50400001928E-02 0. -1.
    10030    2    1    2    0    0  0.00000000000E+00  0.00000000000E+00  0.88326445618E+02  0.35860167096E+04  0.35849287693E+04 0.  0.
        1    1    3    3  502    0  0.10718253379E+04  0.14334813654E+04 -0.52043874201E+02  0.17906386975E+04  0.50400001928E-02 0. -1.
       -1    1    3    3    0  502 -0.10718253379E+04 -0.14334813654E+04  0.14037031982E+03  0.17953780122E+04  0.50400001928E-02 0.  1.
</event>
<event>
 5   0  0.7347303E-08  0.3585449E+04  0.7818609E-02  0.8093833E-01
        1   -1    0    0  501    0  0.00000000000E+00  0.00000000000E+00  0.26846398182E+04  0.26846398182E+04  0.50400001928E-02 0. -1.
       -1   -1    0    0    0  501  0.00000000000E+00  0.00000000000E+00 -0.11971292342E+04  0.11971292342E+04  0.50400001928E-02 0.  1.
    10030    2    1    2    0    0  0.00000000000E+00  0.00000000000E+00  0.14875105839E+04  0.38817690524E+04  0.35854488197E+04 0.  0.
        2    1    3    3  502    0  0.15666492144E+03  0.76787074639E+03  0.24893646718E+04  0.26098095428E+04  0.25500000920E-02 0. -1.
       -2    1    3    3    0  502 -0.15666492144E+03 -0.76787074639E+03 -0.10018540878E+04  0.12719595096E+04  0.25500000920E-02 0.  1.
</event>
<event>
 5   0  0.2238968E-07  0.3593887E+04  0.7818609E-02  0.8091893E-01
       -2   -1    0    0    0  501  0.00000000000E+00  0.00000000000E+00  0.15263646349E+04  0.15263646349E+04  0.25500000920E-02 0. -1.
        2   -1    0    0  501    0  0.00000000000E+00  0.00000000000E+00 -0.21154879708E+04  0.21154879708E+04  0.25500000920E-02 0.  1.
    10030    2    1    2    0    0  0.00000000000E+00  0.00000000000E+00 -0.58912333584E+03  0.36418526057E+04  0.35938870456E+04 0.  0.
        3    1    3    3  502    0 -0.12739092181E+04 -0.19629832081E+03 -0.15633216946E+04  0.20261669373E+04  0.10100000352E+00 0.  1.
       -3    1    3    3    0  502  0.12739092181E+04  0.19629832081E+03  0.97419835877E+03  0.16156856684E+04  0.10100000352E+00 0. -1.
</event>
<event>
 5   0  0.7347303E-08  0.3606622E+04  0.7818609E-02  0.8088976E-01
        1   -1    0    0  501    0  0.00000000000E+00  0.00000000000E+00  0.17926748467E+04  0.17926748467E+04  0.50400001928E-02 0.  1.
       -1   -1    0    0    0  501  0.00000000000E+00  0.00000000000E+00 -0.18140106800E+04  0.18140106800E+04  0.50400001928E-02 0. -1.
    10030    2    1    2    0    0  0.00000000000E+00  0.00000000000E+00 -0.21335833307E+02  0.36066855268E+04  0.36066224187E+04 0.  0.
        2    1    3    3  502    0  0.10313639177E+04  0.13233970999E+04  0.65028230142E+03  0.17994328235E+04  0.25500000920E-02 0.  1.
       -2    1    3    3    0  502 -0.10313639177E+04 -0.13233970999E+04 -0.67161813472E+03  0.18072527033E+04  0.25500000920E-02 0. -1.
</event>
<event>
 5   0  0.2342606E-07  0.3822125E+04  0.7818609E-02  0.8041423E-01
       -2   -1    0    0    0  501  0.00000000000E+00  0.00000000000E+00  0.31963939844E+04  0.31963939844E+04  0.25500000920E-02 0. -1.
        2   -1    0    0  501    0  0.00000000000E+00  0.00000000000E+00 -0.11425876979E+04  0.11425876979E+04  0.25500000920E-02 0.  1.
    10030    2    1    2    0    0  0.00000000000E+00  0.00000000000E+00  0.20538062865E+04  0.43389816823E+04  0.38221252958E+04 0.  0.
        5    1    3    3  502    0  0.84349191556E+03 -0.12014724554E+04 -0.36212721246E+03  0.15120095505E+04  0.46999998093E+01 0.  1.
       -5    1    3    3    0  502 -0.84349191556E+03  0.12014724554E+04  0.24159334989E+04  0.28269721318E+04  0.46999998093E+01 0. -1.
</event>
<event>
 5   0  0.2309391E-07  0.3602044E+04  0.7818609E-02  0.8090024E-01
       -2   -1    0    0    0  501  0.00000000000E+00  0.00000000000E+00  0.26873343146E+04  0.26873343146E+04  0.25500000920E-02 0. -1.
        2   -1    0    0  501    0  0.00000000000E+00  0.00000000000E+00 -0.12070252372E+04  0.12070252372E+04  0.25500000920E-02 0.  1.
    10030    2    1    2    0    0  0.00000000000E+00  0.00000000000E+00  0.14803090774E+04  0.38943595518E+04  0.36020440522E+04 0.  0.
        4    1    3    3  502    0 -0.11104942141E+04  0.21185034499E+03  0.22559293346E+04  0.25233503014E+04  0.12699999809E+01 0. -1.
       -4    1    3    3    0  502  0.11104942141E+04 -0.21185034499E+03 -0.77562025720E+03  0.13710092504E+04  0.12699999809E+01 0.  1.
</event>
<event>
 5   0  0.7236375E-08  0.3596128E+04  0.7818609E-02  0.8091379E-01
        1   -1    0    0  501    0  0.00000000000E+00  0.00000000000E+00  0.19344528747E+04  0.19344528747E+04  0.50400001928E-02 0. -1.
       -1   -1    0    0    0  501  0.00000000000E+00  0.00000000000E+00 -0.16712916918E+04  0.16712916918E+04  0.50400001928E-02 0.  1.
    10030    2    1    2    0    0  0.00000000000E+00  0.00000000000E+00  0.26316118289E+03  0.36057445664E+04  0.35961284836E+04 0.  0.
        5    1    3    3  502    0  0.11732877260E+04 -0.12643953864E+04 -0.37743143595E+03  0.17657226170E+04  0.46999998093E+01 0.  1.
       -5    1    3    3    0  502 -0.11732877260E+04  0.12643953864E+04  0.64059261884E+03  0.18400219495E+04  0.46999998093E+01 0. -1.
</event>
<event>
 5   0  0.7261233E-08  0.3475378E+04  0.7818609E-02  0.8119650E-01
        1   -1    0    0  501    0  0.00000000000E+00  0.00000000000E+00  0.21635166423E+04  0.21635166423E+04  0.50400001928E-02 0. -1.
       -1   -1    0    0    0  501  0.00000000000E+00  0.00000000000E+00 -0.13956736098E+04  0.13956736099E+04  0.50400001928E-02 0.  1.
    10030    2    1    2    0    0  0.00000000000E+00  0.00000000000E+00  0.76784303244E+03  0.35591902521E+04  0.34753780123E+04 0.  0.
        3    1    3    3  502    0  0.37730320514E+03 -0.24118373789E+03  0.21034106960E+04  0.21505496670E+04  0.10100000352E+00 0. -1.
       -3    1    3    3    0  502 -0.37730320514E+03  0.24118373789E+03 -0.13355676635E+04  0.14086405851E+04  0.10100000352E+00 0.  1.
</event>
<event>
 5   0  0.7236375E-08  0.3484885E+04  0.7818609E-02  0.8117381E-01
        1   -1    0    0  501    0  0.00000000000E+00  0.00000000000E+00  0.22084156591E+04  0.22084156591E+04  0.50400001928E-02 0. -1.
       -1   -1    0    0    0  501  0.00000000000E+00  0.00000000000E+00 -0.13747889582E+04  0.13747889582E+04  0.50400001928E-02 0.  1.
    10030    2    1    2    0    0  0.00000000000E+00  0.00000000000E+00  0.83362670086E+03  0.35832046173E+04  0.34848847690E+04 0.  0.
        1    1    3    3  502    0 -0.73665362778E+03 -0.15288792142E+04  0.10733889373E+02  0.16971285854E+04  0.50400001928E-02 0.  1.
       -1    1    3    3    0  502  0.73665362778E+03  0.15288792142E+04  0.82289281149E+03  0.18860760319E+04  0.50400001928E-02 0. -1.
</event>
<event>
 5   0  0.7236375E-08  0.3673304E+04  0.7818609E-02  0.8073904E-01
        1   -1    0    0  501    0  0.00000000000E+00  0.00000000000E+00  0.24363758865E+04  0.24363758865E+04  0.50400001928E-02 0. -1.
       -1   -1    0    0    0  501  0.00000000000E+00  0.00000000000E+00 -0.13845526308E+04  0.13845526308E+04  0.50400001928E-02 0.  1.
    10030    2    1    2    0    0  0.00000000000E+00  0.00000000000E+00  0.10518232557E+04  0.38209285173E+04  0.36733040404E+04 0.  0.
        5    1    3    3  502    0 -0.14758289771E+04 -0.29099067817E+03  0.16220757474E+04  0.22122157591E+04  0.46999998093E+01 0. -1.
       -5    1    3    3    0  502  0.14758289771E+04  0.29099067817E+03 -0.57025249170E+03  0.16087127583E+04  0.46999998093E+01 0.  1.
</event>
<event>
 5   0  0.2198900E-07  0.3582702E+04  0.7818609E-02  0.8094466E-01
       -2   -1    0    0    0  501  0.00000000000E+00  0.00000000000E+00  0.18567660622E+04  0.18567660622E+04  0.25500000920E-02 0. -1.
        2   -1    0    0  501    0  0.00000000000E+00  0.00000000000E+00 -0.17282401023E+04  0.17282401023E+04  0.25500000920E-02 0.  1.
    10030    2    1    2    0    0  0.00000000000E+00  0.00000000000E+00  0.12852595989E+03  0.35850061646E+04  0.35827015334E+04 0.  0.
        2    1    3    3  502    0  0.15619663350E+04  0.83053994415E+03  0.34622809311E+03  0.18026118060E+04  0.25500000920E-02 0. -1.
       -2    1    3    3    0  502 -0.15619663350E+04 -0.83053994415E+03 -0.21770213322E+03  0.17823943586E+04  0.25500000920E-02 0.  1.
</event>
<event>
 5   0  0.7347303E-08  0.3590748E+04  0.7818609E-02  0.8092614E-01
       -1   -1    0    0    0  501  0.00000000000E+00  0.00000000000E+00  0.14057802227E+04  0.14057802227E+04  0.50400001928E-02 0.  1.
        1   -1    0    0  501    0  0.00000000000E+00  0.00000000000E+00 -0.22929392147E+04  0.22929392147E+04  0.50400001928E-02 0. -1.
    10030    2    1    2    0    0  0.00000000000E+00  0.00000000000E+00 -0.88715899199E+03  0.36987194374E+04  0.35907484456E+04 0.  0.
        2    1    3    3  502    0 -0.27561308217E+03  0.82645120916E+02  0.13818751586E+04  0.14115139889E+04  0.25500000920E-02 0.  1.
       -2    1    3    3    0  502  0.27561308217E+03 -0.82645120916E+02 -0.22690341506E+04  0.22872054485E+04  0.25500000920E-02 0. -1.
</event>
<event>
 5   0  0.2342606E-07  0.3609496E+04  0.7818609E-02  0.8088320E-01
       -2   -1    0    0    0  501  0.00000000000E+00  0.00000000000E+00  0.28102520178E+04  0.28102520178E+04  0.25500000920E-02 0.  1.
        2   -1    0    0  501    0  0.00000000000E+00  0.00000000000E+00 -0.11590116505E+04  0.11590116505E+04  0.25500000920E-02 0. -1.
    10030    2    1    2    0    0  0.00000000000E+00  0.00000000000E+00  0.16512403673E+04  0.39692636684E+04  0.36094957152E+04 0.  0.
        5    1    3    3  502    0 -0.14028814617E+04  0.31706291721E+03  0.20244587855E+04  0.24833567511E+04  0.46999998093E+01 0.  1.
       -5    1    3    3    0  502  0.14028814617E+04 -0.31706291721E+03 -0.37321841826E+03  0.14859069172E+04  0.46999998093E+01 0. -1.
</event>
<event>
 5   0  0.7236375E-08  0.3595678E+04  0.7818609E-02  0.8091482E-01
       -1   -1    0    0    0  501  0.00000000000E+00  0.00000000000E+00  0.25370689130E+04  0.25370689130E+04  0.50400001928E-02 0. -1.
        1   -1    0    0  501    0  0.00000000000E+00  0.00000000000E+00 -0.12739995826E+04  0.12739995826E+04  0.50400001928E-02 0.  1.
    10030    2    1    2    0    0  0.00000000000E+00  0.00000000000E+00  0.12630693304E+04  0.38110684956E+04  0.35956778144E+04 0.  0.
        1    1    3    3  502    0  0.10514460158E+04  0.12246129408E+04  0.14708070349E+04  0.21836869998E+04  0.50400001928E-02 0. -1.
       -1    1    3    3    0  502 -0.10514460158E+04 -0.12246129408E+04 -0.20773770450E+03  0.16273814958E+04  0.50400001928E-02 0.  1.
</event>
<event>
 5   0  0.2238968E-07  0.3606260E+04  0.7818609E-02  0.8089059E-01
       -2   -1    0    0    0  501  0.00000000000E+00  0.00000000000E+00  0.10757703245E+04  0.10757703245E+04  0.25500000920E-02 0.  1.
        2   -1    0    0  501    0  0.00000000000E+00  0.00000000000E+00 -0.30222790537E+04  0.30222790537E+04  0.25500000920E-02 0. -1.
    10030    2    1    2    0    0  0.00000000000E+00  0.00000000000E+00 -0.19465087292E+04  0.40980493782E+04  0.36062601782E+04 0.  0.
        3    1    3    3  502    0  0.13882021033E+04  0.46241017424E+03 -0.21706841360E+04  0.26177849181E+04  0.10100000352E+00 0. -1.
       -3    1    3    3    0  502 -0.13882021033E+04 -0.46241017424E+03  0.22417540678E+03  0.14802644601E+04  0.10100000352E+00 0.  1.
</event>
<event>
 5   0  0.2342606E-07  0.3596740E+04  0.7818609E-02  0.8091239E-01
       -2   -1    0    0    0  501  0.00000000000E+00  0.00000000000E+00  0.12651323375E+04  0.12651323375E+04  0.25500000920E-02 0. -1.
        2   -1    0    0  501    0  0.00000000000E+00  0.00000000000E+00 -0.25563606167E+04  0.25563606167E+04  0.25500000920E-02 0.  1.
    10030    2    1    2    0    0  0.00000000000E+00  0.00000000000E+00 -0.12912282792E+04  0.38214929542E+04  0.35967399031E+04 0.  0.
        5    1    3    3  502    0  0.10119042098E+04  0.89800257930E+03 -0.19044510730E+04  0.23360896262E+04  0.46999998093E+01 0.  1.
       -5    1    3    3    0  502 -0.10119042098E+04 -0.89800257930E+03  0.61322279379E+03  0.14854033280E+04  0.46999998093E+01 0. -1.
</event>
<event>
 5   0  0.2342606E-07  0.3582343E+04  0.7818609E-02  0.8094548E-01
       -2   -1    0    0    0  501  0.00000000000E+00  0.00000000000E+00  0.12479932624E+04  0.12479932624E+04  0.25500000920E-02 0. -1.
        2   -1    0    0  501    0  0.00000000000E+00  0.00000000000E+00 -0.25707637183E+04  0.25707637183E+04  0.25500000920E-02 0.  1.
    10030    2    1    2    0    0  0.00000000000E+00  0.00000000000E+00 -0.13227704560E+04  0.38187569807E+04  0.35823432552E+04 0.  0.
        5    1    3    3  502    0  0.16919878869E+04  0.49097836706E+03 -0.31696691472E+03  0.17900762222E+04  0.46999998093E+01 0.  1.
       -5    1    3    3    0  502 -0.16919878869E+04 -0.49097836706E+03 -0.10058035413E+04  0.20286807585E+04  0.46999998093E+01 0. -1.
</event>
<event>
 5   0  0.2238968E-07  0.3606356E+04  0.7818609E-02  0.8089037E-01
       -2   -1    0    0    0  501  0.00000000000E+00  0.00000000000E+00  0.15179761278E+04  0.15179761278E+04  0.25500000920E-02 0. -1.
        2   -1    0    0  501    0  0.00000000000E+00  0.00000000000E+00 -0.21419646826E+04  0.21419646826E+04  0.25500000920E-02 0.  1.
    10030    2    1    2    0    0  0.00000000000E+00  0.00000000000E+00 -0.62398855482E+03  0.36599408103E+04  0.36063561969E+04 0.  0.
        3    1    3    3  502    0 -0.67941371651E+03  0.85936094316E+03  0.11415391018E+04  0.15821554159E+04  0.10100000352E+00 0. -1.
       -3    1    3    3    0  502  0.67941371651E+03 -0.85936094316E+03 -0.17655276567E+04  0.20777853945E+04  0.10100000352E+00 0.  1.
</event>
<event>
 5   0  0.7236375E-08  0.3594961E+04  0.7818609E-02  0.8091647E-01
       -1   -1    0    0    0  501  0.00000000000E+00  0.00000000000E+00  0.24637268847E+04  0.24637268847E+04  0.50400001928E-02 0.  1.
        1   -1    0    0  501    0  0.00000000000E+00  0.00000000000E+00 -0.13114020700E+04  0.13114020700E+04  0.50400001928E-02 0. -1.
    10030    2    1    2    0    0  0.00000000000E+00  0.00000000000E+00  0.11523248147E+04  0.37751289547E+04  0.35949612162E+04 0.  0.
        1    1    3    3  502    0 -0.15435766159E+04  0.42933192247E+03  0.14318509002E+04  0.21487558421E+04  0.50400001928E-02 0.  1.
       -1    1    3    3    0  502  0.15435766159E+04 -0.42933192247E+03 -0.27952608546E+03  0.16263731126E+04  0.50400001928E-02 0. -1.
</event>
<event>
 5   0  0.7514289E-08  0.3700452E+04  0.7818609E-02  0.8067862E-01
       -1   -1    0    0    0  501  0.00000000000E+00  0.00000000000E+00  0.19626082020E+04  0.19626082020E+04  0.50400001928E-02 0.  1.
        1   -1    0    0  501    0  0.00000000000E+00  0.00000000000E+00 -0.17442790957E+04  0.17442790957E+04  0.50400001928E-02 0. -1.
    10030    2    1    2    0    0  0.00000000000E+00  0.00000000000E+00  0.21832910634E+03  0.37068872977E+04  0.37004521128E+04 0.  0.
        4    1    3    3  502    0 -0.14412359879E+04 -0.80069918589E+03  0.95029999840E+03  0.19029850390E+04  0.12699999809E+01 0.  1.
       -4    1    3    3    0  502  0.14412359879E+04  0.80069918589E+03 -0.73197089206E+03  0.18039022586E+04  0.12699999809E+01 0. -1.
</event>
<event>
 5   0  0.7236375E-08  0.3633005E+04  0.7818609E-02  0.8082973E-01
       -1   -1    0    0    0  501  0.00000000000E+00  0.00000000000E+00  0.27512156472E+04  0.27512156472E+04  0.50400001928E-02 0. -1.
        1   -1    0    0  501    0  0.00000000000E+00  0.00000000000E+00 -0.11993540223E+04  0.11993540223E+04  0.50400001928E-02 0.  1.
    10030    2    1    2    0    0  0.00000000000E+00  0.00000000000E+00  0.15518616249E+04  0.39505696695E+04  0.36330051212E+04 0.  0.
        5    1    3    3  502    0  0.75189257704E+03 -0.16535279835E+04  0.76208080671E+03  0.19698442795E+04  0.46999998093E+01 0.  1.
       -5    1    3    3    0  502 -0.75189257704E+03  0.16535279835E+04  0.78978081819E+03  0.19807253899E+04  0.46999998093E+01 0. -1.
</event>
<event>
 5   0  0.2198900E-07  0.3601881E+04  0.7818609E-02  0.8090061E-01
       -2   -1    0    0    0  501  0.00000000000E+00  0.00000000000E+00  0.15163459610E+04  0.15163459610E+04  0.25500000920E-02 0.  1.
        2   -1    0    0  501    0  0.00000000000E+00  0.00000000000E+00 -0.21389488441E+04  0.21389488441E+04  0.25500000920E-02 0. -1.
    10030    2    1    2    0    0  0.00000000000E+00  0.00000000000E+00 -0.62260288315E+03  0.36552948051E+04  0.36018808645E+04 0.  0.
        2    1    3    3  502    0  0.20508059381E+03  0.71757277959E+03 -0.19746368589E+04  0.21109617402E+04  0.25500000920E-02 0. -1.
       -2    1    3    3    0  502 -0.20508059381E+03 -0.71757277959E+03  0.13520339757E+04  0.15443330649E+04  0.25500000920E-02 0.  1.
</event>
<event>
 5   0  0.7261233E-08  0.3581178E+04  0.7818609E-02  0.8094817E-01
        1   -1    0    0  501    0  0.00000000000E+00  0.00000000000E+00  0.18552092563E+04  0.18552092563E+04  0.50400001928E-02 0.  1.
       -1   -1    0    0    0  501  0.00000000000E+00  0.00000000000E+00 -0.17282195355E+04  0.17282195355E+04  0.50400001928E-02 0. -1.
    10030    2    1    2    0    0  0.00000000000E+00  0.00000000000E+00  0.12698972074E+03  0.35834287918E+04  0.35811779510E+04 0.  0.
        3    1    3    3  502    0 -0.16391578483E+04 -0.70740583914E+03 -0.74241195695E+02  0.17868332990E+04  0.10100000352E+00 0. -1.
       -3    1    3    3    0  502  0.16391578483E+04  0.70740583914E+03  0.20123091643E+03  0.17965954928E+04  0.10100000352E+00 0.  1.
</event>
<event>
 5   0  0.7514289E-08  0.3583852E+04  0.7818609E-02  0.8094201E-01
       -1   -1    0    0    0  501  0.00000000000E+00  0.00000000000E+00  0.14767610869E+04  0.14767610869E+04  0.50400001928E-02 0.  1.
        1   -1    0    0  501    0  0.00000000000E+00  0.00000000000E+00 -0.21743524171E+04  0.21743524172E+04  0.50400001928E-02 0. -1.
    10030    2    1    2    0    0  0.00000000000E+00  0.00000000000E+00 -0.69759133025E+03  0.36511135041E+04  0.35838521392E+04 0.  0.
        4    1    3    3  502    0  0.11369840406E+04 -0.13786114461E+04 -0.21327579887E+03  0.17996639706E+04  0.12699999809E+01 0.  1.
       -4    1    3    3    0  502 -0.11369840406E+04  0.13786114461E+04 -0.48431553137E+03  0.18514495334E+04  0.12699999809E+01 0. -1.
</event>
<event>
 5   0  0.2309391E-07  0.3587948E+04  0.7818609E-02  0.8093258E-01
       -2   -1    0    0    0  501  0.00000000000E+00  0.00000000000E+00  0.18864251540E+04  0.18864251540E+04  0.25500000920E-02 0. -1.
        2   -1    0    0  501    0  0.00000000000E+00  0.00000000000E+00 -0.17060533729E+04  0.17060533729E+04  0.25500000920E-02 0.  1.
    10030    2    1    2    0    0  0.00000000000E+00  0.00000000000E+00  0.18037178117E+03  0.35924785269E+04  0.35879476009E+04 0.  0.
        4    1    3    3  502    0 -0.14780614157E+04 -0.79794462548E+02  0.11050277123E+04  0.18471926166E+04  0.12699999809E+01 0. -1.
       -4    1    3    3    0  502  0.14780614157E+04  0.79794462548E+02 -0.92465593109E+03  0.17452859103E+04  0.12699999809E+01 0.  1.
</event>
<event>
 5   0  0.7514289E-08  0.3593632E+04  0.7818609E-02  0.8091952E-01
       -1   -1    0    0    0  501  0.00000000000E+00  0.00000000000E+00  0.20764141493E+04  0.20764141493E+04  0.50400001928E-02 0.  1.
        1   -1    0    0  501    0  0.00000000000E+00  0.00000000000E+00 -0.15548667444E+04  0.15548667444E+04  0.50400001928E-02 0. -1.
    10030    2    1    2    0    0  0.00000000000E+00  0.00000000000E+00  0.52154740494E+03  0.36312808937E+04  0.35936317610E+04 0.  0.
        4    1    3    3  502    0 -0.40757196226E+03 -0.13962038305E+04 -0.80528902855E+03  0.16625258113E+04  0.12699999809E+01 0. -1.
       -4    1    3    3    0  502  0.40757196226E+03  0.13962038305E+04  0.13268364335E+04  0.19687550825E+04  0.12699999809E+01 0.  1.
</event>
<event>
 5   0  0.7514289E-08  0.3600433E+04  0.7818609E-02  0.8090392E-01
        1   -1    0    0  501    0  0.00000000000E+00  0.00000000000E+00  0.19173111591E+04  0.19173111591E+04  0.50400001928E-02 0.  1.
       -1   -1    0    0    0  501  0.00000000000E+00  0.00000000000E+00 -0.16902734937E+04  0.16902734937E+04  0.50400001928E-02 0. -1.
    10030    2    1    2    0    0  0.00000000000E+00  0.00000000000E+00  0.22703766546E+03  0.36075846528E+04  0.36004334358E+04 0.  0.
        4    1    3    3  502    0  0.36241292521E+03 -0.11631750061E+04 -0.12144283496E+04  0.17202200593E+04  0.12699999809E+01 0. -1.
       -4    1    3    3    0  502 -0.36241292521E+03  0.11631750061E+04  0.14414660151E+04  0.18873645935E+04  0.12699999809E+01 0.  1.
</event>
<event>
 5   0  0.7236375E-08  0.3567835E+04  0.7818609E-02  0.8097900E-01
       -1   -1    0    0    0  501  0.00000000000E+00  0.00000000000E+00  0.18872643393E+04  0.18872643393E+04  0.50400001928E-02 0.  1.
        1   -1    0    0  501    0  0.00000000000E+00  0.00000000000E+00 -0.16862295550E+04  0.16862295550E+04  0.50400001928E-02 0. -1.
    10030    2    1    2    0    0  0.00000000000E+00  0.00000000000E+00  0.20103478428E+03  0.35734938943E+04  0.35678345853E+04 0.  0.
        1    1    3    3  502    0 -0.17448255494E+04  0.24831511323E+03  0.37715164584E+03  0.18023096175E+04  0.50400001928E-02 0. -1.
       -1    1    3    3    0  502  0.17448255494E+04 -0.24831511323E+03 -0.17611686156E+03  0.17711842768E+04  0.50400001928E-02 0.  1.
</event>
<event>
 5   0  0.2199902E-07  0.3605730E+04  0.7818609E-02  0.8089180E-01
        2   -1    0    0  501    0  0.00000000000E+00  0.00000000000E+00  0.19748052121E+04  0.19748052121E+04  0.25500000920E-02 0. -1.
       -2   -1    0    0    0  501  0.00000000000E+00  0.00000000000E+00 -0.16458948538E+04  0.16458948538E+04  0.25500000920E-02 0.  1.
    10030    2    1    2    0    0  0.00000000000E+00  0.00000000000E+00  0.32891035830E+03  0.36207000658E+04  0.36057297379E+04 0.  0.
        1    1    3    3  502    0  0.12078560692E+04  0.90644234873E+03  0.11533116055E+04  0.19001793796E+04  0.50400001928E-02 0. -1.
       -1    1    3    3    0  502 -0.12078560692E+04 -0.90644234873E+03 -0.82440124717E+03  0.17205206862E+04  0.50400001928E-02 0.  1.
</event>
<event>
 5   0  0.7261233E-08  0.3599708E+04  0.7818609E-02  0.8090559E-01
       -1   -1    0    0    0  501  0.00000000000E+00  0.00000000000E+00  0.25776811333E+04  0.25776811333E+04  0.50400001928E-02 0. -1.
        1   -1    0    0  501    0  0.00000000000E+00  0.00000000000E+00 -0.12567399176E+04  0.12567399176E+04  0.50400001928E-02 0.  1.
    10030    2    1    2    0    0  0.00000000000E+00  0.00000000000E+00  0.13209412157E+04  0.38344210509E+04  0.35997081966E+04 0.  0.
        3    1    3    3  502    0  0.15949326878E+03 -0.16671204375E+04 -0.41874165940E+02  0.16752558348E+04  0.10100000352E+00 0. -1.
       -3    1    3    3    0  502 -0.15949326878E+03  0.16671204375E+04  0.13628153816E+04  0.21591652162E+04  0.10100000352E+00 0.  1.
</event>
<event>
 5   0  0.2198900E-07  0.3609281E+04  0.7818609E-02  0.8088369E-01
        2   -1    0    0  501    0  0.00000000000E+00  0.00000000000E+00  0.11722605401E+04  0.11722605401E+04  0.25500000920E-02 0.  1.
       -2   -1    0    0    0  501  0.00000000000E+00  0.00000000000E+00 -0.27781605977E+04  0.27781605977E+04  0.25500000920E-02 0. -1.
    10030    2    1    2    0    0  0.00000000000E+00  0.00000000000E+00 -0.16059000576E+04  0.39504211377E+04  0.36092813925E+04 0.  0.
        2    1    3    3  502    0 -0.34551112382E+03 -0.32606984928E+03  0.11025882092E+04  0.12005832926E+04  0.25500000920E-02 0.  1.
       -2    1    3    3    0  502  0.34551112382E+03  0.32606984928E+03 -0.27084882668E+04  0.27498378452E+04  0.25500000920E-02 0. -1.
</event>
<event>
 5   0  0.2238968E-07  0.3571026E+04  0.7818609E-02  0.8097161E-01
        2   -1    0    0  501    0  0.00000000000E+00  0.00000000000E+00  0.22097005808E+04  0.22097005808E+04  0.25500000920E-02 0.  1.
       -2   -1    0    0    0  501  0.00000000000E+00  0.00000000000E+00 -0.14427546986E+04  0.14427546986E+04  0.25500000920E-02 0. -1.
    10030    2    1    2    0    0  0.00000000000E+00  0.00000000000E+00  0.76694588215E+03  0.36524552794E+04  0.35710255644E+04 0.  0.
        3    1    3    3  502    0 -0.16941713709E+04  0.49277299870E+03  0.10334064782E+03  0.17674052059E+04  0.10100000352E+00 0. -1.
       -3    1    3    3    0  502  0.16941713709E+04 -0.49277299870E+03  0.66360523432E+03  0.18850500734E+04  0.10100000352E+00 0.  1.
</event>
<event>
 5   0  0.7236375E-08  0.3610120E+04  0.7818609E-02  0.8088178E-01
       -1   -1    0    0    0  501  0.00000000000E+00  0.00000000000E+00  0.15115414441E+04  0.15115414441E+04  0.50400001928E-02 0.  1.
        1   -1    0    0  501    0  0.00000000000E+00  0.00000000000E+00 -0.21555754437E+04  0.21555754437E+04  0.50400001928E-02 0. -1.
    10030    2    1    2    0    0  0.00000000000E+00  0.00000000000E+00 -0.64403399960E+03  0.36671168879E+04  0.36101200086E+04 0.  0.
        5    1    3    3  502    0 -0.14687006043E+04 -0.29162268681E+03 -0.13459466419E+04  0.20133851369E+04  0.46999998093E+01 0. -1.
       -5    1    3    3    0  502  0.14687006043E+04  0.29162268681E+03  0.70191264234E+03  0.16537317509E+04  0.46999998093E+01 0.  1.
</event>
<event>
 5   0  0.2309391E-07  0.3607999E+04  0.7818609E-02  0.8088662E-01
        2   -1    0    0  501    0  0.00000000000E+00  0.00000000000E+00  0.23652995352E+04  0.23652995352E+04  0.25500000920E-02 0. -1.
       -2   -1    0    0    0  501  0.00000000000E+00  0.00000000000E+00 -0.13758994075E+04  0.13758994075E+04  0.25500000920E-02 0.  1.
    10030    2    1    2    0    0  0.00000000000E+00  0.00000000000E+00  0.98940012773E+03  0.37411989428E+04  0.36079990184E+04 0.  0.
        4    1    3    3  502    0 -0.15140265886E+04  0.93025935547E+03  0.17216417846E+03  0.17853014022E+04  0.12699999809E+01 0.  1.
       -4    1    3    3    0  502  0.15140265886E+04 -0.93025935547E+03  0.81723594927E+03  0.19558975406E+04  0.12699999809E+01 0. -1.
</event>
<event>
 5   0  0.2309391E-07  0.3607633E+04  0.7818609E-02  0.8088746E-01
        2   -1    0    0  501    0  0.00000000000E+00  0.00000000000E+00  0.17015664834E+04  0.17015664834E+04  0.25500000920E-02 0. -1.
       -2   -1    0    0    0  501  0.00000000000E+00  0.00000000000E+00 -0.19122107946E+04  0.19122107946E+04  0.25500000920E-02 0.  1.
    10030    2    1    2    0    0  0.00000000000E+00  0.00000000000E+00 -0.21064431115E+03  0.36137772780E+04  0.36076329066E+04 0.  0.
        4    1    3    3  502    0  0.79830786977E+03  0.14963339194E+04  0.51008690476E+03  0.17710169160E+04  0.12699999809E+01 0. -1.
       -4    1    3    3    0  502 -0.79830786977E+03 -0.14963339194E+04 -0.72073121591E+03  0.18427603620E+04  0.12699999809E+01 0.  1.
</event>
<event>
 5   0  0.2198900E-07  0.3611408E+04  0.7818609E-02  0.8087884E-01
       -2   -1    0    0    0  501  0.00000000000E+00  0.00000000000E+00  0.17872631404E+04  0.17872631404E+04  0.25500000920E-02 0. -1.
        2   -1    0    0  501    0  0.00000000000E+00  0.00000000000E+00 -0.18243353285E+04  0.18243353285E+04  0.25500000920E-02 0.  1.
    10030    2    1    2    0    0  0.00000000000E+00  0.00000000000E+00 -0.37072188083E+02  0.36115984689E+04  0.36114081954E+04 0.  0.
        2    1    3    3  502    0  0.62132837036E+03  0.81884219956E+03 -0.15032071175E+04  0.18210390248E+04  0.25500000920E-02 0.  1.
       -2    1    3    3    0  502 -0.62132837036E+03 -0.81884219956E+03  0.14661349295E+04  0.17905594441E+04  0.25500000920E-02 0. -1.
</event>
<event>
 5   0  0.7236375E-08  0.3584172E+04  0.7818609E-02  0.8094127E-01
       -1   -1    0    0    0  501  0.00000000000E+00  0.00000000000E+00  0.15055190345E+04  0.15055190346E+04  0.50400001928E-02 0.  1.
        1   -1    0    0  501    0  0.00000000000E+00  0.00000000000E+00 -0.21331991939E+04  0.21331991939E+04  0.50400001928E-02 0. -1.
    10030    2    1    2    0    0  0.00000000000E+00  0.00000000000E+00 -0.62768015938E+03  0.36387182285E+04  0.35841718658E+04 0.  0.
        5    1    3    3  502    0 -0.89666355374E+03 -0.69861748677E+03 -0.17203770989E+04  0.20619872390E+04  0.46999998093E+01 0. -1.
       -5    1    3    3    0  502  0.89666355374E+03  0.69861748677E+03  0.10926969395E+04  0.15767309895E+04  0.46999998093E+01 0.  1.
</event>
<event>
 5   0  0.2238968E-07  0.3610280E+04  0.7818609E-02  0.8088141E-01
       -2   -1    0    0    0  501  0.00000000000E+00  0.00000000000E+00  0.12020502470E+04  0.12020502470E+04  0.25500000920E-02 0.  1.
        2   -1    0    0  501    0  0.00000000000E+00  0.00000000000E+00 -0.27108102779E+04  0.27108102779E+04  0.25500000920E-02 0. -1.
    10030    2    1    2    0    0  0.00000000000E+00  0.00000000000E+00 -0.15087600308E+04  0.39128605249E+04  0.36102798585E+04 0.  0.
        3    1    3    3  502    0 -0.11493018628E+04  0.23399131512E+03  0.73280574279E+03  0.13829862523E+04  0.10100000352E+00 0.  1.
       -3    1    3    3    0  502  0.11493018628E+04 -0.23399131512E+03 -0.22415657736E+04  0.25298742726E+04  0.10100000352E+00 0. -1.
</event>
<event>
 5   0  0.7236375E-08  0.3655125E+04  0.7818609E-02  0.8077980E-01
        3   -1    0    0  501    0  0.00000000000E+00  0.00000000000E+00  0.14722689306E+04  0.14722689341E+04  0.10100000352E+00 0. -1.
       -3   -1    0    0    0  501  0.00000000000E+00  0.00000000000E+00 -0.22685972321E+04  0.22685972343E+04  0.10100000352E+00 0.  1.
    10030    2    1    2    0    0  0.00000000000E+00  0.00000000000E+00 -0.79632830146E+03  0.37408661684E+04  0.36551252955E+04 0.  0.
        5    1    3    3  502    0 -0.66964613939E+03  0.92100207392E+03  0.10648049685E+04  0.15590068900E+04  0.46999998093E+01 0. -1.
       -5    1    3    3    0  502  0.66964613939E+03 -0.92100207392E+03 -0.18611332700E+04  0.21818592784E+04  0.46999998093E+01 0.  1.
</event>
<event>
 5   0  0.7261233E-08  0.3556401E+04  0.7818609E-02  0.8100552E-01
        1   -1    0    0  501    0  0.00000000000E+00  0.00000000000E+00  0.17210414403E+04  0.17210414403E+04  0.50400001928E-02 0.  1.
       -1   -1    0    0    0  501  0.00000000000E+00  0.00000000000E+00 -0.18372576906E+04  0.18372576906E+04  0.50400001928E-02 0. -1.
    10030    2    1    2    0    0  0.00000000000E+00  0.00000000000E+00 -0.11621625031E+03  0.35582991309E+04  0.35564007772E+04 0.  0.
        3    1    3    3  502    0  0.83068350002E+03  0.16414586182E+03 -0.16225980085E+04  0.18302467726E+04  0.10100000352E+00 0. -1.
       -3    1    3    3    0  502 -0.83068350002E+03 -0.16414586182E+03  0.15063817582E+04  0.17280523583E+04  0.10100000352E+00 0.  1.
</event>
<event>
 5   0  0.2309391E-07  0.3599552E+04  0.7818609E-02  0.8090594E-01
        2   -1    0    0  501    0  0.00000000000E+00  0.00000000000E+00  0.23651032139E+04  0.23651032139E+04  0.25500000920E-02 0.  1.
       -2   -1    0    0    0  501  0.00000000000E+00  0.00000000000E+00 -0.13695781014E+04  0.13695781014E+04  0.25500000920E-02 0. -1.
    10030    2    1    2    0    0  0.00000000000E+00  0.00000000000E+00  0.99552511251E+03  0.37346813153E+04  0.35995519550E+04 0.  0.
        4    1    3    3  502    0  0.41057153755E+03  0.10847527297E+04  0.19256289700E+04  0.22479559638E+04  0.12699999809E+01 0.  1.
       -4    1    3    3    0  502 -0.41057153755E+03 -0.10847527297E+04 -0.93010385754E+03  0.14867253515E+04  0.12699999809E+01 0. -1.
</event>
<event>
 5   0  0.7514289E-08  0.3464282E+04  0.7818609E-02  0.8122307E-01
        1   -1    0    0  501    0  0.00000000000E+00  0.00000000000E+00  0.18174462490E+04  0.18174462490E+04  0.50400001928E-02 0.  1.
       -1   -1    0    0    0  501  0.00000000000E+00  0.00000000000E+00 -0.16508399165E+04  0.16508399165E+04  0.50400001928E-02 0. -1.
    10030    2    1    2    0    0  0.00000000000E+00  0.00000000000E+00  0.16660633249E+03  0.34682861656E+04  0.34642822137E+04 0.  0.
        4    1    3    3  502    0 -0.15162236873E+04  0.81605629735E+02  0.91776362850E+03  0.17742281250E+04  0.12699999809E+01 0.  1.
       -4    1    3    3    0  502  0.15162236873E+04 -0.81605629735E+02 -0.75115729601E+03  0.16940580406E+04  0.12699999809E+01 0. -1.
</event>
<event>
 5   0  0.7261233E-08  0.3605160E+04  0.7818609E-02  0.8089311E-01
        1   -1    0    0  501    0  0.00000000000E+00  0.00000000000E+00  0.26116836335E+04  0.26116836335E+04  0.50400001928E-02 0. -1.
       -1   -1    0    0    0  501  0.00000000000E+00  0.00000000000E+00 -0.12441380244E+04  0.12441380244E+04  0.50400001928E-02 0.  1.
    10030    2    1    2    0    0  0.00000000000E+00  0.00000000000E+00  0.13675456090E+04  0.38558216579E+04  0.36051601441E+04 0.  0.
        3    1    3    3  502    0 -0.61298135828E+03 -0.98446116439E+03  0.21597163650E+04  0.24513842451E+04  0.10100000352E+00 0. -1.
       -3    1    3    3    0  502  0.61298135828E+03  0.98446116439E+03 -0.79217075593E+03  0.14044374128E+04  0.10100000352E+00 0.  1.
</event>
<event>
 5   0  0.2198900E-07  0.3599553E+04  0.7818609E-02  0.8090594E-01
        2   -1    0    0  501    0  0.00000000000E+00  0.00000000000E+00  0.26054691692E+04  0.26054691692E+04  0.25500000920E-02 0.  1.
       -2   -1    0    0    0  501  0.00000000000E+00  0.00000000000E+00 -0.12432290472E+04  0.12432290472E+04  0.25500000920E-02 0. -1.
    10030    2    1    2    0    0  0.00000000000E+00  0.00000000000E+00  0.13622401220E+04  0.38486982164E+04  0.35995527238E+04 0.  0.
        2    1    3    3  502    0 -0.78176431771E+03  0.14374337547E+04  0.14825496067E+04  0.22080137191E+04  0.25500000920E-02 0.  1.
       -2    1    3    3    0  502  0.78176431771E+03 -0.14374337547E+04 -0.12030948476E+03  0.16406844973E+04  0.25500000920E-02 0. -1.
</event>
<event>
 5   0  0.7261233E-08  0.3619372E+04  0.7818609E-02  0.8086069E-01
       -1   -1    0    0    0  501  0.00000000000E+00  0.00000000000E+00  0.11998057052E+04  0.11998057052E+04  0.50400001928E-02 0.  1.
        1   -1    0    0  501    0  0.00000000000E+00  0.00000000000E+00 -0.27295777476E+04  0.27295777476E+04  0.50400001928E-02 0. -1.
    10030    2    1    2    0    0  0.00000000000E+00  0.00000000000E+00 -0.15297720425E+04  0.39293834528E+04  0.36193717434E+04 0.  0.
        3    1    3    3  502    0  0.77376448983E+03  0.81424739059E+03  0.77553827407E+03  0.13649798253E+04  0.10100000352E+00 0.  1.
       -3    1    3    3    0  502 -0.77376448983E+03 -0.81424739059E+03 -0.23053103165E+04  0.25644036275E+04  0.10100000352E+00 0. -1.
</event>
<event>
 5   0  0.2309391E-07  0.3606231E+04  0.7818609E-02  0.8089066E-01
        2   -1    0    0  501    0  0.00000000000E+00  0.00000000000E+00  0.23721766958E+04  0.23721766958E+04  0.25500000920E-02 0.  1.
       -2   -1    0    0    0  501  0.00000000000E+00  0.00000000000E+00 -0.13705665122E+04  0.13705665123E+04  0.25500000920E-02 0. -1.
    10030    2    1    2    0    0  0.00000000000E+00  0.00000000000E+00  0.10016101835E+04  0.37427432080E+04  0.36062312407E+04 0.  0.
        4    1    3    3  502    0  0.14827899802E+04  0.87357713156E+03  0.10591488012E+04  0.20207921531E+04  0.12699999809E+01 0.  1.
       -4    1    3    3    0  502 -0.14827899802E+04 -0.87357713156E+03 -0.57538617655E+02  0.17219510549E+04  0.12699999809E+01 0. -1.
</event>
<event>
 5   0  0.2199902E-07  0.3590342E+04  0.7818609E-02  0.8092708E-01
       -2   -1    0    0    0  501  0.00000000000E+00  0.00000000000E+00  0.16525345644E+04  0.16525345644E+04  0.25500000920E-02 0. -1.
        2   -1    0    0  501    0  0.00000000000E+00  0.00000000000E+00 -0.19501187157E+04  0.19501187158E+04  0.25500000920E-02 0.  1.
    10030    2    1    2    0    0  0.00000000000E+00  0.00000000000E+00 -0.29758415136E+03  0.36026532801E+04  0.35903418124E+04 0.  0.
        1    1    3    3  502    0 -0.12347570669E+04  0.12077648227E+04  0.34208650495E+03  0.17607793893E+04  0.50400001928E-02 0. -1.
       -1    1    3    3    0  502  0.12347570669E+04 -0.12077648227E+04 -0.63967065630E+03  0.18418738908E+04  0.50400001928E-02 0.  1.
</event>
<event>
 5   0  0.2199902E-07  0.3604957E+04  0.7818609E-02  0.8089357E-01
        2   -1    0    0  501    0  0.00000000000E+00  0.00000000000E+00  0.20198541368E+04  0.20198541368E+04  0.25500000920E-02 0.  1.
       -2   -1    0    0    0  501  0.00000000000E+00  0.00000000000E+00 -0.16084970435E+04  0.16084970435E+04  0.25500000920E-02 0. -1.
    10030    2    1    2    0    0  0.00000000000E+00  0.00000000000E+00  0.41135709333E+03  0.36283511803E+04  0.36049573686E+04 0.  0.
        1    1    3    3  502    0  0.14706557957E+04 -0.10326713369E+04  0.64443853877E+02  0.17981633880E+04  0.50400001928E-02 0.  1.
       -1    1    3    3    0  502 -0.14706557957E+04  0.10326713369E+04  0.34691323945E+03  0.18301877923E+04  0.50400001928E-02 0. -1.
</event>
<event>
 5   0  0.2238968E-07  0.3612374E+04  0.7818609E-02  0.8087663E-01
       -2   -1    0    0    0  501  0.00000000000E+00  0.00000000000E+00  0.30940458861E+04  0.30940458861E+04  0.25500000920E-02 0. -1.
        2   -1    0    0  501    0  0.00000000000E+00  0.00000000000E+00 -0.10543834739E+04  0.10543834739E+04  0.25500000920E-02 0.  1.
    10030    2    1    2    0    0  0.00000000000E+00  0.00000000000E+00  0.20396624122E+04  0.41484293601E+04  0.36123736517E+04 0.  0.
        3    1    3    3  502    0 -0.96925576492E+03  0.15233181827E+04  0.10755705362E+04  0.21016200922E+04  0.10100000352E+00 0. -1.
       -3    1    3    3    0  502  0.96925576492E+03 -0.15233181827E+04  0.96409187602E+03  0.20468092679E+04  0.10100000352E+00 0.  1.
</event>
<event>
 5   0  0.2342606E-07  0.3598604E+04  0.7818609E-02  0.8090811E-01
        2   -1    0    0  501    0  0.00000000000E+00  0.00000000000E+00  0.15996492556E+04  0.15996492556E+04  0.25500000920E-02 0. -1.
       -2   -1    0    0    0  501  0.00000000000E+00  0.00000000000E+00 -0.20238738906E+04  0.20238738906E+04  0.25500000920E-02 0.  1.
    10030    2    1    2    0    0  0.00000000000E+00  0.00000000000E+00 -0.42422463504E+03  0.36235231462E+04  0.35986043753E+04 0.  0.
        5    1    3    3  502    0  0.15545330527E+04 -0.89453722241E+03 -0.67253634512E+02  0.17948022163E+04  0.46999998093E+01 0. -1.
       -5    1    3    3    0  502 -0.15545330527E+04  0.89453722241E+03 -0.35697100053E+03  0.18287209299E+04  0.46999998093E+01 0.  1.
</event>
<event>
 5   0  0.7261233E-08  0.3608051E+04  0.7818609E-02  0.8088650E-01
       -1   -1    0    0    0  501  0.00000000000E+00  0.00000000000E+00  0.20319857821E+04  0.20319857821E+04  0.50400001928E-02 0. -1.
        1   -1    0    0  501    0  0.00000000000E+00  0.00000000000E+00 -0.16016391235E+04  0.16016391235E+04  0.50400001928E-02 0.  1.
    10030    2    1    2    0    0  0.00000000000E+00  0.00000000000E+00  0.43034665861E+03  0.36336249056E+04  0.36080509570E+04 0.  0.
        3    1    3    3  502    0 -0.53821392945E+03  0.83228114651E+01 -0.15188803034E+04  0.16114406255E+04  0.10100000352E+00 0.  1.
       -3    1    3    3    0  502  0.53821392945E+03 -0.83228114651E+01  0.19492269621E+04  0.20221842801E+04  0.10100000352E+00 0. -1.
</event>
<event>
 5   0  0.7514289E-08  0.3575521E+04  0.7818609E-02  0.8096122E-01
        1   -1    0    0  501    0  0.00000000000E+00  0.00000000000E+00  0.24555054798E+04  0.24555054798E+04  0.50400001928E-02 0.  1.
       -1   -1    0    0    0  501  0.00000000000E+00  0.00000000000E+00 -0.13016004828E+04  0.13016004828E+04  0.50400001928E-02 0. -1.
    10030    2    1    2    0    0  0.00000000000E+00  0.00000000000E+00  0.11539049970E+04  0.37571059626E+04  0.35755207274E+04 0.  0.
        4    1    3    3  502    0 -0.21635423108E+03  0.11704713523E+03  0.24376373922E+04  0.24500177252E+04  0.12699999809E+01 0.  1.
       -4    1    3    3    0  502  0.21635423108E+03 -0.11704713523E+03 -0.12837323951E+04  0.13070882374E+04  0.12699999809E+01 0. -1.
</event>
<event>
 5   0  0.2309391E-07  0.3601811E+04  0.7818609E-02  0.8090077E-01
        2   -1    0    0  501    0  0.00000000000E+00  0.00000000000E+00  0.11541243283E+04  0.11541243283E+04  0.25500000920E-02 0.  1.
       -2   -1    0    0    0  501  0.00000000000E+00  0.00000000000E+00 -0.28101486545E+04  0.28101486545E+04  0.25500000920E-02 0. -1.
    10030    2    1    2    0    0  0.00000000000E+00  0.00000000000E+00 -0.16560243262E+04  0.39642729828E+04  0.36018111712E+04 0.  0.
        4    1    3    3  502    0  0.34172278414E+03 -0.11647954792E+04  0.63617601857E+03  0.13704906089E+04  0.12699999809E+01 0.  1.
       -4    1    3    3    0  502 -0.34172278414E+03  0.11647954792E+04 -0.22922003448E+04  0.25937823739E+04  0.12699999809E+01 0. -1.
</event>
<event>
 5   0  0.7261233E-08  0.3600218E+04  0.7818609E-02  0.8090442E-01
       -1   -1    0    0    0  501  0.00000000000E+00  0.00000000000E+00  0.28406201301E+04  0.28406201301E+04  0.50400001928E-02 0.  1.
        1   -1    0    0  501    0  0.00000000000E+00  0.00000000000E+00 -0.11407340782E+04  0.11407340782E+04  0.50400001928E-02 0. -1.
    10030    2    1    2    0    0  0.00000000000E+00  0.00000000000E+00  0.16998860519E+04  0.39813542082E+04  0.36002178743E+04 0.  0.
        3    1    3    3  502    0 -0.13106071592E+02 -0.17038638163E+04  0.14919815959E+04  0.22648030303E+04  0.10100000352E+00 0.  1.
       -3    1    3    3    0  502  0.13106071592E+02  0.17038638163E+04  0.20790445600E+03  0.17165511779E+04  0.10100000352E+00 0. -1.
</event>
<event>
 5   0  0.7347303E-08  0.3605156E+04  0.7818609E-02  0.8089312E-01
       -1   -1    0    0    0  501  0.00000000000E+00  0.00000000000E+00  0.11343893599E+04  0.11343893599E+04  0.50400001928E-02 0.  1.
        1   -1    0    0  501    0  0.00000000000E+00  0.00000000000E+00 -0.28643488395E+04  0.28643488395E+04  0.50400001928E-02 0. -1.
    10030    2    1    2    0    0  0.00000000000E+00  0.00000000000E+00 -0.17299594796E+04  0.39987381994E+04  0.36051556674E+04 0.  0.
        2    1    3    3  502    0 -0.11289885515E+04 -0.54498822469E+03 -0.23016293651E+04  0.26209015717E+04  0.25500000920E-02 0. -1.
       -2    1    3    3    0  502  0.11289885515E+04  0.54498822469E+03  0.57166988546E+03  0.13778366276E+04  0.25500000920E-02 0.  1.
</event>
<event>
 5   0  0.7236375E-08  0.3500335E+04  0.7818609E-02  0.8113711E-01
        1   -1    0    0  501    0  0.00000000000E+00  0.00000000000E+00  0.28772295369E+04  0.28772295369E+04  0.50400001928E-02 0.  1.
       -1   -1    0    0    0  501  0.00000000000E+00  0.00000000000E+00 -0.10645955797E+04  0.10645955797E+04  0.50400001928E-02 0. -1.
    10030    2    1    2    0    0  0.00000000000E+00  0.00000000000E+00  0.18126339572E+04  0.39418251166E+04  0.35003347536E+04 0.  0.
        5    1    3    3  502    0  0.14023486337E+04 -0.69946558145E+03  0.28782133599E+02  0.15673813484E+04  0.46999998093E+01 0. -1.
       -5    1    3    3    0  502 -0.14023486337E+04  0.69946558145E+03  0.17838518236E+04  0.23744437682E+04  0.46999998093E+01 0.  1.
</event>
<event>
 5   0  0.7261233E-08  0.3550675E+04  0.7818609E-02  0.8101885E-01
       -1   -1    0    0    0  501  0.00000000000E+00  0.00000000000E+00  0.18653516627E+04  0.18653516627E+04  0.50400001928E-02 0.  1.
        1   -1    0    0  501    0  0.00000000000E+00  0.00000000000E+00 -0.16896669411E+04  0.16896669411E+04  0.50400001928E-02 0. -1.
    10030    2    1    2    0    0  0.00000000000E+00  0.00000000000E+00  0.17568472164E+03  0.35550186038E+04  0.35506748868E+04 0.  0.
        3    1    3    3  502    0  0.51777385273E+02  0.60067955213E+03 -0.15840286194E+04  0.16948874592E+04  0.10100000352E+00 0. -1.
       -3    1    3    3    0  502 -0.51777385273E+02 -0.60067955213E+03  0.17597133411E+04  0.18601311446E+04  0.10100000352E+00 0.  1.
</event>
<event>
 5   0  0.7236375E-08  0.3584280E+04  0.7818609E-02  0.8094102E-01
        1   -1    0    0  501    0  0.00000000000E+00  0.00000000000E+00  0.21603883596E+04  0.21603883596E+04  0.50400001928E-02 0. -1.
       -1   -1    0    0    0  501  0.00000000000E+00  0.00000000000E+00 -0.14866610880E+04  0.14866610880E+04  0.50400001928E-02 0.  1.
    10030    2    1    2    0    0  0.00000000000E+00  0.00000000000E+00  0.67372727159E+03  0.36470494476E+04  0.35842797375E+04 0.  0.
        5    1    3    3  502    0  0.50573432395E+03  0.65035701975E+03 -0.12825521095E+04  0.15243665777E+04  0.46999998093E+01 0.  1.
       -5    1    3    3    0  502 -0.50573432395E+03 -0.65035701975E+03  0.19562793811E+04  0.21226828699E+04  0.46999998093E+01 0. -1.
</event>
<event>
 5   0  0.7347303E-08  0.3624735E+04  0.7818609E-02  0.8084849E-01
        1   -1    0    0  501    0  0.00000000000E+00  0.00000000000E+00  0.17874477381E+04  0.17874477381E+04  0.50400001928E-02 0.  1.
       -1   -1    0    0    0  501  0.00000000000E+00  0.00000000000E+00 -0.18376341939E+04  0.18376341939E+04  0.50400001928E-02 0. -1.
    10030    2    1    2    0    0  0.00000000000E+00  0.00000000000E+00 -0.50186455844E+02  0.36250819320E+04  0.36247345190E+04 0.  0.
        2    1    3    3  502    0 -0.42971946679E+03  0.17052141340E+04 -0.46361104581E+03  0.18186119061E+04  0.25500000920E-02 0. -1.
       -2    1    3    3    0  502  0.42971946679E+03 -0.17052141340E+04  0.41342458996E+03  0.18064700260E+04  0.25500000920E-02 0.  1.
</event>
<event>
 5   0  0.7347303E-08  0.3590697E+04  0.7818609E-02  0.8092626E-01
       -1   -1    0    0    0  501  0.00000000000E+00  0.00000000000E+00  0.29306245962E+04  0.29306245963E+04  0.50400001928E-02 0.  1.
        1   -1    0    0  501    0  0.00000000000E+00  0.00000000000E+00 -0.10998601027E+04  0.10998601027E+04  0.50400001928E-02 0. -1.
    10030    2    1    2    0    0  0.00000000000E+00  0.00000000000E+00  0.18307644935E+04  0.40304846990E+04  0.35906974640E+04 0.  0.
        2    1    3    3  502    0 -0.17230106510E+03  0.16870462160E+04  0.15770403989E+04  0.23157869098E+04  0.25500000920E-02 0. -1.
       -2    1    3    3    0  502  0.17230106510E+03 -0.16870462160E+04  0.25372409459E+03  0.17146977891E+04  0.25500000920E-02 0.  1.
</event>
<event>
 5   0  0.2342606E-07  0.3604928E+04  0.7818609E-02  0.8089364E-01
        2   -1    0    0  501    0  0.00000000000E+00  0.00000000000E+00  0.23727941099E+04  0.23727941099E+04  0.25500000920E-02 0. -1.
       -2   -1    0    0    0  501  0.00000000000E+00  0.00000000000E+00 -0.13692200811E+04  0.13692200811E+04  0.25500000920E-02 0.  1.
    10030    2    1    2    0    0  0.00000000000E+00  0.00000000000E+00  0.10035740288E+04  0.37420141910E+04  0.36049284839E+04 0.  0.
        5    1    3    3  502    0 -0.10862073117E+04  0.14339124537E+04  0.61970255052E+03  0.19026309653E+04  0.46999998093E+01 0. -1.
       -5    1    3    3    0  502  0.10862073117E+04 -0.14339124537E+04  0.38387147829E+03  0.18393832257E+04  0.46999998093E+01 0.  1.
</event>
<event>
 5   0  0.7261233E-08  0.3696653E+04  0.7818609E-02  0.8068704E-01
       -1   -1    0    0    0  501  0.00000000000E+00  0.00000000000E+00  0.17162431041E+04  0.17162431041E+04  0.50400001928E-02 0. -1.
        1   -1    0    0  501    0  0.00000000000E+00  0.00000000000E+00 -0.19905756130E+04  0.19905756130E+04  0.50400001928E-02 0.  1.
    10030    2    1    2    0    0  0.00000000000E+00  0.00000000000E+00 -0.27433250890E+03  0.37068187172E+04  0.36966534429E+04 0.  0.
        3    1    3    3  502    0 -0.40063324834E+03 -0.43858797646E+02  0.16716458131E+04  0.17195436396E+04  0.10100000352E+00 0. -1.
       -3    1    3    3    0  502  0.40063324834E+03  0.43858797646E+02 -0.19459783220E+04  0.19872750775E+04  0.10100000352E+00 0.  1.
</event>
<event>
 5   0  0.2342606E-07  0.3605729E+04  0.7818609E-02  0.8089181E-01
        2   -1    0    0  501    0  0.00000000000E+00  0.00000000000E+00  0.21963723705E+04  0.21963723705E+04  0.25500000920E-02 0.  1.
       -2   -1    0    0    0  501  0.00000000000E+00  0.00000000000E+00 -0.14798581303E+04  0.14798581303E+04  0.25500000920E-02 0. -1.
    10030    2    1    2    0    0  0.00000000000E+00  0.00000000000E+00  0.71651424018E+03  0.36762305009E+04  0.36057285032E+04 0.  0.
        5    1    3    3  502    0  0.55166294477E+03 -0.17157377469E+04  0.31033381310E+03  0.18287747774E+04  0.46999998093E+01 0. -1.
       -5    1    3    3    0  502 -0.55166294477E+03  0.17157377469E+04  0.40618042708E+03  0.18474557235E+04  0.46999998093E+01 0.  1.
</event>
<event>
 5   0  0.7261233E-08  0.3603240E+04  0.7818609E-02  0.8089750E-01
       -1   -1    0    0    0  501  0.00000000000E+00  0.00000000000E+00  0.14188053006E+04  0.14188053006E+04  0.50400001928E-02 0.  1.
        1   -1    0    0  501    0  0.00000000000E+00  0.00000000000E+00 -0.22877239822E+04  0.22877239822E+04  0.50400001928E-02 0. -1.
    10030    2    1    2    0    0  0.00000000000E+00  0.00000000000E+00 -0.86891868155E+03  0.37065292828E+04  0.36032401598E+04 0.  0.
        3    1    3    3  502    0  0.15439517730E+03 -0.89281927249E+03 -0.20362970977E+04  0.22287821797E+04  0.10100000352E+00 0. -1.
       -3    1    3    3    0  502 -0.15439517730E+03  0.89281927249E+03  0.11673784161E+04  0.14777471031E+04  0.10100000352E+00 0.  1.
</event>
<event>
 5   0  0.2309391E-07  0.3698605E+04  0.7818609E-02  0.8068271E-01
       -2   -1    0    0    0  501  0.00000000000E+00  0.00000000000E+00  0.19741159343E+04  0.19741159343E+04  0.25500000920E-02 0. -1.
        2   -1    0    0  501    0  0.00000000000E+00  0.00000000000E+00 -0.17323801803E+04  0.17323801803E+04  0.25500000920E-02 0.  1.
    10030    2    1    2    0    0  0.00000000000E+00  0.00000000000E+00  0.24173575395E+03  0.37064961146E+04  0.36986047738E+04 0.  0.
        4    1    3    3  502    0  0.12823150946E+04 -0.11513319040E+04  0.79313488203E+03  0.18970929627E+04  0.12699999809E+01 0. -1.
       -4    1    3    3    0  502 -0.12823150946E+04  0.11513319040E+04 -0.55139912808E+03  0.18094031520E+04  0.12699999809E+01 0.  1.
</event>
<event>
 5   0  0.7514289E-08  0.3572068E+04  0.7818609E-02  0.8096920E-01
        1   -1    0    0  501    0  0.00000000000E+00  0.00000000000E+00  0.16843237272E+04  0.16843237272E+04  0.50400001928E-02 0. -1.
       -1   -1    0    0    0  501  0.00000000000E+00  0.00000000000E+00 -0.18938863388E+04  0.18938863388E+04  0.50400001928E-02 0.  1.
    10030    2    1    2    0    0  0.00000000000E+00  0.00000000000E+00 -0.20956261166E+03  0.35782100660E+04  0.35720681388E+04 0.  0.
        4    1    3    3  502    0  0.10415493370E+04 -0.19663813959E+03 -0.15447593493E+04  0.18734392543E+04  0.12699999809E+01 0.  1.
       -4    1    3    3    0  502 -0.10415493370E+04  0.19663813959E+03  0.13351967376E+04  0.17047708117E+04  0.12699999809E+01 0. -1.
</event>
<event>
 5   0  0.2309391E-07  0.3608013E+04  0.7818609E-02  0.8088659E-01
       -2   -1    0    0    0  501  0.00000000000E+00  0.00000000000E+00  0.18654263352E+04  0.18654263352E+04  0.25500000920E-02 0.  1.
        2   -1    0    0  501    0  0.00000000000E+00  0.00000000000E+00 -0.17446087237E+04  0.17446087237E+04  0.25500000920E-02 0. -1.
    10030    2    1    2    0    0  0.00000000000E+00  0.00000000000E+00  0.12081761152E+03  0.36100350589E+04  0.36080127815E+04 0.  0.
        4    1    3    3  502    0 -0.59317052269E+03 -0.15160560472E+04 -0.71730430755E+03  0.17789896823E+04  0.12699999809E+01 0. -1.
       -4    1    3    3    0  502  0.59317052269E+03  0.15160560472E+04  0.83812191907E+03  0.18310453766E+04  0.12699999809E+01 0.  1.
</event>
<event>
 5   0  0.2198900E-07  0.3537823E+04  0.7818609E-02  0.8104884E-01
        2   -1    0    0  501    0  0.00000000000E+00  0.00000000000E+00  0.17046391997E+04  0.17046391997E+04  0.25500000920E-02 0.  1.
       -2   -1    0    0    0  501  0.00000000000E+00  0.00000000000E+00 -0.18356074499E+04  0.18356074499E+04  0.25500000920E-02 0. -1.
    10030    2    1    2    0    0  0.00000000000E+00  0.00000000000E+00 -0.13096825020E+03  0.35402466495E+04  0.35378232936E+04 0.  0.
        2    1    3    3  502    0 -0.13876176472E+04 -0.14340320518E+01  0.10323378248E+04  0.17295103862E+04  0.25500000920E-02 0.  1.
       -2    1    3    3    0  502  0.13876176472E+04  0.14340320518E+01 -0.11633060750E+04  0.18107362634E+04  0.25500000920E-02 0. -1.
</event>
<event>
 5   0  0.7236375E-08  0.3587786E+04  0.7818609E-02  0.8093295E-01
       -1   -1    0    0    0  501  0.00000000000E+00  0.00000000000E+00  0.14295756845E+04  0.14295756845E+04  0.50400001928E-02 0.  1.
        1   -1    0    0  501    0  0.00000000000E+00  0.00000000000E+00 -0.22510538385E+04  0.22510538385E+04  0.50400001928E-02 0. -1.
    10030    2    1    2    0    0  0.00000000000E+00  0.00000000000E+00 -0.82147815407E+03  0.36806295230E+04  0.35877858531E+04 0.  0.
        1    1    3    3  502    0 -0.87913439560E+03 -0.10866505207E+04  0.74279879615E+03  0.15828571291E+04  0.50400001928E-02 0.  1.
       -1    1    3    3    0  502  0.87913439560E+03  0.10866505207E+04 -0.15642769502E+04  0.20977723939E+04  0.50400001928E-02 0. -1.
</event>
<event>
 5   0  0.7236375E-08  0.3598699E+04  0.7818609E-02  0.8090790E-01
        1   -1    0    0  501    0  0.00000000000E+00  0.00000000000E+00  0.11661645537E+04  0.11661645538E+04  0.50400001928E-02 0. -1.
       -1   -1    0    0    0  501  0.00000000000E+00  0.00000000000E+00 -0.27763306109E+04  0.27763306109E+04  0.50400001928E-02 0.  1.
    10030    2    1    2    0    0  0.00000000000E+00  0.00000000000E+00 -0.16101660572E+04  0.39424951647E+04  0.35986988471E+04 0.  0.
        1    1    3    3  502    0  0.13874441867E+04 -0.11376275942E+04 -0.65623379164E+03  0.19104556273E+04  0.50400001928E-02 0.  1.
       -1    1    3    3    0  502 -0.13874441867E+04  0.11376275942E+04 -0.95393226553E+03  0.20320395374E+04  0.50400001928E-02 0. -1.
</event>
<event>
 5   0  0.2342606E-07  0.3596819E+04  0.7818609E-02  0.8091221E-01
       -2   -1    0    0    0  501  0.00000000000E+00  0.00000000000E+00  0.19817516770E+04  0.19817516770E+04  0.25500000920E-02 0.  1.
        2   -1    0    0  501    0  0.00000000000E+00  0.00000000000E+00 -0.16320295497E+04  0.16320295497E+04  0.25500000920E-02 0. -1.
    10030    2    1    2    0    0  0.00000000000E+00  0.00000000000E+00  0.34972212728E+03  0.36137812267E+04  0.35968193155E+04 0.  0.
        5    1    3    3  502    0 -0.90160656744E+03  0.86813502651E+03 -0.11226244270E+04  0.16813270118E+04  0.46999998093E+01 0. -1.
       -5    1    3    3    0  502  0.90160656744E+03 -0.86813502651E+03  0.14723465542E+04  0.19324542149E+04  0.46999998093E+01 0.  1.
</event>
<event>
 5   0  0.2238968E-07  0.3600399E+04  0.7818609E-02  0.8090400E-01
       -2   -1    0    0    0  501  0.00000000000E+00  0.00000000000E+00  0.12660531164E+04  0.12660531164E+04  0.25500000920E-02 0.  1.
        2   -1    0    0  501    0  0.00000000000E+00  0.00000000000E+00 -0.25597016706E+04  0.25597016706E+04  0.25500000920E-02 0. -1.
    10030    2    1    2    0    0  0.00000000000E+00  0.00000000000E+00 -0.12936485542E+04  0.38257547870E+04  0.36003990207E+04 0.  0.
        3    1    3    3  502    0 -0.33704729664E+03  0.14110539999E+04  0.48574315987E+03  0.15299087222E+04  0.10100000352E+00 0.  1.
       -3    1    3    3    0  502  0.33704729664E+03 -0.14110539999E+04 -0.17793917141E+04  0.22958460648E+04  0.10100000352E+00 0. -1.
</event>
<event>
 5   0  0.2238968E-07  0.3594857E+04  0.7818609E-02  0.8091671E-01
        2   -1    0    0  501    0  0.00000000000E+00  0.00000000000E+00  0.16363696091E+04  0.16363696091E+04  0.25500000920E-02 0.  1.
       -2   -1    0    0    0  501  0.00000000000E+00  0.00000000000E+00 -0.19743391116E+04  0.19743391116E+04  0.25500000920E-02 0. -1.
    10030    2    1    2    0    0  0.00000000000E+00  0.00000000000E+00 -0.33796950246E+03  0.36107087207E+04  0.35948566148E+04 0.  0.
        3    1    3    3  502    0  0.35351255588E+03 -0.14319878751E+04  0.86276845300E+03  0.17087802127E+04  0.10100000352E+00 0.  1.
       -3    1    3    3    0  502 -0.35351255588E+03  0.14319878751E+04 -0.12007379555E+04  0.19019285080E+04  0.10100000352E+00 0. -1.
</event>
<event>
 5   0  0.7347303E-08  0.3565723E+04  0.7818609E-02  0.8098389E-01
       -1   -1    0    0    0  501  0.00000000000E+00  0.00000000000E+00  0.11529109060E+04  0.11529109060E+04  0.50400001928E-02 0. -1.
        1   -1    0    0  501    0  0.00000000000E+00  0.00000000000E+00 -0.27570164264E+04  0.27570164264E+04  0.50400001928E-02 0.  1.
    10030    2    1    2    0    0  0.00000000000E+00  0.00000000000E+00 -0.16041055204E+04  0.39099273324E+04  0.35657225388E+04 0.  0.
        2    1    3    3  502    0 -0.61849750636E+03  0.80495867479E+03 -0.24091718171E+04  0.26143080304E+04  0.25500000920E-02 0.  1.
       -2    1    3    3    0  502  0.61849750636E+03 -0.80495867479E+03  0.80506629669E+03  0.12956193019E+04  0.25500000920E-02 0. -1.
</event>
<event>
 5   0  0.2309391E-07  0.3601502E+04  0.7818609E-02  0.8090148E-01
        2   -1    0    0  501    0  0.00000000000E+00  0.00000000000E+00  0.10132623820E+04  0.10132623820E+04  0.25500000920E-02 0. -1.
       -2   -1    0    0    0  501  0.00000000000E+00  0.00000000000E+00 -0.32002602135E+04  0.32002602135E+04  0.25500000920E-02 0.  1.
    10030    2    1    2    0    0  0.00000000000E+00  0.00000000000E+00 -0.21869978315E+04  0.42135225956E+04  0.36015015130E+04 0.  0.
        4    1    3    3  502    0  0.53985626450E+03 -0.59849079893E+03  0.79044722099E+03  0.11289129483E+04  0.12699999809E+01 0. -1.
       -4    1    3    3    0  502 -0.53985626450E+03  0.59849079893E+03 -0.29774450525E+04  0.30846096473E+04  0.12699999809E+01 0.  1.
</event>
<event>
 5   0  0.7236375E-08  0.3561330E+04  0.7818609E-02  0.8099407E-01
       -1   -1    0    0    0  501  0.00000000000E+00  0.00000000000E+00  0.12476206077E+04  0.12476206077E+04  0.50400001928E-02 0.  1.
        1   -1    0    0  501    0  0.00000000000E+00  0.00000000000E+00 -0.25414521921E+04  0.25414521921E+04  0.50400001928E-02 0. -1.
    10030    2    1    2    0    0  0.00000000000E+00  0.00000000000E+00 -0.12938315844E+04  0.37890727999E+04  0.35613301608E+04 0.  0.
        1    1    3    3  502    0 -0.10002969153E+04  0.45787791838E+03  0.84281081385E+03  0.13858485397E+04  0.50400001928E-02 0.  1.
       -1    1    3    3    0  502  0.10002969153E+04 -0.45787791838E+03 -0.21366423982E+04  0.24032242602E+04  0.50400001928E-02 0. -1.
</event>
<event>
 5   0  0.2238968E-07  0.3393283E+04  0.7818609E-02  0.8139557E-01
       -2   -1    0    0    0  501  0.00000000000E+00  0.00000000000E+00  0.14314439705E+04  0.14314439705E+04  0.25500000920E-02 0. -1.
        2   -1    0    0  501    0  0.00000000000E+00  0.00000000000E+00 -0.20109708986E+04  0.20109708986E+04  0.25500000920E-02 0.  1.
    10030    2    1    2    0    0  0.00000000000E+00  0.00000000000E+00 -0.57952692805E+03  0.34424148691E+04  0.33932828751E+04 0.  0.
        3    1    3    3  502    0 -0.15435118602E+04  0.41586589466E+03 -0.86651862001E+03  0.18183035594E+04  0.10100000352E+00 0.  1.
       -3    1    3    3    0  502  0.15435118602E+04 -0.41586589466E+03  0.28699169196E+03  0.16241113097E+04  0.10100000352E+00 0. -1.
</event>
<event>
 5   0  0.7236375E-08  0.3603947E+04  0.7818609E-02  0.8089588E-01
       -1   -1    0    0    0  501  0.00000000000E+00  0.00000000000E+00  0.15316751756E+04  0.15316751756E+04  0.50400001928E-02 0.  1.
        1   -1    0    0  501    0  0.00000000000E+00  0.00000000000E+00 -0.21199714553E+04  0.21199714553E+04  0.50400001928E-02 0. -1.
    10030    2    1    2    0    0  0.00000000000E+00  0.00000000000E+00 -0.58829627973E+03  0.36516466309E+04  0.36039465318E+04 0.  0.
        1    1    3    3  502    0  0.23159526773E+03 -0.12479586871E+03  0.15121121425E+04  0.15348268660E+04  0.50400001928E-02 0.  1.
       -1    1    3    3    0  502 -0.23159526773E+03  0.12479586871E+03 -0.21004084223E+04  0.21168197649E+04  0.50400001928E-02 0. -1.
</event>
<event>
 5   0  0.2342606E-07  0.3603440E+04  0.7818609E-02  0.8089704E-01
        2   -1    0    0  501    0  0.00000000000E+00  0.00000000000E+00  0.20856380176E+04  0.20856380176E+04  0.25500000920E-02 0. -1.
       -2   -1    0    0    0  501  0.00000000000E+00  0.00000000000E+00 -0.15564513476E+04  0.15564513477E+04  0.25500000920E-02 0.  1.
    10030    2    1    2    0    0  0.00000000000E+00  0.00000000000E+00  0.52918667000E+03  0.36420893653E+04  0.36034395254E+04 0.  0.
        5    1    3    3  502    0 -0.47075670017E+03 -0.16938485348E+04 -0.13389072998E+03  0.17631459234E+04  0.46999998093E+01 0.  1.
       -5    1    3    3    0  502  0.47075670017E+03  0.16938485348E+04  0.66307739998E+03  0.18789434419E+04  0.46999998093E+01 0. -1.
</event>
<event>
 5   0  0.7514289E-08  0.3604913E+04  0.7818609E-02  0.8089367E-01
        1   -1    0    0  501    0  0.00000000000E+00  0.00000000000E+00  0.16707664479E+04  0.16707664479E+04  0.50400001928E-02 0. -1.
       -1   -1    0    0    0  501  0.00000000000E+00  0.00000000000E+00 -0.19445261553E+04  0.19445261553E+04  0.50400001928E-02 0.  1.
    10030    2    1    2    0    0  0.00000000000E+00  0.00000000000E+00 -0.27375970738E+03  0.36152926033E+04  0.36049127909E+04 0.  0.
        4    1    3    3  502    0  0.11951865398E+03 -0.93347893401E+03 -0.16785699200E+04  0.19243872318E+04  0.12699999809E+01 0.  1.
       -4    1    3    3    0  502 -0.11951865398E+03  0.93347893401E+03  0.14048102126E+04  0.16909053714E+04  0.12699999809E+01 0. -1.
</event>
<event>
 5   0  0.2198900E-07  0.3586655E+04  0.7818609E-02  0.8093555E-01
       -2   -1    0    0    0  501  0.00000000000E+00  0.00000000000E+00  0.16650879218E+04  0.16650879218E+04  0.25500000920E-02 0.  1.
        2   -1    0    0  501    0  0.00000000000E+00  0.00000000000E+00 -0.19314434134E+04  0.19314434134E+04  0.25500000920E-02 0. -1.
    10030    2    1    2    0    0  0.00000000000E+00  0.00000000000E+00 -0.26635549153E+03  0.35965313352E+04  0.35866547642E+04 0.  0.
        2    1    3    3  502    0  0.75018860296E+02 -0.33259027712E+03 -0.18986448809E+04  0.19290143871E+04  0.25500000920E-02 0. -1.
       -2    1    3    3    0  502 -0.75018860296E+02  0.33259027712E+03  0.16322893893E+04  0.16675169482E+04  0.25500000920E-02 0.  1.
</event>
<event>
 5   0  0.2238968E-07  0.3603942E+04  0.7818609E-02  0.8089589E-01
       -2   -1    0    0    0  501  0.00000000000E+00  0.00000000000E+00  0.25153224915E+04  0.25153224915E+04  0.25500000920E-02 0. -1.
        2   -1    0    0  501    0  0.00000000000E+00  0.00000000000E+00 -0.12909273709E+04  0.12909273709E+04  0.25500000920E-02 0.  1.
    10030    2    1    2    0    0  0.00000000000E+00  0.00000000000E+00  0.12243951206E+04  0.38062498624E+04  0.36039415372E+04 0.  0.
        3    1    3    3  502    0  0.11150411780E+04  0.29740378354E+03 -0.84944668213E+03  0.14329429560E+04  0.10100000352E+00 0.  1.
       -3    1    3    3    0  502 -0.11150411780E+04 -0.29740378354E+03  0.20738418027E+04  0.23733069064E+04  0.10100000352E+00 0. -1.
</event>
<event>
 5   0  0.7236375E-08  0.3610206E+04  0.7818609E-02  0.8088158E-01
        1   -1    0    0  501    0  0.00000000000E+00  0.00000000000E+00  0.14393197214E+04  0.14393197215E+04  0.50400001928E-02 0. -1.
       -1   -1    0    0    0  501  0.00000000000E+00  0.00000000000E+00 -0.22638451655E+04  0.22638451655E+04  0.50400001928E-02 0.  1.
    10030    2    1    2    0    0  0.00000000000E+00  0.00000000000E+00 -0.82452544408E+03  0.37031648870E+04  0.36102060845E+04 0.  0.
        5    1    3    3  502    0  0.10975326707E+03  0.10366803610E+04  0.10993246936E+04  0.15150210634E+04  0.46999998093E+01 0. -1.
       -5    1    3    3    0  502 -0.10975326707E+03 -0.10366803610E+04 -0.19238501377E+04  0.21881438236E+04  0.46999998093E+01 0.  1.
</event>
<event>
 5   0  0.2342606E-07  0.3599072E+04  0.7818609E-02  0.8090704E-01
       -2   -1    0    0    0  501  0.00000000000E+00  0.00000000000E+00  0.24834265538E+04  0.24834265538E+04  0.25500000920E-02 0.  1.
        2   -1    0    0  501    0  0.00000000000E+00  0.00000000000E+00 -0.13039768019E+04  0.13039768019E+04  0.25500000920E-02 0. -1.
    10030    2    1    2    0    0  0.00000000000E+00  0.00000000000E+00  0.11794497519E+04  0.37874033556E+04  0.35990724445E+04 0.  0.
        5    1    3    3  502    0 -0.18619125467E+03  0.17662885949E+04  0.28497482651E+03  0.17987983004E+04  0.46999998093E+01 0. -1.
       -5    1    3    3    0  502  0.18619125467E+03 -0.17662885949E+04  0.89447492542E+03  0.19886050553E+04  0.46999998093E+01 0.  1.
</event>
<event>
 5   0  0.2309391E-07  0.3595721E+04  0.7818609E-02  0.8091473E-01
       -2   -1    0    0    0  501  0.00000000000E+00  0.00000000000E+00  0.12623836729E+04  0.12623836729E+04  0.25500000920E-02 0.  1.
        2   -1    0    0  501    0  0.00000000000E+00  0.00000000000E+00 -0.25604750818E+04  0.25604750818E+04  0.25500000920E-02 0. -1.
    10030    2    1    2    0    0  0.00000000000E+00  0.00000000000E+00 -0.12980914089E+04  0.38228587546E+04  0.35957207556E+04 0.  0.
        4    1    3    3  502    0 -0.27734059685E+03 -0.12444814117E+04  0.69855967615E+03  0.14538359690E+04  0.12699999809E+01 0.  1.
       -4    1    3    3    0  502  0.27734059685E+03  0.12444814117E+04 -0.19966510851E+04  0.23690227857E+04  0.12699999809E+01 0. -1.
</event>
<event>
 5   0  0.2198900E-07  0.3597048E+04  0.7818609E-02  0.8091168E-01
       -2   -1    0    0    0  501  0.00000000000E+00  0.00000000000E+00  0.16224406472E+04  0.16224406472E+04  0.25500000920E-02 0. -1.
        2   -1    0    0  501    0  0.00000000000E+00  0.00000000000E+00 -0.19937177310E+04  0.19937177310E+04  0.25500000920E-02 0.  1.
    10030    2    1    2    0    0  0.00000000000E+00  0.00000000000E+00 -0.37127708379E+03  0.36161583782E+04  0.35970480596E+04 0.  0.
        2    1    3    3  502    0 -0.11731694822E+04  0.14251448713E+03 -0.15485889719E+04  0.19480156100E+04  0.25500000920E-02 0.  1.
       -2    1    3    3    0  502  0.11731694822E+04 -0.14251448713E+03  0.11773118881E+04  0.16681427682E+04  0.25500000920E-02 0. -1.
</event>
<event>
 5   0  0.7347303E-08  0.3567482E+04  0.7818609E-02  0.8097981E-01
       -1   -1    0    0    0  501  0.00000000000E+00  0.00000000000E+00  0.17574650968E+04  0.17574650968E+04  0.50400001928E-02 0. -1.
        1   -1    0    0  501    0  0.00000000000E+00  0.00000000000E+00 -0.18104094563E+04  0.18104094563E+04  0.50400001928E-02 0.  1.
    10030    2    1    2    0    0  0.00000000000E+00  0.00000000000E+00 -0.52944359434E+02  0.35678745531E+04  0.35674817059E+04 0.  0.
        2    1    3    3  502    0  0.19767366249E+03 -0.16953611913E+04 -0.54460932484E+03  0.17916260108E+04  0.25500000920E-02 0.  1.
       -2    1    3    3    0  502 -0.19767366249E+03  0.16953611913E+04  0.49166496541E+03  0.17762485423E+04  0.25500000920E-02 0. -1.
</event>
<event>
 5   0  0.2198900E-07  0.3613620E+04  0.7818609E-02  0.8087379E-01
        2   -1    0    0  501    0  0.00000000000E+00  0.00000000000E+00  0.15674061680E+04  0.15674061680E+04  0.25500000920E-02 0. -1.
       -2   -1    0    0    0  501  0.00000000000E+00  0.00000000000E+00 -0.20827795484E+04  0.20827795484E+04  0.25500000920E-02 0.  1.
    10030    2    1    2    0    0  0.00000000000E+00  0.00000000000E+00 -0.51537338036E+03  0.36501857164E+04  0.36136195211E+04 0.  0.
        2    1    3    3  502    0 -0.88513420511E+03 -0.50405908234E+03  0.12497355795E+04  0.16122583969E+04  0.25500000920E-02 0. -1.
       -2    1    3    3    0  502  0.88513420511E+03  0.50405908234E+03 -0.17651089599E+04  0.20379273196E+04  0.25500000920E-02 0.  1.
</event>
<event>
 5   0  0.2342606E-07  0.3598718E+04  0.7818609E-02  0.8090785E-01
        2   -1    0    0  501    0  0.00000000000E+00  0.00000000000E+00  0.19763096503E+04  0.19763096503E+04  0.25500000920E-02 0. -1.
       -2   -1    0    0    0  501  0.00000000000E+00  0.00000000000E+00 -0.16382515287E+04  0.16382515287E+04  0.25500000920E-02 0.  1.
    10030    2    1    2    0    0  0.00000000000E+00  0.00000000000E+00  0.33805812163E+03  0.36145611790E+04  0.35987177193E+04 0.  0.
        5    1    3    3  502    0 -0.94070383166E+03 -0.37223290845E+03 -0.13255371504E+04  0.16674986849E+04  0.46999998093E+01 0.  1.
       -5    1    3    3    0  502  0.94070383166E+03  0.37223290845E+03  0.16635952720E+04  0.19470624941E+04  0.46999998093E+01 0. -1.
</event>
<event>
 5   0  0.2309391E-07  0.3607147E+04  0.7818609E-02  0.8088857E-01
       -2   -1    0    0    0  501  0.00000000000E+00  0.00000000000E+00  0.12561169175E+04  0.12561169175E+04  0.25500000920E-02 0. -1.
        2   -1    0    0  501    0  0.00000000000E+00  0.00000000000E+00 -0.25896290676E+04  0.25896290676E+04  0.25500000920E-02 0.  1.
    10030    2    1    2    0    0  0.00000000000E+00  0.00000000000E+00 -0.13335121501E+04  0.38457459851E+04  0.36071467294E+04 0.  0.
        4    1    3    3  502    0 -0.12019942787E+04  0.17816825307E+03  0.75419775973E+03  0.14301573501E+04  0.12699999809E+01 0. -1.
       -4    1    3    3    0  502  0.12019942787E+04 -0.17816825307E+03 -0.20877099099E+04  0.24155886349E+04  0.12699999809E+01 0.  1.
</event>
<event>
 5   0  0.2198900E-07  0.3593511E+04  0.7818609E-02  0.8091980E-01
        2   -1    0    0  501    0  0.00000000000E+00  0.00000000000E+00  0.20451914622E+04  0.20451914622E+04  0.25500000920E-02 0. -1.
       -2   -1    0    0    0  501  0.00000000000E+00  0.00000000000E+00 -0.15784980817E+04  0.15784980817E+04  0.25500000920E-02 0.  1.
    10030    2    1    2    0    0  0.00000000000E+00  0.00000000000E+00  0.46669338052E+03  0.36236895439E+04  0.35935112632E+04 0.  0.
        2    1    3    3  502    0 -0.93815155853E+02 -0.78616343281E+03 -0.13931078610E+04  0.16023744066E+04  0.25500000920E-02 0.  1.
       -2    1    3    3    0  502  0.93815155853E+02  0.78616343281E+03  0.18598012415E+04  0.20213151373E+04  0.25500000920E-02 0. -1.
</event>
<event>
 5   0  0.2342606E-07  0.3593953E+04  0.7818609E-02  0.8091878E-01
       -2   -1    0    0    0  501  0.00000000000E+00  0.00000000000E+00  0.17971522918E+04  0.17971522918E+04  0.25500000920E-02 0. -1.
        2   -1    0    0  501    0  0.00000000000E+00  0.00000000000E+00 -0.17968006620E+04  0.17968006620E+04  0.25500000920E-02 0.  1.
    10030    2    1    2    0    0  0.00000000000E+00  0.00000000000E+00  0.35162979943E+00  0.35939529539E+04  0.35939529367E+04 0.  0.
        5    1    3    3  502    0 -0.16640051631E+04  0.85505059844E+01  0.67849435964E+03  0.17970428431E+04  0.46999998093E+01 0. -1.
       -5    1    3    3    0  502  0.16640051631E+04 -0.85505059844E+01 -0.67814272984E+03  0.17969101107E+04  0.46999998093E+01 0.  1.
</event>
<event>
 5   0  0.7236375E-08  0.3588115E+04  0.7818609E-02  0.8093220E-01
       -1   -1    0    0    0  501  0.00000000000E+00  0.00000000000E+00  0.16237769328E+04  0.16237769328E+04  0.50400001928E-02 0. -1.
        1   -1    0    0  501    0  0.00000000000E+00  0.00000000000E+00 -0.19821944597E+04  0.19821944597E+04  0.50400001928E-02 0.  1.
    10030    2    1    2    0    0  0.00000000000E+00  0.00000000000E+00 -0.35841752689E+03  0.36059713925E+04  0.35881146247E+04 0.  0.
        1    1    3    3  502    0 -0.38359891510E+02 -0.71078152270E+03 -0.18342072128E+04  0.19674851852E+04  0.50400001928E-02 0.  1.
       -1    1    3    3    0  502  0.38359891510E+02  0.71078152270E+03  0.14757896860E+04  0.16384862073E+04  0.50400001928E-02 0. -1.
</event>
<event>
 5   0  0.2238968E-07  0.3596793E+04  0.7818609E-02  0.8091227E-01
        2   -1    0    0  501    0  0.00000000000E+00  0.00000000000E+00  0.19861857291E+04  0.19861857291E+04  0.25500000920E-02 0.  1.
       -2   -1    0    0    0  501  0.00000000000E+00  0.00000000000E+00 -0.16283619561E+04  0.16283619561E+04  0.25500000920E-02 0. -1.
    10030    2    1    2    0    0  0.00000000000E+00  0.00000000000E+00  0.35782377304E+03  0.36145476852E+04  0.35967926151E+04 0.  0.
        3    1    3    3  502    0 -0.42893208471E+03 -0.64881303027E+03  0.18084242348E+04  0.19685881501E+04  0.10100000352E+00 0.  1.
       -3    1    3    3    0  502  0.42893208471E+03  0.64881303027E+03 -0.14506004617E+04  0.16459595352E+04  0.10100000352E+00 0. -1.
</event>
<event>
 5   0  0.7236375E-08  0.3601804E+04  0.7818609E-02  0.8090079E-01
        1   -1    0    0  501    0  0.00000000000E+00  0.00000000000E+00  0.29056357508E+04  0.29056357508E+04  0.50400001928E-02 0. -1.
       -1   -1    0    0    0  501  0.00000000000E+00  0.00000000000E+00 -0.11161924270E+04  0.11161924270E+04  0.50400001928E-02 0.  1.
    10030    2    1    2    0    0  0.00000000000E+00  0.00000000000E+00  0.17894433238E+04  0.40218281777E+04  0.36018043370E+04 0.  0.
        1    1    3    3  502    0 -0.43491155326E+03  0.93785125566E+03 -0.75187281839E+03  0.12782901752E+04  0.50400001928E-02 0.  1.
       -1    1    3    3    0  502  0.43491155326E+03 -0.93785125566E+03  0.25413161422E+04  0.27435380026E+04  0.50400001928E-02 0. -1.
</event>
<event>
 5   0  0.2198900E-07  0.3585267E+04  0.7818609E-02  0.8093875E-01
        2   -1    0    0  501    0  0.00000000000E+00  0.00000000000E+00  0.22223036904E+04  0.22223036904E+04  0.25500000920E-02 0.  1.
       -2   -1    0    0    0  501  0.00000000000E+00  0.00000000000E+00 -0.14460373512E+04  0.14460373512E+04  0.25500000920E-02 0. -1.
    10030    2    1    2    0    0  0.00000000000E+00  0.00000000000E+00  0.77626633923E+03  0.36683410417E+04  0.35852665966E+04 0.  0.
        2    1    3    3  502    0  0.14487229021E+04  0.21589197421E+03  0.14455826929E+04  0.20579399199E+04  0.25500000920E-02 0. -1.
       -2    1    3    3    0  502 -0.14487229021E+04 -0.21589197421E+03 -0.66931635371E+03  0.16104011218E+04  0.25500000920E-02 0.  1.
</event>
<event>
 5   0  0.2342606E-07  0.3604425E+04  0.7818609E-02  0.8089479E-01
        2   -1    0    0  501    0  0.00000000000E+00  0.00000000000E+00  0.19445136190E+04  0.19445136190E+04  0.25500000920E-02 0. -1.
       -2   -1    0    0    0  501  0.00000000000E+00  0.00000000000E+00 -0.16703249363E+04  0.16703249363E+04  0.25500000920E-02 0.  1.
    10030    2    1    2    0    0  0.00000000000E+00  0.00000000000E+00  0.27418868271E+03  0.36148385553E+04  0.36044248289E+04 0.  0.
        5    1    3    3  502    0  0.14077853320E+04  0.95335013234E+03  0.73649282180E+03  0.18528841794E+04  0.46999998093E+01 0. -1.
       -5    1    3    3    0  502 -0.14077853320E+04 -0.95335013234E+03 -0.46230413909E+03  0.17619543759E+04  0.46999998093E+01 0.  1.
</event>
<event>
 5   0  0.7261233E-08  0.3630013E+04  0.7818609E-02  0.8083651E-01
       -1   -1    0    0    0  501  0.00000000000E+00  0.00000000000E+00  0.14705569757E+04  0.14705569757E+04  0.50400001928E-02 0. -1.
        1   -1    0    0  501    0  0.00000000000E+00  0.00000000000E+00 -0.22401368161E+04  0.22401368161E+04  0.50400001928E-02 0.  1.
    10030    2    1    2    0    0  0.00000000000E+00  0.00000000000E+00 -0.76957984038E+03  0.37106937917E+04  0.36300131247E+04 0.  0.
        3    1    3    3  502    0 -0.32294929709E+03  0.13922258778E+04 -0.15284318020E+04  0.20925326585E+04  0.10100000352E+00 0.  1.
       -3    1    3    3    0  502  0.32294929709E+03 -0.13922258778E+04  0.75885196165E+03  0.16181611332E+04  0.10100000352E+00 0. -1.
</event>
<event>
 5   0  0.7236375E-08  0.3602594E+04  0.7818609E-02  0.8089898E-01
       -1   -1    0    0    0  501  0.00000000000E+00  0.00000000000E+00  0.29493438436E+04  0.29493438436E+04  0.50400001928E-02 0. -1.
        1   -1    0    0  501    0  0.00000000000E+00  0.00000000000E+00 -0.11001333783E+04  0.11001333783E+04  0.50400001928E-02 0.  1.
    10030    2    1    2    0    0  0.00000000000E+00  0.00000000000E+00  0.18492104653E+04  0.40494772219E+04  0.36025944020E+04 0.  0.
        1    1    3    3  502    0  0.15317386941E+03  0.14872188646E+03 -0.10858615375E+04  0.11066506732E+04  0.50400001928E-02 0.  1.
       -1    1    3    3    0  502 -0.15317386941E+03 -0.14872188646E+03  0.29350720028E+04  0.29428265487E+04  0.50400001928E-02 0. -1.
</event>
<event>
 5   0  0.7236375E-08  0.3608210E+04  0.7818609E-02  0.8088614E-01
        1   -1    0    0  501    0  0.00000000000E+00  0.00000000000E+00  0.16432783247E+04  0.16432783247E+04  0.50400001928E-02 0.  1.
       -1   -1    0    0    0  501  0.00000000000E+00  0.00000000000E+00 -0.19806712686E+04  0.19806712686E+04  0.50400001928E-02 0. -1.
    10030    2    1    2    0    0  0.00000000000E+00  0.00000000000E+00 -0.33739294391E+03  0.36239495933E+04  0.36082096192E+04 0.  0.
        5    1    3    3  502    0 -0.13385433158E+04 -0.89642971994E+03  0.64693450758E+03  0.17360388239E+04  0.46999998093E+01 0.  1.
       -5    1    3    3    0  502  0.13385433158E+04  0.89642971994E+03 -0.98432745150E+03  0.18879107693E+04  0.46999998093E+01 0. -1.
</event>
<event>
 5   0  0.7236375E-08  0.3582627E+04  0.7818609E-02  0.8094483E-01
        3   -1    0    0  501    0  0.00000000000E+00  0.00000000000E+00  0.16329118543E+04  0.16329118575E+04  0.10100000352E+00 0.  1.
       -3   -1    0    0    0  501  0.00000000000E+00  0.00000000000E+00 -0.19650815336E+04  0.19650815362E+04  0.10100000352E+00 0. -1.
    10030    2    1    2    0    0  0.00000000000E+00  0.00000000000E+00 -0.33216967928E+03  0.35979933937E+04  0.35826274946E+04 0.  0.
        5    1    3    3  502    0 -0.65204863622E+03  0.10261413159E+04  0.11550990172E+04  0.16770239276E+04  0.46999998093E+01 0.  1.
       -5    1    3    3    0  502  0.65204863622E+03 -0.10261413159E+04 -0.14872686965E+04  0.19209694661E+04  0.46999998093E+01 0. -1.
</event>
<event>
 5   0  0.7261233E-08  0.3592328E+04  0.7818609E-02  0.8092251E-01
        1   -1    0    0  501    0  0.00000000000E+00  0.00000000000E+00  0.15869369994E+04  0.15869369995E+04  0.50400001928E-02 0. -1.
       -1   -1    0    0    0  501  0.00000000000E+00  0.00000000000E+00 -0.20329763051E+04  0.20329763051E+04  0.50400001928E-02 0.  1.
    10030    2    1    2    0    0  0.00000000000E+00  0.00000000000E+00 -0.44603930567E+03  0.36199133046E+04  0.35923281129E+04 0.  0.
        3    1    3    3  502    0  0.12770842804E+03  0.93285879608E+03  0.13183240997E+04  0.16200350052E+04  0.10100000352E+00 0. -1.
       -3    1    3    3    0  502 -0.12770842804E+03 -0.93285879608E+03 -0.17643634054E+04  0.19998782994E+04  0.10100000352E+00 0.  1.
</event>
<event>
 5   0  0.2342606E-07  0.3596126E+04  0.7818609E-02  0.8091380E-01
        2   -1    0    0  501    0  0.00000000000E+00  0.00000000000E+00  0.21538565064E+04  0.21538565064E+04  0.25500000920E-02 0. -1.
       -2   -1    0    0    0  501  0.00000000000E+00  0.00000000000E+00 -0.15010430695E+04  0.15010430695E+04  0.25500000920E-02 0.  1.
    10030    2    1    2    0    0  0.00000000000E+00  0.00000000000E+00  0.65281343690E+03  0.36548995759E+04  0.35961264614E+04 0.  0.
        5    1    3    3  502    0  0.15515166201E+04 -0.87674037673E+03  0.56933572458E+03  0.18708401236E+04  0.46999998093E+01 0. -1.
       -5    1    3    3    0  502 -0.15515166201E+04  0.87674037673E+03  0.83477712321E+02  0.17840594523E+04  0.46999998093E+01 0.  1.
</event>
<event>
 5   0  0.7236375E-08  0.3593150E+04  0.7818609E-02  0.8092063E-01
        3   -1    0    0  501    0  0.00000000000E+00  0.00000000000E+00  0.10544602467E+04  0.10544602516E+04  0.10100000352E+00 0. -1.
       -3   -1    0    0    0  501  0.00000000000E+00  0.00000000000E+00 -0.30609795514E+04  0.30609795530E+04  0.10100000352E+00 0.  1.
    10030    2    1    2    0    0  0.00000000000E+00  0.00000000000E+00 -0.20065193046E+04  0.41154398046E+04  0.35931497416E+04 0.  0.
        5    1    3    3  502    0 -0.21850261281E+03  0.17080637721E+04 -0.41651257690E+03  0.17716461436E+04  0.46999998093E+01 0. -1.
       -5    1    3    3    0  502  0.21850261281E+03 -0.17080637721E+04 -0.15900067277E+04  0.23437936610E+04  0.46999998093E+01 0.  1.
</event>
<event>
 5   0  0.2342606E-07  0.3596785E+04  0.7818609E-02  0.8091229E-01
        2   -1    0    0  501    0  0.00000000000E+00  0.00000000000E+00  0.24264910263E+04  0.24264910263E+04  0.25500000920E-02 0.  1.
       -2   -1    0    0    0  501  0.00000000000E+00  0.00000000000E+00 -0.13328774160E+04  0.13328774160E+04  0.25500000920E-02 0. -1.
    10030    2    1    2    0    0  0.00000000000E+00  0.00000000000E+00  0.10936136103E+04  0.37593684423E+04  0.35967847248E+04 0.  0.
        5    1    3    3  502    0 -0.90273601900E+03 -0.11811863810E+03 -0.10742037932E+04  0.14081264901E+04  0.46999998093E+01 0. -1.
       -5    1    3    3    0  502  0.90273601900E+03  0.11811863810E+03  0.21678174036E+04  0.23512419522E+04  0.46999998093E+01 0.  1.
</event>
<event>
 5   0  0.7236375E-08  0.3617106E+04  0.7818609E-02  0.8086585E-01
       -1   -1    0    0    0  501  0.00000000000E+00  0.00000000000E+00  0.28555912411E+04  0.28555912411E+04  0.50400001928E-02 0. -1.
        1   -1    0    0  501    0  0.00000000000E+00  0.00000000000E+00 -0.11454241770E+04  0.11454241770E+04  0.50400001928E-02 0.  1.
    10030    2    1    2    0    0  0.00000000000E+00  0.00000000000E+00  0.17101670641E+04  0.40010154182E+04  0.36171056093E+04 0.  0.
        1    1    3    3  502    0  0.10022579548E+04 -0.32582054955E+03  0.24808356514E+04  0.26954082376E+04  0.50400001928E-02 0. -1.
       -1    1    3    3    0  502 -0.10022579548E+04  0.32582054955E+03 -0.77066858726E+03  0.13056071805E+04  0.50400001928E-02 0.  1.
</event>
<event>
 5   0  0.7236375E-08  0.3588826E+04  0.7818609E-02  0.8093056E-01
        1   -1    0    0  501    0  0.00000000000E+00  0.00000000000E+00  0.12182852365E+04  0.12182852365E+04  0.50400001928E-02 0. -1.
       -1   -1    0    0    0  501  0.00000000000E+00  0.00000000000E+00 -0.26429917551E+04  0.26429917551E+04  0.50400001928E-02 0.  1.
    10030    2    1    2    0    0  0.00000000000E+00  0.00000000000E+00 -0.14247065186E+04  0.38612769916E+04  0.35888259001E+04 0.  0.
        5    1    3    3  502    0  0.20631655692E+03  0.11309214904E+04 -0.21947560718E+04  0.24776049410E+04  0.46999998093E+01 0.  1.
       -5    1    3    3    0  502 -0.20631655692E+03 -0.11309214904E+04  0.77004955319E+03  0.13836720505E+04  0.46999998093E+01 0. -1.
</event>
<event>
 5   0  0.2238968E-07  0.3594436E+04  0.7818609E-02  0.8091767E-01
       -2   -1    0    0    0  501  0.00000000000E+00  0.00000000000E+00  0.25711694656E+04  0.25711694656E+04  0.25500000920E-02 0.  1.
        2   -1    0    0  501    0  0.00000000000E+00  0.00000000000E+00 -0.12562347616E+04  0.12562347616E+04  0.25500000920E-02 0. -1.
    10030    2    1    2    0    0  0.00000000000E+00  0.00000000000E+00  0.13149347040E+04  0.38274042272E+04  0.35944359561E+04 0.  0.
        3    1    3    3  502    0  0.10016970250E+04  0.12422142155E+04  0.15377915494E+04  0.22161443876E+04  0.10100000352E+00 0.  1.
       -3    1    3    3    0  502 -0.10016970250E+04 -0.12422142155E+04 -0.22285684538E+03  0.16112598396E+04  0.10100000352E+00 0. -1.
</event>
<event>
 5   0  0.2342606E-07  0.3601345E+04  0.7818609E-02  0.8090184E-01
        2   -1    0    0  501    0  0.00000000000E+00  0.00000000000E+00  0.17041620639E+04  0.17041620639E+04  0.25500000920E-02 0. -1.
       -2   -1    0    0    0  501  0.00000000000E+00  0.00000000000E+00 -0.19026488972E+04  0.19026488972E+04  0.25500000920E-02 0.  1.
    10030    2    1    2    0    0  0.00000000000E+00  0.00000000000E+00 -0.19848683327E+03  0.36068109611E+04  0.36013453439E+04 0.  0.
        5    1    3    3  502    0 -0.49751597666E+02  0.12352757680E+04  0.12119488191E+04  0.17312491082E+04  0.46999998093E+01 0. -1.
       -5    1    3    3    0  502  0.49751597666E+02 -0.12352757680E+04 -0.14104356524E+04  0.18755618529E+04  0.46999998093E+01 0.  1.
</event>
<event>
 5   0  0.2309391E-07  0.3660692E+04  0.7818609E-02  0.8076729E-01
        2   -1    0    0  501    0  0.00000000000E+00  0.00000000000E+00  0.25813324017E+04  0.25813324017E+04  0.25500000920E-02 0.  1.
       -2   -1    0    0    0  501  0.00000000000E+00  0.00000000000E+00 -0.12978440816E+04  0.12978440816E+04  0.25500000920E-02 0. -1.
    10030    2    1    2    0    0  0.00000000000E+00  0.00000000000E+00  0.12834883201E+04  0.38791764833E+04  0.36606922734E+04 0.  0.
        4    1    3    3  502    0  0.13731278858E+04 -0.10950732973E+04  0.11877638349E+04  0.21202476879E+04  0.12699999809E+01 0.  1.
       -4    1    3    3    0  502 -0.13731278858E+04  0.10950732973E+04  0.95724485219E+02  0.17589287954E+04  0.12699999809E+01 0. -1.
</event>
<event>
 5   0  0.7261233E-08  0.3604319E+04  0.7818609E-02  0.8089503E-01
       -1   -1    0    0    0  501  0.00000000000E+00  0.00000000000E+00  0.16361114515E+04  0.16361114515E+04  0.50400001928E-02 0.  1.
        1   -1    0    0  501    0  0.00000000000E+00  0.00000000000E+00 -0.19850596998E+04  0.19850596998E+04  0.50400001928E-02 0. -1.
    10030    2    1    2    0    0  0.00000000000E+00  0.00000000000E+00 -0.34894824829E+03  0.36211711513E+04  0.36043190241E+04 0.  0.
        3    1    3    3  502    0  0.10487230154E+04  0.53456552987E+02  0.12969901892E+04  0.16687903185E+04  0.10100000352E+00 0.  1.
       -3    1    3    3    0  502 -0.10487230154E+04 -0.53456552987E+02 -0.16459384375E+04  0.19523808328E+04  0.10100000352E+00 0. -1.
</event>
<event>
 5   0  0.7514289E-08  0.3600231E+04  0.7818609E-02  0.8090439E-01
       -1   -1    0    0    0  501  0.00000000000E+00  0.00000000000E+00  0.14751110331E+04  0.14751110331E+04  0.50400001928E-02 0.  1.
        1   -1    0    0  501    0  0.00000000000E+00  0.00000000000E+00 -0.21967269317E+04  0.21967269317E+04  0.50400001928E-02 0. -1.
    10030    2    1    2    0    0  0.00000000000E+00  0.00000000000E+00 -0.72161589858E+03  0.36718379648E+04  0.36002311779E+04 0.  0.
        4    1    3    3  502    0 -0.33965140237E+03 -0.12669376130E+04 -0.16181792978E+04  0.20830266065E+04  0.12699999809E+01 0. -1.
       -4    1    3    3    0  502  0.33965140237E+03  0.12669376130E+04  0.89656339926E+03  0.15888113583E+04  0.12699999809E+01 0.  1.
</event>
<event>
 5   0  0.7514289E-08  0.3612181E+04  0.7818609E-02  0.8087707E-01
       -1   -1    0    0    0  501  0.00000000000E+00  0.00000000000E+00  0.31784674432E+04  0.31784674432E+04  0.50400001928E-02 0. -1.
        1   -1    0    0  501    0  0.00000000000E+00  0.00000000000E+00 -0.10262688581E+04  0.10262688581E+04  0.50400001928E-02 0.  1.
    10030    2    1    2    0    0  0.00000000000E+00  0.00000000000E+00  0.21521985851E+04  0.42047363014E+04  0.36121805899E+04 0.  0.
        4    1    3    3  502    0  0.98110419309E+03 -0.66870716299E+03 -0.50812357650E+03  0.12914820515E+04  0.12699999809E+01 0.  1.
       -4    1    3    3    0  502 -0.98110419309E+03  0.66870716299E+03  0.26603221616E+04  0.29132542498E+04  0.12699999809E+01 0. -1.
</event>
<event>
 5   0  0.7514289E-08  0.3582689E+04  0.7818609E-02  0.8094469E-01
        1   -1    0    0  501    0  0.00000000000E+00  0.00000000000E+00  0.18458075984E+04  0.18458075984E+04  0.50400001928E-02 0.  1.
       -1   -1    0    0    0  501  0.00000000000E+00  0.00000000000E+00 -0.17384881513E+04  0.17384881513E+04  0.50400001928E-02 0. -1.
    10030    2    1    2    0    0  0.00000000000E+00  0.00000000000E+00  0.10731944704E+03  0.35842957497E+04  0.35826887330E+04 0.  0.
        4    1    3    3  502    0  0.16377509703E+04  0.72525696495E+03  0.79884463290E+02  0.17929330848E+04  0.12699999809E+01 0. -1.
       -4    1    3    3    0  502 -0.16377509703E+04 -0.72525696495E+03  0.27434983747E+02  0.17913626649E+04  0.12699999809E+01 0.  1.
</event>
<event>
 5   0  0.7236375E-08  0.3585648E+04  0.7818609E-02  0.8093787E-01
       -1   -1    0    0    0  501  0.00000000000E+00  0.00000000000E+00  0.12994527007E+04  0.12994527007E+04  0.50400001928E-02 0.  1.
        1   -1    0    0  501    0  0.00000000000E+00  0.00000000000E+00 -0.24735167381E+04  0.24735167381E+04  0.50400001928E-02 0. -1.
    10030    2    1    2    0    0  0.00000000000E+00  0.00000000000E+00 -0.11740640374E+04  0.37729694388E+04  0.35856480617E+04 0.  0.
        1    1    3    3  502    0 -0.81927539187E+03  0.14560094466E+04  0.97364102089E+02  0.16735158932E+04  0.50400001928E-02 0.  1.
       -1    1    3    3    0  502  0.81927539187E+03 -0.14560094466E+04 -0.12714281394E+04  0.20994535456E+04  0.50400001928E-02 0. -1.
</event>
<event>
 5   0  0.7236375E-08  0.3596440E+04  0.7818609E-02  0.8091308E-01
       -1   -1    0    0    0  501  0.00000000000E+00  0.00000000000E+00  0.19235158013E+04  0.19235158013E+04  0.50400001928E-02 0. -1.
        1   -1    0    0  501    0  0.00000000000E+00  0.00000000000E+00 -0.16810854438E+04  0.16810854438E+04  0.50400001928E-02 0.  1.
    10030    2    1    2    0    0  0.00000000000E+00  0.00000000000E+00  0.24243035755E+03  0.36046012451E+04  0.35964395808E+04 0.  0.
        5    1    3    3  502    0  0.76442388367E+03  0.84588693341E+01 -0.15101015881E+04  0.16925851006E+04  0.46999998093E+01 0.  1.
       -5    1    3    3    0  502 -0.76442388367E+03 -0.84588693341E+01  0.17525319457E+04  0.19120161445E+04  0.46999998093E+01 0. -1.
</event>
<event>
 5   0  0.2309391E-07  0.3594749E+04  0.7818609E-02  0.8091696E-01
        2   -1    0    0  501    0  0.00000000000E+00  0.00000000000E+00  0.13224352308E+04  0.13224352308E+04  0.25500000920E-02 0. -1.
       -2   -1    0    0    0  501  0.00000000000E+00  0.00000000000E+00 -0.24428828468E+04  0.24428828468E+04  0.25500000920E-02 0.  1.
    10030    2    1    2    0    0  0.00000000000E+00  0.00000000000E+00 -0.11204476160E+04  0.37653180777E+04  0.35947485817E+04 0.  0.
        4    1    3    3  502    0 -0.49424579883E+03 -0.26679063408E+03 -0.23486030572E+04  0.24148279619E+04  0.12699999809E+01 0.  1.
       -4    1    3    3    0  502  0.49424579883E+03  0.26679063408E+03  0.12281554412E+04  0.13504901158E+04  0.12699999809E+01 0. -1.
</event>
<event>
 5   0  0.7236375E-08  0.3599468E+04  0.7818609E-02  0.8090613E-01
       -1   -1    0    0    0  501  0.00000000000E+00  0.00000000000E+00  0.18964970252E+04  0.18964970252E+04  0.50400001928E-02 0. -1.
        1   -1    0    0  501    0  0.00000000000E+00  0.00000000000E+00 -0.17079083045E+04  0.17079083045E+04  0.50400001928E-02 0.  1.
    10030    2    1    2    0    0  0.00000000000E+00  0.00000000000E+00  0.18858872065E+03  0.36044053297E+04  0.35994683045E+04 0.  0.
        5    1    3    3  502    0  0.56983920900E+03 -0.16575609152E+04 -0.31467249075E+03  0.17808048119E+04  0.46999998093E+01 0. -1.
       -5    1    3    3    0  502 -0.56983920900E+03  0.16575609152E+04  0.50326121140E+03  0.18236005178E+04  0.46999998093E+01 0.  1.
</event>
<event>
 5   0  0.2309391E-07  0.3583036E+04  0.7818609E-02  0.8094389E-01
       -2   -1    0    0    0  501  0.00000000000E+00  0.00000000000E+00  0.28855442751E+04  0.28855442751E+04  0.25500000920E-02 0. -1.
        2   -1    0    0  501    0  0.00000000000E+00  0.00000000000E+00 -0.11122812434E+04  0.11122812434E+04  0.25500000920E-02 0.  1.
    10030    2    1    2    0    0  0.00000000000E+00  0.00000000000E+00  0.17732630317E+04  0.39978255185E+04  0.35830360167E+04 0.  0.
        4    1    3    3  502    0 -0.17875180123E+03  0.69795300242E+02 -0.11007807155E+04  0.11173823817E+04  0.12699999809E+01 0.  1.
       -4    1    3    3    0  502  0.17875180123E+03 -0.69795300242E+02  0.28740437472E+04  0.28804431368E+04  0.12699999809E+01 0. -1.
</event>
<event>
 5   0  0.7236375E-08  0.3595974E+04  0.7818609E-02  0.8091414E-01
        1   -1    0    0  501    0  0.00000000000E+00  0.00000000000E+00  0.19656518643E+04  0.19656518643E+04  0.50400001928E-02 0.  1.
       -1   -1    0    0    0  501  0.00000000000E+00  0.00000000000E+00 -0.16446236735E+04  0.16446236735E+04  0.50400001928E-02 0. -1.
    10030    2    1    2    0    0  0.00000000000E+00  0.00000000000E+00  0.32102819084E+03  0.36102755378E+04  0.35959741878E+04 0.  0.
        1    1    3    3  502    0  0.99622075984E+03 -0.27445095850E+02  0.16629779207E+04  0.19387378885E+04  0.50400001928E-02 0.  1.
       -1    1    3    3    0  502 -0.99622075984E+03  0.27445095850E+02 -0.13419497298E+04  0.16715376493E+04  0.50400001928E-02 0. -1.
</event>
<event>
 5   0  0.2199902E-07  0.3582575E+04  0.7818609E-02  0.8094495E-01
       -2   -1    0    0    0  501  0.00000000000E+00  0.00000000000E+00  0.11519732785E+04  0.11519732785E+04  0.25500000920E-02 0. -1.
        2   -1    0    0  501    0  0.00000000000E+00  0.00000000000E+00 -0.27854043583E+04  0.27854043583E+04  0.25500000920E-02 0.  1.
    10030    2    1    2    0    0  0.00000000000E+00  0.00000000000E+00 -0.16334310798E+04  0.39373776368E+04  0.35825752696E+04 0.  0.
        1    1    3    3  502    0 -0.15304473596E+04 -0.41500444525E+03 -0.17324262616E+04  0.23485737293E+04  0.50400001928E-02 0.  1.
       -1    1    3    3    0  502  0.15304473596E+04  0.41500444525E+03  0.98995181854E+02  0.15888039074E+04  0.50400001928E-02 0. -1.
</event>
<event>
 5   0  0.7261233E-08  0.3643997E+04  0.7818609E-02  0.8080487E-01
       -1   -1    0    0    0  501  0.00000000000E+00  0.00000000000E+00  0.20300312604E+04  0.20300312604E+04  0.50400001928E-02 0. -1.
        1   -1    0    0  501    0  0.00000000000E+00  0.00000000000E+00 -0.16352847491E+04  0.16352847491E+04  0.50400001928E-02 0.  1.
    10030    2    1    2    0    0  0.00000000000E+00  0.00000000000E+00  0.39474651131E+03  0.36653160095E+04  0.36439973438E+04 0.  0.
        3    1    3    3  502    0  0.60457455614E+02 -0.48015388646E+03 -0.15694555814E+04  0.16423744064E+04  0.10100000352E+00 0.  1.
       -3    1    3    3    0  502 -0.60457455614E+02  0.48015388646E+03  0.19642020927E+04  0.20229416031E+04  0.10100000352E+00 0. -1.
</event>
<event>
 5   0  0.2198900E-07  0.3530034E+04  0.7818609E-02  0.8106709E-01
        2   -1    0    0  501    0  0.00000000000E+00  0.00000000000E+00  0.20685343207E+04  0.20685343207E+04  0.25500000920E-02 0.  1.
       -2   -1    0    0    0  501  0.00000000000E+00  0.00000000000E+00 -0.15060353212E+04  0.15060353212E+04  0.25500000920E-02 0. -1.
    10030    2    1    2    0    0  0.00000000000E+00  0.00000000000E+00  0.56249899951E+03  0.35745696419E+04  0.35300344191E+04 0.  0.
        2    1    3    3  502    0 -0.40065937047E+03 -0.90096877474E+03  0.17636216058E+04  0.20205528532E+04  0.25500000920E-02 0.  1.
       -2    1    3    3    0  502  0.40065937047E+03  0.90096877474E+03 -0.12011226063E+04  0.15540167887E+04  0.25500000920E-02 0. -1.
</event>
<event>
 5   0  0.7236375E-08  0.3496862E+04  0.7818609E-02  0.8114534E-01
        1   -1    0    0  501    0  0.00000000000E+00  0.00000000000E+00  0.11674313661E+04  0.11674313661E+04  0.50400001928E-02 0. -1.
       -1   -1    0    0    0  501  0.00000000000E+00  0.00000000000E+00 -0.26185793764E+04  0.26185793764E+04  0.50400001928E-02 0.  1.
    10030    2    1    2    0    0  0.00000000000E+00  0.00000000000E+00 -0.14511480103E+04  0.37860107425E+04  0.34968624215E+04 0.  0.
        1    1    3    3  502    0  0.55730944638E+02  0.39968252487E+03 -0.25674675986E+04  0.25989886357E+04  0.50400001928E-02 0.  1.
       -1    1    3    3    0  502 -0.55730944638E+02 -0.39968252487E+03  0.11163195883E+04  0.11870221068E+04  0.50400001928E-02 0. -1.
</event>
<event>
 5   0  0.7261233E-08  0.3600885E+04  0.7818609E-02  0.8090289E-01
        1   -1    0    0  501    0  0.00000000000E+00  0.00000000000E+00  0.25398231822E+04  0.25398231822E+04  0.50400001928E-02 0. -1.
       -1   -1    0    0    0  501  0.00000000000E+00  0.00000000000E+00 -0.12763066330E+04  0.12763066330E+04  0.50400001928E-02 0.  1.
    10030    2    1    2    0    0  0.00000000000E+00  0.00000000000E+00  0.12635165493E+04  0.38161298152E+04  0.36008849879E+04 0.  0.
        3    1    3    3  502    0 -0.89591884641E+03  0.15061693107E+02 -0.10232215301E+04  0.13601028431E+04  0.10100000352E+00 0.  1.
       -3    1    3    3    0  502  0.89591884641E+03 -0.15061693107E+02  0.22867380794E+04  0.24560269721E+04  0.10100000352E+00 0. -1.
</event>
<event>
 5   0  0.7236375E-08  0.3630547E+04  0.7818609E-02  0.8083530E-01
        1   -1    0    0  501    0  0.00000000000E+00  0.00000000000E+00  0.15683811595E+04  0.15683811595E+04  0.50400001928E-02 0. -1.
       -1   -1    0    0    0  501  0.00000000000E+00  0.00000000000E+00 -0.21010311550E+04  0.21010311550E+04  0.50400001928E-02 0.  1.
    10030    2    1    2    0    0  0.00000000000E+00  0.00000000000E+00 -0.53264999548E+03  0.36694123145E+04  0.36305468894E+04 0.  0.
        1    1    3    3  502    0  0.10958651761E+04  0.85853434818E+03  0.91114254431E+03  0.16637855773E+04  0.50400001928E-02 0. -1.
       -1    1    3    3    0  502 -0.10958651761E+04 -0.85853434818E+03 -0.14437925398E+04  0.20056267372E+04  0.50400001928E-02 0.  1.
</event>
<event>
 5   0  0.2342606E-07  0.3588676E+04  0.7818609E-02  0.8093091E-01
        2   -1    0    0  501    0  0.00000000000E+00  0.00000000000E+00  0.21183276368E+04  0.21183276368E+04  0.25500000920E-02 0.  1.
       -2   -1    0    0    0  501  0.00000000000E+00  0.00000000000E+00 -0.15199010992E+04  0.15199010992E+04  0.25500000920E-02 0. -1.
    10030    2    1    2    0    0  0.00000000000E+00  0.00000000000E+00  0.59842653759E+03  0.36382287360E+04  0.35886758023E+04 0.  0.
        5    1    3    3  502    0 -0.57094389676E+03  0.48987948017E+03 -0.13522884589E+04  0.15474705181E+04  0.46999998093E+01 0. -1.
       -5    1    3    3    0  502  0.57094389676E+03 -0.48987948017E+03  0.19507149964E+04  0.20907582179E+04  0.46999998093E+01 0.  1.
</event>
<event>
 5   0  0.2238968E-07  0.3594027E+04  0.7818609E-02  0.8091861E-01
       -2   -1    0    0    0  501  0.00000000000E+00  0.00000000000E+00  0.16194070728E+04  0.16194070728E+04  0.25500000920E-02 0.  1.
        2   -1    0    0  501    0  0.00000000000E+00  0.00000000000E+00 -0.19940992371E+04  0.19940992371E+04  0.25500000920E-02 0. -1.
    10030    2    1    2    0    0  0.00000000000E+00  0.00000000000E+00 -0.37469216430E+03  0.36135063100E+04  0.35940274949E+04 0.  0.
        3    1    3    3  502    0 -0.76587465616E+03 -0.11305579452E+04  0.98711726120E+03  0.16849705499E+04  0.10100000352E+00 0.  1.
       -3    1    3    3    0  502  0.76587465616E+03  0.11305579452E+04 -0.13618094255E+04  0.19285357601E+04  0.10100000352E+00 0. -1.
</event>
<event>
 5   0  0.2199902E-07  0.3615089E+04  0.7818609E-02  0.8087044E-01
       -2   -1    0    0    0  501  0.00000000000E+00  0.00000000000E+00  0.12205788044E+04  0.12205788044E+04  0.25500000920E-02 0. -1.
        2   -1    0    0  501    0  0.00000000000E+00  0.00000000000E+00 -0.26767774424E+04  0.26767774424E+04  0.25500000920E-02 0.  1.
    10030    2    1    2    0    0  0.00000000000E+00  0.00000000000E+00 -0.14561986379E+04  0.38973562468E+04  0.36150893822E+04 0.  0.
        1    1    3    3  502    0  0.17469888980E+04 -0.22570265716E+03 -0.29110311983E+03  0.17853999344E+04  0.50400001928E-02 0. -1.
       -1    1    3    3    0  502 -0.17469888980E+04  0.22570265716E+03 -0.11650955181E+04  0.21119563124E+04  0.50400001928E-02 0.  1.
</event>
<event>
 5   0  0.7347303E-08  0.3668325E+04  0.7818609E-02  0.8075018E-01
        1   -1    0    0  501    0  0.00000000000E+00  0.00000000000E+00  0.27397612286E+04  0.27397612286E+04  0.50400001928E-02 0.  1.
       -1   -1    0    0    0  501  0.00000000000E+00  0.00000000000E+00 -0.12278994731E+04  0.12278994731E+04  0.50400001928E-02 0. -1.
    10030    2    1    2    0    0  0.00000000000E+00  0.00000000000E+00  0.15118617555E+04  0.39676607017E+04  0.36683246144E+04 0.  0.
        2    1    3    3  502    0  0.17929759501E+04  0.16348756398E+03  0.37712299869E+03  0.18394870745E+04  0.25500000920E-02 0.  1.
       -2    1    3    3    0  502 -0.17929759501E+04 -0.16348756398E+03  0.11347387568E+04  0.21281736272E+04  0.25500000920E-02 0. -1.
</event>
<event>
 5   0  0.7236375E-08  0.3595257E+04  0.7818609E-02  0.8091579E-01
        1   -1    0    0  501    0  0.00000000000E+00  0.00000000000E+00  0.11222481883E+04  0.11222481883E+04  0.50400001928E-02 0. -1.
       -1   -1    0    0    0  501  0.00000000000E+00  0.00000000000E+00 -0.28794595455E+04  0.28794595455E+04  0.50400001928E-02 0.  1.
    10030    2    1    2    0    0  0.00000000000E+00  0.00000000000E+00 -0.17572113572E+04  0.40017077338E+04  0.35952570190E+04 0.  0.
        1    1    3    3  502    0 -0.80456871811E+03 -0.85651570880E+03  0.63552065641E+03  0.13359777267E+04  0.50400001928E-02 0. -1.
       -1    1    3    3    0  502  0.80456871811E+03  0.85651570880E+03 -0.23927320136E+04  0.26657300070E+04  0.50400001928E-02 0.  1.
</event>
<event>
 5   0  0.2342606E-07  0.3622221E+04  0.7818609E-02  0.8085421E-01
        2   -1    0    0  501    0  0.00000000000E+00  0.00000000000E+00  0.20352858252E+04  0.20352858252E+04  0.25500000920E-02 0.  1.
       -2   -1    0    0    0  501  0.00000000000E+00  0.00000000000E+00 -0.16116264584E+04  0.16116264584E+04  0.25500000920E-02 0. -1.
    10030    2    1    2    0    0  0.00000000000E+00  0.00000000000E+00  0.42365936673E+03  0.36469122836E+04  0.36222205821E+04 0.  0.
        5    1    3    3  502    0  0.15231588111E+04 -0.44570891342E+03 -0.66671769397E+03  0.17213958791E+04  0.46999998093E+01 0. -1.
       -5    1    3    3    0  502 -0.15231588111E+04  0.44570891342E+03  0.10903770607E+04  0.19255164044E+04  0.46999998093E+01 0.  1.
</event>
<event>
 5   0  0.7236375E-08  0.3590990E+04  0.7818609E-02  0.8092559E-01
       -1   -1    0    0    0  501  0.00000000000E+00  0.00000000000E+00  0.15217163043E+04  0.15217163043E+04  0.50400001928E-02 0.  1.
        1   -1    0    0  501    0  0.00000000000E+00  0.00000000000E+00 -0.21185306840E+04  0.21185306840E+04  0.50400001928E-02 0. -1.
    10030    2    1    2    0    0  0.00000000000E+00  0.00000000000E+00 -0.59681437978E+03  0.36402469883E+04  0.35909902161E+04 0.  0.
        5    1    3    3  502    0 -0.17082464195E+04 -0.49363575666E+03 -0.55081758187E+03  0.18615058927E+04  0.46999998093E+01 0. -1.
       -5    1    3    3    0  502  0.17082464195E+04  0.49363575666E+03 -0.45996797911E+02  0.17787410956E+04  0.46999998093E+01 0.  1.
</event>
<event>
 5   0  0.7514289E-08  0.3577086E+04  0.7818609E-02  0.8095761E-01
        1   -1    0    0  501    0  0.00000000000E+00  0.00000000000E+00  0.14949504974E+04  0.14949504974E+04  0.50400001928E-02 0. -1.
       -1   -1    0    0    0  501  0.00000000000E+00  0.00000000000E+00 -0.21397941993E+04  0.21397941993E+04  0.50400001928E-02 0.  1.
    10030    2    1    2    0    0  0.00000000000E+00  0.00000000000E+00 -0.64484370193E+03  0.36347446967E+04  0.35770861899E+04 0.  0.
        4    1    3    3  502    0 -0.13475389347E+04 -0.11223281715E+04  0.34528254258E+02  0.17540454722E+04  0.12699999809E+01 0. -1.
       -4    1    3    3    0  502  0.13475389347E+04  0.11223281715E+04 -0.67937195618E+03  0.18806992245E+04  0.12699999809E+01 0.  1.
</event>
<event>
 5   0  0.2238968E-07  0.3594966E+04  0.7818609E-02  0.8091646E-01
        2   -1    0    0  501    0  0.00000000000E+00  0.00000000000E+00  0.21986913250E+04  0.21986913250E+04  0.25500000920E-02 0. -1.
       -2   -1    0    0    0  501  0.00000000000E+00  0.00000000000E+00 -0.14694857733E+04  0.14694857733E+04  0.25500000920E-02 0.  1.
    10030    2    1    2    0    0  0.00000000000E+00  0.00000000000E+00  0.72920555169E+03  0.36681770983E+04  0.35949662708E+04 0.  0.
        3    1    3    3  502    0 -0.15327912216E+03  0.37433762462E+03  0.21516465581E+04  0.21893391852E+04  0.10100000352E+00 0. -1.
       -3    1    3    3    0  502  0.15327912216E+03 -0.37433762462E+03 -0.14224410064E+04  0.14788379132E+04  0.10100000352E+00 0.  1.
</event>
<event>
 5   0  0.7236375E-08  0.3585713E+04  0.7818609E-02  0.8093772E-01
       -3   -1    0    0    0  501  0.00000000000E+00  0.00000000000E+00  0.14495222400E+04  0.14495222436E+04  0.10100000352E+00 0.  1.
        3   -1    0    0  501    0  0.00000000000E+00  0.00000000000E+00 -0.22175130083E+04  0.22175130106E+04  0.10100000352E+00 0. -1.
    10030    2    1    2    0    0  0.00000000000E+00  0.00000000000E+00 -0.76799076828E+03  0.36670352542E+04  0.35857130023E+04 0.  0.
        1    1    3    3  502    0 -0.84351550704E+03 -0.11982367947E+04  0.67241058560E+03  0.16122734949E+04  0.50400001928E-02 0.  1.
       -1    1    3    3    0  502  0.84351550704E+03  0.11982367947E+04 -0.14404013539E+04  0.20547617592E+04  0.50400001928E-02 0. -1.
</event>
<event>
 5   0  0.2342606E-07  0.3611973E+04  0.7818609E-02  0.8087755E-01
       -2   -1    0    0    0  501  0.00000000000E+00  0.00000000000E+00  0.20581008588E+04  0.20581008588E+04  0.25500000920E-02 0. -1.
        2   -1    0    0  501    0  0.00000000000E+00  0.00000000000E+00 -0.15847555540E+04  0.15847555540E+04  0.25500000920E-02 0.  1.
    10030    2    1    2    0    0  0.00000000000E+00  0.00000000000E+00  0.47334530478E+03  0.36428564128E+04  0.36119727389E+04 0.  0.
        5    1    3    3  502    0  0.80914754280E+03  0.41022480582E+02 -0.13911795226E+04  0.16099084272E+04  0.46999998093E+01 0.  1.
       -5    1    3    3    0  502 -0.80914754280E+03 -0.41022480582E+02  0.18645248274E+04  0.20329479856E+04  0.46999998093E+01 0. -1.
</event>
<event>
 5   0  0.2309391E-07  0.3590829E+04  0.7818609E-02  0.8092596E-01
        2   -1    0    0  501    0  0.00000000000E+00  0.00000000000E+00  0.28556150116E+04  0.28556150116E+04  0.25500000920E-02 0. -1.
       -2   -1    0    0    0  501  0.00000000000E+00  0.00000000000E+00 -0.11288334118E+04  0.11288334118E+04  0.25500000920E-02 0.  1.
    10030    2    1    2    0    0  0.00000000000E+00  0.00000000000E+00  0.17267815998E+04  0.39844484233E+04  0.35908292281E+04 0.  0.
        4    1    3    3  502    0  0.11255643206E+04 -0.80379727273E+03  0.21336619434E+04  0.25427347477E+04  0.12699999809E+01 0. -1.
       -4    1    3    3    0  502 -0.11255643206E+04  0.80379727273E+03 -0.40688034367E+03  0.14417136756E+04  0.12699999809E+01 0.  1.
</event>
<event>
 5   0  0.2199902E-07  0.3601771E+04  0.7818609E-02  0.8090086E-01
       -2   -1    0    0    0  501  0.00000000000E+00  0.00000000000E+00  0.17453215417E+04  0.17453215417E+04  0.25500000920E-02 0.  1.
        2   -1    0    0  501    0  0.00000000000E+00  0.00000000000E+00 -0.18582184487E+04  0.18582184487E+04  0.25500000920E-02 0. -1.
    10030    2    1    2    0    0  0.00000000000E+00  0.00000000000E+00 -0.11289690701E+03  0.36035399905E+04  0.36017710576E+04 0.  0.
        1    1    3    3  502    0  0.16720247385E+04 -0.27117864096E+03  0.55539429197E+03  0.17826013017E+04  0.50400001928E-02 0.  1.
       -1    1    3    3    0  502 -0.16720247385E+04  0.27117864096E+03 -0.66829119897E+03  0.18209386887E+04  0.50400001928E-02 0. -1.
</event>
<event>
 5   0  0.2199902E-07  0.3583754E+04  0.7818609E-02  0.8094223E-01
       -2   -1    0    0    0  501  0.00000000000E+00  0.00000000000E+00  0.13341343979E+04  0.13341343979E+04  0.25500000920E-02 0.  1.
        2   -1    0    0  501    0  0.00000000000E+00  0.00000000000E+00 -0.24066716799E+04  0.24066716799E+04  0.25500000920E-02 0. -1.
    10030    2    1    2    0    0  0.00000000000E+00  0.00000000000E+00 -0.10725372820E+04  0.37408060778E+04  0.35837541616E+04 0.  0.
        1    1    3    3  502    0  0.36403469335E+03 -0.12804918622E+04 -0.17882661763E+04  0.22293668573E+04  0.50400001928E-02 0. -1.
       -1    1    3    3    0  502 -0.36403469335E+03  0.12804918622E+04  0.71572889430E+03  0.15114392205E+04  0.50400001928E-02 0.  1.
</event>
<event>
 5   0  0.7347303E-08  0.3636889E+04  0.7818609E-02  0.8082094E-01
       -1   -1    0    0    0  501  0.00000000000E+00  0.00000000000E+00  0.25825189502E+04  0.25825189502E+04  0.50400001928E-02 0.  1.
        1   -1    0    0  501    0  0.00000000000E+00  0.00000000000E+00 -0.12804320346E+04  0.12804320346E+04  0.50400001928E-02 0. -1.
    10030    2    1    2    0    0  0.00000000000E+00  0.00000000000E+00  0.13020869156E+04  0.38629509848E+04  0.36368887769E+04 0.  0.
        2    1    3    3  502    0  0.12283151860E+04  0.63979648962E+03  0.19026976699E+04  0.23533712345E+04  0.25500000920E-02 0.  1.
       -2    1    3    3    0  502 -0.12283151860E+04 -0.63979648962E+03 -0.60061075431E+03  0.15095797503E+04  0.25500000920E-02 0. -1.
</event>
<event>
 5   0  0.2199902E-07  0.3621667E+04  0.7818609E-02  0.8085546E-01
       -2   -1    0    0    0  501  0.00000000000E+00  0.00000000000E+00  0.19493933717E+04  0.19493933717E+04  0.25500000920E-02 0. -1.
        2   -1    0    0  501    0  0.00000000000E+00  0.00000000000E+00 -0.16821226451E+04  0.16821226451E+04  0.25500000920E-02 0.  1.
    10030    2    1    2    0    0  0.00000000000E+00  0.00000000000E+00  0.26727072656E+03  0.36315160168E+04  0.36216674252E+04 0.  0.
        1    1    3    3  502    0 -0.15193312663E+04 -0.58458802961E+03 -0.66162164844E+03  0.17572290309E+04  0.50400001928E-02 0.  1.
       -1    1    3    3    0  502  0.15193312663E+04  0.58458802961E+03  0.92889237499E+03  0.18742869859E+04  0.50400001928E-02 0. -1.
</event>
<event>
 5   0  0.7236375E-08  0.3658094E+04  0.7818609E-02  0.8077313E-01
        1   -1    0    0  501    0  0.00000000000E+00  0.00000000000E+00  0.19949040497E+04  0.19949040497E+04  0.50400001928E-02 0. -1.
       -1   -1    0    0    0  501  0.00000000000E+00  0.00000000000E+00 -0.16769792913E+04  0.16769792913E+04  0.50400001928E-02 0.  1.
    10030    2    1    2    0    0  0.00000000000E+00  0.00000000000E+00  0.31792475846E+03  0.36718833410E+04  0.36580939187E+04 0.  0.
        5    1    3    3  502    0 -0.64176110247E+02  0.11448690872E+04  0.15893064984E+04  0.19597859668E+04  0.46999998093E+01 0. -1.
       -5    1    3    3    0  502  0.64176110247E+02 -0.11448690872E+04 -0.12713817399E+04  0.17120973742E+04  0.46999998093E+01 0.  1.
</event>
<event>
 5   0  0.7261233E-08  0.3598864E+04  0.7818609E-02  0.8090752E-01
        1   -1    0    0  501    0  0.00000000000E+00  0.00000000000E+00  0.24057407606E+04  0.24057407606E+04  0.50400001928E-02 0.  1.
       -1   -1    0    0    0  501  0.00000000000E+00  0.00000000000E+00 -0.13459287298E+04  0.13459287298E+04  0.50400001928E-02 0. -1.
    10030    2    1    2    0    0  0.00000000000E+00  0.00000000000E+00  0.10598120308E+04  0.37516694904E+04  0.35988640464E+04 0.  0.
        3    1    3    3  502    0 -0.81121706251E+02 -0.28174094311E+03 -0.13208621556E+04  0.13530098058E+04  0.10100000352E+00 0. -1.
       -3    1    3    3    0  502  0.81121706251E+02  0.28174094311E+03  0.23806741864E+04  0.23986596845E+04  0.10100000352E+00 0.  1.
</event>
<event>
 5   0  0.2309391E-07  0.3578094E+04  0.7818609E-02  0.8095528E-01
       -2   -1    0    0    0  501  0.00000000000E+00  0.00000000000E+00  0.15599291078E+04  0.15599291078E+04  0.25500000920E-02 0.  1.
        2   -1    0    0  501    0  0.00000000000E+00  0.00000000000E+00 -0.20518165049E+04  0.20518165049E+04  0.25500000920E-02 0. -1.
    10030    2    1    2    0    0  0.00000000000E+00  0.00000000000E+00 -0.49188739712E+03  0.36117456126E+04  0.35780935090E+04 0.  0.
        4    1    3    3  502    0 -0.17643547261E+03  0.13020878791E+04  0.97961051846E+03  0.16389633009E+04  0.12699999809E+01 0.  1.
       -4    1    3    3    0  502  0.17643547261E+03 -0.13020878791E+04 -0.14714979156E+04  0.19727823117E+04  0.12699999809E+01 0. -1.
</event>
<event>
 5   0  0.7236375E-08  0.3585949E+04  0.7818609E-02  0.8093718E-01
       -1   -1    0    0    0  501  0.00000000000E+00  0.00000000000E+00  0.19951035248E+04  0.19951035248E+04  0.50400001928E-02 0. -1.
        1   -1    0    0  501    0  0.00000000000E+00  0.00000000000E+00 -0.16113238626E+04  0.16113238626E+04  0.50400001928E-02 0.  1.
    10030    2    1    2    0    0  0.00000000000E+00  0.00000000000E+00  0.38377966223E+03  0.36064273874E+04  0.35859492009E+04 0.  0.
        1    1    3    3  502    0 -0.53915266633E+03 -0.64816939653E+03 -0.13995337082E+04  0.16338616112E+04  0.50400001928E-02 0.  1.
       -1    1    3    3    0  502  0.53915266633E+03  0.64816939653E+03  0.17833133704E+04  0.19725657762E+04  0.50400001928E-02 0. -1.
</event>
<event>
 5   0  0.2199902E-07  0.3588910E+04  0.7818609E-02  0.8093037E-01
        2   -1    0    0  501    0  0.00000000000E+00  0.00000000000E+00  0.10724900866E+04  0.10724900866E+04  0.25500000920E-02 0. -1.
       -2   -1    0    0    0  501  0.00000000000E+00  0.00000000000E+00 -0.30024231871E+04  0.30024231871E+04  0.25500000920E-02 0.  1.
    10030    2    1    2    0    0  0.00000000000E+00  0.00000000000E+00 -0.19299331005E+04  0.40749132737E+04  0.35889101989E+04 0.  0.
        1    1    3    3  502    0 -0.88805804179E+03 -0.72094653796E+03  0.60489332762E+03  0.12939501281E+04  0.50400001928E-02 0. -1.
       -1    1    3    3    0  502  0.88805804179E+03  0.72094653796E+03 -0.25348264282E+04  0.27809631456E+04  0.50400001928E-02 0.  1.
</event>
<event>
 5   0  0.2238968E-07  0.3604976E+04  0.7818609E-02  0.8089353E-01
       -2   -1    0    0    0  501  0.00000000000E+00  0.00000000000E+00  0.14068016573E+04  0.14068016573E+04  0.25500000920E-02 0.  1.
        2   -1    0    0  501    0  0.00000000000E+00  0.00000000000E+00 -0.23094677365E+04  0.23094677365E+04  0.25500000920E-02 0. -1.
    10030    2    1    2    0    0  0.00000000000E+00  0.00000000000E+00 -0.90266607924E+03  0.37162693938E+04  0.36049760272E+04 0.  0.
        3    1    3    3  502    0  0.46057082164E+03 -0.17408225269E+04 -0.53363820431E+03  0.18781262724E+04  0.10100000352E+00 0.  1.
       -3    1    3    3    0  502 -0.46057082164E+03  0.17408225269E+04 -0.36902787493E+03  0.18381431214E+04  0.10100000352E+00 0. -1.
</event>
<event>
 5   0  0.2238968E-07  0.3612233E+04  0.7818609E-02  0.8087695E-01
       -2   -1    0    0    0  501  0.00000000000E+00  0.00000000000E+00  0.17222797348E+04  0.17222797348E+04  0.25500000920E-02 0. -1.
        2   -1    0    0  501    0  0.00000000000E+00  0.00000000000E+00 -0.18940337762E+04  0.18940337762E+04  0.25500000920E-02 0.  1.
    10030    2    1    2    0    0  0.00000000000E+00  0.00000000000E+00 -0.17175404142E+03  0.36163135110E+04  0.36122325450E+04 0.  0.
        3    1    3    3  502    0 -0.17749604844E+04 -0.33289921551E+03 -0.58471454677E+02  0.18068551491E+04  0.10100000352E+00 0. -1.
       -3    1    3    3    0  502  0.17749604844E+04  0.33289921551E+03 -0.11328258674E+03  0.18094583619E+04  0.10100000352E+00 0.  1.
</event>
<event>
 5   0  0.7347303E-08  0.3536370E+04  0.7818609E-02  0.8105224E-01
       -1   -1    0    0    0  501  0.00000000000E+00  0.00000000000E+00  0.10644879691E+04  0.10644879691E+04  0.50400001928E-02 0. -1.
        1   -1    0    0  501    0  0.00000000000E+00  0.00000000000E+00 -0.29370729740E+04  0.29370729740E+04  0.50400001928E-02 0.  1.
    10030    2    1    2    0    0  0.00000000000E+00  0.00000000000E+00 -0.18725850049E+04  0.40015609432E+04  0.35363703682E+04 0.  0.
        2    1    3    3  502    0  0.94433436997E+03  0.44857655431E+03 -0.25498809223E+04  0.27558811740E+04  0.25500000920E-02 0.  1.
       -2    1    3    3    0  502 -0.94433436997E+03 -0.44857655431E+03  0.67729591743E+03  0.12456797691E+04  0.25500000920E-02 0. -1.
</event>
<event>
 5   0  0.2342606E-07  0.3596763E+04  0.7818609E-02  0.8091234E-01
       -2   -1    0    0    0  501  0.00000000000E+00  0.00000000000E+00  0.31377116540E+04  0.31377116540E+04  0.25500000920E-02 0.  1.
        2   -1    0    0  501    0  0.00000000000E+00  0.00000000000E+00 -0.10307436755E+04  0.10307436755E+04  0.25500000920E-02 0. -1.
    10030    2    1    2    0    0  0.00000000000E+00  0.00000000000E+00  0.21069679785E+04  0.41684553294E+04  0.35967632353E+04 0.  0.
        5    1    3    3  502    0 -0.92642035658E+03 -0.70632241124E+03 -0.53431821704E+03  0.12816645711E+04  0.46999998093E+01 0. -1.
       -5    1    3    3    0  502  0.92642035658E+03  0.70632241124E+03  0.26412861955E+04  0.28867907583E+04  0.46999998093E+01 0.  1.
</event>
<event>
 5   0  0.2342606E-07  0.3605758E+04  0.7818609E-02  0.8089174E-01
        2   -1    0    0  501    0  0.00000000000E+00  0.00000000000E+00  0.20420203970E+04  0.20420203970E+04  0.25500000920E-02 0. -1.
       -2   -1    0    0    0  501  0.00000000000E+00  0.00000000000E+00 -0.15917434966E+04  0.15917434966E+04  0.25500000920E-02 0.  1.
    10030    2    1    2    0    0  0.00000000000E+00  0.00000000000E+00  0.45027690034E+03  0.36337638936E+04  0.36057579990E+04 0.  0.
        5    1    3    3  502    0 -0.69060622458E+03  0.23179647691E+03 -0.14368169134E+04  0.16109411836E+04  0.46999998093E+01 0.  1.
       -5    1    3    3    0  502  0.69060622458E+03 -0.23179647691E+03  0.18870938138E+04  0.20228227100E+04  0.46999998093E+01 0. -1.
</event>
<event>
 5   0  0.2309391E-07  0.3597244E+04  0.7818609E-02  0.8091123E-01
       -2   -1    0    0    0  501  0.00000000000E+00  0.00000000000E+00  0.25781648584E+04  0.25781648584E+04  0.25500000920E-02 0. -1.
        2   -1    0    0  501    0  0.00000000000E+00  0.00000000000E+00 -0.12547843581E+04  0.12547843581E+04  0.25500000920E-02 0.  1.
    10030    2    1    2    0    0  0.00000000000E+00  0.00000000000E+00  0.13233805004E+04  0.38329492165E+04  0.35972439099E+04 0.  0.
        4    1    3    3  502    0  0.13064994413E+04  0.53762547638E+03  0.18477563384E+04  0.23259808773E+04  0.12699999809E+01 0.  1.
       -4    1    3    3    0  502 -0.13064994413E+04 -0.53762547638E+03 -0.52437583802E+03  0.15069683392E+04  0.12699999809E+01 0. -1.
</event>
<event>
 5   0  0.2309391E-07  0.3598038E+04  0.7818609E-02  0.8090941E-01
       -2   -1    0    0    0  501  0.00000000000E+00  0.00000000000E+00  0.25244522410E+04  0.25244522410E+04  0.25500000920E-02 0. -1.
        2   -1    0    0  501    0  0.00000000000E+00  0.00000000000E+00 -0.12820480432E+04  0.12820480432E+04  0.25500000920E-02 0.  1.
    10030    2    1    2    0    0  0.00000000000E+00  0.00000000000E+00  0.12424041978E+04  0.38065002841E+04  0.35980378295E+04 0.  0.
        4    1    3    3  502    0 -0.57798777972E+03  0.16536766432E+04  0.10545062674E+04  0.20446763545E+04  0.12699999809E+01 0. -1.
       -4    1    3    3    0  502  0.57798777972E+03 -0.16536766432E+04  0.18789793035E+03  0.17618239296E+04  0.12699999809E+01 0.  1.
</event>
<event>
 5   0  0.7347303E-08  0.3579026E+04  0.7818609E-02  0.8095313E-01
        1   -1    0    0  501    0  0.00000000000E+00  0.00000000000E+00  0.17397450981E+04  0.17397450981E+04  0.50400001928E-02 0.  1.
       -1   -1    0    0    0  501  0.00000000000E+00  0.00000000000E+00 -0.18407044345E+04  0.18407044345E+04  0.50400001928E-02 0. -1.
    10030    2    1    2    0    0  0.00000000000E+00  0.00000000000E+00 -0.10095933637E+03  0.35804495326E+04  0.35790258546E+04 0.  0.
        2    1    3    3  502    0 -0.60707026197E+02 -0.79144468165E+03  0.15539932434E+04  0.17449828158E+04  0.25500000920E-02 0.  1.
       -2    1    3    3    0  502  0.60707026197E+02  0.79144468165E+03 -0.16549525797E+04  0.18354667167E+04  0.25500000920E-02 0. -1.
</event>
<event>
 5   0  0.2238968E-07  0.3581318E+04  0.7818609E-02  0.8094784E-01
        2   -1    0    0  501    0  0.00000000000E+00  0.00000000000E+00  0.22073080635E+04  0.22073080635E+04  0.25500000920E-02 0. -1.
       -2   -1    0    0    0  501  0.00000000000E+00  0.00000000000E+00 -0.14526563083E+04  0.14526563083E+04  0.25500000920E-02 0.  1.
    10030    2    1    2    0    0  0.00000000000E+00  0.00000000000E+00  0.75465175527E+03  0.36599643718E+04  0.35813181835E+04 0.  0.
        3    1    3    3  502    0 -0.11855548892E+04 -0.28814112884E+03  0.17167933300E+04  0.21061683346E+04  0.10100000352E+00 0. -1.
       -3    1    3    3    0  502  0.11855548892E+04  0.28814112884E+03 -0.96214157470E+03  0.15537960373E+04  0.10100000352E+00 0.  1.
</event>
<event>
 5   0  0.7514289E-08  0.3601821E+04  0.7818609E-02  0.8090075E-01
        1   -1    0    0  501    0  0.00000000000E+00  0.00000000000E+00  0.19655999708E+04  0.19655999708E+04  0.50400001928E-02 0. -1.
       -1   -1    0    0    0  501  0.00000000000E+00  0.00000000000E+00 -0.16500198030E+04  0.16500198030E+04  0.50400001928E-02 0.  1.
    10030    2    1    2    0    0  0.00000000000E+00  0.00000000000E+00  0.31558016775E+03  0.36156197739E+04  0.36018211375E+04 0.  0.
        4    1    3    3  502    0 -0.81923213828E+03 -0.14800766602E+03 -0.14452716964E+04  0.16678907203E+04  0.12699999809E+01 0.  1.
       -4    1    3    3    0  502  0.81923213828E+03  0.14800766602E+03  0.17608518642E+04  0.19477290535E+04  0.12699999809E+01 0. -1.
</event>
<event>
 5   0  0.2199902E-07  0.3596576E+04  0.7818609E-02  0.8091276E-01
       -2   -1    0    0    0  501  0.00000000000E+00  0.00000000000E+00  0.11994850939E+04  0.11994850939E+04  0.25500000920E-02 0.  1.
        2   -1    0    0  501    0  0.00000000000E+00  0.00000000000E+00 -0.26960234301E+04  0.26960234301E+04  0.25500000920E-02 0. -1.
    10030    2    1    2    0    0  0.00000000000E+00  0.00000000000E+00 -0.14965383362E+04  0.38955085240E+04  0.35965761035E+04 0.  0.
        1    1    3    3  502    0 -0.59051894748E+03 -0.10809254433E+04 -0.21674102866E+04  0.24929460066E+04  0.50400001928E-02 0. -1.
       -1    1    3    3    0  502  0.59051894748E+03  0.10809254433E+04  0.67087195040E+03  0.14025625174E+04  0.50400001928E-02 0.  1.
</event>
<event>
 5   0  0.2198900E-07  0.3614515E+04  0.7818609E-02  0.8087175E-01
       -2   -1    0    0    0  501  0.00000000000E+00  0.00000000000E+00  0.14356520587E+04  0.14356520587E+04  0.25500000920E-02 0. -1.
        2   -1    0    0  501    0  0.00000000000E+00  0.00000000000E+00 -0.22750490757E+04  0.22750490757E+04  0.25500000920E-02 0.  1.
    10030    2    1    2    0    0  0.00000000000E+00  0.00000000000E+00 -0.83939701708E+03  0.37107011344E+04  0.36145145672E+04 0.  0.
        2    1    3    3  502    0  0.40864350066E+02  0.46259280890E+03 -0.22127498056E+04  0.22609563694E+04  0.25500000920E-02 0.  1.
       -2    1    3    3    0  502 -0.40864350066E+02 -0.46259280890E+03  0.13733527885E+04  0.14497447650E+04  0.25500000920E-02 0. -1.
</event>
<event>
 5   0  0.7514289E-08  0.3471717E+04  0.7818609E-02  0.8120526E-01
       -1   -1    0    0    0  501  0.00000000000E+00  0.00000000000E+00  0.26881282511E+04  0.26881282511E+04  0.50400001928E-02 0. -1.
        1   -1    0    0  501    0  0.00000000000E+00  0.00000000000E+00 -0.11209304765E+04  0.11209304765E+04  0.50400001928E-02 0.  1.
    10030    2    1    2    0    0  0.00000000000E+00  0.00000000000E+00  0.15671977746E+04  0.38090587277E+04  0.34717170861E+04 0.  0.
        4    1    3    3  502    0 -0.14528560933E+04  0.93046217049E+03  0.57354744094E+03  0.18181058711E+04  0.12699999809E+01 0.  1.
       -4    1    3    3    0  502  0.14528560933E+04 -0.93046217049E+03  0.99365033367E+03  0.19909528566E+04  0.12699999809E+01 0. -1.
</event>
<event>
 5   0  0.7347303E-08  0.3604231E+04  0.7818609E-02  0.8089523E-01
       -1   -1    0    0    0  501  0.00000000000E+00  0.00000000000E+00  0.26193517545E+04  0.26193517545E+04  0.50400001928E-02 0. -1.
        1   -1    0    0  501    0  0.00000000000E+00  0.00000000000E+00 -0.12398563653E+04  0.12398563653E+04  0.50400001928E-02 0.  1.
    10030    2    1    2    0    0  0.00000000000E+00  0.00000000000E+00  0.13794953893E+04  0.38592081198E+04  0.36042308171E+04 0.  0.
        2    1    3    3  502    0 -0.97724134551E+03  0.11053643837E+04  0.17977420042E+04  0.23256627833E+04  0.25500000920E-02 0. -1.
       -2    1    3    3    0  502  0.97724134551E+03 -0.11053643837E+04 -0.41824661490E+03  0.15335453365E+04  0.25500000920E-02 0.  1.
</event>
<event>
 5   0  0.2309391E-07  0.3617543E+04  0.7818609E-02  0.8086485E-01
        2   -1    0    0  501    0  0.00000000000E+00  0.00000000000E+00  0.19648501517E+04  0.19648501517E+04  0.25500000920E-02 0. -1.
       -2   -1    0    0    0  501  0.00000000000E+00  0.00000000000E+00 -0.16650907308E+04  0.16650907308E+04  0.25500000920E-02 0.  1.
    10030    2    1    2    0    0  0.00000000000E+00  0.00000000000E+00  0.29975942097E+03  0.36299408825E+04  0.36175426881E+04 0.  0.
        4    1    3    3  502    0 -0.15208071586E+04 -0.22222504519E+03 -0.80702050480E+03  0.17359499107E+04  0.12699999809E+01 0.  1.
       -4    1    3    3    0  502  0.15208071586E+04  0.22222504519E+03  0.11067799258E+04  0.18939909718E+04  0.12699999809E+01 0. -1.
</event>
<event>
 5   0  0.2309391E-07  0.3592177E+04  0.7818609E-02  0.8092286E-01
       -2   -1    0    0    0  501  0.00000000000E+00  0.00000000000E+00  0.13298027168E+04  0.13298027168E+04  0.25500000920E-02 0. -1.
        2   -1    0    0  501    0  0.00000000000E+00  0.00000000000E+00 -0.24258737297E+04  0.24258737297E+04  0.25500000920E-02 0.  1.
    10030    2    1    2    0    0  0.00000000000E+00  0.00000000000E+00 -0.10960710129E+04  0.37556764465E+04  0.35921767642E+04 0.  0.
        4    1    3    3  502    0  0.13105247016E+04  0.79618580925E+03  0.42970038632E+03  0.15924920318E+04  0.12699999809E+01 0. -1.
       -4    1    3    3    0  502 -0.13105247016E+04 -0.79618580925E+03 -0.15257713992E+04  0.21631844147E+04  0.12699999809E+01 0.  1.
</event>
<event>
 5   0  0.7514289E-08  0.3589843E+04  0.7818609E-02  0.8092822E-01
        1   -1    0    0  501    0  0.00000000000E+00  0.00000000000E+00  0.17974118410E+04  0.17974118410E+04  0.50400001928E-02 0.  1.
       -1   -1    0    0    0  501  0.00000000000E+00  0.00000000000E+00 -0.17924345613E+04  0.17924345613E+04  0.50400001928E-02 0. -1.
    10030    2    1    2    0    0  0.00000000000E+00  0.00000000000E+00  0.49772796294E+01  0.35898464023E+04  0.35898429519E+04 0.  0.
        4    1    3    3  502    0  0.11071228572E+04  0.64287625911E+02 -0.14088551883E+04  0.17929663896E+04  0.12699999809E+01 0. -1.
       -4    1    3    3    0  502 -0.11071228572E+04 -0.64287625911E+02  0.14138324679E+04  0.17968800127E+04  0.12699999809E+01 0.  1.
</event>
<event>
 5   0  0.7347303E-08  0.3574308E+04  0.7818609E-02  0.8096402E-01
        1   -1    0    0  501    0  0.00000000000E+00  0.00000000000E+00  0.31678619668E+04  0.31678619668E+04  0.50400001928E-02 0. -1.
       -1   -1    0    0    0  501  0.00000000000E+00  0.00000000000E+00 -0.10082253501E+04  0.10082253501E+04  0.50400001928E-02 0.  1.
    10030    2    1    2    0    0  0.00000000000E+00  0.00000000000E+00  0.21596366167E+04  0.41760873169E+04  0.35743076200E+04 0.  0.
        2    1    3    3  502    0 -0.15458660275E+04 -0.88502357989E+03  0.12489293742E+04  0.21754983553E+04  0.25500000920E-02 0.  1.
       -2    1    3    3    0  502  0.15458660275E+04  0.88502357989E+03  0.91070724243E+03  0.20005889616E+04  0.25500000920E-02 0. -1.
</event>
<event>
 5   0  0.2342606E-07  0.3605794E+04  0.7818609E-02  0.8089166E-01
        2   -1    0    0  501    0  0.00000000000E+00  0.00000000000E+00  0.27505505793E+04  0.27505505793E+04  0.25500000920E-02 0.  1.
       -2   -1    0    0    0  501  0.00000000000E+00  0.00000000000E+00 -0.11817404853E+04  0.11817404853E+04  0.25500000920E-02 0. -1.
    10030    2    1    2    0    0  0.00000000000E+00  0.00000000000E+00  0.15688100940E+04  0.39322910647E+04  0.36057936583E+04 0.  0.
        5    1    3    3  502    0 -0.11406892723E+04  0.10230127046E+04 -0.25172338418E+03  0.15527761467E+04  0.46999998093E+01 0. -1.
       -5    1    3    3    0  502  0.11406892723E+04 -0.10230127046E+04  0.18205334782E+04  0.23795149180E+04  0.46999998093E+01 0.  1.
</event>
<event>
 5   0  0.2342606E-07  0.3597441E+04  0.7818609E-02  0.8091078E-01
        2   -1    0    0  501    0  0.00000000000E+00  0.00000000000E+00  0.30441828193E+04  0.30441828193E+04  0.25500000920E-02 0.  1.
       -2   -1    0    0    0  501  0.00000000000E+00  0.00000000000E+00 -0.10628124192E+04  0.10628124192E+04  0.25500000920E-02 0. -1.
    10030    2    1    2    0    0  0.00000000000E+00  0.00000000000E+00  0.19813704001E+04  0.41069952385E+04  0.35974409275E+04 0.  0.
        5    1    3    3  502    0  0.12532922326E+04 -0.81301701579E+03 -0.15303148015E+03  0.15017252785E+04  0.46999998093E+01 0. -1.
       -5    1    3    3    0  502 -0.12532922326E+04  0.81301701579E+03  0.21344018803E+04  0.26052699600E+04  0.46999998093E+01 0.  1.
</event>
<event>
 5   0  0.7236375E-08  0.3547968E+04  0.7818609E-02  0.8102515E-01
       -1   -1    0    0    0  501  0.00000000000E+00  0.00000000000E+00  0.25407408659E+04  0.25407408659E+04  0.50400001928E-02 0.  1.
        1   -1    0    0  501    0  0.00000000000E+00  0.00000000000E+00 -0.12386227056E+04  0.12386227056E+04  0.50400001928E-02 0. -1.
    10030    2    1    2    0    0  0.00000000000E+00  0.00000000000E+00  0.13021181603E+04  0.37793635715E+04  0.35479680526E+04 0.  0.
        5    1    3    3  502    0  0.96479151519E+03  0.14557151169E+04  0.98293608432E+03  0.20040246019E+04  0.46999998093E+01 0.  1.
       -5    1    3    3    0  502 -0.96479151519E+03 -0.14557151169E+04  0.31918207602E+03  0.17753389696E+04  0.46999998093E+01 0. -1.
</event>
<event>
 5   0  0.2198900E-07  0.3583333E+04  0.7818609E-02  0.8094320E-01
       -2   -1    0    0    0  501  0.00000000000E+00  0.00000000000E+00  0.19711060934E+04  0.19711060934E+04  0.25500000920E-02 0. -1.
        2   -1    0    0  501    0  0.00000000000E+00  0.00000000000E+00 -0.16285619867E+04  0.16285619867E+04  0.25500000920E-02 0.  1.
    10030    2    1    2    0    0  0.00000000000E+00  0.00000000000E+00  0.34254410678E+03  0.35996680801E+04  0.35833327813E+04 0.  0.
        2    1    3    3  502    0 -0.13617343857E+04  0.98505327692E+01  0.13409040633E+04  0.19111361221E+04  0.25500000920E-02 0. -1.
       -2    1    3    3    0  502  0.13617343857E+04 -0.98505327692E+01 -0.99835995656E+03  0.16885319580E+04  0.25500000920E-02 0.  1.
</event>
<event>
 5   0  0.7514289E-08  0.3589983E+04  0.7818609E-02  0.8092790E-01
       -1   -1    0    0    0  501  0.00000000000E+00  0.00000000000E+00  0.11454942490E+04  0.11454942491E+04  0.50400001928E-02 0. -1.
        1   -1    0    0  501    0  0.00000000000E+00  0.00000000000E+00 -0.28127546638E+04  0.28127546639E+04  0.50400001928E-02 0.  1.
    10030    2    1    2    0    0  0.00000000000E+00  0.00000000000E+00 -0.16672604148E+04  0.39582489129E+04  0.35899828921E+04 0.  0.
        4    1    3    3  502    0 -0.17852987384E+04 -0.18480174581E+03 -0.80778630071E+03  0.19682387028E+04  0.12699999809E+01 0.  1.
       -4    1    3    3    0  502  0.17852987384E+04  0.18480174581E+03 -0.85947411410E+03  0.19900102101E+04  0.12699999809E+01 0. -1.
</event>
<event>
 5   0  0.2238968E-07  0.3597405E+04  0.7818609E-02  0.8091086E-01
        2   -1    0    0  501    0  0.00000000000E+00  0.00000000000E+00  0.24649583906E+04  0.24649583906E+04  0.25500000920E-02 0. -1.
       -2   -1    0    0    0  501  0.00000000000E+00  0.00000000000E+00 -0.13125292406E+04  0.13125292406E+04  0.25500000920E-02 0.  1.
    10030    2    1    2    0    0  0.00000000000E+00  0.00000000000E+00  0.11524291501E+04  0.37774876312E+04  0.35974046003E+04 0.  0.
        3    1    3    3  502    0 -0.35894637935E+03 -0.49805745814E+03 -0.11991079310E+04  0.13471316102E+04  0.10100000352E+00 0.  1.
       -3    1    3    3    0  502  0.35894637935E+03  0.49805745814E+03  0.23515370811E+04  0.24303560210E+04  0.10100000352E+00 0. -1.
</event>
<event>
 5   0  0.2342606E-07  0.3609326E+04  0.7818609E-02  0.8088359E-01
        2   -1    0    0  501    0  0.00000000000E+00  0.00000000000E+00  0.18560026262E+04  0.18560026262E+04  0.25500000920E-02 0. -1.
       -2   -1    0    0    0  501  0.00000000000E+00  0.00000000000E+00 -0.17547432209E+04  0.17547432209E+04  0.25500000920E-02 0.  1.
    10030    2    1    2    0    0  0.00000000000E+00  0.00000000000E+00  0.10125940535E+03  0.36107458471E+04  0.36093257133E+04 0.  0.
        5    1    3    3  502    0 -0.16630662066E+04  0.41935194911E+03  0.61222449616E+03  0.18211222333E+04  0.46999998093E+01 0. -1.
       -5    1    3    3    0  502  0.16630662066E+04 -0.41935194911E+03 -0.51096509081E+03  0.17896236138E+04  0.46999998093E+01 0.  1.
</event>
<event>
 5   0  0.2198900E-07  0.3584219E+04  0.7818609E-02  0.8094116E-01
       -2   -1    0    0    0  501  0.00000000000E+00  0.00000000000E+00  0.13376649003E+04  0.13376649003E+04  0.25500000920E-02 0.  1.
        2   -1    0    0  501    0  0.00000000000E+00  0.00000000000E+00 -0.24009419327E+04  0.24009419327E+04  0.25500000920E-02 0. -1.
    10030    2    1    2    0    0  0.00000000000E+00  0.00000000000E+00 -0.10632770324E+04  0.37386068330E+04  0.35842186044E+04 0.  0.
        2    1    3    3  502    0 -0.66527139099E+03  0.14455470941E+04  0.32816321660E+03  0.16247718368E+04  0.25500000920E-02 0.  1.
       -2    1    3    3    0  502  0.66527139099E+03 -0.14455470941E+04 -0.13914402490E+04  0.21138349963E+04  0.25500000920E-02 0. -1.
</event>
<event>
 5   0  0.7261233E-08  0.3617763E+04  0.7818609E-02  0.8086435E-01
       -1   -1    0    0    0  501  0.00000000000E+00  0.00000000000E+00  0.30049104826E+04  0.30049104826E+04  0.50400001928E-02 0.  1.
        1   -1    0    0  501    0  0.00000000000E+00  0.00000000000E+00 -0.10889016502E+04  0.10889016502E+04  0.50400001928E-02 0. -1.
    10030    2    1    2    0    0  0.00000000000E+00  0.00000000000E+00  0.19160088324E+04  0.40938121329E+04  0.36177628354E+04 0.  0.
        3    1    3    3  502    0 -0.12219101153E+04  0.68954831869E+03  0.22499526897E+04  0.26515709173E+04  0.10100000352E+00 0.  1.
       -3    1    3    3    0  502  0.12219101153E+04 -0.68954831869E+03 -0.33394385723E+03  0.14422412155E+04  0.10100000352E+00 0. -1.
</event>
<event>
 5   0  0.2198900E-07  0.3608253E+04  0.7818609E-02  0.8088604E-01
        2   -1    0    0  501    0  0.00000000000E+00  0.00000000000E+00  0.30866041250E+04  0.30866041250E+04  0.25500000920E-02 0.  1.
       -2   -1    0    0    0  501  0.00000000000E+00  0.00000000000E+00 -0.10545158637E+04  0.10545158637E+04  0.25500000920E-02 0. -1.
    10030    2    1    2    0    0  0.00000000000E+00  0.00000000000E+00  0.20320882613E+04  0.41411199886E+04  0.36082533251E+04 0.  0.
        2    1    3    3  502    0  0.47545082893E+03 -0.16730487987E+04  0.15661256342E+04  0.23404903922E+04  0.25500000920E-02 0.  1.
       -2    1    3    3    0  502 -0.47545082893E+03  0.16730487987E+04  0.46596262707E+03  0.18006295964E+04  0.25500000920E-02 0. -1.
</event>
<event>
 5   0  0.7236375E-08  0.3589638E+04  0.7818609E-02  0.8092869E-01
       -1   -1    0    0    0  501  0.00000000000E+00  0.00000000000E+00  0.16041714842E+04  0.16041714842E+04  0.50400001928E-02 0. -1.
        1   -1    0    0  501    0  0.00000000000E+00  0.00000000000E+00 -0.20081242480E+04  0.20081242480E+04  0.50400001928E-02 0.  1.
    10030    2    1    2    0    0  0.00000000000E+00  0.00000000000E+00 -0.40395276385E+03  0.36122957322E+04  0.35896382299E+04 0.  0.
        5    1    3    3  502    0 -0.67148011871E+03  0.21250225265E+03  0.14592951980E+04  0.16203725875E+04  0.46999998093E+01 0. -1.
       -5    1    3    3    0  502  0.67148011871E+03 -0.21250225265E+03 -0.18632479619E+04  0.19919231448E+04  0.46999998093E+01 0.  1.
</event>
<event>
 5   0  0.7514289E-08  0.3572790E+04  0.7818609E-02  0.8096753E-01
       -1   -1    0    0    0  501  0.00000000000E+00  0.00000000000E+00  0.24984933154E+04  0.24984933154E+04  0.50400001928E-02 0.  1.
        1   -1    0    0  501    0  0.00000000000E+00  0.00000000000E+00 -0.12772529607E+04  0.12772529607E+04  0.50400001928E-02 0. -1.
    10030    2    1    2    0    0  0.00000000000E+00  0.00000000000E+00  0.12212403547E+04  0.37757462761E+04  0.35727904973E+04 0.  0.
        4    1    3    3  502    0  0.56017786032E+03  0.16782931850E+04  0.87107326195E+03  0.19721149790E+04  0.12699999809E+01 0. -1.
       -4    1    3    3    0  502 -0.56017786032E+03 -0.16782931850E+04  0.35016709271E+03  0.18036312970E+04  0.12699999809E+01 0.  1.
</event>
<event>
 5   0  0.2238968E-07  0.3779711E+04  0.7818609E-02  0.8050523E-01
       -2   -1    0    0    0  501  0.00000000000E+00  0.00000000000E+00  0.16669926989E+04  0.16669926989E+04  0.25500000920E-02 0.  1.
        2   -1    0    0  501    0  0.00000000000E+00  0.00000000000E+00 -0.21425126243E+04  0.21425126243E+04  0.25500000920E-02 0. -1.
    10030    2    1    2    0    0  0.00000000000E+00  0.00000000000E+00 -0.47551992542E+03  0.38095053232E+04  0.37797105190E+04 0.  0.
        3    1    3    3  502    0  0.31353152021E+03 -0.98623282271E+03 -0.18315524862E+04  0.21036971537E+04  0.10100000352E+00 0. -1.
       -3    1    3    3    0  502 -0.31353152021E+03  0.98623282271E+03  0.13560325608E+04  0.17058081694E+04  0.10100000352E+00 0.  1.
</event>
<event>
 5   0  0.7261233E-08  0.3595931E+04  0.7818609E-02  0.8091424E-01
        1   -1    0    0  501    0  0.00000000000E+00  0.00000000000E+00  0.29452394078E+04  0.29452394079E+04  0.50400001928E-02 0.  1.
       -1   -1    0    0    0  501  0.00000000000E+00  0.00000000000E+00 -0.10975947372E+04  0.10975947372E+04  0.50400001928E-02 0. -1.
    10030    2    1    2    0    0  0.00000000000E+00  0.00000000000E+00  0.18476446707E+04  0.40428341450E+04  0.35959306299E+04 0.  0.
        3    1    3    3  502    0 -0.16871959001E+04  0.23710058082E+03  0.15695083667E+04  0.23165066834E+04  0.10100000352E+00 0.  1.
       -3    1    3    3    0  502  0.16871959001E+04 -0.23710058082E+03  0.27813630397E+03  0.17263274616E+04  0.10100000352E+00 0. -1.
</event>
<event>
 5   0  0.7347303E-08  0.3599722E+04  0.7818609E-02  0.8090555E-01
        1   -1    0    0  501    0  0.00000000000E+00  0.00000000000E+00  0.24145372124E+04  0.24145372124E+04  0.50400001928E-02 0.  1.
       -1   -1    0    0    0  501  0.00000000000E+00  0.00000000000E+00 -0.13416648729E+04  0.13416648730E+04  0.50400001928E-02 0. -1.
    10030    2    1    2    0    0  0.00000000000E+00  0.00000000000E+00  0.10728723395E+04  0.37562020854E+04  0.35997220795E+04 0.  0.
        2    1    3    3  502    0  0.43863652574E+03 -0.15761221265E+04  0.13193424895E+04  0.21017201441E+04  0.25500000920E-02 0. -1.
       -2    1    3    3    0  502 -0.43863652574E+03  0.15761221265E+04 -0.24647014999E+03  0.16544819413E+04  0.25500000920E-02 0.  1.
</event>
<event>
 5   0  0.7347303E-08  0.3594827E+04  0.7818609E-02  0.8091678E-01
        1   -1    0    0  501    0  0.00000000000E+00  0.00000000000E+00  0.16774279877E+04  0.16774279877E+04  0.50400001928E-02 0.  1.
       -1   -1    0    0    0  501  0.00000000000E+00  0.00000000000E+00 -0.19259812596E+04  0.19259812596E+04  0.50400001928E-02 0. -1.
    10030    2    1    2    0    0  0.00000000000E+00  0.00000000000E+00 -0.24855327186E+03  0.36034092473E+04  0.35948267656E+04 0.  0.
        2    1    3    3  502    0 -0.66181575824E+03 -0.44210097764E+03  0.14911669214E+04  0.16902757644E+04  0.25500000920E-02 0.  1.
       -2    1    3    3    0  502  0.66181575824E+03  0.44210097764E+03 -0.17397201933E+04  0.19131334828E+04  0.25500000920E-02 0. -1.
</event>
<event>
 5   0  0.2309391E-07  0.3596884E+04  0.7818609E-02  0.8091206E-01
       -2   -1    0    0    0  501  0.00000000000E+00  0.00000000000E+00  0.15297880337E+04  0.15297880337E+04  0.25500000920E-02 0. -1.
        2   -1    0    0  501    0  0.00000000000E+00  0.00000000000E+00 -0.21142755669E+04  0.21142755669E+04  0.25500000920E-02 0.  1.
    10030    2    1    2    0    0  0.00000000000E+00  0.00000000000E+00 -0.58448753323E+03  0.36440636006E+04  0.35968839082E+04 0.  0.
        4    1    3    3  502    0  0.15638349377E+04 -0.26625282633E+03 -0.11506602098E+04  0.19597170233E+04  0.12699999809E+01 0.  1.
       -4    1    3    3    0  502 -0.15638349377E+04  0.26625282633E+03  0.56617267657E+03  0.16843465773E+04  0.12699999809E+01 0. -1.
</event>
<event>
 5   0  0.7236375E-08  0.3599542E+04  0.7818609E-02  0.8090597E-01
       -1   -1    0    0    0  501  0.00000000000E+00  0.00000000000E+00  0.13354974494E+04  0.13354974494E+04  0.50400001928E-02 0. -1.
        1   -1    0    0  501    0  0.00000000000E+00  0.00000000000E+00 -0.24254456736E+04  0.24254456736E+04  0.50400001928E-02 0.  1.
    10030    2    1    2    0    0  0.00000000000E+00  0.00000000000E+00 -0.10899482241E+04  0.37609431230E+04  0.35995424769E+04 0.  0.
        1    1    3    3  502    0 -0.48442883367E+03  0.57258099060E+03  0.11644340013E+04  0.13850728606E+04  0.50400001928E-02 0. -1.
       -1    1    3    3    0  502  0.48442883367E+03 -0.57258099060E+03 -0.22543822254E+04  0.23758702625E+04  0.50400001928E-02 0.  1.
</event>
<event>
 5   0  0.7236375E-08  0.3598516E+04  0.7818609E-02  0.8090832E-01
        1   -1    0    0  501    0  0.00000000000E+00  0.00000000000E+00  0.15550302788E+04  0.15550302788E+04  0.50400001928E-02 0.  1.
       -1   -1    0    0    0  501  0.00000000000E+00  0.00000000000E+00 -0.20818437326E+04  0.20818437326E+04  0.50400001928E-02 0. -1.
    10030    2    1    2    0    0  0.00000000000E+00  0.00000000000E+00 -0.52681345380E+03  0.36368740113E+04  0.35985163831E+04 0.  0.
        1    1    3    3  502    0 -0.10451378046E+04 -0.13969923277E+04 -0.70790089334E+03  0.18828234833E+04  0.50400001928E-02 0.  1.
       -1    1    3    3    0  502  0.10451378046E+04  0.13969923277E+04  0.18108743954E+03  0.17540505281E+04  0.50400001928E-02 0. -1.
</event>
<event>
 5   0  0.2342606E-07  0.3708541E+04  0.7818609E-02  0.8066072E-01
       -2   -1    0    0    0  501  0.00000000000E+00  0.00000000000E+00  0.15114025121E+04  0.15114025121E+04  0.25500000920E-02 0.  1.
        2   -1    0    0  501    0  0.00000000000E+00  0.00000000000E+00 -0.22749200136E+04  0.22749200136E+04  0.25500000920E-02 0. -1.
    10030    2    1    2    0    0  0.00000000000E+00  0.00000000000E+00 -0.76351750157E+03  0.37863225257E+04  0.37085413970E+04 0.  0.
        5    1    3    3  502    0  0.44641667618E+03 -0.11333999949E+04  0.10455659899E+04  0.16053391313E+04  0.46999998093E+01 0.  1.
       -5    1    3    3    0  502 -0.44641667618E+03  0.11333999949E+04 -0.18090834915E+04  0.21809833944E+04  0.46999998093E+01 0. -1.
</event>
<event>
 5   0  0.2199902E-07  0.3610656E+04  0.7818609E-02  0.8088055E-01
       -2   -1    0    0    0  501  0.00000000000E+00  0.00000000000E+00  0.17696640942E+04  0.17696640942E+04  0.25500000920E-02 0. -1.
        2   -1    0    0  501    0  0.00000000000E+00  0.00000000000E+00 -0.18417103857E+04  0.18417103857E+04  0.25500000920E-02 0.  1.
    10030    2    1    2    0    0  0.00000000000E+00  0.00000000000E+00 -0.72046291476E+02  0.36113744799E+04  0.36106557529E+04 0.  0.
        1    1    3    3  502    0  0.51460150877E+03  0.36867835216E+03  0.16550145276E+04  0.17719513331E+04  0.50400001928E-02 0. -1.
       -1    1    3    3    0  502 -0.51460150877E+03 -0.36867835216E+03 -0.17270608191E+04  0.18394231468E+04  0.50400001928E-02 0.  1.
</event>
<event>
 5   0  0.2199902E-07  0.3624214E+04  0.7818609E-02  0.8084968E-01
       -2   -1    0    0    0  501  0.00000000000E+00  0.00000000000E+00  0.19375503243E+04  0.19375503243E+04  0.25500000920E-02 0. -1.
        2   -1    0    0  501    0  0.00000000000E+00  0.00000000000E+00 -0.16947850766E+04  0.16947850766E+04  0.25500000920E-02 0.  1.
    10030    2    1    2    0    0  0.00000000000E+00  0.00000000000E+00  0.24276524775E+03  0.36323354009E+04  0.36242137767E+04 0.  0.
        1    1    3    3  502    0  0.50293372582E+02 -0.17783722908E+04 -0.22376381545E+03  0.17931000176E+04  0.50400001928E-02 0.  1.
       -1    1    3    3    0  502 -0.50293372582E+02  0.17783722908E+04  0.46652906321E+03  0.18392353833E+04  0.50400001928E-02 0. -1.
</event>
<event>
 5   0  0.7261233E-08  0.3570314E+04  0.7818609E-02  0.8097326E-01
       -1   -1    0    0    0  501  0.00000000000E+00  0.00000000000E+00  0.32881819841E+04  0.32881819841E+04  0.50400001928E-02 0. -1.
        1   -1    0    0  501    0  0.00000000000E+00  0.00000000000E+00 -0.96916345911E+03  0.96916345912E+03  0.50400001928E-02 0.  1.
    10030    2    1    2    0    0  0.00000000000E+00  0.00000000000E+00  0.23190185250E+04  0.42573454432E+04  0.35703141744E+04 0.  0.
        3    1    3    3  502    0 -0.58633599778E+03 -0.25538964026E+03  0.31468885435E+04  0.32112180377E+04  0.10100000352E+00 0. -1.
       -3    1    3    3    0  502  0.58633599778E+03  0.25538964026E+03 -0.82787001853E+03  0.10461274054E+04  0.10100000352E+00 0.  1.
</event>
<event>
 5   0  0.2342606E-07  0.3441599E+04  0.7818609E-02  0.8127771E-01
       -2   -1    0    0    0  501  0.00000000000E+00  0.00000000000E+00  0.13438176024E+04  0.13438176024E+04  0.25500000920E-02 0. -1.
        2   -1    0    0  501    0  0.00000000000E+00  0.00000000000E+00 -0.22035367488E+04  0.22035367488E+04  0.25500000920E-02 0.  1.
    10030    2    1    2    0    0  0.00000000000E+00  0.00000000000E+00 -0.85971914639E+03  0.35473543513E+04  0.34415993205E+04 0.  0.
        5    1    3    3  502    0 -0.94974022092E+02  0.16891398641E+04 -0.10568632166E+03  0.16951121597E+04  0.46999998093E+01 0. -1.
       -5    1    3    3    0  502  0.94974022092E+02 -0.16891398641E+04 -0.75403282474E+03  0.18522421916E+04  0.46999998093E+01 0.  1.
</event>
<event>
 5   0  0.2198900E-07  0.3604894E+04  0.7818609E-02  0.8089372E-01
        2   -1    0    0  501    0  0.00000000000E+00  0.00000000000E+00  0.13988264980E+04  0.13988264980E+04  0.25500000920E-02 0.  1.
       -2   -1    0    0    0  501  0.00000000000E+00  0.00000000000E+00 -0.23225293920E+04  0.23225293920E+04  0.25500000920E-02 0. -1.
    10030    2    1    2    0    0  0.00000000000E+00  0.00000000000E+00 -0.92370289402E+03  0.37213558899E+04  0.36048942596E+04 0.  0.
        2    1    3    3  502    0  0.77845421531E+02 -0.11910582409E+04  0.93238773659E+03  0.15146044151E+04  0.25500000920E-02 0.  1.
       -2    1    3    3    0  502 -0.77845421531E+02  0.11910582409E+04 -0.18560906306E+04  0.22067514749E+04  0.25500000920E-02 0. -1.
</event>
<event>
 5   0  0.7236375E-08  0.3610971E+04  0.7818609E-02  0.8087983E-01
       -1   -1    0    0    0  501  0.00000000000E+00  0.00000000000E+00  0.14400955625E+04  0.14400955625E+04  0.50400001928E-02 0.  1.
        1   -1    0    0  501    0  0.00000000000E+00  0.00000000000E+00 -0.22635842721E+04  0.22635842722E+04  0.50400001928E-02 0. -1.
    10030    2    1    2    0    0  0.00000000000E+00  0.00000000000E+00 -0.82348870963E+03  0.37036798347E+04  0.36109708754E+04 0.  0.
        5    1    3    3  502    0 -0.59897871101E+03 -0.15354995044E+04  0.34421399308E+03  0.16837575797E+04  0.46999998093E+01 0.  1.
       -5    1    3    3    0  502  0.59897871101E+03  0.15354995044E+04 -0.11677027027E+04  0.20199222550E+04  0.46999998093E+01 0. -1.
</event>
<event>
 5   0  0.2199902E-07  0.3596810E+04  0.7818609E-02  0.8091223E-01
        2   -1    0    0  501    0  0.00000000000E+00  0.00000000000E+00  0.21473656778E+04  0.21473656778E+04  0.25500000920E-02 0. -1.
       -2   -1    0    0    0  501  0.00000000000E+00  0.00000000000E+00 -0.15061527430E+04  0.15061527430E+04  0.25500000920E-02 0.  1.
    10030    2    1    2    0    0  0.00000000000E+00  0.00000000000E+00  0.64121293479E+03  0.36535184207E+04  0.35968100899E+04 0.  0.
        1    1    3    3  502    0 -0.28616808442E+03  0.10111766979E+04  0.18030303499E+04  0.20869329002E+04  0.50400001928E-02 0. -1.
       -1    1    3    3    0  502  0.28616808442E+03 -0.10111766979E+04 -0.11618174152E+04  0.15665855205E+04  0.50400001928E-02 0.  1.
</event>
<event>
 5   0  0.2309391E-07  0.3600192E+04  0.7818609E-02  0.8090448E-01
       -2   -1    0    0    0  501  0.00000000000E+00  0.00000000000E+00  0.15759935222E+04  0.15759935222E+04  0.25500000920E-02 0.  1.
        2   -1    0    0  501    0  0.00000000000E+00  0.00000000000E+00 -0.20560649136E+04  0.20560649136E+04  0.25500000920E-02 0. -1.
    10030    2    1    2    0    0  0.00000000000E+00  0.00000000000E+00 -0.48007139142E+03  0.36320584358E+04  0.36001916532E+04 0.  0.
        4    1    3    3  502    0  0.33824788175E+03 -0.49506734373E+03  0.14722916047E+04  0.15897004393E+04  0.12699999809E+01 0.  1.
       -4    1    3    3    0  502 -0.33824788175E+03  0.49506734373E+03 -0.19523629961E+04  0.20423579965E+04  0.12699999809E+01 0. -1.
</event>
<event>
 5   0  0.2199902E-07  0.3590445E+04  0.7818609E-02  0.8092684E-01
        2   -1    0    0  501    0  0.00000000000E+00  0.00000000000E+00  0.26473603640E+04  0.26473603640E+04  0.25500000920E-02 0.  1.
       -2   -1    0    0    0  501  0.00000000000E+00  0.00000000000E+00 -0.12173724379E+04  0.12173724379E+04  0.25500000920E-02 0. -1.
    10030    2    1    2    0    0  0.00000000000E+00  0.00000000000E+00  0.14299879262E+04  0.38647328019E+04  0.35904448417E+04 0.  0.
        1    1    3    3  502    0  0.54230103667E+02  0.16898514471E+04  0.13646622883E+04  0.21727498657E+04  0.50400001928E-02 0. -1.
       -1    1    3    3    0  502 -0.54230103667E+02 -0.16898514471E+04  0.65325637867E+02  0.16919829362E+04  0.50400001928E-02 0.  1.
</event>
<event>
 5   0  0.2198900E-07  0.3590396E+04  0.7818609E-02  0.8092695E-01
       -2   -1    0    0    0  501  0.00000000000E+00  0.00000000000E+00  0.26335394935E+04  0.26335394935E+04  0.25500000920E-02 0.  1.
        2   -1    0    0  501    0  0.00000000000E+00  0.00000000000E+00 -0.12237280261E+04  0.12237280261E+04  0.25500000920E-02 0. -1.
    10030    2    1    2    0    0  0.00000000000E+00  0.00000000000E+00  0.14098114675E+04  0.38572675197E+04  0.35903961264E+04 0.  0.
        2    1    3    3  502    0 -0.14540218838E+04 -0.75028982704E+03  0.14984719671E+04  0.22186781423E+04  0.25500000920E-02 0.  1.
       -2    1    3    3    0  502  0.14540218838E+04  0.75028982704E+03 -0.88660499611E+02  0.16385893773E+04  0.25500000920E-02 0. -1.
</event>
<event>
 5   0  0.7347303E-08  0.3596225E+04  0.7818609E-02  0.8091357E-01
       -1   -1    0    0    0  501  0.00000000000E+00  0.00000000000E+00  0.10797015077E+04  0.10797015077E+04  0.50400001928E-02 0. -1.
        1   -1    0    0  501    0  0.00000000000E+00  0.00000000000E+00 -0.29945386011E+04  0.29945386011E+04  0.50400001928E-02 0.  1.
    10030    2    1    2    0    0  0.00000000000E+00  0.00000000000E+00 -0.19148370934E+04  0.40742401089E+04  0.35962245995E+04 0.  0.
        2    1    3    3  502    0  0.75873298413E+03 -0.14393859981E+04 -0.18244551712E+04  0.24446154021E+04  0.25500000920E-02 0.  1.
       -2    1    3    3    0  502 -0.75873298413E+03  0.14393859981E+04 -0.90381922258E+02  0.16296247067E+04  0.25500000920E-02 0. -1.
</event>
<event>
 5   0  0.7347303E-08  0.3591456E+04  0.7818609E-02  0.8092452E-01
       -1   -1    0    0    0  501  0.00000000000E+00  0.00000000000E+00  0.16300335329E+04  0.16300335329E+04  0.50400001928E-02 0. -1.
        1   -1    0    0  501    0  0.00000000000E+00  0.00000000000E+00 -0.19782656484E+04  0.19782656484E+04  0.50400001928E-02 0.  1.
    10030    2    1    2    0    0  0.00000000000E+00  0.00000000000E+00 -0.34823211558E+03  0.36082991813E+04  0.35914561637E+04 0.  0.
        2    1    3    3  502    0  0.26809439359E+03 -0.23303566273E+03 -0.19426152067E+04  0.19748250721E+04  0.25500000920E-02 0.  1.
       -2    1    3    3    0  502 -0.26809439359E+03  0.23303566273E+03  0.15943830912E+04  0.16334741092E+04  0.25500000920E-02 0. -1.
</event>
<event>
 5   0  0.2199902E-07  0.3623953E+04  0.7818609E-02  0.8085027E-01
       -2   -1    0    0    0  501  0.00000000000E+00  0.00000000000E+00  0.15655569752E+04  0.15655569752E+04  0.25500000920E-02 0.  1.
        2   -1    0    0  501    0  0.00000000000E+00  0.00000000000E+00 -0.20971829902E+04  0.20971829902E+04  0.25500000920E-02 0. -1.
    10030    2    1    2    0    0  0.00000000000E+00  0.00000000000E+00 -0.53162601497E+03  0.36627399654E+04  0.36239533433E+04 0.  0.
        1    1    3    3  502    0  0.42481959286E+03  0.17047650552E+04  0.18228740776E+03  0.17663307388E+04  0.50400001928E-02 0. -1.
       -1    1    3    3    0  502 -0.42481959286E+03 -0.17047650552E+04 -0.71391342273E+03  0.18964092266E+04  0.50400001928E-02 0.  1.
</event>
<event>
 5   0  0.7236375E-08  0.3717626E+04  0.7818609E-02  0.8064067E-01
        1   -1    0    0  501    0  0.00000000000E+00  0.00000000000E+00  0.12139865305E+04  0.12139865305E+04  0.50400001928E-02 0.  1.
       -1   -1    0    0    0  501  0.00000000000E+00  0.00000000000E+00 -0.28461478465E+04  0.28461478465E+04  0.50400001928E-02 0. -1.
    10030    2    1    2    0    0  0.00000000000E+00  0.00000000000E+00 -0.16321613160E+04  0.40601343770E+04  0.37176256667E+04 0.  0.
        1    1    3    3  502    0  0.88713728311E+03  0.67043549540E+03  0.81067733307E+03  0.13761155660E+04  0.50400001928E-02 0.  1.
       -1    1    3    3    0  502 -0.88713728311E+03 -0.67043549540E+03 -0.24428386490E+04  0.26840188110E+04  0.50400001928E-02 0. -1.
</event>
<event>
 5   0  0.7236375E-08  0.3600094E+04  0.7818609E-02  0.8090470E-01
        1   -1    0    0  501    0  0.00000000000E+00  0.00000000000E+00  0.21554876468E+04  0.21554876468E+04  0.50400001928E-02 0. -1.
       -1   -1    0    0    0  501  0.00000000000E+00  0.00000000000E+00 -0.15032182689E+04  0.15032182690E+04  0.50400001928E-02 0.  1.
    10030    2    1    2    0    0  0.00000000000E+00  0.00000000000E+00  0.65226937782E+03  0.36587059157E+04  0.36000935594E+04 0.  0.
        5    1    3    3  502    0 -0.32561556451E+03 -0.48822079108E+03  0.20555332519E+04  0.21376679060E+04  0.46999998093E+01 0. -1.
       -5    1    3    3    0  502  0.32561556451E+03  0.48822079108E+03 -0.14032638741E+04  0.15210380097E+04  0.46999998093E+01 0.  1.
</event>
<event>
 5   0  0.2199902E-07  0.3611083E+04  0.7818609E-02  0.8087958E-01
        2   -1    0    0  501    0  0.00000000000E+00  0.00000000000E+00  0.11003260001E+04  0.11003260001E+04  0.25500000920E-02 0.  1.
       -2   -1    0    0    0  501  0.00000000000E+00  0.00000000000E+00 -0.29627405539E+04  0.29627405539E+04  0.25500000920E-02 0. -1.
    10030    2    1    2    0    0  0.00000000000E+00  0.00000000000E+00 -0.18624145538E+04  0.40630665540E+04  0.36110831965E+04 0.  0.
        1    1    3    3  502    0 -0.35915831837E+03 -0.11203271346E+04 -0.24722540795E+04  0.27379130409E+04  0.50400001928E-02 0. -1.
       -1    1    3    3    0  502  0.35915831837E+03  0.11203271346E+04  0.60983952568E+03  0.13251535131E+04  0.50400001928E-02 0.  1.
</event>
<event>
 5   0  0.7514289E-08  0.3578370E+04  0.7818609E-02  0.8095464E-01
       -1   -1    0    0    0  501  0.00000000000E+00  0.00000000000E+00  0.24912975011E+04  0.24912975011E+04  0.50400001928E-02 0.  1.
        1   -1    0    0  501    0  0.00000000000E+00  0.00000000000E+00 -0.12849461747E+04  0.12849461747E+04  0.50400001928E-02 0. -1.
    10030    2    1    2    0    0  0.00000000000E+00  0.00000000000E+00  0.12063513263E+04  0.37762436758E+04  0.35783701285E+04 0.  0.
        4    1    3    3  502    0 -0.64083222287E+03 -0.90679986656E+03 -0.87733873599E+03  0.14151596399E+04  0.12699999809E+01 0. -1.
       -4    1    3    3    0  502  0.64083222287E+03  0.90679986656E+03  0.20836900623E+04  0.23610840359E+04  0.12699999809E+01 0.  1.
</event>
<event>
 5   0  0.2198900E-07  0.3644295E+04  0.7818609E-02  0.8080420E-01
       -2   -1    0    0    0  501  0.00000000000E+00  0.00000000000E+00  0.10924641785E+04  0.10924641785E+04  0.25500000920E-02 0.  1.
        2   -1    0    0  501    0  0.00000000000E+00  0.00000000000E+00 -0.30392038698E+04  0.30392038698E+04  0.25500000920E-02 0. -1.
    10030    2    1    2    0    0  0.00000000000E+00  0.00000000000E+00 -0.19467396913E+04  0.41316680483E+04  0.36442949161E+04 0.  0.
        2    1    3    3  502    0  0.14712119276E+03 -0.91712483611E+01 -0.30324329827E+04  0.30360135954E+04  0.25500000920E-02 0. -1.
       -2    1    3    3    0  502 -0.14712119276E+03  0.91712483611E+01  0.10856932914E+04  0.10956544529E+04  0.25500000920E-02 0.  1.
</event>
<event>
 5   0  0.7514289E-08  0.3610216E+04  0.7818609E-02  0.8088156E-01
       -1   -1    0    0    0  501  0.00000000000E+00  0.00000000000E+00  0.17876448475E+04  0.17876448475E+04  0.50400001928E-02 0. -1.
        1   -1    0    0  501    0  0.00000000000E+00  0.00000000000E+00 -0.18227416636E+04  0.18227416636E+04  0.50400001928E-02 0.  1.
    10030    2    1    2    0    0  0.00000000000E+00  0.00000000000E+00 -0.35096816117E+02  0.36103865111E+04  0.36102159177E+04 0.  0.
        4    1    3    3  502    0 -0.89256959964E+03  0.67844047609E+03 -0.14323417901E+04  0.18189465595E+04  0.12699999809E+01 0.  1.
       -4    1    3    3    0  502  0.89256959964E+03 -0.67844047609E+03  0.13972449740E+04  0.17914399515E+04  0.12699999809E+01 0. -1.
</event>
<event>
 5   0  0.7236375E-08  0.3603909E+04  0.7818609E-02  0.8089597E-01
        1   -1    0    0  501    0  0.00000000000E+00  0.00000000000E+00  0.17182531689E+04  0.17182531689E+04  0.50400001928E-02 0.  1.
       -1   -1    0    0    0  501  0.00000000000E+00  0.00000000000E+00 -0.18897332113E+04  0.18897332113E+04  0.50400001928E-02 0. -1.
    10030    2    1    2    0    0  0.00000000000E+00  0.00000000000E+00 -0.17148004239E+03  0.36079863803E+04  0.36039090326E+04 0.  0.
        1    1    3    3  502    0 -0.17147988176E+04  0.41100054001E+02  0.46698593946E+03  0.17777232819E+04  0.50400001928E-02 0. -1.
       -1    1    3    3    0  502  0.17147988176E+04 -0.41100054001E+02 -0.63846598185E+03  0.18302630984E+04  0.50400001928E-02 0.  1.
</event>
<event>
 5   0  0.2342606E-07  0.3571474E+04  0.7818609E-02  0.8097057E-01
        2   -1    0    0  501    0  0.00000000000E+00  0.00000000000E+00  0.18093377466E+04  0.18093377466E+04  0.25500000920E-02 0.  1.
       -2   -1    0    0    0  501  0.00000000000E+00  0.00000000000E+00 -0.17624445552E+04  0.17624445552E+04  0.25500000920E-02 0. -1.
    10030    2    1    2    0    0  0.00000000000E+00  0.00000000000E+00  0.46893191431E+02  0.35717823018E+04  0.35714744630E+04 0.  0.
        5    1    3    3  502    0  0.95796625212E+03  0.83336329935E+03  0.12791987393E+04  0.18023776612E+04  0.46999998093E+01 0.  1.
       -5    1    3    3    0  502 -0.95796625212E+03 -0.83336329935E+03 -0.12323055479E+04  0.17694046406E+04  0.46999998093E+01 0. -1.
</event>
<event>
 5   0  0.7261233E-08  0.3700409E+04  0.7818609E-02  0.8067871E-01
        1   -1    0    0  501    0  0.00000000000E+00  0.00000000000E+00  0.23428471052E+04  0.23428471052E+04  0.50400001928E-02 0.  1.
       -1   -1    0    0    0  501  0.00000000000E+00  0.00000000000E+00 -0.14611520151E+04  0.14611520152E+04  0.50400001928E-02 0. -1.
    10030    2    1    2    0    0  0.00000000000E+00  0.00000000000E+00  0.88169509005E+03  0.38039991204E+04  0.37004085012E+04 0.  0.
        3    1    3    3  502    0 -0.28779682018E+03  0.12068684629E+04  0.18518226309E+04  0.22290369138E+04  0.10100000352E+00 0.  1.
       -3    1    3    3    0  502  0.28779682018E+03 -0.12068684629E+04 -0.97012754084E+03  0.15749622066E+04  0.10100000352E+00 0. -1.
</event>
<event>
 5   0  0.7236375E-08  0.3605608E+04  0.7818609E-02  0.8089208E-01
        1   -1    0    0  501    0  0.00000000000E+00  0.00000000000E+00  0.11035268723E+04  0.11035268723E+04  0.50400001928E-02 0.  1.
       -1   -1    0    0    0  501  0.00000000000E+00  0.00000000000E+00 -0.29451947593E+04  0.29451947593E+04  0.50400001928E-02 0. -1.
    10030    2    1    2    0    0  0.00000000000E+00  0.00000000000E+00 -0.18416678870E+04  0.40487216316E+04  0.36056076109E+04 0.  0.
        5    1    3    3  502    0 -0.13688441136E+04 -0.71246773680E+03 -0.19674396844E+04  0.25004370588E+04  0.46999998093E+01 0. -1.
       -5    1    3    3    0  502  0.13688441136E+04  0.71246773680E+03  0.12577179738E+03  0.15482845728E+04  0.46999998093E+01 0.  1.
</event>
<event>
 5   0  0.2198900E-07  0.3624047E+04  0.7818609E-02  0.8085006E-01
       -2   -1    0    0    0  501  0.00000000000E+00  0.00000000000E+00  0.18983702901E+04  0.18983702901E+04  0.25500000920E-02 0.  1.
        2   -1    0    0  501    0  0.00000000000E+00  0.00000000000E+00 -0.17296041007E+04  0.17296041007E+04  0.25500000920E-02 0. -1.
    10030    2    1    2    0    0  0.00000000000E+00  0.00000000000E+00  0.16876618939E+03  0.36279743909E+04  0.36240469304E+04 0.  0.
        2    1    3    3  502    0  0.71509274393E+03  0.33382854990E+03  0.17172945430E+04  0.18899470047E+04  0.25500000920E-02 0.  1.
       -2    1    3    3    0  502 -0.71509274393E+03 -0.33382854990E+03 -0.15485283536E+04  0.17380273862E+04  0.25500000920E-02 0. -1.
</event>
<event>
 5   0  0.2309391E-07  0.3587108E+04  0.7818609E-02  0.8093451E-01
        2   -1    0    0  501    0  0.00000000000E+00  0.00000000000E+00  0.24095278299E+04  0.24095278299E+04  0.25500000920E-02 0.  1.
       -2   -1    0    0    0  501  0.00000000000E+00  0.00000000000E+00 -0.13350485392E+04  0.13350485392E+04  0.25500000920E-02 0. -1.
    10030    2    1    2    0    0  0.00000000000E+00  0.00000000000E+00  0.10744792907E+04  0.37445763691E+04  0.35871083672E+04 0.  0.
        4    1    3    3  502    0 -0.27608777297E+03 -0.13321155206E+04 -0.68286215399E+03  0.15221887376E+04  0.12699999809E+01 0. -1.
       -4    1    3    3    0  502  0.27608777297E+03  0.13321155206E+04  0.17573414447E+04  0.22223876315E+04  0.12699999809E+01 0.  1.
</event>
<event>
 5   0  0.7261233E-08  0.3548168E+04  0.7818609E-02  0.8102469E-01
        1   -1    0    0  501    0  0.00000000000E+00  0.00000000000E+00  0.24268377225E+04  0.24268377225E+04  0.50400001928E-02 0.  1.
       -1   -1    0    0    0  501  0.00000000000E+00  0.00000000000E+00 -0.12969037308E+04  0.12969037308E+04  0.50400001928E-02 0. -1.
    10030    2    1    2    0    0  0.00000000000E+00  0.00000000000E+00  0.11299339917E+04  0.37237414532E+04  0.35481684832E+04 0.  0.
        3    1    3    3  502    0 -0.52356602768E+03 -0.41814133321E+03 -0.11590016423E+04  0.13387488103E+04  0.10100000352E+00 0. -1.
       -3    1    3    3    0  502  0.52356602768E+03  0.41814133321E+03  0.22889356340E+04  0.23849926429E+04  0.10100000352E+00 0.  1.
</event>
<event>
 5   0  0.2198900E-07  0.3548754E+04  0.7818609E-02  0.8102332E-01
        2   -1    0    0  501    0  0.00000000000E+00  0.00000000000E+00  0.16729317607E+04  0.16729317607E+04  0.25500000920E-02 0.  1.
       -2   -1    0    0    0  501  0.00000000000E+00  0.00000000000E+00 -0.18819734687E+04  0.18819734687E+04  0.25500000920E-02 0. -1.
    10030    2    1    2    0    0  0.00000000000E+00  0.00000000000E+00 -0.20904170802E+03  0.35549052295E+04  0.35487536904E+04 0.  0.
        2    1    3    3  502    0 -0.12366857169E+04  0.80278675516E+03 -0.10934276439E+04  0.18356040284E+04  0.25500000920E-02 0. -1.
       -2    1    3    3    0  502  0.12366857169E+04 -0.80278675516E+03  0.88438593586E+03  0.17193012011E+04  0.25500000920E-02 0.  1.
</event>
<event>
 5   0  0.2309391E-07  0.3589863E+04  0.7818609E-02  0.8092818E-01
        2   -1    0    0  501    0  0.00000000000E+00  0.00000000000E+00  0.23575785464E+04  0.23575785464E+04  0.25500000920E-02 0. -1.
       -2   -1    0    0    0  501  0.00000000000E+00  0.00000000000E+00 -0.13665626688E+04  0.13665626688E+04  0.25500000920E-02 0.  1.
    10030    2    1    2    0    0  0.00000000000E+00  0.00000000000E+00  0.99101587758E+03  0.37241412152E+04  0.35898628555E+04 0.  0.
        4    1    3    3  502    0  0.15111208452E+04  0.66205234155E+03  0.12290476040E+04  0.20572698262E+04  0.12699999809E+01 0. -1.
       -4    1    3    3    0  502 -0.15111208452E+04 -0.66205234155E+03 -0.23803172642E+03  0.16668713890E+04  0.12699999809E+01 0.  1.
</event>
<event>
 5   0  0.2238968E-07  0.3548158E+04  0.7818609E-02  0.8102471E-01
        2   -1    0    0  501    0  0.00000000000E+00  0.00000000000E+00  0.15072222986E+04  0.15072222986E+04  0.25500000920E-02 0. -1.
       -2   -1    0    0    0  501  0.00000000000E+00  0.00000000000E+00 -0.20881835645E+04  0.20881835645E+04  0.25500000920E-02 0.  1.
    10030    2    1    2    0    0  0.00000000000E+00  0.00000000000E+00 -0.58096126594E+03  0.35954058632E+04  0.35481583009E+04 0.  0.
        3    1    3    3  502    0  0.11642978479E+04  0.15816123635E+03 -0.16373726397E+04  0.20153395810E+04  0.10100000352E+00 0.  1.
       -3    1    3    3    0  502 -0.11642978479E+04 -0.15816123635E+03  0.10564113738E+04  0.15800662822E+04  0.10100000352E+00 0. -1.
</event>
<event>
 5   0  0.7236375E-08  0.3605745E+04  0.7818609E-02  0.8089177E-01
        1   -1    0    0  501    0  0.00000000000E+00  0.00000000000E+00  0.16104263402E+04  0.16104263402E+04  0.50400001928E-02 0.  1.
       -1   -1    0    0    0  501  0.00000000000E+00  0.00000000000E+00 -0.20183154529E+04  0.20183154529E+04  0.50400001928E-02 0. -1.
    10030    2    1    2    0    0  0.00000000000E+00  0.00000000000E+00 -0.40788911277E+03  0.36287417931E+04  0.36057445102E+04 0.  0.
        5    1    3    3  502    0  0.15439351493E+04  0.40343288807E+03 -0.10482425454E+04  0.19092743031E+04  0.46999998093E+01 0. -1.
       -5    1    3    3    0  502 -0.15439351493E+04 -0.40343288807E+03  0.64035343259E+03  0.17194674900E+04  0.46999998093E+01 0.  1.
</event>
<event>
 5   0  0.2198900E-07  0.3616844E+04  0.7818609E-02  0.8086644E-01
       -2   -1    0    0    0  501  0.00000000000E+00  0.00000000000E+00  0.13559360719E+04  0.13559360719E+04  0.25500000920E-02 0.  1.
        2   -1    0    0  501    0  0.00000000000E+00  0.00000000000E+00 -0.24119055940E+04  0.24119055940E+04  0.25500000920E-02 0. -1.
    10030    2    1    2    0    0  0.00000000000E+00  0.00000000000E+00 -0.10559695221E+04  0.37678416659E+04  0.36168438157E+04 0.  0.
        2    1    3    3  502    0 -0.19580802805E+02 -0.15635428817E+04 -0.14743948212E+04  0.21491602638E+04  0.25500000920E-02 0. -1.
       -2    1    3    3    0  502  0.19580802805E+02  0.15635428817E+04  0.41842529906E+03  0.16186814021E+04  0.25500000920E-02 0.  1.
</event>
<event>
 5   0  0.7236375E-08  0.3585682E+04  0.7818609E-02  0.8093779E-01
        3   -1    0    0  501    0  0.00000000000E+00  0.00000000000E+00  0.10071078045E+04  0.10071078096E+04  0.10100000352E+00 0. -1.
       -3   -1    0    0    0  501  0.00000000000E+00  0.00000000000E+00 -0.31915941700E+04  0.31915941716E+04  0.10100000352E+00 0.  1.
    10030    2    1    2    0    0  0.00000000000E+00  0.00000000000E+00 -0.21844863655E+04  0.41987019812E+04  0.35856823125E+04 0.  0.
        3    1    3    3  502    0 -0.13561270226E+04  0.86546304695E+03 -0.20188388732E+04  0.25814370403E+04  0.10100000352E+00 0.  1.
       -3    1    3    3    0  502  0.13561270226E+04 -0.86546304695E+03 -0.16564749230E+03  0.16172649409E+04  0.10100000352E+00 0. -1.
</event>
<event>
 5   0  0.7514289E-08  0.3660174E+04  0.7818609E-02  0.8076846E-01
       -1   -1    0    0    0  501  0.00000000000E+00  0.00000000000E+00  0.14398472589E+04  0.14398472589E+04  0.50400001928E-02 0. -1.
        1   -1    0    0  501    0  0.00000000000E+00  0.00000000000E+00 -0.23260927581E+04  0.23260927581E+04  0.50400001928E-02 0.  1.
    10030    2    1    2    0    0  0.00000000000E+00  0.00000000000E+00 -0.88624549924E+03  0.37659400170E+04  0.36601739202E+04 0.  0.
        4    1    3    3  502    0 -0.39128730959E+03  0.17571900515E+04 -0.10437660264E+03  0.18032522629E+04  0.12699999809E+01 0. -1.
       -4    1    3    3    0  502  0.39128730959E+03 -0.17571900515E+04 -0.78186889660E+03  0.19626877541E+04  0.12699999809E+01 0.  1.
</event>
<event>
 5   0  0.2198900E-07  0.3637682E+04  0.7818609E-02  0.8081914E-01
       -2   -1    0    0    0  501  0.00000000000E+00  0.00000000000E+00  0.12192820241E+04  0.12192820241E+04  0.25500000920E-02 0. -1.
        2   -1    0    0  501    0  0.00000000000E+00  0.00000000000E+00 -0.27132211840E+04  0.27132211840E+04  0.25500000920E-02 0.  1.
    10030    2    1    2    0    0  0.00000000000E+00  0.00000000000E+00 -0.14939391600E+04  0.39325032081E+04  0.36376815787E+04 0.  0.
        2    1    3    3  502    0  0.30379462978E+03 -0.17252641099E+04 -0.12758592738E+04  0.21671742691E+04  0.25500000920E-02 0.  1.
       -2    1    3    3    0  502 -0.30379462978E+03  0.17252641099E+04 -0.21807988619E+03  0.17653289390E+04  0.25500000920E-02 0. -1.
</event>
<event>
 5   0  0.7236375E-08  0.3596733E+04  0.7818609E-02  0.8091241E-01
       -1   -1    0    0    0  501  0.00000000000E+00  0.00000000000E+00  0.10026611828E+04  0.10026611828E+04  0.50400001928E-02 0.  1.
        1   -1    0    0  501    0  0.00000000000E+00  0.00000000000E+00 -0.32255374483E+04  0.32255374483E+04  0.50400001928E-02 0. -1.
    10030    2    1    2    0    0  0.00000000000E+00  0.00000000000E+00 -0.22228762655E+04  0.42281986311E+04  0.35967325132E+04 0.  0.
        5    1    3    3  502    0 -0.16227500061E+04  0.77467066377E+03 -0.11417960662E+04  0.21300592870E+04  0.46999998093E+01 0. -1.
       -5    1    3    3    0  502  0.16227500061E+04 -0.77467066377E+03 -0.10810801994E+04  0.20981393440E+04  0.46999998093E+01 0.  1.
</event>
<event>
 5   0  0.7236375E-08  0.3609852E+04  0.7818609E-02  0.8088239E-01
       -1   -1    0    0    0  501  0.00000000000E+00  0.00000000000E+00  0.29331403653E+04  0.29331403653E+04  0.50400001928E-02 0.  1.
        1   -1    0    0  501    0  0.00000000000E+00  0.00000000000E+00 -0.11106721783E+04  0.11106721783E+04  0.50400001928E-02 0. -1.
    10030    2    1    2    0    0  0.00000000000E+00  0.00000000000E+00  0.18224681870E+04  0.40438125435E+04  0.36098517414E+04 0.  0.
        5    1    3    3  502    0  0.95089636093E+02 -0.65804250797E+03  0.27909524516E+04  0.28690590196E+04  0.46999998093E+01 0.  1.
       -5    1    3    3    0  502 -0.95089636093E+02  0.65804250797E+03 -0.96848426458E+03  0.11747535239E+04  0.46999998093E+01 0. -1.
</event>
<event>
 5   0  0.7261233E-08  0.3600905E+04  0.7818609E-02  0.8090285E-01
        1   -1    0    0  501    0  0.00000000000E+00  0.00000000000E+00  0.25872586951E+04  0.25872586951E+04  0.50400001928E-02 0. -1.
       -1   -1    0    0    0  501  0.00000000000E+00  0.00000000000E+00 -0.12529201239E+04  0.12529201239E+04  0.50400001928E-02 0.  1.
    10030    2    1    2    0    0  0.00000000000E+00  0.00000000000E+00  0.13343385712E+04  0.38401788190E+04  0.36009046002E+04 0.  0.
        3    1    3    3  502    0  0.74859816793E+03 -0.10901913697E+04  0.19701195833E+04  0.23728227119E+04  0.10100000352E+00 0. -1.
       -3    1    3    3    0  502 -0.74859816793E+03  0.10901913697E+04 -0.63578101209E+03  0.14673561071E+04  0.10100000352E+00 0.  1.
</event>
<event>
 5   0  0.7347303E-08  0.3591990E+04  0.7818609E-02  0.8092329E-01
        1   -1    0    0  501    0  0.00000000000E+00  0.00000000000E+00  0.28247792774E+04  0.28247792774E+04  0.50400001928E-02 0. -1.
       -1   -1    0    0    0  501  0.00000000000E+00  0.00000000000E+00 -0.11418936613E+04  0.11418936613E+04  0.50400001928E-02 0.  1.
    10030    2    1    2    0    0  0.00000000000E+00  0.00000000000E+00  0.16828856161E+04  0.39666729387E+04  0.35919897279E+04 0.  0.
        2    1    3    3  502    0  0.94375283613E+02  0.12726492290E+04  0.22370114942E+04  0.25754151470E+04  0.25500000920E-02 0.  1.
       -2    1    3    3    0  502 -0.94375283613E+02 -0.12726492290E+04 -0.55412587805E+03  0.13912577917E+04  0.25500000920E-02 0. -1.
</event>
<event>
 5   0  0.2342606E-07  0.3571594E+04  0.7818609E-02  0.8097030E-01
       -2   -1    0    0    0  501  0.00000000000E+00  0.00000000000E+00  0.22962462532E+04  0.22962462532E+04  0.25500000920E-02 0.  1.
        2   -1    0    0  501    0  0.00000000000E+00  0.00000000000E+00 -0.13888193694E+04  0.13888193694E+04  0.25500000920E-02 0. -1.
    10030    2    1    2    0    0  0.00000000000E+00  0.00000000000E+00  0.90742688383E+03  0.36850656225E+04  0.35715941949E+04 0.  0.
        5    1    3    3  502    0 -0.85551586762E+03  0.12668098016E+04  0.14062643711E+04  0.20770931719E+04  0.46999998093E+01 0.  1.
       -5    1    3    3    0  502  0.85551586762E+03 -0.12668098016E+04 -0.49883748732E+03  0.16079724506E+04  0.46999998093E+01 0. -1.
</event>
<event>
 5   0  0.7514289E-08  0.3600330E+04  0.7818609E-02  0.8090416E-01
        1   -1    0    0  501    0  0.00000000000E+00  0.00000000000E+00  0.15481048279E+04  0.15481048279E+04  0.50400001928E-02 0. -1.
       -1   -1    0    0    0  501  0.00000000000E+00  0.00000000000E+00 -0.20932649425E+04  0.20932649425E+04  0.50400001928E-02 0.  1.
    10030    2    1    2    0    0  0.00000000000E+00  0.00000000000E+00 -0.54516011461E+03  0.36413697705E+04  0.36003297425E+04 0.  0.
        4    1    3    3  502    0 -0.35048335704E+03  0.12163840359E+04 -0.15670771906E+04  0.20144878358E+04  0.12699999809E+01 0.  1.
       -4    1    3    3    0  502  0.35048335704E+03 -0.12163840359E+04  0.10219170760E+04  0.16268819347E+04  0.12699999809E+01 0. -1.
</event>
<event>
 5   0  0.7236375E-08  0.3595493E+04  0.7818609E-02  0.8091525E-01
       -1   -1    0    0    0  501  0.00000000000E+00  0.00000000000E+00  0.13716272981E+04  0.13716272981E+04  0.50400001928E-02 0. -1.
        1   -1    0    0  501    0  0.00000000000E+00  0.00000000000E+00 -0.23562473197E+04  0.23562473197E+04  0.50400001928E-02 0.  1.
    10030    2    1    2    0    0  0.00000000000E+00  0.00000000000E+00 -0.98462002161E+03  0.37278746178E+04  0.35954933708E+04 0.  0.
        5    1    3    3  502    0 -0.48722987291E+03  0.51607021950E+03  0.12202149022E+04  0.14116188997E+04  0.46999998093E+01 0. -1.
       -5    1    3    3    0  502  0.48722987291E+03 -0.51607021950E+03 -0.22048349238E+04  0.23162557181E+04  0.46999998093E+01 0.  1.
</event>
<event>
 5   0  0.2198900E-07  0.3614031E+04  0.7818609E-02  0.8087285E-01
       -2   -1    0    0    0  501  0.00000000000E+00  0.00000000000E+00  0.13097483365E+04  0.13097483365E+04  0.25500000920E-02 0.  1.
        2   -1    0    0  501    0  0.00000000000E+00  0.00000000000E+00 -0.24930783116E+04  0.24930783116E+04  0.25500000920E-02 0. -1.
    10030    2    1    2    0    0  0.00000000000E+00  0.00000000000E+00 -0.11833299752E+04  0.38028266481E+04  0.36140310853E+04 0.  0.
        2    1    3    3  502    0  0.11087534485E+04 -0.62431457767E+03 -0.19417348508E+04  0.23215161280E+04  0.25500000920E-02 0. -1.
       -2    1    3    3    0  502 -0.11087534485E+04  0.62431457767E+03  0.75840487566E+03  0.14813105201E+04  0.25500000920E-02 0.  1.
</event>
<event>
 5   0  0.7347303E-08  0.3577776E+04  0.7818609E-02  0.8095601E-01
        1   -1    0    0  501    0  0.00000000000E+00  0.00000000000E+00  0.16741070924E+04  0.16741070924E+04  0.50400001928E-02 0. -1.
       -1   -1    0    0    0  501  0.00000000000E+00  0.00000000000E+00 -0.19115383341E+04  0.19115383341E+04  0.50400001928E-02 0.  1.
    10030    2    1    2    0    0  0.00000000000E+00  0.00000000000E+00 -0.23743124174E+03  0.35856454265E+04  0.35777757798E+04 0.  0.
        2    1    3    3  502    0  0.39322052282E+03 -0.13558403527E+04  0.98242512941E+03  0.17199083047E+04  0.25500000920E-02 0. -1.
       -2    1    3    3    0  502 -0.39322052282E+03  0.13558403527E+04 -0.12198563712E+04  0.18657371218E+04  0.25500000920E-02 0.  1.
</event>
<event>
 5   0  0.2342606E-07  0.3597183E+04  0.7818609E-02  0.8091137E-01
       -2   -1    0    0    0  501  0.00000000000E+00  0.00000000000E+00  0.15996355424E+04  0.15996355424E+04  0.25500000920E-02 0.  1.
        2   -1    0    0  501    0  0.00000000000E+00  0.00000000000E+00 -0.20222925868E+04  0.20222925868E+04  0.25500000920E-02 0. -1.
    10030    2    1    2    0    0  0.00000000000E+00  0.00000000000E+00 -0.42265704442E+03  0.36219281291E+04  0.35971828415E+04 0.  0.
        5    1    3    3  502    0 -0.48149746258E+03 -0.91056756216E+03 -0.16958985355E+04  0.19842043807E+04  0.46999998093E+01 0. -1.
       -5    1    3    3    0  502  0.48149746258E+03  0.91056756216E+03  0.12732414910E+04  0.16377237484E+04  0.46999998093E+01 0.  1.
</event>
<event>
 5   0  0.7236375E-08  0.3586541E+04  0.7818609E-02  0.8093582E-01
       -1   -1    0    0    0  501  0.00000000000E+00  0.00000000000E+00  0.12865917366E+04  0.12865917366E+04  0.50400001928E-02 0. -1.
        1   -1    0    0  501    0  0.00000000000E+00  0.00000000000E+00 -0.24994865753E+04  0.24994865753E+04  0.50400001928E-02 0.  1.
    10030    2    1    2    0    0  0.00000000000E+00  0.00000000000E+00 -0.12128948388E+04  0.37860783119E+04  0.35865408256E+04 0.  0.
        1    1    3    3  502    0  0.10213147229E+04  0.28181267794E+03  0.92087692892E+03  0.14037508564E+04  0.50400001928E-02 0. -1.
       -1    1    3    3    0  502 -0.10213147229E+04 -0.28181267794E+03 -0.21337717677E+04  0.23823274555E+04  0.50400001928E-02 0.  1.
</event>
<event>
 5   0  0.2238968E-07  0.3593635E+04  0.7818609E-02  0.8091951E-01
       -2   -1    0    0    0  501  0.00000000000E+00  0.00000000000E+00  0.23798993311E+04  0.23798993311E+04  0.25500000920E-02 0.  1.
        2   -1    0    0  501    0  0.00000000000E+00  0.00000000000E+00 -0.13565924145E+04  0.13565924145E+04  0.25500000920E-02 0. -1.
    10030    2    1    2    0    0  0.00000000000E+00  0.00000000000E+00  0.10233069165E+04  0.37364917456E+04  0.35936351400E+04 0.  0.
        3    1    3    3  502    0 -0.11539054254E+04 -0.80353828037E+03 -0.65146775176E+03  0.15497037590E+04  0.10100000352E+00 0. -1.
       -3    1    3    3    0  502  0.11539054254E+04  0.80353828037E+03  0.16747746683E+04  0.21867879866E+04  0.10100000352E+00 0.  1.
</event>
<event>
 5   0  0.2342606E-07  0.3607265E+04  0.7818609E-02  0.8088830E-01
       -2   -1    0    0    0  501  0.00000000000E+00  0.00000000000E+00  0.23454640998E+04  0.23454640998E+04  0.25500000920E-02 0. -1.
        2   -1    0    0  501    0  0.00000000000E+00  0.00000000000E+00 -0.13869707421E+04  0.13869707421E+04  0.25500000920E-02 0.  1.
    10030    2    1    2    0    0  0.00000000000E+00  0.00000000000E+00  0.95849335773E+03  0.37324348419E+04  0.36072649379E+04 0.  0.
        5    1    3    3  502    0  0.40807019022E+03  0.11571073649E+04 -0.88861232319E+03  0.15149497302E+04  0.46999998093E+01 0.  1.
       -5    1    3    3    0  502 -0.40807019022E+03 -0.11571073649E+04  0.18471056809E+04  0.22174851117E+04  0.46999998093E+01 0. -1.
</event>
<event>
 5   0  0.7236375E-08  0.3606772E+04  0.7818609E-02  0.8088942E-01
        1   -1    0    0  501    0  0.00000000000E+00  0.00000000000E+00  0.11608179268E+04  0.11608179268E+04  0.50400001928E-02 0.  1.
       -1   -1    0    0    0  501  0.00000000000E+00  0.00000000000E+00 -0.28016460229E+04  0.28016460229E+04  0.50400001928E-02 0. -1.
    10030    2    1    2    0    0  0.00000000000E+00  0.00000000000E+00 -0.16408280961E+04  0.39624639497E+04  0.36067719240E+04 0.  0.
        1    1    3    3  502    0 -0.14071827066E+04  0.62822991018E+03 -0.18494647686E+04  0.24073545481E+04  0.50400001928E-02 0. -1.
       -1    1    3    3    0  502  0.14071827066E+04 -0.62822991018E+03  0.20863667244E+03  0.15551094016E+04  0.50400001928E-02 0.  1.
</event>
<event>
 5   0  0.2198900E-07  0.3604189E+04  0.7818609E-02  0.8089533E-01
       -2   -1    0    0    0  501  0.00000000000E+00  0.00000000000E+00  0.21457192762E+04  0.21457192762E+04  0.25500000920E-02 0. -1.
        2   -1    0    0  501    0  0.00000000000E+00  0.00000000000E+00 -0.15134992596E+04  0.15134992596E+04  0.25500000920E-02 0.  1.
    10030    2    1    2    0    0  0.00000000000E+00  0.00000000000E+00  0.63222001668E+03  0.36592185358E+04  0.36041889716E+04 0.  0.
        2    1    3    3  502    0  0.24627675673E+03  0.10272033441E+04  0.17984522334E+04  0.20857203520E+04  0.25500000920E-02 0. -1.
       -2    1    3    3    0  502 -0.24627675673E+03 -0.10272033441E+04 -0.11662322167E+04  0.15734981838E+04  0.25500000920E-02 0.  1.
</event>
<event>
 5   0  0.2342606E-07  0.3590999E+04  0.7818609E-02  0.8092557E-01
        2   -1    0    0  501    0  0.00000000000E+00  0.00000000000E+00  0.22706457518E+04  0.22706457518E+04  0.25500000920E-02 0.  1.
       -2   -1    0    0    0  501  0.00000000000E+00  0.00000000000E+00 -0.14197803977E+04  0.14197803977E+04  0.25500000920E-02 0. -1.
    10030    2    1    2    0    0  0.00000000000E+00  0.00000000000E+00  0.85086535416E+03  0.36904261495E+04  0.35909989298E+04 0.  0.
        5    1    3    3  502    0 -0.16601747828E+04  0.29000879821E+03  0.10618618185E+04  0.19919482985E+04  0.46999998093E+01 0.  1.
       -5    1    3    3    0  502  0.16601747828E+04 -0.29000879821E+03 -0.21099646430E+03  0.16984778510E+04  0.46999998093E+01 0. -1.
</event>
<event>
 5   0  0.7347303E-08  0.3606909E+04  0.7818609E-02  0.8088911E-01
       -1   -1    0    0    0  501  0.00000000000E+00  0.00000000000E+00  0.20879430798E+04  0.20879430798E+04  0.50400001928E-02 0.  1.
        1   -1    0    0  501    0  0.00000000000E+00  0.00000000000E+00 -0.15577279413E+04  0.15577279413E+04  0.50400001928E-02 0. -1.
    10030    2    1    2    0    0  0.00000000000E+00  0.00000000000E+00  0.53021513847E+03  0.36456710211E+04  0.36069085241E+04 0.  0.
        2    1    3    3  502    0 -0.96069528842E+03 -0.11654212076E+04  0.12612471926E+04  0.19677109821E+04  0.25500000920E-02 0.  1.
       -2    1    3    3    0  502  0.96069528842E+03  0.11654212076E+04 -0.73103205413E+03  0.16779600390E+04  0.25500000920E-02 0. -1.
</event>
<event>
 5   0  0.2238968E-07  0.3599109E+04  0.7818609E-02  0.8090696E-01
       -2   -1    0    0    0  501  0.00000000000E+00  0.00000000000E+00  0.17107079968E+04  0.17107079968E+04  0.25500000920E-02 0.  1.
        2   -1    0    0  501    0  0.00000000000E+00  0.00000000000E+00 -0.18930156317E+04  0.18930156317E+04  0.25500000920E-02 0. -1.
    10030    2    1    2    0    0  0.00000000000E+00  0.00000000000E+00 -0.18230763494E+03  0.36037236286E+04  0.35991093228E+04 0.  0.
        3    1    3    3  502    0 -0.11131090115E+04  0.13943494158E+04  0.14404093442E+03  0.17899636214E+04  0.10100000352E+00 0.  1.
       -3    1    3    3    0  502  0.11131090115E+04 -0.13943494158E+04 -0.32634856937E+03  0.18137600072E+04  0.10100000352E+00 0. -1.
</event>
<event>
 5   0  0.7514289E-08  0.3600720E+04  0.7818609E-02  0.8090327E-01
        1   -1    0    0  501    0  0.00000000000E+00  0.00000000000E+00  0.12059427324E+04  0.12059427324E+04  0.50400001928E-02 0. -1.
       -1   -1    0    0    0  501  0.00000000000E+00  0.00000000000E+00 -0.26877702094E+04  0.26877702094E+04  0.50400001928E-02 0.  1.
    10030    2    1    2    0    0  0.00000000000E+00  0.00000000000E+00 -0.14818274771E+04  0.38937129418E+04  0.36007204559E+04 0.  0.
        4    1    3    3  502    0  0.51137277346E+03 -0.26706068238E+03 -0.25851092240E+04  0.26487005935E+04  0.12699999809E+01 0.  1.
       -4    1    3    3    0  502 -0.51137277346E+03  0.26706068238E+03  0.11032817469E+04  0.12450123483E+04  0.12699999809E+01 0. -1.
</event>
<event>
 5   0  0.7236375E-08  0.3578465E+04  0.7818609E-02  0.8095442E-01
       -1   -1    0    0    0  501  0.00000000000E+00  0.00000000000E+00  0.12683719764E+04  0.12683719764E+04  0.50400001928E-02 0.  1.
        1   -1    0    0  501    0  0.00000000000E+00  0.00000000000E+00 -0.25239863836E+04  0.25239863836E+04  0.50400001928E-02 0. -1.
    10030    2    1    2    0    0  0.00000000000E+00  0.00000000000E+00 -0.12556144072E+04  0.37923583601E+04  0.35784653682E+04 0.  0.
        5    1    3    3  502    0 -0.13474682756E+04 -0.20426030929E+02  0.61950627749E+03  0.14832053446E+04  0.46999998093E+01 0.  1.
       -5    1    3    3    0  502  0.13474682756E+04  0.20426030929E+02 -0.18751206847E+04  0.23091530154E+04  0.46999998093E+01 0. -1.
</event>
<event>
 5   0  0.7236375E-08  0.3584398E+04  0.7818609E-02  0.8094075E-01
        1   -1    0    0  501    0  0.00000000000E+00  0.00000000000E+00  0.25039608123E+04  0.25039608123E+04  0.50400001928E-02 0.  1.
       -1   -1    0    0    0  501  0.00000000000E+00  0.00000000000E+00 -0.12827587517E+04  0.12827587517E+04  0.50400001928E-02 0. -1.
    10030    2    1    2    0    0  0.00000000000E+00  0.00000000000E+00  0.12212020606E+04  0.37867195640E+04  0.35843982178E+04 0.  0.
        5    1    3    3  502    0 -0.86495542542E+03 -0.14348373235E+04 -0.61757552779E+02  0.16765268021E+04  0.46999998093E+01 0. -1.
       -5    1    3    3    0  502  0.86495542542E+03  0.14348373235E+04  0.12829596134E+04  0.21101927619E+04  0.46999998093E+01 0.  1.
</event>
<event>
 5   0  0.7236375E-08  0.3591416E+04  0.7818609E-02  0.8092461E-01
       -3   -1    0    0    0  501  0.00000000000E+00  0.00000000000E+00  0.17824311915E+04  0.17824311943E+04  0.10100000352E+00 0. -1.
        3   -1    0    0  501    0  0.00000000000E+00  0.00000000000E+00 -0.18090835191E+04  0.18090835219E+04  0.10100000352E+00 0.  1.
    10030    2    1    2    0    0  0.00000000000E+00  0.00000000000E+00 -0.26652327657E+02  0.35915147163E+04  0.35914158226E+04 0.  0.
        5    1    3    3  502    0 -0.13037621682E+04 -0.98387974391E+03 -0.75948990713E+03  0.18012945763E+04  0.46999998093E+01 0.  1.
       -5    1    3    3    0  502  0.13037621682E+04  0.98387974391E+03  0.73283757947E+03  0.17902201400E+04  0.46999998093E+01 0. -1.
</event>
<event>
 5   0  0.2238968E-07  0.3607869E+04  0.7818609E-02  0.8088692E-01
        2   -1    0    0  501    0  0.00000000000E+00  0.00000000000E+00  0.14031734064E+04  0.14031734064E+04  0.25500000920E-02 0.  1.
       -2   -1    0    0    0  501  0.00000000000E+00  0.00000000000E+00 -0.23191566998E+04  0.23191566998E+04  0.25500000920E-02 0. -1.
    10030    2    1    2    0    0  0.00000000000E+00  0.00000000000E+00 -0.91598329337E+03  0.37223301062E+04  0.36078686264E+04 0.  0.
        3    1    3    3  502    0 -0.91482222163E+03  0.81972596687E+02 -0.20598463617E+04  0.22553461481E+04  0.10100000352E+00 0. -1.
       -3    1    3    3    0  502  0.91482222163E+03 -0.81972596687E+02  0.11438630684E+04  0.14669839580E+04  0.10100000352E+00 0.  1.
</event>
<event>
 5   0  0.7236375E-08  0.3598552E+04  0.7818609E-02  0.8090823E-01
        1   -1    0    0  501    0  0.00000000000E+00  0.00000000000E+00  0.17852632675E+04  0.17852632675E+04  0.50400001928E-02 0.  1.
       -1   -1    0    0    0  501  0.00000000000E+00  0.00000000000E+00 -0.18133986476E+04  0.18133986476E+04  0.50400001928E-02 0. -1.
    10030    2    1    2    0    0  0.00000000000E+00  0.00000000000E+00 -0.28135380068E+02  0.35986619152E+04  0.35985519282E+04 0.  0.
        5    1    3    3  502    0  0.82259770231E+03  0.57911079848E+03  0.14777337852E+04  0.17876676220E+04  0.46999998093E+01 0.  1.
       -5    1    3    3    0  502 -0.82259770231E+03 -0.57911079848E+03 -0.15058691653E+04  0.18109942931E+04  0.46999998093E+01 0. -1.
</event>
<event>
 5   0  0.7236375E-08  0.3598833E+04  0.7818609E-02  0.8090759E-01
        1   -1    0    0  501    0  0.00000000000E+00  0.00000000000E+00  0.15066466777E+04  0.15066466777E+04  0.50400001928E-02 0.  1.
       -1   -1    0    0    0  501  0.00000000000E+00  0.00000000000E+00 -0.21490772503E+04  0.21490772504E+04  0.50400001928E-02 0. -1.
    10030    2    1    2    0    0  0.00000000000E+00  0.00000000000E+00 -0.64243057262E+03  0.36557239281E+04  0.35988331995E+04 0.  0.
        5    1    3    3  502    0 -0.27480581690E+03  0.17401128618E+04  0.51140395164E+02  0.17624268605E+04  0.46999998093E+01 0. -1.
       -5    1    3    3    0  502  0.27480581690E+03 -0.17401128618E+04 -0.69357096778E+03  0.18932970676E+04  0.46999998093E+01 0.  1.
</event>
<event>
 5   0  0.2238968E-07  0.3585475E+04  0.7818609E-02  0.8093827E-01
        2   -1    0    0  501    0  0.00000000000E+00  0.00000000000E+00  0.14654659613E+04  0.14654659613E+04  0.25500000920E-02 0. -1.
       -2   -1    0    0    0  501  0.00000000000E+00  0.00000000000E+00 -0.21930964286E+04  0.21930964286E+04  0.25500000920E-02 0.  1.
    10030    2    1    2    0    0  0.00000000000E+00  0.00000000000E+00 -0.72763046729E+03  0.36585623899E+04  0.35854752354E+04 0.  0.
        3    1    3    3  502    0  0.19281463327E+03 -0.99359160073E+03 -0.18736758193E+04  0.21295686977E+04  0.10100000352E+00 0.  1.
       -3    1    3    3    0  502 -0.19281463327E+03  0.99359160073E+03  0.11460453520E+04  0.15289936923E+04  0.10100000352E+00 0. -1.
</event>
<event>
 5   0  0.2199902E-07  0.3599316E+04  0.7818609E-02  0.8090648E-01
       -2   -1    0    0    0  501  0.00000000000E+00  0.00000000000E+00  0.16652801330E+04  0.16652801330E+04  0.25500000920E-02 0.  1.
        2   -1    0    0  501    0  0.00000000000E+00  0.00000000000E+00 -0.19448793001E+04  0.19448793001E+04  0.25500000920E-02 0. -1.
    10030    2    1    2    0    0  0.00000000000E+00  0.00000000000E+00 -0.27959916714E+03  0.36101594331E+04  0.35993159681E+04 0.  0.
        1    1    3    3  502    0 -0.10553813123E+04  0.57530201142E+03  0.12036259620E+04  0.17010342663E+04  0.50400001928E-02 0.  1.
       -1    1    3    3    0  502  0.10553813123E+04 -0.57530201142E+03 -0.14832251292E+04  0.19091251668E+04  0.50400001928E-02 0. -1.
</event>
<event>
 5   0  0.2309391E-07  0.3571937E+04  0.7818609E-02  0.8096950E-01
        2   -1    0    0  501    0  0.00000000000E+00  0.00000000000E+00  0.23027184458E+04  0.23027184458E+04  0.25500000920E-02 0.  1.
       -2   -1    0    0    0  501  0.00000000000E+00  0.00000000000E+00 -0.13851815623E+04  0.13851815623E+04  0.25500000920E-02 0. -1.
    10030    2    1    2    0    0  0.00000000000E+00  0.00000000000E+00  0.91753688349E+03  0.36879000081E+04  0.35719368047E+04 0.  0.
        4    1    3    3  502    0 -0.92946578935E+03  0.15247644219E+04  0.48919246350E+03  0.18515193964E+04  0.12699999809E+01 0.  1.
       -4    1    3    3    0  502  0.92946578935E+03 -0.15247644219E+04  0.42834441999E+03  0.18363806117E+04  0.12699999809E+01 0. -1.
</event>
<event>
 5   0  0.7347303E-08  0.3606941E+04  0.7818609E-02  0.8088904E-01
       -1   -1    0    0    0  501  0.00000000000E+00  0.00000000000E+00  0.12779912413E+04  0.12779912413E+04  0.50400001928E-02 0. -1.
        1   -1    0    0  501    0  0.00000000000E+00  0.00000000000E+00 -0.25450136217E+04  0.25450136217E+04  0.50400001928E-02 0.  1.
    10030    2    1    2    0    0  0.00000000000E+00  0.00000000000E+00 -0.12670223804E+04  0.38230048630E+04  0.36069405969E+04 0.  0.
        2    1    3    3  502    0 -0.67342497703E+03 -0.72663694004E+03 -0.22307677610E+04  0.24408660852E+04  0.25500000920E-02 0.  1.
       -2    1    3    3    0  502  0.67342497703E+03  0.72663694004E+03  0.96374538062E+03  0.13821387778E+04  0.25500000920E-02 0. -1.
</event>
<event>
 5   0  0.2342606E-07  0.3601525E+04  0.7818609E-02  0.8090142E-01
        2   -1    0    0  501    0  0.00000000000E+00  0.00000000000E+00  0.17455896189E+04  0.17455896189E+04  0.25500000920E-02 0.  1.
       -2   -1    0    0    0  501  0.00000000000E+00  0.00000000000E+00 -0.18576792105E+04  0.18576792105E+04  0.25500000920E-02 0. -1.
    10030    2    1    2    0    0  0.00000000000E+00  0.00000000000E+00 -0.11208959164E+03  0.36032688294E+04  0.36015249798E+04 0.  0.
        5    1    3    3  502    0  0.53947940856E+03  0.17179438260E+04 -0.74880318298E+02  0.18022203454E+04  0.46999998093E+01 0. -1.
       -5    1    3    3    0  502 -0.53947940856E+03 -0.17179438260E+04 -0.37209273339E+02  0.18010484839E+04  0.46999998093E+01 0.  1.
</event>
<event>
 5   0  0.7514289E-08  0.3594843E+04  0.7818609E-02  0.8091674E-01
       -1   -1    0    0    0  501  0.00000000000E+00  0.00000000000E+00  0.17287401077E+04  0.17287401077E+04  0.50400001928E-02 0.  1.
        1   -1    0    0  501    0  0.00000000000E+00  0.00000000000E+00 -0.18688319256E+04  0.18688319256E+04  0.50400001928E-02 0. -1.
    10030    2    1    2    0    0  0.00000000000E+00  0.00000000000E+00 -0.14009181790E+03  0.35975720334E+04  0.35948433649E+04 0.  0.
        4    1    3    3  502    0 -0.10645332722E+04 -0.49001695105E+03  0.12938441695E+04  0.17456752412E+04  0.12699999809E+01 0.  1.
       -4    1    3    3    0  502  0.10645332722E+04  0.49001695105E+03 -0.14339359874E+04  0.18518967922E+04  0.12699999809E+01 0. -1.
</event>
<event>
 5   0  0.2199902E-07  0.3601000E+04  0.7818609E-02  0.8090263E-01
       -2   -1    0    0    0  501  0.00000000000E+00  0.00000000000E+00  0.16575257279E+04  0.16575257279E+04  0.25500000920E-02 0.  1.
        2   -1    0    0  501    0  0.00000000000E+00  0.00000000000E+00 -0.19558064308E+04  0.19558064308E+04  0.25500000920E-02 0. -1.
    10030    2    1    2    0    0  0.00000000000E+00  0.00000000000E+00 -0.29828070288E+03  0.36133321587E+04  0.36009995711E+04 0.  0.
        1    1    3    3  502    0  0.71137965253E+03 -0.54296708375E+03 -0.17168370848E+04  0.19360795025E+04  0.50400001928E-02 0. -1.
       -1    1    3    3    0  502 -0.71137965253E+03  0.54296708375E+03  0.14185563819E+04  0.16772526562E+04  0.50400001928E-02 0.  1.
</event>
<event>
 5   0  0.2342606E-07  0.3620974E+04  0.7818609E-02  0.8085704E-01
        2   -1    0    0  501    0  0.00000000000E+00  0.00000000000E+00  0.18561875830E+04  0.18561875830E+04  0.25500000920E-02 0.  1.
       -2   -1    0    0    0  501  0.00000000000E+00  0.00000000000E+00 -0.17659116208E+04  0.17659116208E+04  0.25500000920E-02 0. -1.
    10030    2    1    2    0    0  0.00000000000E+00  0.00000000000E+00  0.90275962265E+02  0.36220992038E+04  0.36209740254E+04 0.  0.
        5    1    3    3  502    0 -0.18448507432E+03  0.57200831897E+03 -0.16632020807E+04  0.17684715182E+04  0.46999998093E+01 0. -1.
       -5    1    3    3    0  502  0.18448507432E+03 -0.57200831897E+03  0.17534780429E+04  0.18536276856E+04  0.46999998093E+01 0.  1.
</event>
<event>
 5   0  0.2198900E-07  0.3549990E+04  0.7818609E-02  0.8102044E-01
       -2   -1    0    0    0  501  0.00000000000E+00  0.00000000000E+00  0.19200432676E+04  0.19200432676E+04  0.25500000920E-02 0. -1.
        2   -1    0    0  501    0  0.00000000000E+00  0.00000000000E+00 -0.16409043719E+04  0.16409043719E+04  0.25500000920E-02 0.  1.
    10030    2    1    2    0    0  0.00000000000E+00  0.00000000000E+00  0.27913889574E+03  0.35609476395E+04  0.35499900800E+04 0.  0.
        2    1    3    3  502    0 -0.91680275315E+03  0.22302777683E+03 -0.13685134333E+04  0.16622568077E+04  0.25500000920E-02 0.  1.
       -2    1    3    3    0  502  0.91680275315E+03 -0.22302777683E+03  0.16476523291E+04  0.18986908319E+04  0.25500000920E-02 0. -1.
</event>
<event>
 5   0  0.7236375E-08  0.3602657E+04  0.7818609E-02  0.8089883E-01
        1   -1    0    0  501    0  0.00000000000E+00  0.00000000000E+00  0.15066226332E+04  0.15066226332E+04  0.50400001928E-02 0. -1.
       -1   -1    0    0    0  501  0.00000000000E+00  0.00000000000E+00 -0.21536811062E+04  0.21536811062E+04  0.50400001928E-02 0.  1.
    10030    2    1    2    0    0  0.00000000000E+00  0.00000000000E+00 -0.64705847301E+03  0.36603037395E+04  0.36026571857E+04 0.  0.
        1    1    3    3  502    0 -0.71361559463E+02  0.78899307486E+03 -0.19671861181E+04  0.21207130329E+04  0.50400001928E-02 0.  1.
       -1    1    3    3    0  502  0.71361559463E+02 -0.78899307486E+03  0.13201276451E+04  0.15395907066E+04  0.50400001928E-02 0. -1.
</event>
<event>
 5   0  0.7514289E-08  0.3593477E+04  0.7818609E-02  0.8091988E-01
       -1   -1    0    0    0  501  0.00000000000E+00  0.00000000000E+00  0.17057739738E+04  0.17057739738E+04  0.50400001928E-02 0. -1.
        1   -1    0    0  501    0  0.00000000000E+00  0.00000000000E+00 -0.18925538145E+04  0.18925538145E+04  0.50400001928E-02 0.  1.
    10030    2    1    2    0    0  0.00000000000E+00  0.00000000000E+00 -0.18677984070E+03  0.35983277883E+04  0.35934768906E+04 0.  0.
        4    1    3    3  502    0  0.16317677375E+04  0.60903415195E+03  0.34842999329E+03  0.17762301711E+04  0.12699999809E+01 0. -1.
       -4    1    3    3    0  502 -0.16317677375E+04 -0.60903415195E+03 -0.53520983398E+03  0.18220976173E+04  0.12699999809E+01 0.  1.
</event>
<event>
 5   0  0.2198900E-07  0.3598510E+04  0.7818609E-02  0.8090833E-01
       -2   -1    0    0    0  501  0.00000000000E+00  0.00000000000E+00  0.29422335730E+04  0.29422335730E+04  0.25500000920E-02 0. -1.
        2   -1    0    0  501    0  0.00000000000E+00  0.00000000000E+00 -0.11002927892E+04  0.11002927892E+04  0.25500000920E-02 0.  1.
    10030    2    1    2    0    0  0.00000000000E+00  0.00000000000E+00  0.18419407838E+04  0.40425263622E+04  0.35985099053E+04 0.  0.
        2    1    3    3  502    0  0.15235762584E+04  0.62855817942E+03  0.17317960926E+04  0.23907086201E+04  0.25500000920E-02 0. -1.
       -2    1    3    3    0  502 -0.15235762584E+04 -0.62855817942E+03  0.11014469118E+03  0.16518177421E+04  0.25500000920E-02 0.  1.
</event>
<event>
 5   0  0.2342606E-07  0.3589525E+04  0.7818609E-02  0.8092895E-01
        2   -1    0    0  501    0  0.00000000000E+00  0.00000000000E+00  0.22979214692E+04  0.22979214692E+04  0.25500000920E-02 0. -1.
       -2   -1    0    0    0  501  0.00000000000E+00  0.00000000000E+00 -0.14017762637E+04  0.14017762637E+04  0.25500000920E-02 0.  1.
    10030    2    1    2    0    0  0.00000000000E+00  0.00000000000E+00  0.89614520548E+03  0.36996977328E+04  0.35895246322E+04 0.  0.
        5    1    3    3  502    0 -0.50121708305E+03  0.17231613510E+04  0.42187444007E+03  0.18435031161E+04  0.46999998093E+01 0.  1.
       -5    1    3    3    0  502  0.50121708305E+03 -0.17231613510E+04  0.47427076540E+03  0.18561946167E+04  0.46999998093E+01 0. -1.
</event>
<event>
 5   0  0.7236375E-08  0.3441771E+04  0.7818609E-02  0.8127730E-01
        1   -1    0    0  501    0  0.00000000000E+00  0.00000000000E+00  0.20517325640E+04  0.20517325640E+04  0.50400001928E-02 0.  1.
       -1   -1    0    0    0  501  0.00000000000E+00  0.00000000000E+00 -0.14433886488E+04  0.14433886488E+04  0.50400001928E-02 0. -1.
    10030    2    1    2    0    0  0.00000000000E+00  0.00000000000E+00  0.60834391520E+03  0.34951212129E+04  0.34417713424E+04 0.  0.
        1    1    3    3  502    0  0.61245654007E+03  0.69712853516E+03 -0.11675531980E+04  0.14913992350E+04  0.50400001928E-02 0. -1.
       -1    1    3    3    0  502 -0.61245654007E+03 -0.69712853516E+03  0.17758971132E+04  0.20037219779E+04  0.50400001928E-02 0.  1.
</event>
<event>
 5   0  0.7347303E-08  0.3598982E+04  0.7818609E-02  0.8090725E-01
        1   -1    0    0  501    0  0.00000000000E+00  0.00000000000E+00  0.21088779706E+04  0.21088779706E+04  0.50400001928E-02 0.  1.
       -1   -1    0    0    0  501  0.00000000000E+00  0.00000000000E+00 -0.15354931157E+04  0.15354931157E+04  0.50400001928E-02 0. -1.
    10030    2    1    2    0    0  0.00000000000E+00  0.00000000000E+00  0.57338485484E+03  0.36443710863E+04  0.35989818592E+04 0.  0.
        2    1    3    3  502    0 -0.40298954413E+03  0.44186736462E+03 -0.14319217981E+04  0.15517884445E+04  0.25500000920E-02 0. -1.
       -2    1    3    3    0  502  0.40298954413E+03 -0.44186736462E+03  0.20053066529E+04  0.20925826418E+04  0.25500000920E-02 0.  1.
</event>
<event>
 5   0  0.2309391E-07  0.3613738E+04  0.7818609E-02  0.8087352E-01
        2   -1    0    0  501    0  0.00000000000E+00  0.00000000000E+00  0.14290124741E+04  0.14290124741E+04  0.25500000920E-02 0.  1.
       -2   -1    0    0    0  501  0.00000000000E+00  0.00000000000E+00 -0.22846379711E+04  0.22846379711E+04  0.25500000920E-02 0. -1.
    10030    2    1    2    0    0  0.00000000000E+00  0.00000000000E+00 -0.85562549693E+03  0.37136504452E+04  0.36137383190E+04 0.  0.
        4    1    3    3  502    0 -0.40227100101E+03  0.10764596458E+04  0.10050789400E+04  0.15266868100E+04  0.12699999809E+01 0.  1.
       -4    1    3    3    0  502  0.40227100101E+03 -0.10764596458E+04 -0.18607044369E+04  0.21869636352E+04  0.12699999809E+01 0. -1.
</event>
<event>
 5   0  0.7236375E-08  0.3603113E+04  0.7818609E-02  0.8089779E-01
        3   -1    0    0  501    0  0.00000000000E+00  0.00000000000E+00  0.30522266782E+04  0.30522266798E+04  0.10100000352E+00 0. -1.
       -3   -1    0    0    0  501  0.00000000000E+00  0.00000000000E+00 -0.10633568779E+04  0.10633568827E+04  0.10100000352E+00 0.  1.
    10030    2    1    2    0    0  0.00000000000E+00  0.00000000000E+00  0.19888698003E+04  0.41155835625E+04  0.36031132341E+04 0.  0.
        4    1    3    3  502    0  0.39159589296E+02 -0.14132646365E+04  0.22698276316E+04  0.26741296708E+04  0.12699999809E+01 0. -1.
       -4    1    3    3    0  502 -0.39159589296E+02  0.14132646365E+04 -0.28095783132E+03  0.14414538917E+04  0.12699999809E+01 0.  1.
</event>
<event>
 5   0  0.2309391E-07  0.3603481E+04  0.7818609E-02  0.8089695E-01
        2   -1    0    0  501    0  0.00000000000E+00  0.00000000000E+00  0.18793899215E+04  0.18793899215E+04  0.25500000920E-02 0. -1.
       -2   -1    0    0    0  501  0.00000000000E+00  0.00000000000E+00 -0.17272990417E+04  0.17272990417E+04  0.25500000920E-02 0.  1.
    10030    2    1    2    0    0  0.00000000000E+00  0.00000000000E+00  0.15209087979E+03  0.36066889632E+04  0.36034807674E+04 0.  0.
        4    1    3    3  502    0  0.11333575170E+04 -0.14005853802E+04  0.87374921527E+02  0.18038222358E+04  0.12699999809E+01 0.  1.
       -4    1    3    3    0  502 -0.11333575170E+04  0.14005853802E+04  0.64715958267E+02  0.18028667274E+04  0.12699999809E+01 0. -1.
</event>
<event>
 5   0  0.2309391E-07  0.3589260E+04  0.7818609E-02  0.8092956E-01
        2   -1    0    0  501    0  0.00000000000E+00  0.00000000000E+00  0.20203543771E+04  0.20203543771E+04  0.25500000920E-02 0. -1.
       -2   -1    0    0    0  501  0.00000000000E+00  0.00000000000E+00 -0.15941246636E+04  0.15941246636E+04  0.25500000920E-02 0.  1.
    10030    2    1    2    0    0  0.00000000000E+00  0.00000000000E+00  0.42622971354E+03  0.36144790407E+04  0.35892599470E+04 0.  0.
        4    1    3    3  502    0  0.14050123017E+04 -0.27748993330E+03 -0.87598062657E+03  0.16788102638E+04  0.12699999809E+01 0.  1.
       -4    1    3    3    0  502 -0.14050123017E+04  0.27748993330E+03  0.13022103401E+04  0.19356687769E+04  0.12699999809E+01 0. -1.
</event>
<event>
 5   0  0.2238968E-07  0.3598931E+04  0.7818609E-02  0.8090737E-01
        2   -1    0    0  501    0  0.00000000000E+00  0.00000000000E+00  0.19776676103E+04  0.19776676103E+04  0.25500000920E-02 0.  1.
       -2   -1    0    0    0  501  0.00000000000E+00  0.00000000000E+00 -0.16373207553E+04  0.16373207553E+04  0.25500000920E-02 0. -1.
    10030    2    1    2    0    0  0.00000000000E+00  0.00000000000E+00  0.34034685498E+03  0.36149883657E+04  0.35989310777E+04 0.  0.
        3    1    3    3  502    0  0.50830731221E+02 -0.43200706379E+03 -0.15837162935E+04  0.16423675517E+04  0.10100000352E+00 0. -1.
       -3    1    3    3    0  502 -0.50830731221E+02  0.43200706379E+03  0.19240631484E+04  0.19726208140E+04  0.10100000352E+00 0.  1.
</event>
<event>
 5   0  0.7347303E-08  0.3601195E+04  0.7818609E-02  0.8090218E-01
       -1   -1    0    0    0  501  0.00000000000E+00  0.00000000000E+00  0.13655383259E+04  0.13655383259E+04  0.50400001928E-02 0. -1.
        1   -1    0    0  501    0  0.00000000000E+00  0.00000000000E+00 -0.23742655249E+04  0.23742655250E+04  0.50400001928E-02 0.  1.
    10030    2    1    2    0    0  0.00000000000E+00  0.00000000000E+00 -0.10087271991E+04  0.37398038508E+04  0.36011945630E+04 0.  0.
        2    1    3    3  502    0 -0.36006414189E+03 -0.59544265302E+03  0.12202651610E+04  0.14047224645E+04  0.25500000920E-02 0. -1.
       -2    1    3    3    0  502  0.36006414189E+03  0.59544265302E+03 -0.22289923601E+04  0.23350813863E+04  0.25500000920E-02 0.  1.
</event>
<event>
 5   0  0.7236375E-08  0.3603947E+04  0.7818609E-02  0.8089588E-01
        1   -1    0    0  501    0  0.00000000000E+00  0.00000000000E+00  0.17180550832E+04  0.17180550833E+04  0.50400001928E-02 0. -1.
       -1   -1    0    0    0  501  0.00000000000E+00  0.00000000000E+00 -0.18899912772E+04  0.18899912772E+04  0.50400001928E-02 0.  1.
    10030    2    1    2    0    0  0.00000000000E+00  0.00000000000E+00 -0.17193619397E+03  0.36080463605E+04  0.36039473476E+04 0.  0.
        1    1    3    3  502    0  0.16969942686E+02 -0.10100845209E+04 -0.15798282295E+04  0.18752109090E+04  0.50400001928E-02 0.  1.
       -1    1    3    3    0  502 -0.16969942686E+02  0.10100845209E+04  0.14078920355E+04  0.17328354515E+04  0.50400001928E-02 0. -1.
</event>
<event>
 5   0  0.7236375E-08  0.3589980E+04  0.7818609E-02  0.8092791E-01
       -1   -1    0    0    0  501  0.00000000000E+00  0.00000000000E+00  0.19923583228E+04  0.19923583228E+04  0.50400001928E-02 0.  1.
        1   -1    0    0  501    0  0.00000000000E+00  0.00000000000E+00 -0.16171736587E+04  0.16171736587E+04  0.50400001928E-02 0. -1.
    10030    2    1    2    0    0  0.00000000000E+00  0.00000000000E+00  0.37518466411E+03  0.36095319815E+04  0.35899801662E+04 0.  0.
        5    1    3    3  502    0 -0.16635909751E+03  0.16787292493E+04  0.80425149526E+03  0.18688632372E+04  0.46999998093E+01 0.  1.
       -5    1    3    3    0  502  0.16635909751E+03 -0.16787292493E+04 -0.42906683115E+03  0.17406687443E+04  0.46999998093E+01 0. -1.
</event>
<event>
 5   0  0.2199902E-07  0.3598948E+04  0.7818609E-02  0.8090733E-01
        2   -1    0    0  501    0  0.00000000000E+00  0.00000000000E+00  0.19826643766E+04  0.19826643766E+04  0.25500000920E-02 0.  1.
       -2   -1    0    0    0  501  0.00000000000E+00  0.00000000000E+00 -0.16332101018E+04  0.16332101018E+04  0.25500000920E-02 0. -1.
    10030    2    1    2    0    0  0.00000000000E+00  0.00000000000E+00  0.34945427478E+03  0.36158744784E+04  0.35989484511E+04 0.  0.
        1    1    3    3  502    0  0.27631100983E+03 -0.16391897680E+04  0.86703724986E+03  0.18748451835E+04  0.50400001928E-02 0.  1.
       -1    1    3    3    0  502 -0.27631100983E+03  0.16391897680E+04 -0.51758297509E+03  0.17410292949E+04  0.50400001928E-02 0. -1.
</event>
<event>
 5   0  0.2342606E-07  0.3624267E+04  0.7818609E-02  0.8084955E-01
       -2   -1    0    0    0  501  0.00000000000E+00  0.00000000000E+00  0.14554360881E+04  0.14554360881E+04  0.25500000920E-02 0. -1.
        2   -1    0    0  501    0  0.00000000000E+00  0.00000000000E+00 -0.22562506129E+04  0.22562506129E+04  0.25500000920E-02 0.  1.
    10030    2    1    2    0    0  0.00000000000E+00  0.00000000000E+00 -0.80081452483E+03  0.37116867010E+04  0.36242674106E+04 0.  0.
        5    1    3    3  502    0 -0.70668969976E+03 -0.15865112630E+04  0.12915135444E+03  0.17415884938E+04  0.46999998093E+01 0.  1.
       -5    1    3    3    0  502  0.70668969976E+03  0.15865112630E+04 -0.92996587927E+03  0.19700982072E+04  0.46999998093E+01 0. -1.
</event>
<event>
 5   0  0.2309391E-07  0.3543943E+04  0.7818609E-02  0.8103454E-01
       -2   -1    0    0    0  501  0.00000000000E+00  0.00000000000E+00  0.22086374635E+04  0.22086374635E+04  0.25500000920E-02 0. -1.
        2   -1    0    0  501    0  0.00000000000E+00  0.00000000000E+00 -0.14216383805E+04  0.14216383805E+04  0.25500000920E-02 0.  1.
    10030    2    1    2    0    0  0.00000000000E+00  0.00000000000E+00  0.78699908304E+03  0.36302758440E+04  0.35439434457E+04 0.  0.
        4    1    3    3  502    0 -0.58003133726E+02  0.16834881793E+04  0.95679107512E+03  0.19372525875E+04  0.12699999809E+01 0.  1.
       -4    1    3    3    0  502  0.58003133726E+02 -0.16834881793E+04 -0.16979199208E+03  0.16930232565E+04  0.12699999809E+01 0. -1.
</event>
<event>
 5   0  0.7236375E-08  0.3610947E+04  0.7818609E-02  0.8087989E-01
       -1   -1    0    0    0  501  0.00000000000E+00  0.00000000000E+00  0.14333977305E+04  0.14333977305E+04  0.50400001928E-02 0. -1.
        1   -1    0    0  501    0  0.00000000000E+00  0.00000000000E+00 -0.22741308772E+04  0.22741308773E+04  0.50400001928E-02 0.  1.
    10030    2    1    2    0    0  0.00000000000E+00  0.00000000000E+00 -0.84073314675E+03  0.37075286078E+04  0.36109467115E+04 0.  0.
        5    1    3    3  502    0 -0.65810369910E+02  0.10616282811E+04  0.10775324616E+04  0.15140950788E+04  0.46999998093E+01 0. -1.
       -5    1    3    3    0  502  0.65810369910E+02 -0.10616282811E+04 -0.19182656083E+04  0.21934335290E+04  0.46999998093E+01 0.  1.
</event>
<event>
 5   0  0.7261233E-08  0.3599985E+04  0.7818609E-02  0.8090495E-01
        1   -1    0    0  501    0  0.00000000000E+00  0.00000000000E+00  0.18873846258E+04  0.18873846258E+04  0.50400001928E-02 0.  1.
       -1   -1    0    0    0  501  0.00000000000E+00  0.00000000000E+00 -0.17166465717E+04  0.17166465717E+04  0.50400001928E-02 0. -1.
    10030    2    1    2    0    0  0.00000000000E+00  0.00000000000E+00  0.17073805413E+03  0.36040311975E+04  0.35999846374E+04 0.  0.
        3    1    3    3  502    0 -0.61638355602E+03  0.14161727759E+04  0.10107988698E+04  0.18458570868E+04  0.10100000352E+00 0.  1.
       -3    1    3    3    0  502  0.61638355602E+03 -0.14161727759E+04 -0.84006081569E+03  0.17581741107E+04  0.10100000352E+00 0. -1.
</event>
<event>
 5   0  0.7347303E-08  0.3463369E+04  0.7818609E-02  0.8122526E-01
       -1   -1    0    0    0  501  0.00000000000E+00  0.00000000000E+00  0.16119880039E+04  0.16119880039E+04  0.50400001928E-02 0. -1.
        1   -1    0    0  501    0  0.00000000000E+00  0.00000000000E+00 -0.18602694483E+04  0.18602694483E+04  0.50400001928E-02 0.  1.
    10030    2    1    2    0    0  0.00000000000E+00  0.00000000000E+00 -0.24828144438E+03  0.34722574523E+04  0.34633694777E+04 0.  0.
        2    1    3    3  502    0 -0.16391339182E+03 -0.89438191649E+03  0.13533934956E+04  0.16304786311E+04  0.25500000920E-02 0. -1.
       -2    1    3    3    0  502  0.16391339182E+03  0.89438191649E+03 -0.16016749400E+04  0.18417788211E+04  0.25500000920E-02 0.  1.
</event>
<event>
 5   0  0.7347303E-08  0.3615785E+04  0.7818609E-02  0.8086885E-01
        1   -1    0    0  501    0  0.00000000000E+00  0.00000000000E+00  0.16187373930E+04  0.16187373930E+04  0.50400001928E-02 0. -1.
       -1   -1    0    0    0  501  0.00000000000E+00  0.00000000000E+00 -0.20191513235E+04  0.20191513236E+04  0.50400001928E-02 0.  1.
    10030    2    1    2    0    0  0.00000000000E+00  0.00000000000E+00 -0.40041393053E+03  0.36378887166E+04  0.36157852534E+04 0.  0.
        2    1    3    3  502    0  0.46087612121E+03 -0.15283534602E+04 -0.10540435151E+04  0.19129241569E+04  0.25500000920E-02 0.  1.
       -2    1    3    3    0  502 -0.46087612121E+03  0.15283534602E+04  0.65362958460E+03  0.17249645597E+04  0.25500000920E-02 0. -1.
</event>
<event>
 5   0  0.7236375E-08  0.3596759E+04  0.7818609E-02  0.8091234E-01
       -1   -1    0    0    0  501  0.00000000000E+00  0.00000000000E+00  0.11356587475E+04  0.11356587475E+04  0.50400001928E-02 0.  1.
        1   -1    0    0  501    0  0.00000000000E+00  0.00000000000E+00 -0.28478353273E+04  0.28478353273E+04  0.50400001928E-02 0. -1.
    10030    2    1    2    0    0  0.00000000000E+00  0.00000000000E+00 -0.17121765798E+04  0.39834940748E+04  0.35967591528E+04 0.  0.
        5    1    3    3  502    0  0.11883966544E+04 -0.27135901103E+03 -0.23204603794E+04  0.26211601980E+04  0.46999998093E+01 0. -1.
       -5    1    3    3    0  502 -0.11883966544E+04  0.27135901103E+03  0.60828379959E+03  0.13623338768E+04  0.46999998093E+01 0.  1.
</event>
<event>
 5   0  0.2199902E-07  0.3599999E+04  0.7818609E-02  0.8090492E-01
       -2   -1    0    0    0  501  0.00000000000E+00  0.00000000000E+00  0.12892266084E+04  0.12892266084E+04  0.25500000920E-02 0. -1.
        2   -1    0    0  501    0  0.00000000000E+00  0.00000000000E+00 -0.25131338258E+04  0.25131338258E+04  0.25500000920E-02 0.  1.
    10030    2    1    2    0    0  0.00000000000E+00  0.00000000000E+00 -0.12239072175E+04  0.38023604342E+04  0.35999994437E+04 0.  0.
        1    1    3    3  502    0 -0.10268519711E+04  0.73687629716E+03 -0.19656307198E+04  0.23369030306E+04  0.50400001928E-02 0.  1.
       -1    1    3    3    0  502  0.10268519711E+04 -0.73687629716E+03  0.74172350233E+03  0.14654574036E+04  0.50400001928E-02 0. -1.
</event>
<event>
 5   0  0.7514289E-08  0.3602674E+04  0.7818609E-02  0.8089880E-01
        1   -1    0    0  501    0  0.00000000000E+00  0.00000000000E+00  0.27756006134E+04  0.27756006134E+04  0.50400001928E-02 0. -1.
       -1   -1    0    0    0  501  0.00000000000E+00  0.00000000000E+00 -0.11690494562E+04  0.11690494562E+04  0.50400001928E-02 0.  1.
    10030    2    1    2    0    0  0.00000000000E+00  0.00000000000E+00  0.16065511571E+04  0.39446500696E+04  0.36026736670E+04 0.  0.
        4    1    3    3  502    0  0.49796568646E+03  0.17150658294E+04  0.10609715756E+04  0.20772777670E+04  0.12699999809E+01 0. -1.
       -4    1    3    3    0  502 -0.49796568646E+03 -0.17150658294E+04  0.54557958152E+03  0.18673723026E+04  0.12699999809E+01 0.  1.
</event>
<event>
 5   0  0.7236375E-08  0.3604737E+04  0.7818609E-02  0.8089408E-01
       -1   -1    0    0    0  501  0.00000000000E+00  0.00000000000E+00  0.17920336762E+04  0.17920336762E+04  0.50400001928E-02 0. -1.
        1   -1    0    0  501    0  0.00000000000E+00  0.00000000000E+00 -0.18127626279E+04  0.18127626279E+04  0.50400001928E-02 0.  1.
    10030    2    1    2    0    0  0.00000000000E+00  0.00000000000E+00 -0.20728951642E+02  0.36047963041E+04  0.36047367039E+04 0.  0.
        1    1    3    3  502    0 -0.25345637880E+03  0.13956948135E+04  0.11015565693E+04  0.17960041826E+04  0.50400001928E-02 0. -1.
       -1    1    3    3    0  502  0.25345637880E+03 -0.13956948135E+04 -0.11222855209E+04  0.18087921215E+04  0.50400001928E-02 0.  1.
</event>
<event>
 5   0  0.2309391E-07  0.3600095E+04  0.7818609E-02  0.8090470E-01
        2   -1    0    0  501    0  0.00000000000E+00  0.00000000000E+00  0.25946201365E+04  0.25946201365E+04  0.25500000920E-02 0. -1.
       -2   -1    0    0    0  501  0.00000000000E+00  0.00000000000E+00 -0.12488035176E+04  0.12488035176E+04  0.25500000920E-02 0.  1.
    10030    2    1    2    0    0  0.00000000000E+00  0.00000000000E+00  0.13458166188E+04  0.38434236541E+04  0.36000948617E+04 0.  0.
        4    1    3    3  502    0  0.33502544290E+02  0.22233949730E+03  0.25795682124E+04  0.25893495415E+04  0.12699999809E+01 0. -1.
       -4    1    3    3    0  502 -0.33502544290E+02 -0.22233949730E+03 -0.12337515936E+04  0.12540741127E+04  0.12699999809E+01 0.  1.
</event>
<event>
 5   0  0.7236375E-08  0.3600258E+04  0.7818609E-02  0.8090433E-01
       -1   -1    0    0    0  501  0.00000000000E+00  0.00000000000E+00  0.14739368604E+04  0.14739368604E+04  0.50400001928E-02 0. -1.
        1   -1    0    0  501    0  0.00000000000E+00  0.00000000000E+00 -0.21985091166E+04  0.21985091166E+04  0.50400001928E-02 0.  1.
    10030    2    1    2    0    0  0.00000000000E+00  0.00000000000E+00 -0.72457225626E+03  0.36724459770E+04  0.36002575602E+04 0.  0.
        5    1    3    3  502    0 -0.13719980237E+04  0.11610843230E+04 -0.46401621254E+03  0.18562942972E+04  0.46999998093E+01 0.  1.
       -5    1    3    3    0  502  0.13719980237E+04 -0.11610843230E+04 -0.26055604372E+03  0.18161516798E+04  0.46999998093E+01 0. -1.
</event>
<event>
 5   0  0.7236375E-08  0.3614928E+04  0.7818609E-02  0.8087081E-01
       -1   -1    0    0    0  501  0.00000000000E+00  0.00000000000E+00  0.13220498499E+04  0.13220498499E+04  0.50400001928E-02 0. -1.
        1   -1    0    0  501    0  0.00000000000E+00  0.00000000000E+00 -0.24711063735E+04  0.24711063735E+04  0.50400001928E-02 0.  1.
    10030    2    1    2    0    0  0.00000000000E+00  0.00000000000E+00 -0.11490565236E+04  0.37931562234E+04  0.36149278334E+04 0.  0.
        5    1    3    3  502    0 -0.13291638621E+04 -0.11064061560E+02  0.71064561406E+03  0.15072618434E+04  0.46999998093E+01 0. -1.
       -5    1    3    3    0  502  0.13291638621E+04  0.11064061560E+02 -0.18597021377E+04  0.22858943800E+04  0.46999998093E+01 0.  1.
</event>
<event>
 5   0  0.7347303E-08  0.3516551E+04  0.7818609E-02  0.8109879E-01
        1   -1    0    0  501    0  0.00000000000E+00  0.00000000000E+00  0.19324018530E+04  0.19324018530E+04  0.50400001928E-02 0.  1.
       -1   -1    0    0    0  501  0.00000000000E+00  0.00000000000E+00 -0.15998392080E+04  0.15998392080E+04  0.50400001928E-02 0. -1.
    10030    2    1    2    0    0  0.00000000000E+00  0.00000000000E+00  0.33256264508E+03  0.35322410610E+04  0.35165507248E+04 0.  0.
        2    1    3    3  502    0 -0.16434142099E+04  0.57509953178E+03 -0.79724721934E+02  0.17429589117E+04  0.25500000920E-02 0.  1.
       -2    1    3    3    0  502  0.16434142099E+04 -0.57509953178E+03  0.41228736701E+03  0.17892821493E+04  0.25500000920E-02 0. -1.
</event>
<event>
 5   0  0.2199902E-07  0.3689340E+04  0.7818609E-02  0.8070328E-01
        2   -1    0    0  501    0  0.00000000000E+00  0.00000000000E+00  0.12082038252E+04  0.12082038252E+04  0.25500000920E-02 0. -1.
       -2   -1    0    0    0  501  0.00000000000E+00  0.00000000000E+00 -0.28164187311E+04  0.28164187311E+04  0.25500000920E-02 0.  1.
    10030    2    1    2    0    0  0.00000000000E+00  0.00000000000E+00 -0.16082149059E+04  0.40246225563E+04  0.36893402577E+04 0.  0.
        1    1    3    3  502    0  0.16421870900E+04 -0.70589586214E+03 -0.30690071131E+03  0.18136304622E+04  0.50400001928E-02 0. -1.
       -1    1    3    3    0  502 -0.16421870900E+04  0.70589586214E+03 -0.13013141946E+04  0.22109920941E+04  0.50400001928E-02 0.  1.
</event>
<event>
 5   0  0.7514289E-08  0.3573201E+04  0.7818609E-02  0.8096658E-01
        1   -1    0    0  501    0  0.00000000000E+00  0.00000000000E+00  0.24318675251E+04  0.24318675252E+04  0.50400001928E-02 0.  1.
       -1   -1    0    0    0  501  0.00000000000E+00  0.00000000000E+00 -0.13125476954E+04  0.13125476954E+04  0.50400001928E-02 0. -1.
    10030    2    1    2    0    0  0.00000000000E+00  0.00000000000E+00  0.11193198297E+04  0.37444152206E+04  0.35732014305E+04 0.  0.
        4    1    3    3  502    0  0.16691808439E+04  0.35737848870E+03  0.11122371300E+04  0.20373897811E+04  0.12699999809E+01 0.  1.
       -4    1    3    3    0  502 -0.16691808439E+04 -0.35737848870E+03  0.70826996979E+01  0.17070254395E+04  0.12699999809E+01 0. -1.
</event>
<event>
 5   0  0.2199902E-07  0.3588107E+04  0.7818609E-02  0.8093221E-01
       -2   -1    0    0    0  501  0.00000000000E+00  0.00000000000E+00  0.27282881660E+04  0.27282881660E+04  0.25500000920E-02 0.  1.
        2   -1    0    0  501    0  0.00000000000E+00  0.00000000000E+00 -0.11797242762E+04  0.11797242762E+04  0.25500000920E-02 0. -1.
    10030    2    1    2    0    0  0.00000000000E+00  0.00000000000E+00  0.15485638898E+04  0.39080124422E+04  0.35881069002E+04 0.  0.
        1    1    3    3  502    0  0.13602422760E+04  0.80987497607E+03  0.16936178839E+04  0.23182963708E+04  0.50400001928E-02 0.  1.
       -1    1    3    3    0  502 -0.13602422760E+04 -0.80987497607E+03 -0.14505399402E+03  0.15897160714E+04  0.50400001928E-02 0. -1.
</event>
<event>
 5   0  0.2238968E-07  0.3609470E+04  0.7818609E-02  0.8088326E-01
       -2   -1    0    0    0  501  0.00000000000E+00  0.00000000000E+00  0.15123277533E+04  0.15123277533E+04  0.25500000920E-02 0. -1.
        2   -1    0    0  501    0  0.00000000000E+00  0.00000000000E+00 -0.21536787517E+04  0.21536787517E+04  0.25500000920E-02 0.  1.
    10030    2    1    2    0    0  0.00000000000E+00  0.00000000000E+00 -0.64135099838E+03  0.36660065049E+04  0.36094698490E+04 0.  0.
        3    1    3    3  502    0  0.15482677836E+04 -0.92716747688E+03 -0.30321678502E+03  0.18299489306E+04  0.10100000352E+00 0.  1.
       -3    1    3    3    0  502 -0.15482677836E+04  0.92716747688E+03 -0.33813421336E+03  0.18360575743E+04  0.10100000352E+00 0. -1.
</event>
<event>
 5   0  0.2238968E-07  0.3611392E+04  0.7818609E-02  0.8087887E-01
        2   -1    0    0  501    0  0.00000000000E+00  0.00000000000E+00  0.24247550596E+04  0.24247550596E+04  0.25500000920E-02 0.  1.
       -2   -1    0    0    0  501  0.00000000000E+00  0.00000000000E+00 -0.13446878702E+04  0.13446878702E+04  0.25500000920E-02 0. -1.
    10030    2    1    2    0    0  0.00000000000E+00  0.00000000000E+00  0.10800671894E+04  0.37694429299E+04  0.36113923725E+04 0.  0.
        3    1    3    3  502    0 -0.52315072498E+02  0.97475254394E+03 -0.10455470762E+04  0.14304013729E+04  0.10100000352E+00 0. -1.
       -3    1    3    3    0  502  0.52315072498E+02 -0.97475254394E+03  0.21256142657E+04  0.23390415570E+04  0.10100000352E+00 0.  1.
</event>
<event>
 5   0  0.7236375E-08  0.3576521E+04  0.7818609E-02  0.8095891E-01
       -1   -1    0    0    0  501  0.00000000000E+00  0.00000000000E+00  0.15550530256E+04  0.15550530256E+04  0.50400001928E-02 0. -1.
        1   -1    0    0  501    0  0.00000000000E+00  0.00000000000E+00 -0.20564413588E+04  0.20564413588E+04  0.50400001928E-02 0.  1.
    10030    2    1    2    0    0  0.00000000000E+00  0.00000000000E+00 -0.50138833323E+03  0.36114943844E+04  0.35765208552E+04 0.  0.
        1    1    3    3  502    0  0.32423167315E+03  0.17201286028E+04 -0.62020523116E+03  0.18570468806E+04  0.50400001928E-02 0.  1.
       -1    1    3    3    0  502 -0.32423167315E+03 -0.17201286028E+04  0.11881689793E+03  0.17544475037E+04  0.50400001928E-02 0. -1.
</event>
<event>
 5   0  0.7236375E-08  0.3607916E+04  0.7818609E-02  0.8088681E-01
        1   -1    0    0  501    0  0.00000000000E+00  0.00000000000E+00  0.22661459041E+04  0.22661459041E+04  0.50400001928E-02 0. -1.
       -1   -1    0    0    0  501  0.00000000000E+00  0.00000000000E+00 -0.14360347774E+04  0.14360347774E+04  0.50400001928E-02 0.  1.
    10030    2    1    2    0    0  0.00000000000E+00  0.00000000000E+00  0.83011112667E+03  0.37021806816E+04  0.36079159242E+04 0.  0.
        5    1    3    3  502    0 -0.70737942460E+03  0.10373379480E+04  0.17441919841E+04  0.21491122437E+04  0.46999998093E+01 0. -1.
       -5    1    3    3    0  502  0.70737942460E+03 -0.10373379480E+04 -0.91408085745E+03  0.15530684378E+04  0.46999998093E+01 0.  1.
</event>
<event>
 5   0  0.2238968E-07  0.3602825E+04  0.7818609E-02  0.8089845E-01
        2   -1    0    0  501    0  0.00000000000E+00  0.00000000000E+00  0.26823131972E+04  0.26823131972E+04  0.25500000920E-02 0.  1.
       -2   -1    0    0    0  501  0.00000000000E+00  0.00000000000E+00 -0.12098091639E+04  0.12098091639E+04  0.25500000920E-02 0. -1.
    10030    2    1    2    0    0  0.00000000000E+00  0.00000000000E+00  0.14725040333E+04  0.38921223611E+04  0.36028250506E+04 0.  0.
        3    1    3    3  502    0  0.16766758317E+04  0.42425525509E+03  0.12805468522E+04  0.21519838793E+04  0.10100000352E+00 0.  1.
       -3    1    3    3    0  502 -0.16766758317E+04 -0.42425525509E+03  0.19195718108E+03  0.17401384817E+04  0.10100000352E+00 0. -1.
</event>
<event>
 5   0  0.7236375E-08  0.3592670E+04  0.7818609E-02  0.8092173E-01
        1   -1    0    0  501    0  0.00000000000E+00  0.00000000000E+00  0.14368834101E+04  0.14368834101E+04  0.50400001928E-02 0. -1.
       -1   -1    0    0    0  501  0.00000000000E+00  0.00000000000E+00 -0.22457071821E+04  0.22457071821E+04  0.50400001928E-02 0.  1.
    10030    2    1    2    0    0  0.00000000000E+00  0.00000000000E+00 -0.80882377208E+03  0.36825905922E+04  0.35926699786E+04 0.  0.
        5    1    3    3  502    0 -0.70765223518E+03 -0.87757651514E+01 -0.20967804360E+04  0.22129977376E+04  0.46999998093E+01 0.  1.
       -5    1    3    3    0  502  0.70765223518E+03  0.87757651514E+01  0.12879566639E+04  0.14695928546E+04  0.46999998093E+01 0. -1.
</event>
<event>
 5   0  0.2198900E-07  0.3620689E+04  0.7818609E-02  0.8085769E-01
        2   -1    0    0  501    0  0.00000000000E+00  0.00000000000E+00  0.21890320519E+04  0.21890320519E+04  0.25500000920E-02 0.  1.
       -2   -1    0    0    0  501  0.00000000000E+00  0.00000000000E+00 -0.14971673849E+04  0.14971673849E+04  0.25500000920E-02 0. -1.
    10030    2    1    2    0    0  0.00000000000E+00  0.00000000000E+00  0.69186466701E+03  0.36861994367E+04  0.36206891015E+04 0.  0.
        2    1    3    3  502    0  0.17871046510E+04 -0.27994686801E+03  0.27227618311E+03  0.18292751576E+04  0.25500000920E-02 0. -1.
       -2    1    3    3    0  502 -0.17871046510E+04  0.27994686801E+03  0.41958848390E+03  0.18569242791E+04  0.25500000920E-02 0.  1.
</event>
<event>
 5   0  0.7261233E-08  0.3593087E+04  0.7818609E-02  0.8092077E-01
       -1   -1    0    0    0  501  0.00000000000E+00  0.00000000000E+00  0.22983287945E+04  0.22983287945E+04  0.50400001928E-02 0.  1.
        1   -1    0    0  501    0  0.00000000000E+00  0.00000000000E+00 -0.14043109258E+04  0.14043109258E+04  0.50400001928E-02 0. -1.
    10030    2    1    2    0    0  0.00000000000E+00  0.00000000000E+00  0.89401786874E+03  0.37026397203E+04  0.35930868273E+04 0.  0.
        3    1    3    3  502    0  0.20119157179E+03 -0.57622755131E+03  0.21882173358E+04  0.22717419216E+04  0.10100000352E+00 0.  1.
       -3    1    3    3    0  502 -0.20119157179E+03  0.57622755131E+03 -0.12941994671E+04  0.14308977987E+04  0.10100000352E+00 0. -1.
</event>
<event>
 5   0  0.7236375E-08  0.3785086E+04  0.7818609E-02  0.8049363E-01
        1   -1    0    0  501    0  0.00000000000E+00  0.00000000000E+00  0.15279747770E+04  0.15279747770E+04  0.50400001928E-02 0.  1.
       -1   -1    0    0    0  501  0.00000000000E+00  0.00000000000E+00 -0.23440962531E+04  0.23440962531E+04  0.50400001928E-02 0. -1.
    10030    2    1    2    0    0  0.00000000000E+00  0.00000000000E+00 -0.81612147615E+03  0.38720710301E+04  0.37850864981E+04 0.  0.
        1    1    3    3  502    0 -0.94360157856E+03  0.56393263159E+02  0.12691773869E+04  0.15825218414E+04  0.50400001928E-02 0.  1.
       -1    1    3    3    0  502  0.94360157856E+03 -0.56393263159E+02 -0.20852988630E+04  0.22895491887E+04  0.50400001928E-02 0. -1.
</event>
<event>
 5   0  0.7514289E-08  0.3598755E+04  0.7818609E-02  0.8090777E-01
       -1   -1    0    0    0  501  0.00000000000E+00  0.00000000000E+00  0.12991385313E+04  0.12991385313E+04  0.50400001928E-02 0. -1.
        1   -1    0    0  501    0  0.00000000000E+00  0.00000000000E+00 -0.24922361023E+04  0.24922361023E+04  0.50400001928E-02 0.  1.
    10030    2    1    2    0    0  0.00000000000E+00  0.00000000000E+00 -0.11930975710E+04  0.37913746336E+04  0.35987553124E+04 0.  0.
        4    1    3    3  502    0  0.16752806803E+04  0.19338655823E+03  0.64569652304E+02  0.16876417190E+04  0.12699999809E+01 0. -1.
       -4    1    3    3    0  502 -0.16752806803E+04 -0.19338655823E+03 -0.12576672233E+04  0.21037329147E+04  0.12699999809E+01 0.  1.
</event>
<event>
 5   0  0.2309391E-07  0.3603935E+04  0.7818609E-02  0.8089591E-01
       -2   -1    0    0    0  501  0.00000000000E+00  0.00000000000E+00  0.14686541580E+04  0.14686541580E+04  0.25500000920E-02 0. -1.
        2   -1    0    0  501    0  0.00000000000E+00  0.00000000000E+00 -0.22109272451E+04  0.22109272451E+04  0.25500000920E-02 0.  1.
    10030    2    1    2    0    0  0.00000000000E+00  0.00000000000E+00 -0.74227308709E+03  0.36795814032E+04  0.36039353444E+04 0.  0.
        4    1    3    3  502    0 -0.15422345018E+04 -0.53506784515E+03  0.40796703684E+03  0.16826240143E+04  0.12699999809E+01 0. -1.
       -4    1    3    3    0  502  0.15422345018E+04  0.53506784515E+03 -0.11502401239E+04  0.19969573889E+04  0.12699999809E+01 0.  1.
</event>
<event>
 5   0  0.7261233E-08  0.3608592E+04  0.7818609E-02  0.8088527E-01
        1   -1    0    0  501    0  0.00000000000E+00  0.00000000000E+00  0.11352613595E+04  0.11352613595E+04  0.50400001928E-02 0.  1.
       -1   -1    0    0    0  501  0.00000000000E+00  0.00000000000E+00 -0.28676068125E+04  0.28676068125E+04  0.50400001928E-02 0. -1.
    10030    2    1    2    0    0  0.00000000000E+00  0.00000000000E+00 -0.17323454530E+04  0.40028681719E+04  0.36085915304E+04 0.  0.
        3    1    3    3  502    0 -0.91906656196E+03 -0.27911583518E+03  0.82809127779E+03  0.12681972123E+04  0.10100000352E+00 0.  1.
       -3    1    3    3    0  502  0.91906656196E+03  0.27911583518E+03 -0.25604367308E+04  0.27346709596E+04  0.10100000352E+00 0. -1.
</event>
<event>
 5   0  0.7236375E-08  0.3602517E+04  0.7818609E-02  0.8089915E-01
       -1   -1    0    0    0  501  0.00000000000E+00  0.00000000000E+00  0.15861184258E+04  0.15861184258E+04  0.50400001928E-02 0.  1.
        1   -1    0    0  501    0  0.00000000000E+00  0.00000000000E+00 -0.20455795984E+04  0.20455795985E+04  0.50400001928E-02 0. -1.
    10030    2    1    2    0    0  0.00000000000E+00  0.00000000000E+00 -0.45946117266E+03  0.36316980243E+04  0.36025166162E+04 0.  0.
        5    1    3    3  502    0  0.24291793381E+01 -0.69978274987E+03 -0.19029364340E+04  0.20275332204E+04  0.46999998093E+01 0. -1.
       -5    1    3    3    0  502 -0.24291793381E+01  0.69978274987E+03  0.14434752613E+04  0.16041648039E+04  0.46999998093E+01 0.  1.
</event>
<event>
 5   0  0.7514289E-08  0.3599485E+04  0.7818609E-02  0.8090610E-01
       -1   -1    0    0    0  501  0.00000000000E+00  0.00000000000E+00  0.21480979058E+04  0.21480979058E+04  0.50400001928E-02 0. -1.
        1   -1    0    0  501    0  0.00000000000E+00  0.00000000000E+00 -0.15078798478E+04  0.15078798478E+04  0.50400001928E-02 0.  1.
    10030    2    1    2    0    0  0.00000000000E+00  0.00000000000E+00  0.64021805797E+03  0.36559777536E+04  0.35994852650E+04 0.  0.
        4    1    3    3  502    0 -0.57381018099E+03 -0.11267132799E+04 -0.98074596778E+03  0.16001891154E+04  0.12699999809E+01 0.  1.
       -4    1    3    3    0  502  0.57381018099E+03  0.11267132799E+04  0.16209640257E+04  0.20557886381E+04  0.12699999809E+01 0. -1.
</event>
<event>
 5   0  0.2198900E-07  0.3584158E+04  0.7818609E-02  0.8094130E-01
       -2   -1    0    0    0  501  0.00000000000E+00  0.00000000000E+00  0.24111858831E+04  0.24111858831E+04  0.25500000920E-02 0. -1.
        2   -1    0    0  501    0  0.00000000000E+00  0.00000000000E+00 -0.13319367525E+04  0.13319367525E+04  0.25500000920E-02 0.  1.
    10030    2    1    2    0    0  0.00000000000E+00  0.00000000000E+00  0.10792491306E+04  0.37431226356E+04  0.35841579735E+04 0.  0.
        2    1    3    3  502    0 -0.49973569292E+03  0.14387372415E+04 -0.44663667238E+03  0.15871940429E+04  0.25500000920E-02 0.  1.
       -2    1    3    3    0  502  0.49973569292E+03 -0.14387372415E+04  0.15258858030E+04  0.21559285927E+04  0.25500000920E-02 0. -1.
</event>
<event>
 5   0  0.2309391E-07  0.3604454E+04  0.7818609E-02  0.8089472E-01
       -2   -1    0    0    0  501  0.00000000000E+00  0.00000000000E+00  0.14708967233E+04  0.14708967233E+04  0.25500000920E-02 0. -1.
        2   -1    0    0  501    0  0.00000000000E+00  0.00000000000E+00 -0.22081923741E+04  0.22081923741E+04  0.25500000920E-02 0.  1.
    10030    2    1    2    0    0  0.00000000000E+00  0.00000000000E+00 -0.73729565079E+03  0.36790890973E+04  0.36044544261E+04 0.  0.
        4    1    3    3  502    0  0.33950501910E+03 -0.85593701675E+03 -0.19499617755E+04  0.21564425272E+04  0.12699999809E+01 0.  1.
       -4    1    3    3    0  502 -0.33950501910E+03  0.85593701675E+03  0.12126661247E+04  0.15226465701E+04  0.12699999809E+01 0. -1.
</event>
<event>
 5   0  0.2309391E-07  0.3604865E+04  0.7818609E-02  0.8089378E-01
       -2   -1    0    0    0  501  0.00000000000E+00  0.00000000000E+00  0.13007551099E+04  0.13007551099E+04  0.25500000920E-02 0.  1.
        2   -1    0    0  501    0  0.00000000000E+00  0.00000000000E+00 -0.24975976710E+04  0.24975976710E+04  0.25500000920E-02 0. -1.
    10030    2    1    2    0    0  0.00000000000E+00  0.00000000000E+00 -0.11968425611E+04  0.37983527809E+04  0.36048650089E+04 0.  0.
        4    1    3    3  502    0 -0.67926996028E+03 -0.12836067389E+04  0.52645037211E+03  0.15447347819E+04  0.12699999809E+01 0.  1.
       -4    1    3    3    0  502  0.67926996028E+03  0.12836067389E+04 -0.17232929332E+04  0.22536179991E+04  0.12699999809E+01 0. -1.
</event>
<event>
 5   0  0.7514289E-08  0.3608054E+04  0.7818609E-02  0.8088649E-01
        1   -1    0    0  501    0  0.00000000000E+00  0.00000000000E+00  0.17978615518E+04  0.17978615519E+04  0.50400001928E-02 0. -1.
       -1   -1    0    0    0  501  0.00000000000E+00  0.00000000000E+00 -0.18102131812E+04  0.18102131812E+04  0.50400001928E-02 0.  1.
    10030    2    1    2    0    0  0.00000000000E+00  0.00000000000E+00 -0.12351629346E+02  0.36080747330E+04  0.36080535911E+04 0.  0.
        4    1    3    3  502    0  0.91617383924E+03 -0.88262876362E+03 -0.12852857404E+04  0.18084161815E+04  0.12699999809E+01 0.  1.
       -4    1    3    3    0  502 -0.91617383924E+03  0.88262876362E+03  0.12729341111E+04  0.17996585515E+04  0.12699999809E+01 0. -1.
</event>
<event>
 5   0  0.2198900E-07  0.3605577E+04  0.7818609E-02  0.8089215E-01
       -2   -1    0    0    0  501  0.00000000000E+00  0.00000000000E+00  0.11966914099E+04  0.11966914099E+04  0.25500000920E-02 0. -1.
        2   -1    0    0  501    0  0.00000000000E+00  0.00000000000E+00 -0.27158604549E+04  0.27158604549E+04  0.25500000920E-02 0.  1.
    10030    2    1    2    0    0  0.00000000000E+00  0.00000000000E+00 -0.15191690450E+04  0.39125518647E+04  0.36055772779E+04 0.  0.
        2    1    3    3  502    0 -0.11011534484E+03  0.10594104651E+03 -0.27088206773E+04  0.27131270439E+04  0.25500000920E-02 0.  1.
       -2    1    3    3    0  502  0.11011534484E+03 -0.10594104651E+03  0.11896516323E+04  0.11994248208E+04  0.25500000920E-02 0. -1.
</event>
<event>
 5   0  0.2309391E-07  0.3591085E+04  0.7818609E-02  0.8092537E-01
       -2   -1    0    0    0  501  0.00000000000E+00  0.00000000000E+00  0.11548096925E+04  0.11548096925E+04  0.25500000920E-02 0.  1.
        2   -1    0    0  501    0  0.00000000000E+00  0.00000000000E+00 -0.27917778720E+04  0.27917778720E+04  0.25500000920E-02 0. -1.
    10030    2    1    2    0    0  0.00000000000E+00  0.00000000000E+00 -0.16369681795E+04  0.39465875645E+04  0.35910845971E+04 0.  0.
        4    1    3    3  502    0  0.83689005467E+03  0.67524423294E+03 -0.23987588471E+04  0.26287611830E+04  0.12699999809E+01 0. -1.
       -4    1    3    3    0  502 -0.83689005467E+03 -0.67524423294E+03  0.76179066758E+03  0.13178263815E+04  0.12699999809E+01 0.  1.
</event>
<event>
 5   0  0.2342606E-07  0.3607391E+04  0.7818609E-02  0.8088801E-01
        2   -1    0    0  501    0  0.00000000000E+00  0.00000000000E+00  0.24352899359E+04  0.24352899359E+04  0.25500000920E-02 0. -1.
       -2   -1    0    0    0  501  0.00000000000E+00  0.00000000000E+00 -0.13359053607E+04  0.13359053607E+04  0.25500000920E-02 0.  1.
    10030    2    1    2    0    0  0.00000000000E+00  0.00000000000E+00  0.10993845752E+04  0.37711952965E+04  0.36073906803E+04 0.  0.
        5    1    3    3  502    0  0.17705297479E+04 -0.34036732838E+03  0.49568116369E+03  0.18698522435E+04  0.46999998093E+01 0.  1.
       -5    1    3    3    0  502 -0.17705297479E+04  0.34036732838E+03  0.60370341150E+03  0.19013430531E+04  0.46999998093E+01 0. -1.
</event>
<event>
 5   0  0.7236375E-08  0.3595619E+04  0.7818609E-02  0.8091496E-01
       -4   -1    0    0    0  501  0.00000000000E+00  0.00000000000E+00  0.21409232202E+04  0.21409235969E+04  0.12699999809E+01 0.  1.
        4   -1    0    0  501    0  0.00000000000E+00  0.00000000000E+00 -0.15096841568E+04  0.15096846910E+04  0.12699999809E+01 0. -1.
    10030    2    1    2    0    0  0.00000000000E+00  0.00000000000E+00  0.63123906341E+03  0.36506082879E+04  0.35956192953E+04 0.  0.
        3    1    3    3  502    0 -0.52560896925E+03 -0.77470753537E+03  0.18739155243E+04  0.20947543904E+04  0.10100000352E+00 0.  1.
       -3    1    3    3    0  502  0.52560896925E+03  0.77470753537E+03 -0.12426764608E+04  0.15558538975E+04  0.10100000352E+00 0. -1.
</event>
<event>
 5   0  0.2238968E-07  0.3602827E+04  0.7818609E-02  0.8089844E-01
        2   -1    0    0  501    0  0.00000000000E+00  0.00000000000E+00  0.16604151050E+04  0.16604151050E+04  0.25500000920E-02 0.  1.
       -2   -1    0    0    0  501  0.00000000000E+00  0.00000000000E+00 -0.19543855802E+04  0.19543855802E+04  0.25500000920E-02 0. -1.
    10030    2    1    2    0    0  0.00000000000E+00  0.00000000000E+00 -0.29397047517E+03  0.36148006853E+04  0.36028274111E+04 0.  0.
        3    1    3    3  502    0  0.20116475814E+03  0.18589709732E+03 -0.19333702767E+04  0.19526765292E+04  0.10100000352E+00 0. -1.
       -3    1    3    3    0  502 -0.20116475814E+03 -0.18589709732E+03  0.16393998015E+04  0.16621241561E+04  0.10100000352E+00 0.  1.
</event>
<event>
 5   0  0.7236375E-08  0.3605006E+04  0.7818609E-02  0.8089346E-01
       -3   -1    0    0    0  501  0.00000000000E+00  0.00000000000E+00  0.16250481916E+04  0.16250481947E+04  0.10100000352E+00 0.  1.
        3   -1    0    0  501    0  0.00000000000E+00  0.00000000000E+00 -0.19993357905E+04  0.19993357931E+04  0.10100000352E+00 0. -1.
    10030    2    1    2    0    0  0.00000000000E+00  0.00000000000E+00 -0.37428759897E+03  0.36243839878E+04  0.36050059756E+04 0.  0.
        2    1    3    3  502    0 -0.73317980875E+03 -0.89278222875E+03 -0.15782011727E+04  0.19558455157E+04  0.25500000920E-02 0. -1.
       -2    1    3    3    0  502  0.73317980875E+03  0.89278222875E+03  0.12039135737E+04  0.16685384721E+04  0.25500000920E-02 0.  1.
</event>
<event>
 5   0  0.7347303E-08  0.3511208E+04  0.7818609E-02  0.8111139E-01
        1   -1    0    0  501    0  0.00000000000E+00  0.00000000000E+00  0.16440193427E+04  0.16440193427E+04  0.50400001928E-02 0.  1.
       -1   -1    0    0    0  501  0.00000000000E+00  0.00000000000E+00 -0.18747622437E+04  0.18747622438E+04  0.50400001928E-02 0. -1.
    10030    2    1    2    0    0  0.00000000000E+00  0.00000000000E+00 -0.23074290104E+03  0.35187815865E+04  0.35112079925E+04 0.  0.
        2    1    3    3  502    0 -0.25813211958E+03 -0.11250449497E+04 -0.14410198589E+04  0.18463197350E+04  0.25500000920E-02 0. -1.
       -2    1    3    3    0  502  0.25813211958E+03  0.11250449497E+04  0.12102769579E+04  0.16724618515E+04  0.25500000920E-02 0.  1.
</event>
<event>
 5   0  0.2199902E-07  0.3495009E+04  0.7818609E-02  0.8114974E-01
       -2   -1    0    0    0  501  0.00000000000E+00  0.00000000000E+00  0.21303794408E+04  0.21303794408E+04  0.25500000920E-02 0. -1.
        2   -1    0    0  501    0  0.00000000000E+00  0.00000000000E+00 -0.14334400857E+04  0.14334400857E+04  0.25500000920E-02 0.  1.
    10030    2    1    2    0    0  0.00000000000E+00  0.00000000000E+00  0.69693935515E+03  0.35638195265E+04  0.34950086055E+04 0.  0.
        1    1    3    3  502    0 -0.53215315592E+03 -0.92517711182E+03 -0.10624752642E+04  0.15059858421E+04  0.50400001928E-02 0.  1.
       -1    1    3    3    0  502  0.53215315592E+03  0.92517711182E+03  0.17594146193E+04  0.20578336843E+04  0.50400001928E-02 0. -1.
</event>
<event>
 5   0  0.7514289E-08  0.3591710E+04  0.7818609E-02  0.8092393E-01
       -1   -1    0    0    0  501  0.00000000000E+00  0.00000000000E+00  0.13072547630E+04  0.13072547630E+04  0.50400001928E-02 0. -1.
        1   -1    0    0  501    0  0.00000000000E+00  0.00000000000E+00 -0.24670748061E+04  0.24670748061E+04  0.50400001928E-02 0.  1.
    10030    2    1    2    0    0  0.00000000000E+00  0.00000000000E+00 -0.11598200432E+04  0.37743295691E+04  0.35917100612E+04 0.  0.
        4    1    3    3  502    0 -0.10048277321E+03  0.23260615116E+03  0.12883758374E+04  0.13130560996E+04  0.12699999809E+01 0. -1.
       -4    1    3    3    0  502  0.10048277321E+03 -0.23260615116E+03 -0.24481958806E+04  0.24612734695E+04  0.12699999809E+01 0.  1.
</event>
<event>
 5   0  0.2238968E-07  0.3598839E+04  0.7818609E-02  0.8090758E-01
        2   -1    0    0  501    0  0.00000000000E+00  0.00000000000E+00  0.19504290927E+04  0.19504290927E+04  0.25500000920E-02 0. -1.
       -2   -1    0    0    0  501  0.00000000000E+00  0.00000000000E+00 -0.16601017835E+04  0.16601017835E+04  0.25500000920E-02 0.  1.
    10030    2    1    2    0    0  0.00000000000E+00  0.00000000000E+00  0.29032730918E+03  0.36105308762E+04  0.35988391547E+04 0.  0.
        3    1    3    3  502    0 -0.82363397861E+03 -0.11172792382E+04  0.12939710782E+04  0.18976424817E+04  0.10100000352E+00 0. -1.
       -3    1    3    3    0  502  0.82363397861E+03  0.11172792382E+04 -0.10036437691E+04  0.17128883945E+04  0.10100000352E+00 0.  1.
</event>
<event>
 5   0  0.7236375E-08  0.3639055E+04  0.7818609E-02  0.8081604E-01
        1   -1    0    0  501    0  0.00000000000E+00  0.00000000000E+00  0.25273774654E+04  0.25273774654E+04  0.50400001928E-02 0.  1.
       -1   -1    0    0    0  501  0.00000000000E+00  0.00000000000E+00 -0.13099273635E+04  0.13099273635E+04  0.50400001928E-02 0. -1.
    10030    2    1    2    0    0  0.00000000000E+00  0.00000000000E+00  0.12174501019E+04  0.38373048289E+04  0.36390553168E+04 0.  0.
        5    1    3    3  502    0  0.15223545023E+04 -0.99312335737E+03  0.52176046711E+03  0.18910614238E+04  0.46999998093E+01 0.  1.
       -5    1    3    3    0  502 -0.15223545023E+04  0.99312335737E+03  0.69568963475E+03  0.19462434050E+04  0.46999998093E+01 0. -1.
</event>
<event>
 5   0  0.7261233E-08  0.3634456E+04  0.7818609E-02  0.8082645E-01
       -1   -1    0    0    0  501  0.00000000000E+00  0.00000000000E+00  0.15406882942E+04  0.15406882942E+04  0.50400001928E-02 0. -1.
        1   -1    0    0  501    0  0.00000000000E+00  0.00000000000E+00 -0.21434036188E+04  0.21434036188E+04  0.50400001928E-02 0.  1.
    10030    2    1    2    0    0  0.00000000000E+00  0.00000000000E+00 -0.60271532459E+03  0.36840919130E+04  0.36344555935E+04 0.  0.
        3    1    3    3  502    0  0.13846594004E+03  0.17290113200E+04  0.24795089720E+03  0.17521793911E+04  0.10100000352E+00 0.  1.
       -3    1    3    3    0  502 -0.13846594004E+03 -0.17290113200E+04 -0.85066622179E+03  0.19319125219E+04  0.10100000352E+00 0. -1.
</event>
<event>
 5   0  0.7236375E-08  0.3588508E+04  0.7818609E-02  0.8093129E-01
       -3   -1    0    0    0  501  0.00000000000E+00  0.00000000000E+00  0.95834330943E+03  0.95834331475E+03  0.10100000352E+00 0.  1.
        3   -1    0    0  501    0  0.00000000000E+00  0.00000000000E+00 -0.33592847260E+04  0.33592847275E+04  0.10100000352E+00 0. -1.
    10030    2    1    2    0    0  0.00000000000E+00  0.00000000000E+00 -0.24009414165E+04  0.43176280422E+04  0.35885083566E+04 0.  0.
        5    1    3    3  502    0  0.24146550551E+03  0.73423899372E+03 -0.31487016732E+04  0.32421839564E+04  0.46999998093E+01 0. -1.
       -5    1    3    3    0  502 -0.24146550551E+03 -0.73423899372E+03  0.74776025669E+03  0.10754440858E+04  0.46999998093E+01 0.  1.
</event>
<event>
 5   0  0.2198900E-07  0.3614106E+04  0.7818609E-02  0.8087268E-01
       -2   -1    0    0    0  501  0.00000000000E+00  0.00000000000E+00  0.13378004960E+04  0.13378004960E+04  0.25500000920E-02 0.  1.
        2   -1    0    0  501    0  0.00000000000E+00  0.00000000000E+00 -0.24409030912E+04  0.24409030912E+04  0.25500000920E-02 0. -1.
    10030    2    1    2    0    0  0.00000000000E+00  0.00000000000E+00 -0.11031025952E+04  0.37787035872E+04  0.36141064545E+04 0.  0.
        2    1    3    3  502    0 -0.15411570914E+04 -0.66612103842E+03 -0.12502360783E+04  0.20933161896E+04  0.25500000920E-02 0. -1.
       -2    1    3    3    0  502  0.15411570914E+04  0.66612103842E+03  0.14713348316E+03  0.16853873976E+04  0.25500000920E-02 0.  1.
</event>
<event>
 5   0  0.2342606E-07  0.3609077E+04  0.7818609E-02  0.8088416E-01
       -2   -1    0    0    0  501  0.00000000000E+00  0.00000000000E+00  0.26503233228E+04  0.26503233228E+04  0.25500000920E-02 0.  1.
        2   -1    0    0  501    0  0.00000000000E+00  0.00000000000E+00 -0.12286651285E+04  0.12286651285E+04  0.25500000920E-02 0. -1.
    10030    2    1    2    0    0  0.00000000000E+00  0.00000000000E+00  0.14216581943E+04  0.38789884513E+04  0.36090773591E+04 0.  0.
        5    1    3    3  502    0  0.21675985032E+03  0.32222954928E+03 -0.11832125905E+04  0.12453235883E+04  0.46999998093E+01 0. -1.
       -5    1    3    3    0  502 -0.21675985032E+03 -0.32222954928E+03  0.26048707848E+04  0.26336648630E+04  0.46999998093E+01 0.  1.
</event>
<event>
 5   0  0.7514289E-08  0.3595928E+04  0.7818609E-02  0.8091425E-01
        1   -1    0    0  501    0  0.00000000000E+00  0.00000000000E+00  0.20628780305E+04  0.20628780305E+04  0.50400001928E-02 0.  1.
       -1   -1    0    0    0  501  0.00000000000E+00  0.00000000000E+00 -0.15670704212E+04  0.15670704212E+04  0.50400001928E-02 0. -1.
    10030    2    1    2    0    0  0.00000000000E+00  0.00000000000E+00  0.49580760927E+03  0.36299484517E+04  0.35959283331E+04 0.  0.
        4    1    3    3  502    0  0.16225012024E+04  0.74410644649E+03  0.30297747494E+02  0.17852518371E+04  0.12699999809E+01 0. -1.
       -4    1    3    3    0  502 -0.16225012024E+04 -0.74410644649E+03  0.46550986178E+03  0.18446966146E+04  0.12699999809E+01 0.  1.
</event>
<event>
 5   0  0.2309391E-07  0.3600955E+04  0.7818609E-02  0.8090273E-01
        2   -1    0    0  501    0  0.00000000000E+00  0.00000000000E+00  0.26137739783E+04  0.26137739783E+04  0.25500000920E-02 0.  1.
       -2   -1    0    0    0  501  0.00000000000E+00  0.00000000000E+00 -0.12402448010E+04  0.12402448010E+04  0.25500000920E-02 0. -1.
    10030    2    1    2    0    0  0.00000000000E+00  0.00000000000E+00  0.13735291773E+04  0.38540187793E+04  0.36009551997E+04 0.  0.
        4    1    3    3  502    0 -0.17194195042E+03  0.15818811028E+04  0.15884727015E+04  0.22483680735E+04  0.12699999809E+01 0. -1.
       -4    1    3    3    0  502  0.17194195042E+03 -0.15818811028E+04 -0.21494352413E+03  0.16056507058E+04  0.12699999809E+01 0.  1.
</event>
<event>
 5   0  0.7236375E-08  0.3603158E+04  0.7818609E-02  0.8089769E-01
        1   -1    0    0  501    0  0.00000000000E+00  0.00000000000E+00  0.28016653136E+04  0.28016653136E+04  0.50400001928E-02 0.  1.
       -1   -1    0    0    0  501  0.00000000000E+00  0.00000000000E+00 -0.11584846221E+04  0.11584846221E+04  0.50400001928E-02 0. -1.
    10030    2    1    2    0    0  0.00000000000E+00  0.00000000000E+00  0.16431806915E+04  0.39601499357E+04  0.36031576052E+04 0.  0.
        5    1    3    3  502    0 -0.36477773848E+03  0.17525326682E+04  0.10447614097E+04  0.20726750939E+04  0.46999998093E+01 0. -1.
       -5    1    3    3    0  502  0.36477773848E+03 -0.17525326682E+04  0.59841928176E+03  0.18874748418E+04  0.46999998093E+01 0.  1.
</event>
<event>
 5   0  0.2198900E-07  0.3603674E+04  0.7818609E-02  0.8089651E-01
       -2   -1    0    0    0  501  0.00000000000E+00  0.00000000000E+00  0.14901756935E+04  0.14901756935E+04  0.25500000920E-02 0.  1.
        2   -1    0    0  501    0  0.00000000000E+00  0.00000000000E+00 -0.21786809373E+04  0.21786809373E+04  0.25500000920E-02 0. -1.
    10030    2    1    2    0    0  0.00000000000E+00  0.00000000000E+00 -0.68850524377E+03  0.36688566308E+04  0.36036744452E+04 0.  0.
        2    1    3    3  502    0 -0.12826634046E+04  0.85549863715E+03 -0.12935963655E+04  0.20125841311E+04  0.25500000920E-02 0. -1.
       -2    1    3    3    0  502  0.12826634046E+04 -0.85549863715E+03  0.60509112178E+03  0.16562724997E+04  0.25500000920E-02 0.  1.
</event>
<event>
 5   0  0.2238968E-07  0.3449353E+04  0.7818609E-02  0.8125899E-01
       -2   -1    0    0    0  501  0.00000000000E+00  0.00000000000E+00  0.12701815131E+04  0.12701815131E+04  0.25500000920E-02 0. -1.
        2   -1    0    0  501    0  0.00000000000E+00  0.00000000000E+00 -0.23417980354E+04  0.23417980354E+04  0.25500000920E-02 0.  1.
    10030    2    1    2    0    0  0.00000000000E+00  0.00000000000E+00 -0.10716165223E+04  0.36119795485E+04  0.34493527346E+04 0.  0.
        3    1    3    3  502    0 -0.29250132489E+03 -0.76096044450E+03 -0.21272963527E+04  0.22781588193E+04  0.10100000352E+00 0.  1.
       -3    1    3    3    0  502  0.29250132489E+03  0.76096044450E+03  0.10556798304E+04  0.13338207292E+04  0.10100000352E+00 0. -1.
</event>
<event>
 5   0  0.7347303E-08  0.3597026E+04  0.7818609E-02  0.8091173E-01
       -1   -1    0    0    0  501  0.00000000000E+00  0.00000000000E+00  0.12941052971E+04  0.12941052971E+04  0.50400001928E-02 0. -1.
        1   -1    0    0  501    0  0.00000000000E+00  0.00000000000E+00 -0.24995250079E+04  0.24995250079E+04  0.50400001928E-02 0.  1.
    10030    2    1    2    0    0  0.00000000000E+00  0.00000000000E+00 -0.12054197108E+04  0.37936303050E+04  0.35970257452E+04 0.  0.
        2    1    3    3  502    0  0.17782907316E+04  0.26854727813E+03 -0.61810158050E+03  0.19017058475E+04  0.25500000920E-02 0.  1.
       -2    1    3    3    0  502 -0.17782907316E+04 -0.26854727813E+03 -0.58731813028E+03  0.18919244575E+04  0.25500000920E-02 0. -1.
</event>
<event>
 5   0  0.7236375E-08  0.3620797E+04  0.7818609E-02  0.8085744E-01
       -1   -1    0    0    0  501  0.00000000000E+00  0.00000000000E+00  0.20228093915E+04  0.20228093915E+04  0.50400001928E-02 0. -1.
        1   -1    0    0  501    0  0.00000000000E+00  0.00000000000E+00 -0.16202926041E+04  0.16202926041E+04  0.50400001928E-02 0.  1.
    10030    2    1    2    0    0  0.00000000000E+00  0.00000000000E+00  0.40251678734E+03  0.36431019956E+04  0.36207972032E+04 0.  0.
        5    1    3    3  502    0  0.97631208868E+02 -0.13337139092E+04 -0.10265853805E+04  0.16858897586E+04  0.46999998093E+01 0.  1.
       -5    1    3    3    0  502 -0.97631208868E+02  0.13337139092E+04  0.14291021679E+04  0.19572122370E+04  0.46999998093E+01 0. -1.
</event>
<event>
 5   0  0.2238968E-07  0.3589315E+04  0.7818609E-02  0.8092944E-01
        2   -1    0    0  501    0  0.00000000000E+00  0.00000000000E+00  0.23018969897E+04  0.23018969897E+04  0.25500000920E-02 0.  1.
       -2   -1    0    0    0  501  0.00000000000E+00  0.00000000000E+00 -0.13991921607E+04  0.13991921607E+04  0.25500000920E-02 0. -1.
    10030    2    1    2    0    0  0.00000000000E+00  0.00000000000E+00  0.90270482899E+03  0.37010891503E+04  0.35893153791E+04 0.  0.
        3    1    3    3  502    0 -0.27245500486E+03 -0.62976020226E+03 -0.12585905859E+04  0.14334852337E+04  0.10100000352E+00 0. -1.
       -3    1    3    3    0  502  0.27245500486E+03  0.62976020226E+03  0.21612954149E+04  0.22676039167E+04  0.10100000352E+00 0.  1.
</event>
<event>
 5   0  0.2238968E-07  0.3604284E+04  0.7818609E-02  0.8089511E-01
        2   -1    0    0  501    0  0.00000000000E+00  0.00000000000E+00  0.19220346317E+04  0.19220346317E+04  0.25500000920E-02 0.  1.
       -2   -1    0    0    0  501  0.00000000000E+00  0.00000000000E+00 -0.16897277086E+04  0.16897277086E+04  0.25500000920E-02 0. -1.
    10030    2    1    2    0    0  0.00000000000E+00  0.00000000000E+00  0.23230692318E+03  0.36117623403E+04  0.36042836593E+04 0.  0.
        3    1    3    3  502    0  0.96675533639E+02 -0.17912333397E+04  0.28928964868E+03  0.18170172115E+04  0.10100000352E+00 0.  1.
       -3    1    3    3    0  502 -0.96675533639E+02  0.17912333397E+04 -0.56982725498E+02  0.17947451288E+04  0.10100000352E+00 0. -1.
</event>
<event>
 5   0  0.2198900E-07  0.3600441E+04  0.7818609E-02  0.8090391E-01
        2   -1    0    0  501    0  0.00000000000E+00  0.00000000000E+00  0.18769472074E+04  0.18769472074E+04  0.25500000920E-02 0.  1.
       -2   -1    0    0    0  501  0.00000000000E+00  0.00000000000E+00 -0.17266306944E+04  0.17266306944E+04  0.25500000920E-02 0. -1.
    10030    2    1    2    0    0  0.00000000000E+00  0.00000000000E+00  0.15031651293E+03  0.36035779018E+04  0.36004414507E+04 0.  0.
        2    1    3    3  502    0 -0.15984831035E+04 -0.82395075817E+03 -0.70812962478E+01  0.17983584817E+04  0.25500000920E-02 0.  1.
       -2    1    3    3    0  502  0.15984831035E+04  0.82395075817E+03  0.15739780918E+03  0.18052194200E+04  0.25500000920E-02 0. -1.
</event>
<event>
 5   0  0.7236375E-08  0.3599593E+04  0.7818609E-02  0.8090585E-01
        1   -1    0    0  501    0  0.00000000000E+00  0.00000000000E+00  0.21683408118E+04  0.21683408118E+04  0.50400001928E-02 0.  1.
       -1   -1    0    0    0  501  0.00000000000E+00  0.00000000000E+00 -0.14938924572E+04  0.14938924572E+04  0.50400001928E-02 0. -1.
    10030    2    1    2    0    0  0.00000000000E+00  0.00000000000E+00  0.67444835461E+03  0.36622332689E+04  0.35995933011E+04 0.  0.
        1    1    3    3  502    0 -0.41647991193E+03 -0.10507641308E+04  0.17622071093E+04  0.20935459565E+04  0.50400001928E-02 0.  1.
       -1    1    3    3    0  502  0.41647991193E+03  0.10507641308E+04 -0.10877587547E+04  0.15686873125E+04  0.50400001928E-02 0. -1.
</event>
<event>
 5   0  0.2309391E-07  0.3599239E+04  0.7818609E-02  0.8090666E-01
       -2   -1    0    0    0  501  0.00000000000E+00  0.00000000000E+00  0.13735674441E+04  0.13735674441E+04  0.25500000920E-02 0. -1.
        2   -1    0    0  501    0  0.00000000000E+00  0.00000000000E+00 -0.23578236472E+04  0.23578236472E+04  0.25500000920E-02 0.  1.
    10030    2    1    2    0    0  0.00000000000E+00  0.00000000000E+00 -0.98425620307E+03  0.37313910912E+04  0.35992386976E+04 0.  0.
        4    1    3    3  502    0 -0.89699196861E+03  0.15564235854E+04 -0.60368585334E+03  0.18951219463E+04  0.12699999809E+01 0. -1.
       -4    1    3    3    0  502  0.89699196861E+03 -0.15564235854E+04 -0.38057034973E+03  0.18362691450E+04  0.12699999809E+01 0.  1.
</event>
<event>
 5   0  0.2238968E-07  0.3621019E+04  0.7818609E-02  0.8085694E-01
        2   -1    0    0  501    0  0.00000000000E+00  0.00000000000E+00  0.12671155727E+04  0.12671155727E+04  0.25500000920E-02 0. -1.
       -2   -1    0    0    0  501  0.00000000000E+00  0.00000000000E+00 -0.25869346214E+04  0.25869346214E+04  0.25500000920E-02 0.  1.
    10030    2    1    2    0    0  0.00000000000E+00  0.00000000000E+00 -0.13198190487E+04  0.38540501941E+04  0.36210192733E+04 0.  0.
        3    1    3    3  502    0  0.20714228956E+03 -0.89445216957E+03  0.10009593492E+04  0.13582607410E+04  0.10100000352E+00 0. -1.
       -3    1    3    3    0  502 -0.20714228956E+03  0.89445216957E+03 -0.23207783979E+04  0.24957894531E+04  0.10100000352E+00 0.  1.
</event>
<event>
 5   0  0.7347303E-08  0.3620227E+04  0.7818609E-02  0.8085874E-01
       -1   -1    0    0    0  501  0.00000000000E+00  0.00000000000E+00  0.24067032713E+04  0.24067032713E+04  0.50400001928E-02 0.  1.
        1   -1    0    0  501    0  0.00000000000E+00  0.00000000000E+00 -0.13614106755E+04  0.13614106755E+04  0.50400001928E-02 0. -1.
    10030    2    1    2    0    0  0.00000000000E+00  0.00000000000E+00  0.10452925959E+04  0.37681139468E+04  0.36202273555E+04 0.  0.
        2    1    3    3  502    0  0.40511731933E+03 -0.87441349672E+03 -0.10721970781E+04  0.14416398926E+04  0.25500000920E-02 0. -1.
       -2    1    3    3    0  502 -0.40511731933E+03  0.87441349672E+03  0.21174896740E+04  0.23264740542E+04  0.25500000920E-02 0.  1.
</event>
<event>
 5   0  0.7236375E-08  0.3607521E+04  0.7818609E-02  0.8088771E-01
       -1   -1    0    0    0  501  0.00000000000E+00  0.00000000000E+00  0.20766050474E+04  0.20766050474E+04  0.50400001928E-02 0. -1.
        1   -1    0    0  501    0  0.00000000000E+00  0.00000000000E+00 -0.15667652746E+04  0.15667652746E+04  0.50400001928E-02 0.  1.
    10030    2    1    2    0    0  0.00000000000E+00  0.00000000000E+00  0.50983977278E+03  0.36433703221E+04  0.36075214081E+04 0.  0.
        1    1    3    3  502    0  0.65783158627E+03 -0.12618161505E+04 -0.86453090383E+03  0.16650333562E+04  0.50400001928E-02 0.  1.
       -1    1    3    3    0  502 -0.65783158627E+03  0.12618161505E+04  0.13743706766E+04  0.19783369658E+04  0.50400001928E-02 0. -1.
</event>
<event>
 5   0  0.2199902E-07  0.3605697E+04  0.7818609E-02  0.8089188E-01
        2   -1    0    0  501    0  0.00000000000E+00  0.00000000000E+00  0.23880783207E+04  0.23880783207E+04  0.25500000920E-02 0.  1.
       -2   -1    0    0    0  501  0.00000000000E+00  0.00000000000E+00 -0.13610368889E+04  0.13610368889E+04  0.25500000920E-02 0. -1.
    10030    2    1    2    0    0  0.00000000000E+00  0.00000000000E+00  0.10270414319E+04  0.37491152096E+04  0.36056969856E+04 0.  0.
        1    1    3    3  502    0 -0.81513066182E+03 -0.14302510848E+04  0.12777426055E+04  0.20839103453E+04  0.50400001928E-02 0.  1.
       -1    1    3    3    0  502  0.81513066182E+03  0.14302510848E+04 -0.25070117366E+03  0.16652048642E+04  0.50400001928E-02 0. -1.
</event>
<event>
 5   0  0.7236375E-08  0.3592862E+04  0.7818609E-02  0.8092129E-01
        1   -1    0    0  501    0  0.00000000000E+00  0.00000000000E+00  0.22777342870E+04  0.22777342870E+04  0.50400001928E-02 0.  1.
       -1   -1    0    0    0  501  0.00000000000E+00  0.00000000000E+00 -0.14168310545E+04  0.14168310545E+04  0.50400001928E-02 0. -1.
    10030    2    1    2    0    0  0.00000000000E+00  0.00000000000E+00  0.86090323254E+03  0.36945653416E+04  0.35928621859E+04 0.  0.
        5    1    3    3  502    0  0.29540616323E+03  0.16306667891E+04 -0.28257649079E+03  0.16811337072E+04  0.46999998093E+01 0.  1.
       -5    1    3    3    0  502 -0.29540616323E+03 -0.16306667891E+04  0.11434797233E+04  0.20134316343E+04  0.46999998093E+01 0. -1.
</event>
<event>
 5   0  0.7236375E-08  0.3588527E+04  0.7818609E-02  0.8093125E-01
       -1   -1    0    0    0  501  0.00000000000E+00  0.00000000000E+00  0.14473536103E+04  0.14473536103E+04  0.50400001928E-02 0.  1.
        1   -1    0    0  501    0  0.00000000000E+00  0.00000000000E+00 -0.22243222413E+04  0.22243222413E+04  0.50400001928E-02 0. -1.
    10030    2    1    2    0    0  0.00000000000E+00  0.00000000000E+00 -0.77696863096E+03  0.36716758516E+04  0.35885266204E+04 0.  0.
        1    1    3    3  502    0 -0.27556995071E+03 -0.15734648326E+04  0.44754736264E+03  0.16589240547E+04  0.50400001928E-02 0.  1.
       -1    1    3    3    0  502  0.27556995071E+03  0.15734648326E+04 -0.12245159936E+04  0.20127517969E+04  0.50400001928E-02 0. -1.
</event>
<event>
 5   0  0.2238968E-07  0.3600376E+04  0.7818609E-02  0.8090406E-01
        2   -1    0    0  501    0  0.00000000000E+00  0.00000000000E+00  0.24475016083E+04  0.24475016083E+04  0.25500000920E-02 0. -1.
       -2   -1    0    0    0  501  0.00000000000E+00  0.00000000000E+00 -0.13240754454E+04  0.13240754454E+04  0.25500000920E-02 0.  1.
    10030    2    1    2    0    0  0.00000000000E+00  0.00000000000E+00  0.11234261629E+04  0.37715770537E+04  0.36003759704E+04 0.  0.
        3    1    3    3  502    0 -0.97296463259E+03 -0.12351943603E+04 -0.35650067248E+03  0.16122834812E+04  0.10100000352E+00 0.  1.
       -3    1    3    3    0  502  0.97296463259E+03  0.12351943603E+04  0.14799268354E+04  0.21592935725E+04  0.10100000352E+00 0. -1.
</event>
<event>
 5   0  0.7236375E-08  0.3596739E+04  0.7818609E-02  0.8091239E-01
        1   -1    0    0  501    0  0.00000000000E+00  0.00000000000E+00  0.28651221373E+04  0.28651221373E+04  0.50400001928E-02 0.  1.
       -1   -1    0    0    0  501  0.00000000000E+00  0.00000000000E+00 -0.11287940201E+04  0.11287940201E+04  0.50400001928E-02 0. -1.
    10030    2    1    2    0    0  0.00000000000E+00  0.00000000000E+00  0.17363281172E+04  0.39939161575E+04  0.35967389316E+04 0.  0.
        1    1    3    3  502    0  0.19198025427E+03  0.17510009055E+04  0.12704884113E+04  0.21718658781E+04  0.50400001928E-02 0. -1.
       -1    1    3    3    0  502 -0.19198025427E+03 -0.17510009055E+04  0.46583970583E+03  0.18220502794E+04  0.50400001928E-02 0.  1.
</event>
<event>
 5   0  0.7236375E-08  0.3596546E+04  0.7818609E-02  0.8091283E-01
       -1   -1    0    0    0  501  0.00000000000E+00  0.00000000000E+00  0.13375423167E+04  0.13375423167E+04  0.50400001928E-02 0. -1.
        1   -1    0    0  501    0  0.00000000000E+00  0.00000000000E+00 -0.24177067438E+04  0.24177067438E+04  0.50400001928E-02 0.  1.
    10030    2    1    2    0    0  0.00000000000E+00  0.00000000000E+00 -0.10801644271E+04  0.37552490605E+04  0.35965456089E+04 0.  0.
        1    1    3    3  502    0 -0.31974886890E+03 -0.14313859283E+04  0.54635152543E+03  0.15651214024E+04  0.50400001928E-02 0. -1.
       -1    1    3    3    0  502  0.31974886890E+03  0.14313859283E+04 -0.16265159525E+04  0.21901276581E+04  0.50400001928E-02 0.  1.
</event>
<event>
 5   0  0.7347303E-08  0.3594755E+04  0.7818609E-02  0.8091694E-01
        1   -1    0    0  501    0  0.00000000000E+00  0.00000000000E+00  0.16120447895E+04  0.16120447895E+04  0.50400001928E-02 0.  1.
       -1   -1    0    0    0  501  0.00000000000E+00  0.00000000000E+00 -0.20040170226E+04  0.20040170226E+04  0.50400001928E-02 0. -1.
    10030    2    1    2    0    0  0.00000000000E+00  0.00000000000E+00 -0.39197223303E+03  0.36160618121E+04  0.35947546227E+04 0.  0.
        2    1    3    3  502    0 -0.77715443727E+03 -0.13259065038E+04  0.74150797216E+03  0.17064088458E+04  0.25500000920E-02 0.  1.
       -2    1    3    3    0  502  0.77715443727E+03  0.13259065038E+04 -0.11334802052E+04  0.19096529663E+04  0.25500000920E-02 0. -1.
</event>
<event>
 5   0  0.2199902E-07  0.3648674E+04  0.7818609E-02  0.8079432E-01
        2   -1    0    0  501    0  0.00000000000E+00  0.00000000000E+00  0.14050670280E+04  0.14050670280E+04  0.25500000920E-02 0.  1.
       -2   -1    0    0    0  501  0.00000000000E+00  0.00000000000E+00 -0.23687167114E+04  0.23687167114E+04  0.25500000920E-02 0. -1.
    10030    2    1    2    0    0  0.00000000000E+00  0.00000000000E+00 -0.96364968343E+03  0.37737837394E+04  0.36486741426E+04 0.  0.
        1    1    3    3  502    0 -0.91787286108E+03 -0.99467500792E+03  0.78336765243E+03  0.15638202708E+04  0.50400001928E-02 0. -1.
       -1    1    3    3    0  502  0.91787286108E+03  0.99467500792E+03 -0.17470173359E+04  0.22099634685E+04  0.50400001928E-02 0.  1.
</event>
<event>
 5   0  0.7236375E-08  0.3578487E+04  0.7818609E-02  0.8095437E-01
        3   -1    0    0  501    0  0.00000000000E+00  0.00000000000E+00  0.21970823326E+04  0.21970823349E+04  0.10100000352E+00 0.  1.
       -3   -1    0    0    0  501  0.00000000000E+00  0.00000000000E+00 -0.14571111177E+04  0.14571111212E+04  0.10100000352E+00 0. -1.
    10030    2    1    2    0    0  0.00000000000E+00  0.00000000000E+00  0.73997121484E+03  0.36541934561E+04  0.35784874481E+04 0.  0.
        5    1    3    3  502    0 -0.17440768323E+04  0.15020171078E+02  0.77760643561E+03  0.19096396156E+04  0.46999998093E+01 0.  1.
       -5    1    3    3    0  502  0.17440768323E+04 -0.15020171078E+02 -0.37635220773E+02  0.17445538405E+04  0.46999998093E+01 0. -1.
</event>
<event>
 5   0  0.2238968E-07  0.3575410E+04  0.7818609E-02  0.8096148E-01
        2   -1    0    0  501    0  0.00000000000E+00  0.00000000000E+00  0.14681658930E+04  0.14681658930E+04  0.25500000920E-02 0. -1.
       -2   -1    0    0    0  501  0.00000000000E+00  0.00000000000E+00 -0.21767905046E+04  0.21767905046E+04  0.25500000920E-02 0.  1.
    10030    2    1    2    0    0  0.00000000000E+00  0.00000000000E+00 -0.70862461169E+03  0.36449563976E+04  0.35754102282E+04 0.  0.
        3    1    3    3  502    0  0.19585040145E+03 -0.32846453906E+03 -0.21346032268E+04  0.21685887760E+04  0.10100000352E+00 0.  1.
       -3    1    3    3    0  502 -0.19585040145E+03  0.32846453906E+03  0.14259786151E+04  0.14763676216E+04  0.10100000352E+00 0. -1.
</event>
<event>
 5   0  0.2198900E-07  0.3594346E+04  0.7818609E-02  0.8091788E-01
        2   -1    0    0  501    0  0.00000000000E+00  0.00000000000E+00  0.21923331777E+04  0.21923331777E+04  0.25500000920E-02 0. -1.
       -2   -1    0    0    0  501  0.00000000000E+00  0.00000000000E+00 -0.14732389368E+04  0.14732389368E+04  0.25500000920E-02 0.  1.
    10030    2    1    2    0    0  0.00000000000E+00  0.00000000000E+00  0.71909424084E+03  0.36655721145E+04  0.35943458931E+04 0.  0.
        2    1    3    3  502    0  0.77661057522E+03  0.10290633828E+04  0.16364511290E+04  0.20832829210E+04  0.25500000920E-02 0. -1.
       -2    1    3    3    0  502 -0.77661057522E+03 -0.10290633828E+04 -0.91735688818E+03  0.15822891935E+04  0.25500000920E-02 0.  1.
</event>
<event>
 5   0  0.2309391E-07  0.3588913E+04  0.7818609E-02  0.8093036E-01
       -2   -1    0    0    0  501  0.00000000000E+00  0.00000000000E+00  0.13465598574E+04  0.13465598574E+04  0.25500000920E-02 0.  1.
        2   -1    0    0  501    0  0.00000000000E+00  0.00000000000E+00 -0.23913333993E+04  0.23913333993E+04  0.25500000920E-02 0. -1.
    10030    2    1    2    0    0  0.00000000000E+00  0.00000000000E+00 -0.10447735419E+04  0.37378932567E+04  0.35889126828E+04 0.  0.
        4    1    3    3  502    0  0.93638619535E+03  0.67190547269E+03  0.91013470065E+03  0.14685444690E+04  0.12699999809E+01 0.  1.
       -4    1    3    3    0  502 -0.93638619535E+03 -0.67190547269E+03 -0.19549082425E+04  0.22693487878E+04  0.12699999809E+01 0. -1.
</event>
<event>
 5   0  0.2238968E-07  0.3590073E+04  0.7818609E-02  0.8092769E-01
        2   -1    0    0  501    0  0.00000000000E+00  0.00000000000E+00  0.21375689786E+04  0.21375689786E+04  0.25500000920E-02 0. -1.
       -2   -1    0    0    0  501  0.00000000000E+00  0.00000000000E+00 -0.15073924402E+04  0.15073924402E+04  0.25500000920E-02 0.  1.
    10030    2    1    2    0    0  0.00000000000E+00  0.00000000000E+00  0.63017653838E+03  0.36449614189E+04  0.35900726003E+04 0.  0.
        3    1    3    3  502    0  0.12089976109E+04 -0.24359335816E+03  0.16393079381E+04  0.20514247423E+04  0.10100000352E+00 0. -1.
       -3    1    3    3    0  502 -0.12089976109E+04  0.24359335816E+03 -0.10091313998E+04  0.15935366765E+04  0.10100000352E+00 0.  1.
</event>
<event>
 5   0  0.7236375E-08  0.3594400E+04  0.7818609E-02  0.8091776E-01
       -1   -1    0    0    0  501  0.00000000000E+00  0.00000000000E+00  0.15135101210E+04  0.15135101210E+04  0.50400001928E-02 0.  1.
        1   -1    0    0  501    0  0.00000000000E+00  0.00000000000E+00 -0.21340638481E+04  0.21340638481E+04  0.50400001928E-02 0. -1.
    10030    2    1    2    0    0  0.00000000000E+00  0.00000000000E+00 -0.62055372712E+03  0.36475739691E+04  0.35943996623E+04 0.  0.
        1    1    3    3  502    0 -0.81025020243E+03 -0.10104020096E+04 -0.15747071596E+04  0.20389017265E+04  0.50400001928E-02 0. -1.
       -1    1    3    3    0  502  0.81025020243E+03  0.10104020096E+04  0.95415343249E+03  0.16086722427E+04  0.50400001928E-02 0.  1.
</event>
<event>
 5   0  0.7236375E-08  0.3634336E+04  0.7818609E-02  0.8082671E-01
        3   -1    0    0  501    0  0.00000000000E+00  0.00000000000E+00  0.11036915544E+04  0.11036915590E+04  0.10100000352E+00 0.  1.
       -3   -1    0    0    0  501  0.00000000000E+00  0.00000000000E+00 -0.29918687897E+04  0.29918687914E+04  0.10100000352E+00 0. -1.
    10030    2    1    2    0    0  0.00000000000E+00  0.00000000000E+00 -0.18881772354E+04  0.40955603504E+04  0.36343364335E+04 0.  0.
        3    1    3    3  502    0 -0.17231762593E+04 -0.34054349992E+01 -0.15941415702E+04  0.23474742541E+04  0.10100000352E+00 0. -1.
       -3    1    3    3    0  502  0.17231762593E+04  0.34054349992E+01 -0.29403566514E+03  0.17480860963E+04  0.10100000352E+00 0.  1.
</event>
<event>
 5   0  0.2309391E-07  0.3594434E+04  0.7818609E-02  0.8091768E-01
        2   -1    0    0  501    0  0.00000000000E+00  0.00000000000E+00  0.21231839670E+04  0.21231839670E+04  0.25500000920E-02 0.  1.
       -2   -1    0    0    0  501  0.00000000000E+00  0.00000000000E+00 -0.15212952868E+04  0.15212952868E+04  0.25500000920E-02 0. -1.
    10030    2    1    2    0    0  0.00000000000E+00  0.00000000000E+00  0.60188868026E+03  0.36444792538E+04  0.35944344546E+04 0.  0.
        4    1    3    3  502    0  0.10612226632E+03 -0.10188240183E+03  0.21170684575E+04  0.21221739857E+04  0.12699999809E+01 0.  1.
       -4    1    3    3    0  502 -0.10612226632E+03  0.10188240183E+03 -0.15151797772E+04  0.15223052681E+04  0.12699999809E+01 0. -1.
</event>
<event>
 5   0  0.2198900E-07  0.3601663E+04  0.7818609E-02  0.8090111E-01
       -2   -1    0    0    0  501  0.00000000000E+00  0.00000000000E+00  0.19762959796E+04  0.19762959796E+04  0.25500000920E-02 0. -1.
        2   -1    0    0  501    0  0.00000000000E+00  0.00000000000E+00 -0.16409451647E+04  0.16409451647E+04  0.25500000920E-02 0.  1.
    10030    2    1    2    0    0  0.00000000000E+00  0.00000000000E+00  0.33535081494E+03  0.36172411443E+04  0.36016625782E+04 0.  0.
        2    1    3    3  502    0 -0.39515285934E+02  0.12598104077E+04  0.14594383899E+04  0.19283786285E+04  0.25500000920E-02 0. -1.
       -2    1    3    3    0  502  0.39515285934E+02 -0.12598104077E+04 -0.11240875750E+04  0.16888625158E+04  0.25500000920E-02 0.  1.
</event>
<event>
 5   0  0.7347303E-08  0.3613920E+04  0.7818609E-02  0.8087311E-01
        1   -1    0    0  501    0  0.00000000000E+00  0.00000000000E+00  0.16987525064E+04  0.16987525064E+04  0.50400001928E-02 0. -1.
       -1   -1    0    0    0  501  0.00000000000E+00  0.00000000000E+00 -0.19220601445E+04  0.19220601445E+04  0.50400001928E-02 0.  1.
    10030    2    1    2    0    0  0.00000000000E+00  0.00000000000E+00 -0.22330763812E+03  0.36208126509E+04  0.36139200257E+04 0.  0.
        2    1    3    3  502    0 -0.56646166383E+03 -0.80381096377E+03 -0.16304981461E+04  0.19040785400E+04  0.25500000920E-02 0.  1.
       -2    1    3    3    0  502  0.56646166383E+03  0.80381096377E+03  0.14071905080E+04  0.17167341110E+04  0.25500000920E-02 0. -1.
</event>
<event>
 5   0  0.7347303E-08  0.3570102E+04  0.7818609E-02  0.8097375E-01
       -1   -1    0    0    0  501  0.00000000000E+00  0.00000000000E+00  0.20765949627E+04  0.20765949627E+04  0.50400001928E-02 0.  1.
        1   -1    0    0  501    0  0.00000000000E+00  0.00000000000E+00 -0.15344384962E+04  0.15344384962E+04  0.50400001928E-02 0. -1.
    10030    2    1    2    0    0  0.00000000000E+00  0.00000000000E+00  0.54215646657E+03  0.36110334589E+04  0.35701021004E+04 0.  0.
        2    1    3    3  502    0 -0.13009127221E+04  0.73664644810E+03  0.12576509616E+04  0.19536396395E+04  0.25500000920E-02 0.  1.
       -2    1    3    3    0  502  0.13009127221E+04 -0.73664644810E+03 -0.71549449499E+03  0.16573938194E+04  0.25500000920E-02 0. -1.
</event>
<event>
 5   0  0.2199902E-07  0.3596412E+04  0.7818609E-02  0.8091314E-01
       -2   -1    0    0    0  501  0.00000000000E+00  0.00000000000E+00  0.32560744843E+04  0.32560744843E+04  0.25500000920E-02 0.  1.
        2   -1    0    0  501    0  0.00000000000E+00  0.00000000000E+00 -0.99308096262E+03  0.99308096263E+03  0.25500000920E-02 0. -1.
    10030    2    1    2    0    0  0.00000000000E+00  0.00000000000E+00  0.22629935217E+04  0.42491554469E+04  0.35964124253E+04 0.  0.
        1    1    3    3  502    0  0.16029808365E+04 -0.81233957831E+03  0.12071719897E+04  0.21648804506E+04  0.50400001928E-02 0.  1.
       -1    1    3    3    0  502 -0.16029808365E+04  0.81233957831E+03  0.10558215320E+04  0.20842749963E+04  0.50400001928E-02 0. -1.
</event>
<event>
 5   0  0.7236375E-08  0.3601479E+04  0.7818609E-02  0.8090153E-01
       -1   -1    0    0    0  501  0.00000000000E+00  0.00000000000E+00  0.99624963920E+03  0.99624963921E+03  0.50400001928E-02 0.  1.
        1   -1    0    0  501    0  0.00000000000E+00  0.00000000000E+00 -0.32548705481E+04  0.32548705481E+04  0.50400001928E-02 0. -1.
    10030    2    1    2    0    0  0.00000000000E+00  0.00000000000E+00 -0.22586209089E+04  0.42511201873E+04  0.36014794789E+04 0.  0.
        1    1    3    3  502    0  0.12057423228E+04 -0.27261523562E+03  0.41628197707E+03  0.13043865609E+04  0.50400001928E-02 0.  1.
       -1    1    3    3    0  502 -0.12057423228E+04  0.27261523562E+03 -0.26749028860E+04  0.29467336265E+04  0.50400001928E-02 0. -1.
</event>
<event>
 5   0  0.7236375E-08  0.3595461E+04  0.7818609E-02  0.8091532E-01
       -1   -1    0    0    0  501  0.00000000000E+00  0.00000000000E+00  0.13234827946E+04  0.13234827947E+04  0.50400001928E-02 0. -1.
        1   -1    0    0  501    0  0.00000000000E+00  0.00000000000E+00 -0.24419164486E+04  0.24419164486E+04  0.50400001928E-02 0.  1.
    10030    2    1    2    0    0  0.00000000000E+00  0.00000000000E+00 -0.11184336540E+04  0.37653992433E+04  0.35954606969E+04 0.  0.
        5    1    3    3  502    0  0.78274838119E+03 -0.38350198021E+03  0.10873696383E+04  0.13936153047E+04  0.46999998093E+01 0. -1.
       -5    1    3    3    0  502 -0.78274838119E+03  0.38350198021E+03 -0.22058032923E+04  0.23717839386E+04  0.46999998093E+01 0.  1.
</event>
<event>
 5   0  0.7236375E-08  0.3602809E+04  0.7818609E-02  0.8089849E-01
       -1   -1    0    0    0  501  0.00000000000E+00  0.00000000000E+00  0.26411625939E+04  0.26411625939E+04  0.50400001928E-02 0. -1.
        1   -1    0    0  501    0  0.00000000000E+00  0.00000000000E+00 -0.12286473344E+04  0.12286473344E+04  0.50400001928E-02 0.  1.
    10030    2    1    2    0    0  0.00000000000E+00  0.00000000000E+00  0.14125152595E+04  0.38698099282E+04  0.36028085603E+04 0.  0.
        1    1    3    3  502    0 -0.15333107441E+03 -0.17725486579E+03  0.26247164472E+04  0.26351596031E+04  0.50400001928E-02 0. -1.
       -1    1    3    3    0  502  0.15333107441E+03  0.17725486579E+03 -0.12122011877E+04  0.12346503251E+04  0.50400001928E-02 0.  1.
</event>
<event>
 5   0  0.7261233E-08  0.3600289E+04  0.7818609E-02  0.8090425E-01
        1   -1    0    0  501    0  0.00000000000E+00  0.00000000000E+00  0.21242680898E+04  0.21242680898E+04  0.50400001928E-02 0.  1.
       -1   -1    0    0    0  501  0.00000000000E+00  0.00000000000E+00 -0.15254762738E+04  0.15254762738E+04  0.50400001928E-02 0. -1.
    10030    2    1    2    0    0  0.00000000000E+00  0.00000000000E+00  0.59879181602E+03  0.36497443637E+04  0.36002891941E+04 0.  0.
        3    1    3    3  502    0  0.13804994813E+04  0.11512804088E+04  0.39713168166E+03  0.18409071080E+04  0.10100000352E+00 0. -1.
       -3    1    3    3    0  502 -0.13804994813E+04 -0.11512804088E+04  0.20166013436E+03  0.18088372557E+04  0.10100000352E+00 0.  1.
</event>
<event>
 5   0  0.2199902E-07  0.3610125E+04  0.7818609E-02  0.8088176E-01
        2   -1    0    0  501    0  0.00000000000E+00  0.00000000000E+00  0.14188713240E+04  0.14188713240E+04  0.25500000920E-02 0. -1.
       -2   -1    0    0    0  501  0.00000000000E+00  0.00000000000E+00 -0.22963683090E+04  0.22963683090E+04  0.25500000920E-02 0.  1.
    10030    2    1    2    0    0  0.00000000000E+00  0.00000000000E+00 -0.87749698497E+03  0.37152396331E+04  0.36101252849E+04 0.  0.
        1    1    3    3  502    0 -0.13097360404E+04  0.95741697846E+03  0.37561723042E+03  0.16652759741E+04  0.50400001928E-02 0. -1.
       -1    1    3    3    0  502  0.13097360404E+04 -0.95741697846E+03 -0.12531142154E+04  0.20499636589E+04  0.50400001928E-02 0.  1.
</event>
<event>
 5   0  0.2199902E-07  0.3597015E+04  0.7818609E-02  0.8091176E-01
        2   -1    0    0  501    0  0.00000000000E+00  0.00000000000E+00  0.23914660346E+04  0.23914660346E+04  0.25500000920E-02 0. -1.
       -2   -1    0    0    0  501  0.00000000000E+00  0.00000000000E+00 -0.13525718271E+04  0.13525718271E+04  0.25500000920E-02 0.  1.
    10030    2    1    2    0    0  0.00000000000E+00  0.00000000000E+00  0.10388942076E+04  0.37440378617E+04  0.35970151981E+04 0.  0.
        1    1    3    3  502    0 -0.11888038915E+04  0.25899138284E+03 -0.85918912548E+03  0.14894754722E+04  0.50400001928E-02 0.  1.
       -1    1    3    3    0  502  0.11888038915E+04 -0.25899138284E+03  0.18980833331E+04  0.22545623895E+04  0.50400001928E-02 0. -1.
</event>
<event>
 5   0  0.2309391E-07  0.3639273E+04  0.7818609E-02  0.8081554E-01
        2   -1    0    0  501    0  0.00000000000E+00  0.00000000000E+00  0.30515498417E+04  0.30515498417E+04  0.25500000920E-02 0.  1.
       -2   -1    0    0    0  501  0.00000000000E+00  0.00000000000E+00 -0.10850479068E+04  0.10850479068E+04  0.25500000920E-02 0. -1.
    10030    2    1    2    0    0  0.00000000000E+00  0.00000000000E+00  0.19665019349E+04  0.41365977486E+04  0.36392734266E+04 0.  0.
        4    1    3    3  502    0 -0.71302402366E+03 -0.15787958376E+04  0.35031015262E+03  0.17674044164E+04  0.12699999809E+01 0.  1.
       -4    1    3    3    0  502  0.71302402366E+03  0.15787958376E+04  0.16161917823E+04  0.23691933322E+04  0.12699999809E+01 0. -1.
</event>
<event>
 5   0  0.7347303E-08  0.3600277E+04  0.7818609E-02  0.8090428E-01
       -1   -1    0    0    0  501  0.00000000000E+00  0.00000000000E+00  0.28538182346E+04  0.28538182347E+04  0.50400001928E-02 0.  1.
        1   -1    0    0  501    0  0.00000000000E+00  0.00000000000E+00 -0.11354959243E+04  0.11354959243E+04  0.50400001928E-02 0. -1.
    10030    2    1    2    0    0  0.00000000000E+00  0.00000000000E+00  0.17183223103E+04  0.39893141590E+04  0.36002771972E+04 0.  0.
        2    1    3    3  502    0 -0.12499713108E+04  0.42007781465E+01 -0.57621306481E+03  0.13763965346E+04  0.25500000920E-02 0. -1.
       -2    1    3    3    0  502  0.12499713108E+04 -0.42007781465E+01  0.22945353751E+04  0.26129176244E+04  0.25500000920E-02 0.  1.
</event>
<event>
 5   0  0.2342606E-07  0.3593796E+04  0.7818609E-02  0.8091914E-01
       -2   -1    0    0    0  501  0.00000000000E+00  0.00000000000E+00  0.11436470506E+04  0.11436470506E+04  0.25500000920E-02 0.  1.
        2   -1    0    0  501    0  0.00000000000E+00  0.00000000000E+00 -0.28232865095E+04  0.28232865095E+04  0.25500000920E-02 0. -1.
    10030    2    1    2    0    0  0.00000000000E+00  0.00000000000E+00 -0.16796394589E+04  0.39669335601E+04  0.35937964826E+04 0.  0.
        5    1    3    3  502    0 -0.10819389475E+04  0.25692225261E+02  0.74353664582E+03  0.13130578092E+04  0.46999998093E+01 0.  1.
       -5    1    3    3    0  502  0.10819389475E+04 -0.25692225261E+02 -0.24231761047E+04  0.26538757509E+04  0.46999998093E+01 0. -1.
</event>
<event>
 5   0  0.2342606E-07  0.3606327E+04  0.7818609E-02  0.8089044E-01
        2   -1    0    0  501    0  0.00000000000E+00  0.00000000000E+00  0.32943298614E+04  0.32943298614E+04  0.25500000920E-02 0.  1.
       -2   -1    0    0    0  501  0.00000000000E+00  0.00000000000E+00 -0.98696805379E+03  0.98696805379E+03  0.25500000920E-02 0. -1.
    10030    2    1    2    0    0  0.00000000000E+00  0.00000000000E+00  0.23073618076E+04  0.42812979152E+04  0.36063268470E+04 0.  0.
        5    1    3    3  502    0  0.12489617049E+04 -0.47764416779E+03 -0.28240708556E+03  0.13666839954E+04  0.46999998093E+01 0. -1.
       -5    1    3    3    0  502 -0.12489617049E+04  0.47764416779E+03  0.25897688931E+04  0.29146139197E+04  0.46999998093E+01 0.  1.
</event>
<event>
 5   0  0.2238968E-07  0.3576487E+04  0.7818609E-02  0.8095899E-01
       -2   -1    0    0    0  501  0.00000000000E+00  0.00000000000E+00  0.12140909590E+04  0.12140909590E+04  0.25500000920E-02 0.  1.
        2   -1    0    0  501    0  0.00000000000E+00  0.00000000000E+00 -0.26339174184E+04  0.26339174184E+04  0.25500000920E-02 0. -1.
    10030    2    1    2    0    0  0.00000000000E+00  0.00000000000E+00 -0.14198264594E+04  0.38480083774E+04  0.35764872848E+04 0.  0.
        3    1    3    3  502    0 -0.96046969423E+03  0.13785693275E+04 -0.51173571306E+02  0.16809444276E+04  0.10100000352E+00 0.  1.
       -3    1    3    3    0  502  0.96046969423E+03 -0.13785693275E+04 -0.13686528881E+04  0.21670639498E+04  0.10100000352E+00 0. -1.
</event>
<event>
 5   0  0.2342606E-07  0.3627426E+04  0.7818609E-02  0.8084238E-01
       -2   -1    0    0    0  501  0.00000000000E+00  0.00000000000E+00  0.19922080068E+04  0.19922080068E+04  0.25500000920E-02 0.  1.
        2   -1    0    0  501    0  0.00000000000E+00  0.00000000000E+00 -0.16512104218E+04  0.16512104218E+04  0.25500000920E-02 0. -1.
    10030    2    1    2    0    0  0.00000000000E+00  0.00000000000E+00  0.34099758496E+03  0.36434184286E+04  0.36274258770E+04 0.  0.
        5    1    3    3  502    0 -0.90607591191E+03  0.62542240183E+03  0.16181741211E+04  0.19572011433E+04  0.46999998093E+01 0.  1.
       -5    1    3    3    0  502  0.90607591191E+03 -0.62542240183E+03 -0.12771765362E+04  0.16862172853E+04  0.46999998093E+01 0. -1.
</event>
<event>
 5   0  0.2198900E-07  0.3591547E+04  0.7818609E-02  0.8092431E-01
        2   -1    0    0  501    0  0.00000000000E+00  0.00000000000E+00  0.16960735673E+04  0.16960735673E+04  0.25500000920E-02 0.  1.
       -2   -1    0    0    0  501  0.00000000000E+00  0.00000000000E+00 -0.19013343477E+04  0.19013343477E+04  0.25500000920E-02 0. -1.
    10030    2    1    2    0    0  0.00000000000E+00  0.00000000000E+00 -0.20526078037E+03  0.35974079150E+04  0.35915472598E+04 0.  0.
        2    1    3    3  502    0  0.90456418074E+02  0.12639945253E+04 -0.13770817451E+04  0.18714215603E+04  0.25500000920E-02 0. -1.
       -2    1    3    3    0  502 -0.90456418074E+02 -0.12639945253E+04  0.11718209647E+04  0.17259863548E+04  0.25500000920E-02 0.  1.
</event>
<event>
 5   0  0.2342606E-07  0.3589427E+04  0.7818609E-02  0.8092918E-01
        2   -1    0    0  501    0  0.00000000000E+00  0.00000000000E+00  0.16484824158E+04  0.16484824158E+04  0.25500000920E-02 0. -1.
       -2   -1    0    0    0  501  0.00000000000E+00  0.00000000000E+00 -0.19539160843E+04  0.19539160843E+04  0.25500000920E-02 0.  1.
    10030    2    1    2    0    0  0.00000000000E+00  0.00000000000E+00 -0.30543366845E+03  0.36023985001E+04  0.35894268662E+04 0.  0.
        5    1    3    3  502    0 -0.13024125910E+04  0.85344415423E+03  0.74288059386E+03  0.17252649502E+04  0.46999998093E+01 0. -1.
       -5    1    3    3    0  502  0.13024125910E+04 -0.85344415423E+03 -0.10483142623E+04  0.18771335499E+04  0.46999998093E+01 0.  1.
</event>
<event>
 5   0  0.2198900E-07  0.3585027E+04  0.7818609E-02  0.8093930E-01
       -2   -1    0    0    0  501  0.00000000000E+00  0.00000000000E+00  0.28265201679E+04  0.28265201679E+04  0.25500000920E-02 0. -1.
        2   -1    0    0  501    0  0.00000000000E+00  0.00000000000E+00 -0.11367707570E+04  0.11367707570E+04  0.25500000920E-02 0.  1.
    10030    2    1    2    0    0  0.00000000000E+00  0.00000000000E+00  0.16897494109E+04  0.39632909249E+04  0.35850274593E+04 0.  0.
        2    1    3    3  502    0 -0.16362683484E+04 -0.49453645392E+03  0.24834359978E+03  0.17273143766E+04  0.25500000920E-02 0. -1.
       -2    1    3    3    0  502  0.16362683484E+04  0.49453645392E+03  0.14414058111E+04  0.22359765483E+04  0.25500000920E-02 0.  1.
</event>
<event>
 5   0  0.2309391E-07  0.3609406E+04  0.7818609E-02  0.8088341E-01
        2   -1    0    0  501    0  0.00000000000E+00  0.00000000000E+00  0.20482593236E+04  0.20482593236E+04  0.25500000920E-02 0. -1.
       -2   -1    0    0    0  501  0.00000000000E+00  0.00000000000E+00 -0.15901075330E+04  0.15901075330E+04  0.25500000920E-02 0.  1.
    10030    2    1    2    0    0  0.00000000000E+00  0.00000000000E+00  0.45815179060E+03  0.36383668566E+04  0.36094058126E+04 0.  0.
        4    1    3    3  502    0 -0.11514071797E+03 -0.57425860331E+03  0.19497936236E+04  0.20358602889E+04  0.12699999809E+01 0. -1.
       -4    1    3    3    0  502  0.11514071797E+03  0.57425860331E+03 -0.14916418330E+04  0.16025065677E+04  0.12699999809E+01 0.  1.
</event>
<event>
 5   0  0.2199902E-07  0.3624447E+04  0.7818609E-02  0.8084915E-01
       -2   -1    0    0    0  501  0.00000000000E+00  0.00000000000E+00  0.19542164217E+04  0.19542164217E+04  0.25500000920E-02 0.  1.
        2   -1    0    0  501    0  0.00000000000E+00  0.00000000000E+00 -0.16805480379E+04  0.16805480379E+04  0.25500000920E-02 0. -1.
    10030    2    1    2    0    0  0.00000000000E+00  0.00000000000E+00  0.27366838386E+03  0.36347644596E+04  0.36244473085E+04 0.  0.
        1    1    3    3  502    0 -0.79648125447E+02 -0.15397661453E+04 -0.81820588813E+03  0.17454754314E+04  0.50400001928E-02 0. -1.
       -1    1    3    3    0  502  0.79648125447E+02  0.15397661453E+04  0.10918742720E+04  0.18892890282E+04  0.50400001928E-02 0.  1.
</event>
<event>
 5   0  0.7236375E-08  0.3601786E+04  0.7818609E-02  0.8090083E-01
        1   -1    0    0  501    0  0.00000000000E+00  0.00000000000E+00  0.20001691744E+04  0.20001691744E+04  0.50400001928E-02 0.  1.
       -1   -1    0    0    0  501  0.00000000000E+00  0.00000000000E+00 -0.16214707757E+04  0.16214707757E+04  0.50400001928E-02 0. -1.
    10030    2    1    2    0    0  0.00000000000E+00  0.00000000000E+00  0.37869839870E+03  0.36216399500E+04  0.36017861473E+04 0.  0.
        1    1    3    3  502    0 -0.14269390519E+04  0.86719970282E+03 -0.48892485902E+03  0.17398959452E+04  0.50400001928E-02 0. -1.
       -1    1    3    3    0  502  0.14269390519E+04 -0.86719970282E+03  0.86762325772E+03  0.18817440048E+04  0.50400001928E-02 0.  1.
</event>
<event>
 5   0  0.7236375E-08  0.3606984E+04  0.7818609E-02  0.8088894E-01
       -1   -1    0    0    0  501  0.00000000000E+00  0.00000000000E+00  0.15874911282E+04  0.15874911283E+04  0.50400001928E-02 0. -1.
        1   -1    0    0  501    0  0.00000000000E+00  0.00000000000E+00 -0.20488824053E+04  0.20488824053E+04  0.50400001928E-02 0.  1.
    10030    2    1    2    0    0  0.00000000000E+00  0.00000000000E+00 -0.46139127702E+03  0.36363735335E+04  0.36069835826E+04 0.  0.
        5    1    3    3  502    0 -0.13544522438E+04  0.48487341744E+03  0.86578644538E+03  0.16790626465E+04  0.46999998093E+01 0. -1.
       -5    1    3    3    0  502  0.13544522438E+04 -0.48487341744E+03 -0.13271777224E+04  0.19573108871E+04  0.46999998093E+01 0.  1.
</event>
<event>
 5   0  0.7347303E-08  0.3735879E+04  0.7818609E-02  0.8060057E-01
        1   -1    0    0  501    0  0.00000000000E+00  0.00000000000E+00  0.31630179802E+04  0.31630179802E+04  0.50400001928E-02 0.  1.
       -1   -1    0    0    0  501  0.00000000000E+00  0.00000000000E+00 -0.11031230847E+04  0.11031230847E+04  0.50400001928E-02 0. -1.
    10030    2    1    2    0    0  0.00000000000E+00  0.00000000000E+00  0.20598948955E+04  0.42661410649E+04  0.37358790941E+04 0.  0.
        2    1    3    3  502    0 -0.14684899700E+04 -0.52804674964E+03 -0.14236266519E+03  0.15670237045E+04  0.25500000920E-02 0. -1.
       -2    1    3    3    0  502  0.14684899700E+04  0.52804674964E+03  0.22022575607E+04  0.26991173605E+04  0.25500000920E-02 0.  1.
</event>
<event>
 5   0  0.7236375E-08  0.3611393E+04  0.7818609E-02  0.8087887E-01
        1   -1    0    0  501    0  0.00000000000E+00  0.00000000000E+00  0.22628033712E+04  0.22628033712E+04  0.50400001928E-02 0. -1.
       -1   -1    0    0    0  501  0.00000000000E+00  0.00000000000E+00 -0.14409293479E+04  0.14409293479E+04  0.50400001928E-02 0.  1.
    10030    2    1    2    0    0  0.00000000000E+00  0.00000000000E+00  0.82187402329E+03  0.37037327191E+04  0.36113929646E+04 0.  0.
        5    1    3    3  502    0 -0.13787588761E+04  0.82853411181E+03 -0.43045025945E+03  0.16651589500E+04  0.46999998093E+01 0.  1.
       -5    1    3    3    0  502  0.13787588761E+04 -0.82853411181E+03  0.12523242827E+04  0.20385737691E+04  0.46999998093E+01 0. -1.
</event>
<event>
 5   0  0.2199902E-07  0.3559819E+04  0.7818609E-02  0.8099758E-01
        2   -1    0    0  501    0  0.00000000000E+00  0.00000000000E+00  0.25388289134E+04  0.25388289134E+04  0.25500000920E-02 0.  1.
       -2   -1    0    0    0  501  0.00000000000E+00  0.00000000000E+00 -0.12478497304E+04  0.12478497304E+04  0.25500000920E-02 0. -1.
    10030    2    1    2    0    0  0.00000000000E+00  0.00000000000E+00  0.12909791831E+04  0.37866786438E+04  0.35598185207E+04 0.  0.
        1    1    3    3  502    0 -0.58142577429E+03  0.11552439440E+04  0.19462999774E+04  0.23368200836E+04  0.50400001928E-02 0.  1.
       -1    1    3    3    0  502  0.58142577429E+03 -0.11552439440E+04 -0.65532079435E+03  0.14498585602E+04  0.50400001928E-02 0. -1.
</event>
<event>
 5   0  0.2309391E-07  0.3638568E+04  0.7818609E-02  0.8081714E-01
       -2   -1    0    0    0  501  0.00000000000E+00  0.00000000000E+00  0.14950755688E+04  0.14950755688E+04  0.25500000920E-02 0. -1.
        2   -1    0    0  501    0  0.00000000000E+00  0.00000000000E+00 -0.22137978371E+04  0.22137978371E+04  0.25500000920E-02 0.  1.
    10030    2    1    2    0    0  0.00000000000E+00  0.00000000000E+00 -0.71872226823E+03  0.37088734059E+04  0.36385684331E+04 0.  0.
        4    1    3    3  502    0  0.91097185636E+03  0.14914160955E+04  0.15597830207E+03  0.17545718955E+04  0.12699999809E+01 0.  1.
       -4    1    3    3    0  502 -0.91097185636E+03 -0.14914160955E+04 -0.87470057030E+03  0.19543015104E+04  0.12699999809E+01 0. -1.
</event>
<event>
 5   0  0.7514289E-08  0.3578680E+04  0.7818609E-02  0.8095393E-01
        1   -1    0    0  501    0  0.00000000000E+00  0.00000000000E+00  0.10470309536E+04  0.10470309536E+04  0.50400001928E-02 0.  1.
       -1   -1    0    0    0  501  0.00000000000E+00  0.00000000000E+00 -0.30579206508E+04  0.30579206508E+04  0.50400001928E-02 0. -1.
    10030    2    1    2    0    0  0.00000000000E+00  0.00000000000E+00 -0.20108896972E+04  0.41049516044E+04  0.35786799662E+04 0.  0.
        4    1    3    3  502    0 -0.65509256659E+03 -0.11087324189E+04 -0.24304310367E+04  0.27505327638E+04  0.12699999809E+01 0. -1.
       -4    1    3    3    0  502  0.65509256659E+03  0.11087324189E+04  0.41954133955E+03  0.13544188407E+04  0.12699999809E+01 0.  1.
</event>
<event>
 5   0  0.7347303E-08  0.3595899E+04  0.7818609E-02  0.8091432E-01
       -1   -1    0    0    0  501  0.00000000000E+00  0.00000000000E+00  0.11590432633E+04  0.11590432633E+04  0.50400001928E-02 0.  1.
        1   -1    0    0  501    0  0.00000000000E+00  0.00000000000E+00 -0.27890432572E+04  0.27890432572E+04  0.50400001928E-02 0. -1.
    10030    2    1    2    0    0  0.00000000000E+00  0.00000000000E+00 -0.16299999939E+04  0.39480865205E+04  0.35958986628E+04 0.  0.
        2    1    3    3  502    0 -0.91286290084E+03 -0.75874751681E+03  0.66767049204E+03  0.13619105536E+04  0.25500000920E-02 0.  1.
       -2    1    3    3    0  502  0.91286290084E+03  0.75874751681E+03 -0.22976704859E+04  0.25861759669E+04  0.25500000920E-02 0. -1.
</event>
<event>
 5   0  0.7347303E-08  0.3600623E+04  0.7818609E-02  0.8090349E-01
       -1   -1    0    0    0  501  0.00000000000E+00  0.00000000000E+00  0.13504382279E+04  0.13504382279E+04  0.50400001928E-02 0. -1.
        1   -1    0    0  501    0  0.00000000000E+00  0.00000000000E+00 -0.24000510080E+04  0.24000510080E+04  0.50400001928E-02 0.  1.
    10030    2    1    2    0    0  0.00000000000E+00  0.00000000000E+00 -0.10496127802E+04  0.37504892359E+04  0.36006225184E+04 0.  0.
        2    1    3    3  502    0 -0.17533826500E+04 -0.36824934934E+03 -0.70868249180E+03  0.19267042261E+04  0.25500000920E-02 0.  1.
       -2    1    3    3    0  502  0.17533826500E+04  0.36824934934E+03 -0.34093028835E+03  0.18237850098E+04  0.25500000920E-02 0. -1.
</event>
<event>
 5   0  0.2198900E-07  0.3614041E+04  0.7818609E-02  0.8087283E-01
       -2   -1    0    0    0  501  0.00000000000E+00  0.00000000000E+00  0.11991382612E+04  0.11991382612E+04  0.25500000920E-02 0.  1.
        2   -1    0    0  501    0  0.00000000000E+00  0.00000000000E+00 -0.27230577124E+04  0.27230577124E+04  0.25500000920E-02 0. -1.
    10030    2    1    2    0    0  0.00000000000E+00  0.00000000000E+00 -0.15239194512E+04  0.39221959737E+04  0.36140407804E+04 0.  0.
        2    1    3    3  502    0 -0.97364528307E+03 -0.19062741159E+03  0.87711503847E+03  0.13242562962E+04  0.25500000920E-02 0.  1.
       -2    1    3    3    0  502  0.97364528307E+03  0.19062741159E+03 -0.24010344897E+04  0.25979396775E+04  0.25500000920E-02 0. -1.
</event>
<event>
 5   0  0.7236375E-08  0.3583546E+04  0.7818609E-02  0.8094271E-01
        1   -1    0    0  501    0  0.00000000000E+00  0.00000000000E+00  0.19277085089E+04  0.19277085089E+04  0.50400001928E-02 0. -1.
       -1   -1    0    0    0  501  0.00000000000E+00  0.00000000000E+00 -0.16654235579E+04  0.16654235579E+04  0.50400001928E-02 0.  1.
    10030    2    1    2    0    0  0.00000000000E+00  0.00000000000E+00  0.26228495100E+03  0.35931320668E+04  0.35835463795E+04 0.  0.
        1    1    3    3  502    0  0.10239345885E+04  0.84773260767E+03 -0.10734697453E+04  0.17086339309E+04  0.50400001928E-02 0.  1.
       -1    1    3    3    0  502 -0.10239345885E+04 -0.84773260767E+03  0.13357546963E+04  0.18844981359E+04  0.50400001928E-02 0. -1.
</event>
<event>
 5   0  0.7514289E-08  0.3611172E+04  0.7818609E-02  0.8087937E-01
        1   -1    0    0  501    0  0.00000000000E+00  0.00000000000E+00  0.22324469695E+04  0.22324469695E+04  0.50400001928E-02 0.  1.
       -1   -1    0    0    0  501  0.00000000000E+00  0.00000000000E+00 -0.14603439242E+04  0.14603439242E+04  0.50400001928E-02 0. -1.
    10030    2    1    2    0    0  0.00000000000E+00  0.00000000000E+00  0.77210304535E+03  0.36927908937E+04  0.36111717589E+04 0.  0.
        4    1    3    3  502    0 -0.38722195247E+03  0.35046380980E+03 -0.13814154164E+04  0.14768466028E+04  0.12699999809E+01 0. -1.
       -4    1    3    3    0  502  0.38722195247E+03 -0.35046380980E+03  0.21535184618E+04  0.22159442909E+04  0.12699999809E+01 0.  1.
</event>
<event>
 5   0  0.7261233E-08  0.3571072E+04  0.7818609E-02  0.8097150E-01
       -1   -1    0    0    0  501  0.00000000000E+00  0.00000000000E+00  0.28623133726E+04  0.28623133726E+04  0.50400001928E-02 0.  1.
        1   -1    0    0  501    0  0.00000000000E+00  0.00000000000E+00 -0.11138326677E+04  0.11138326678E+04  0.50400001928E-02 0. -1.
    10030    2    1    2    0    0  0.00000000000E+00  0.00000000000E+00  0.17484807048E+04  0.39761460404E+04  0.35710716261E+04 0.  0.
        3    1    3    3  502    0  0.82861343251E+03 -0.11355033273E+04 -0.35163284679E+03  0.14490043809E+04  0.10100000352E+00 0. -1.
       -3    1    3    3    0  502 -0.82861343251E+03  0.11355033273E+04  0.21001135516E+04  0.25271416594E+04  0.10100000352E+00 0.  1.
</event>
<event>
 5   0  0.7514289E-08  0.3600547E+04  0.7818609E-02  0.8090366E-01
        1   -1    0    0  501    0  0.00000000000E+00  0.00000000000E+00  0.26042324132E+04  0.26042324132E+04  0.50400001928E-02 0.  1.
       -1   -1    0    0    0  501  0.00000000000E+00  0.00000000000E+00 -0.12445068633E+04  0.12445068633E+04  0.50400001928E-02 0. -1.
    10030    2    1    2    0    0  0.00000000000E+00  0.00000000000E+00  0.13597255498E+04  0.38487392765E+04  0.36005472428E+04 0.  0.
        4    1    3    3  502    0 -0.17907625840E+04  0.62088430427E+02  0.86592413676E+03  0.19901034719E+04  0.12699999809E+01 0.  1.
       -4    1    3    3    0  502  0.17907625840E+04 -0.62088430427E+02  0.49380141306E+03  0.18586358046E+04  0.12699999809E+01 0. -1.
</event>
<event>
 5   0  0.2309391E-07  0.3601385E+04  0.7818609E-02  0.8090175E-01
        2   -1    0    0  501    0  0.00000000000E+00  0.00000000000E+00  0.16793409434E+04  0.16793409434E+04  0.25500000920E-02 0. -1.
       -2   -1    0    0    0  501  0.00000000000E+00  0.00000000000E+00 -0.19308128804E+04  0.19308128804E+04  0.25500000920E-02 0.  1.
    10030    2    1    2    0    0  0.00000000000E+00  0.00000000000E+00 -0.25147193699E+03  0.36101538239E+04  0.36013848027E+04 0.  0.
        4    1    3    3  502    0 -0.14741366821E+04 -0.10292461679E+04 -0.25167816045E+02  0.17980716514E+04  0.12699999809E+01 0. -1.
       -4    1    3    3    0  502  0.14741366821E+04  0.10292461679E+04 -0.22630412095E+03  0.18120821725E+04  0.12699999809E+01 0.  1.
</event>
<event>
 5   0  0.2198900E-07  0.3552884E+04  0.7818609E-02  0.8101370E-01
        2   -1    0    0  501    0  0.00000000000E+00  0.00000000000E+00  0.14566740248E+04  0.14566740248E+04  0.25500000920E-02 0.  1.
       -2   -1    0    0    0  501  0.00000000000E+00  0.00000000000E+00 -0.21664049945E+04  0.21664049945E+04  0.25500000920E-02 0. -1.
    10030    2    1    2    0    0  0.00000000000E+00  0.00000000000E+00 -0.70973096963E+03  0.36230790193E+04  0.35528838330E+04 0.  0.
        2    1    3    3  502    0 -0.85029283409E+03  0.14285225669E+04  0.28366156462E+03  0.16864573849E+04  0.25500000920E-02 0.  1.
       -2    1    3    3    0  502  0.85029283409E+03 -0.14285225669E+04 -0.99339253424E+03  0.19366216344E+04  0.25500000920E-02 0. -1.
</event>
<event>
 5   0  0.2342606E-07  0.3573118E+04  0.7818609E-02  0.8096677E-01
       -2   -1    0    0    0  501  0.00000000000E+00  0.00000000000E+00  0.17980386133E+04  0.17980386133E+04  0.25500000920E-02 0.  1.
        2   -1    0    0  501    0  0.00000000000E+00  0.00000000000E+00 -0.17751526419E+04  0.17751526419E+04  0.25500000920E-02 0. -1.
    10030    2    1    2    0    0  0.00000000000E+00  0.00000000000E+00  0.22885971396E+02  0.35731912551E+04  0.35731179631E+04 0.  0.
        5    1    3    3  502    0  0.16977831179E+04  0.36936802013E+03 -0.40434271254E+03  0.17839325572E+04  0.46999998093E+01 0. -1.
       -5    1    3    3    0  502 -0.16977831179E+04 -0.36936802013E+03  0.42722868394E+03  0.17892586979E+04  0.46999998093E+01 0.  1.
</event>
<event>
 5   0  0.2238968E-07  0.3600197E+04  0.7818609E-02  0.8090447E-01
       -2   -1    0    0    0  501  0.00000000000E+00  0.00000000000E+00  0.24576191750E+04  0.24576191750E+04  0.25500000920E-02 0. -1.
        2   -1    0    0  501    0  0.00000000000E+00  0.00000000000E+00 -0.13184934238E+04  0.13184934238E+04  0.25500000920E-02 0.  1.
    10030    2    1    2    0    0  0.00000000000E+00  0.00000000000E+00  0.11391257512E+04  0.37761125989E+04  0.36001970616E+04 0.  0.
        3    1    3    3  502    0  0.43753314436E+02 -0.13342534032E+04 -0.69700489580E+03  0.15059755414E+04  0.10100000352E+00 0.  1.
       -3    1    3    3    0  502 -0.43753314436E+02  0.13342534032E+04  0.18361306470E+04  0.22701370574E+04  0.10100000352E+00 0. -1.
</event>
<event>
 5   0  0.2199902E-07  0.3602203E+04  0.7818609E-02  0.8089987E-01
       -2   -1    0    0    0  501  0.00000000000E+00  0.00000000000E+00  0.13020033199E+04  0.13020033199E+04  0.25500000920E-02 0. -1.
        2   -1    0    0  501    0  0.00000000000E+00  0.00000000000E+00 -0.24915196990E+04  0.24915196990E+04  0.25500000920E-02 0.  1.
    10030    2    1    2    0    0  0.00000000000E+00  0.00000000000E+00 -0.11895163791E+04  0.37935230189E+04  0.36022031701E+04 0.  0.
        1    1    3    3  502    0  0.12266874273E+04  0.67524188212E+03  0.59821507368E+03  0.15226867432E+04  0.50400001928E-02 0. -1.
       -1    1    3    3    0  502 -0.12266874273E+04 -0.67524188212E+03 -0.17877314528E+04  0.22708362757E+04  0.50400001928E-02 0.  1.
</event>
<event>
 5   0  0.7261233E-08  0.3458830E+04  0.7818609E-02  0.8123617E-01
       -1   -1    0    0    0  501  0.00000000000E+00  0.00000000000E+00  0.13025663939E+04  0.13025663940E+04  0.50400001928E-02 0. -1.
        1   -1    0    0  501    0  0.00000000000E+00  0.00000000000E+00 -0.22961413561E+04  0.22961413561E+04  0.50400001928E-02 0.  1.
    10030    2    1    2    0    0  0.00000000000E+00  0.00000000000E+00 -0.99357496219E+03  0.35987077501E+04  0.34588301874E+04 0.  0.
        3    1    3    3  502    0  0.12422425035E+04 -0.11131885588E+04 -0.21679196314E+02  0.16681802069E+04  0.10100000352E+00 0. -1.
       -3    1    3    3    0  502 -0.12422425035E+04  0.11131885588E+04 -0.97189576588E+03  0.19305275432E+04  0.10100000352E+00 0.  1.
</event>
<event>
 5   0  0.7261233E-08  0.3586480E+04  0.7818609E-02  0.8093596E-01
       -1   -1    0    0    0  501  0.00000000000E+00  0.00000000000E+00  0.11608780379E+04  0.11608780380E+04  0.50400001928E-02 0.  1.
        1   -1    0    0  501    0  0.00000000000E+00  0.00000000000E+00 -0.27700674874E+04  0.27700674874E+04  0.50400001928E-02 0. -1.
    10030    2    1    2    0    0  0.00000000000E+00  0.00000000000E+00 -0.16091894494E+04  0.39309455253E+04  0.35864804529E+04 0.  0.
        3    1    3    3  502    0 -0.11564611150E+04 -0.33015383857E+03  0.65331324472E+03  0.13686570328E+04  0.10100000352E+00 0.  1.
       -3    1    3    3    0  502  0.11564611150E+04  0.33015383857E+03 -0.22625026942E+04  0.25622884925E+04  0.10100000352E+00 0. -1.
</event>
<event>
 5   0  0.2238968E-07  0.3598009E+04  0.7818609E-02  0.8090948E-01
        2   -1    0    0  501    0  0.00000000000E+00  0.00000000000E+00  0.12317092736E+04  0.12317092736E+04  0.25500000920E-02 0.  1.
       -2   -1    0    0    0  501  0.00000000000E+00  0.00000000000E+00 -0.26275818874E+04  0.26275818874E+04  0.25500000920E-02 0. -1.
    10030    2    1    2    0    0  0.00000000000E+00  0.00000000000E+00 -0.13958726138E+04  0.38592911610E+04  0.35980088815E+04 0.  0.
        3    1    3    3  502    0  0.73472840241E+03 -0.15684551924E+04 -0.17626481216E+03  0.17409614614E+04  0.10100000352E+00 0.  1.
       -3    1    3    3    0  502 -0.73472840241E+03  0.15684551924E+04 -0.12196078017E+04  0.21183296996E+04  0.10100000352E+00 0. -1.
</event>
<event>
 5   0  0.7514289E-08  0.3612926E+04  0.7818609E-02  0.8087537E-01
       -1   -1    0    0    0  501  0.00000000000E+00  0.00000000000E+00  0.23745488833E+04  0.23745488833E+04  0.50400001928E-02 0.  1.
        1   -1    0    0  501    0  0.00000000000E+00  0.00000000000E+00 -0.13742858235E+04  0.13742858235E+04  0.50400001928E-02 0. -1.
    10030    2    1    2    0    0  0.00000000000E+00  0.00000000000E+00  0.10002630598E+04  0.37488347069E+04  0.36129261646E+04 0.  0.
        4    1    3    3  502    0  0.46315677702E+03  0.11278295627E+04  0.18832382394E+04  0.22434575106E+04  0.12699999809E+01 0.  1.
       -4    1    3    3    0  502 -0.46315677702E+03 -0.11278295627E+04 -0.88297517957E+03  0.15053771963E+04  0.12699999809E+01 0. -1.
</event>
<event>
 5   0  0.2199902E-07  0.3569698E+04  0.7818609E-02  0.8097468E-01
        2   -1    0    0  501    0  0.00000000000E+00  0.00000000000E+00  0.23564083224E+04  0.23564083224E+04  0.25500000920E-02 0.  1.
       -2   -1    0    0    0  501  0.00000000000E+00  0.00000000000E+00 -0.13519247807E+04  0.13519247807E+04  0.25500000920E-02 0. -1.
    10030    2    1    2    0    0  0.00000000000E+00  0.00000000000E+00  0.10044835417E+04  0.37083331031E+04  0.35696984772E+04 0.  0.
        1    1    3    3  502    0  0.48910725275E+03 -0.15326833133E+04 -0.30065369698E+03  0.16366846640E+04  0.50400001928E-02 0. -1.
       -1    1    3    3    0  502 -0.48910725275E+03  0.15326833133E+04  0.13051372387E+04  0.20716484392E+04  0.50400001928E-02 0.  1.
</event>
<event>
 5   0  0.2238968E-07  0.3605141E+04  0.7818609E-02  0.8089315E-01
       -2   -1    0    0    0  501  0.00000000000E+00  0.00000000000E+00  0.24193977413E+04  0.24193977413E+04  0.25500000920E-02 0. -1.
        2   -1    0    0  501    0  0.00000000000E+00  0.00000000000E+00 -0.13430037369E+04  0.13430037369E+04  0.25500000920E-02 0.  1.
    10030    2    1    2    0    0  0.00000000000E+00  0.00000000000E+00  0.10763940044E+04  0.37624014782E+04  0.36051408891E+04 0.  0.
        3    1    3    3  502    0 -0.66713192860E+03  0.10795029447E+04 -0.79782914957E+03  0.14989739757E+04  0.10100000352E+00 0.  1.
       -3    1    3    3    0  502  0.66713192860E+03 -0.10795029447E+04  0.18742231539E+04  0.22634275024E+04  0.10100000352E+00 0. -1.
</event>
<event>
 5   0  0.7261233E-08  0.3373342E+04  0.7818609E-02  0.8144480E-01
        1   -1    0    0  501    0  0.00000000000E+00  0.00000000000E+00  0.23547870162E+04  0.23547870162E+04  0.50400001928E-02 0.  1.
       -1   -1    0    0    0  501  0.00000000000E+00  0.00000000000E+00 -0.12081172983E+04  0.12081172984E+04  0.50400001928E-02 0. -1.
    10030    2    1    2    0    0  0.00000000000E+00  0.00000000000E+00  0.11466697179E+04  0.35629043146E+04  0.33733419206E+04 0.  0.
        3    1    3    3  502    0  0.16219859059E+04  0.41700850347E+03  0.78490231688E+03  0.18495421131E+04  0.10100000352E+00 0.  1.
       -3    1    3    3    0  502 -0.16219859059E+04 -0.41700850347E+03  0.36176740101E+03  0.17133622015E+04  0.10100000352E+00 0. -1.
</event>
<event>
 5   0  0.2238968E-07  0.3625060E+04  0.7818609E-02  0.8084775E-01
        2   -1    0    0  501    0  0.00000000000E+00  0.00000000000E+00  0.19807743841E+04  0.19807743841E+04  0.25500000920E-02 0.  1.
       -2   -1    0    0    0  501  0.00000000000E+00  0.00000000000E+00 -0.16585762490E+04  0.16585762490E+04  0.25500000920E-02 0. -1.
    10030    2    1    2    0    0  0.00000000000E+00  0.00000000000E+00  0.32219813510E+03  0.36393506330E+04  0.36250601915E+04 0.  0.
        3    1    3    3  502    0  0.74845036365E+03 -0.16018155916E+04 -0.23956592245E+03  0.17842037378E+04  0.10100000352E+00 0. -1.
       -3    1    3    3    0  502 -0.74845036365E+03  0.16018155916E+04  0.56176405755E+03  0.18551468953E+04  0.10100000352E+00 0.  1.
</event>
<event>
 5   0  0.2199902E-07  0.3594376E+04  0.7818609E-02  0.8091781E-01
        2   -1    0    0  501    0  0.00000000000E+00  0.00000000000E+00  0.13335862480E+04  0.13335862480E+04  0.25500000920E-02 0. -1.
       -2   -1    0    0    0  501  0.00000000000E+00  0.00000000000E+00 -0.24219540512E+04  0.24219540512E+04  0.25500000920E-02 0.  1.
    10030    2    1    2    0    0  0.00000000000E+00  0.00000000000E+00 -0.10883678032E+04  0.37555402992E+04  0.35943759491E+04 0.  0.
        1    1    3    3  502    0 -0.11188380231E+04 -0.79417649432E+03  0.66862487118E+03  0.15262942195E+04  0.50400001928E-02 0. -1.
       -1    1    3    3    0  502  0.11188380231E+04  0.79417649432E+03 -0.17569926744E+04  0.22292460797E+04  0.50400001928E-02 0.  1.
</event>
<event>
 5   0  0.7347303E-08  0.3561868E+04  0.7818609E-02  0.8099283E-01
        1   -1    0    0  501    0  0.00000000000E+00  0.00000000000E+00  0.15431145989E+04  0.15431145989E+04  0.50400001928E-02 0. -1.
       -1   -1    0    0    0  501  0.00000000000E+00  0.00000000000E+00 -0.20554053073E+04  0.20554053073E+04  0.50400001928E-02 0.  1.
    10030    2    1    2    0    0  0.00000000000E+00  0.00000000000E+00 -0.51229070846E+03  0.35985199062E+04  0.35618680134E+04 0.  0.
        2    1    3    3  502    0  0.53087257652E+02 -0.13915570911E+04  0.86544797569E+03  0.16395882390E+04  0.25500000920E-02 0. -1.
       -2    1    3    3    0  502 -0.53087257652E+02  0.13915570911E+04 -0.13777386841E+04  0.19589316672E+04  0.25500000920E-02 0.  1.
</event>
<event>
 5   0  0.2309391E-07  0.3593190E+04  0.7818609E-02  0.8092053E-01
       -2   -1    0    0    0  501  0.00000000000E+00  0.00000000000E+00  0.18212236145E+04  0.18212236145E+04  0.25500000920E-02 0.  1.
        2   -1    0    0  501    0  0.00000000000E+00  0.00000000000E+00 -0.17722994545E+04  0.17722994545E+04  0.25500000920E-02 0. -1.
    10030    2    1    2    0    0  0.00000000000E+00  0.00000000000E+00  0.48924160007E+02  0.35935230690E+04  0.35931900136E+04 0.  0.
        4    1    3    3  502    0 -0.34966132181E+03  0.55104970994E+03 -0.16495608036E+04  0.17739704846E+04  0.12699999809E+01 0. -1.
       -4    1    3    3    0  502  0.34966132181E+03 -0.55104970994E+03  0.16984849636E+04  0.18195525843E+04  0.12699999809E+01 0.  1.
</event>
<event>
 5   0  0.2198900E-07  0.3613564E+04  0.7818609E-02  0.8087392E-01
       -2   -1    0    0    0  501  0.00000000000E+00  0.00000000000E+00  0.13567836395E+04  0.13567836395E+04  0.25500000920E-02 0.  1.
        2   -1    0    0  501    0  0.00000000000E+00  0.00000000000E+00 -0.24060290541E+04  0.24060290541E+04  0.25500000920E-02 0. -1.
    10030    2    1    2    0    0  0.00000000000E+00  0.00000000000E+00 -0.10492454146E+04  0.37628126937E+04  0.36135638126E+04 0.  0.
        2    1    3    3  502    0 -0.64056792681E+03 -0.13963774654E+04 -0.15148260488E+04  0.21575206263E+04  0.25500000920E-02 0. -1.
       -2    1    3    3    0  502  0.64056792681E+03  0.13963774654E+04  0.46558063423E+03  0.16052920674E+04  0.25500000920E-02 0.  1.
</event>
<event>
 5   0  0.7261233E-08  0.3602694E+04  0.7818609E-02  0.8089875E-01
       -1   -1    0    0    0  501  0.00000000000E+00  0.00000000000E+00  0.15344040277E+04  0.15344040277E+04  0.50400001928E-02 0.  1.
        1   -1    0    0  501    0  0.00000000000E+00  0.00000000000E+00 -0.21147309325E+04  0.21147309325E+04  0.50400001928E-02 0. -1.
    10030    2    1    2    0    0  0.00000000000E+00  0.00000000000E+00 -0.58032690483E+03  0.36491349602E+04  0.36026943586E+04 0.  0.
        3    1    3    3  502    0  0.75326557134E+03 -0.35358069646E+03  0.13280613681E+04  0.15672189820E+04  0.10100000352E+00 0.  1.
       -3    1    3    3    0  502 -0.75326557134E+03  0.35358069646E+03 -0.19083882729E+04  0.20819159782E+04  0.10100000352E+00 0. -1.
</event>
<event>
 5   0  0.7514289E-08  0.3595381E+04  0.7818609E-02  0.8091551E-01
       -1   -1    0    0    0  501  0.00000000000E+00  0.00000000000E+00  0.15318352182E+04  0.15318352182E+04  0.50400001928E-02 0.  1.
        1   -1    0    0  501    0  0.00000000000E+00  0.00000000000E+00 -0.21096857265E+04  0.21096857265E+04  0.50400001928E-02 0. -1.
    10030    2    1    2    0    0  0.00000000000E+00  0.00000000000E+00 -0.57785050825E+03  0.36415209447E+04  0.35953808673E+04 0.  0.
        4    1    3    3  502    0  0.15788681527E+03  0.10580579708E+04  0.11743555621E+04  0.15885614610E+04  0.12699999809E+01 0.  1.
       -4    1    3    3    0  502 -0.15788681527E+03 -0.10580579708E+04 -0.17522060704E+04  0.20529594838E+04  0.12699999809E+01 0. -1.
</event>
<event>
 5   0  0.7236375E-08  0.3354938E+04  0.7818609E-02  0.8149056E-01
       -1   -1    0    0    0  501  0.00000000000E+00  0.00000000000E+00  0.16388750932E+04  0.16388750933E+04  0.50400001928E-02 0. -1.
        1   -1    0    0  501    0  0.00000000000E+00  0.00000000000E+00 -0.17169712832E+04  0.17169712832E+04  0.50400001928E-02 0.  1.
    10030    2    1    2    0    0  0.00000000000E+00  0.00000000000E+00 -0.78096189998E+02  0.33558463765E+04  0.33549375386E+04 0.  0.
        5    1    3    3  502    0 -0.57138216115E+02 -0.10819464639E+04  0.12419261892E+04  0.16481127619E+04  0.46999998093E+01 0. -1.
       -5    1    3    3    0  502  0.57138216115E+02  0.10819464639E+04 -0.13200223792E+04  0.17077336146E+04  0.46999998093E+01 0.  1.
</event>
<event>
 5   0  0.7514289E-08  0.3593957E+04  0.7818609E-02  0.8091877E-01
       -1   -1    0    0    0  501  0.00000000000E+00  0.00000000000E+00  0.13670991512E+04  0.13670991512E+04  0.50400001928E-02 0. -1.
        1   -1    0    0  501    0  0.00000000000E+00  0.00000000000E+00 -0.23620324192E+04  0.23620324192E+04  0.50400001928E-02 0.  1.
    10030    2    1    2    0    0  0.00000000000E+00  0.00000000000E+00 -0.99493326806E+03  0.37291315704E+04  0.35939574374E+04 0.  0.
        4    1    3    3  502    0  0.15371889842E+04 -0.64071890439E+03 -0.11978814628E+04  0.20514366428E+04  0.12699999809E+01 0. -1.
       -4    1    3    3    0  502 -0.15371889842E+04  0.64071890439E+03  0.20294819473E+03  0.16776949276E+04  0.12699999809E+01 0.  1.
</event>
<event>
 5   0  0.7236375E-08  0.3627576E+04  0.7818609E-02  0.8084204E-01
        1   -1    0    0  501    0  0.00000000000E+00  0.00000000000E+00  0.20822217962E+04  0.20822217962E+04  0.50400001928E-02 0.  1.
       -1   -1    0    0    0  501  0.00000000000E+00  0.00000000000E+00 -0.15799599414E+04  0.15799599414E+04  0.50400001928E-02 0. -1.
    10030    2    1    2    0    0  0.00000000000E+00  0.00000000000E+00  0.50226185483E+03  0.36621817376E+04  0.36275760652E+04 0.  0.
        1    1    3    3  502    0 -0.23589966113E+03  0.17385212539E+04 -0.21339139789E+03  0.17673824399E+04  0.50400001928E-02 0. -1.
       -1    1    3    3    0  502  0.23589966113E+03 -0.17385212539E+04  0.71565325272E+03  0.18947992977E+04  0.50400001928E-02 0.  1.
</event>
<event>
 5   0  0.2342606E-07  0.3605469E+04  0.7818609E-02  0.8089240E-01
       -2   -1    0    0    0  501  0.00000000000E+00  0.00000000000E+00  0.21850659358E+04  0.21850659358E+04  0.25500000920E-02 0.  1.
        2   -1    0    0  501    0  0.00000000000E+00  0.00000000000E+00 -0.14873013850E+04  0.14873013850E+04  0.25500000920E-02 0. -1.
    10030    2    1    2    0    0  0.00000000000E+00  0.00000000000E+00  0.69776455084E+03  0.36723673209E+04  0.36054689530E+04 0.  0.
        5    1    3    3  502    0  0.31454688393E+02  0.17341528510E+03  0.21762634244E+04  0.21833934233E+04  0.46999998093E+01 0.  1.
       -5    1    3    3    0  502 -0.31454688393E+02 -0.17341528510E+03 -0.14784988736E+04  0.14889738976E+04  0.46999998093E+01 0. -1.
</event>
<event>
 5   0  0.7514289E-08  0.3553259E+04  0.7818609E-02  0.8101283E-01
       -1   -1    0    0    0  501  0.00000000000E+00  0.00000000000E+00  0.21357963864E+04  0.21357963864E+04  0.50400001928E-02 0. -1.
        1   -1    0    0  501    0  0.00000000000E+00  0.00000000000E+00 -0.14778618493E+04  0.14778618493E+04  0.50400001928E-02 0.  1.
    10030    2    1    2    0    0  0.00000000000E+00  0.00000000000E+00  0.65793453704E+03  0.36136582357E+04  0.35532587845E+04 0.  0.
        4    1    3    3  502    0 -0.53925192659E+03 -0.13895591011E+04  0.13122228189E+04  0.19858493082E+04  0.12699999809E+01 0. -1.
       -4    1    3    3    0  502  0.53925192659E+03  0.13895591011E+04 -0.65428828183E+03  0.16278089275E+04  0.12699999809E+01 0.  1.
</event>
<event>
 5   0  0.2342606E-07  0.3447015E+04  0.7818609E-02  0.8126463E-01
        2   -1    0    0  501    0  0.00000000000E+00  0.00000000000E+00  0.16773996346E+04  0.16773996346E+04  0.25500000920E-02 0. -1.
       -2   -1    0    0    0  501  0.00000000000E+00  0.00000000000E+00 -0.17708827108E+04  0.17708827108E+04  0.25500000920E-02 0.  1.
    10030    2    1    2    0    0  0.00000000000E+00  0.00000000000E+00 -0.93483076179E+02  0.34482823454E+04  0.34470149475E+04 0.  0.
        5    1    3    3  502    0  0.93731737838E+03 -0.50012615926E+03  0.13108741986E+04  0.16873361543E+04  0.46999998093E+01 0. -1.
       -5    1    3    3    0  502 -0.93731737838E+03  0.50012615926E+03 -0.14043572748E+04  0.17609461912E+04  0.46999998093E+01 0.  1.
</event>
<event>
 5   0  0.2238968E-07  0.3600314E+04  0.7818609E-02  0.8090420E-01
       -2   -1    0    0    0  501  0.00000000000E+00  0.00000000000E+00  0.15836842991E+04  0.15836842991E+04  0.25500000920E-02 0.  1.
        2   -1    0    0  501    0  0.00000000000E+00  0.00000000000E+00 -0.20462188473E+04  0.20462188473E+04  0.25500000920E-02 0. -1.
    10030    2    1    2    0    0  0.00000000000E+00  0.00000000000E+00 -0.46253454812E+03  0.36299031464E+04  0.36003136869E+04 0.  0.
        3    1    3    3  502    0 -0.17303037624E+04 -0.20935293026E+02 -0.73150552045E+03  0.18786936241E+04  0.10100000352E+00 0. -1.
       -3    1    3    3    0  502  0.17303037624E+04  0.20935293026E+02  0.26897097233E+03  0.17512095223E+04  0.10100000352E+00 0.  1.
</event>
<event>
 5   0  0.2238968E-07  0.3588731E+04  0.7818609E-02  0.8093078E-01
        2   -1    0    0  501    0  0.00000000000E+00  0.00000000000E+00  0.21855162817E+04  0.21855162817E+04  0.25500000920E-02 0.  1.
       -2   -1    0    0    0  501  0.00000000000E+00  0.00000000000E+00 -0.14732208109E+04  0.14732208109E+04  0.25500000920E-02 0. -1.
    10030    2    1    2    0    0  0.00000000000E+00  0.00000000000E+00  0.71229547085E+03  0.36587370926E+04  0.35887312905E+04 0.  0.
        3    1    3    3  502    0  0.52616082343E+03  0.23257454377E+03 -0.13766580780E+04  0.14920199745E+04  0.10100000352E+00 0. -1.
       -3    1    3    3    0  502 -0.52616082343E+03 -0.23257454377E+03  0.20889535488E+04  0.21667171181E+04  0.10100000352E+00 0.  1.
</event>
<event>
 5   0  0.7236375E-08  0.3600779E+04  0.7818609E-02  0.8090313E-01
       -1   -1    0    0    0  501  0.00000000000E+00  0.00000000000E+00  0.14349709590E+04  0.14349709590E+04  0.50400001928E-02 0. -1.
        1   -1    0    0  501    0  0.00000000000E+00  0.00000000000E+00 -0.22588632585E+04  0.22588632585E+04  0.50400001928E-02 0.  1.
    10030    2    1    2    0    0  0.00000000000E+00  0.00000000000E+00 -0.82389229948E+03  0.36938342175E+04  0.36007794580E+04 0.  0.
        5    1    3    3  502    0  0.33310489305E+03 -0.14715119328E+04  0.59582373516E+03  0.16221387893E+04  0.46999998093E+01 0. -1.
       -5    1    3    3    0  502 -0.33310489305E+03  0.14715119328E+04 -0.14197160346E+04  0.20716954282E+04  0.46999998093E+01 0.  1.
</event>
<event>
 5   0  0.2342606E-07  0.3638874E+04  0.7818609E-02  0.8081645E-01
        2   -1    0    0  501    0  0.00000000000E+00  0.00000000000E+00  0.23336565295E+04  0.23336565295E+04  0.25500000920E-02 0.  1.
       -2   -1    0    0    0  501  0.00000000000E+00  0.00000000000E+00 -0.14185256487E+04  0.14185256487E+04  0.25500000920E-02 0. -1.
    10030    2    1    2    0    0  0.00000000000E+00  0.00000000000E+00  0.91513088077E+03  0.37521821783E+04  0.36388743548E+04 0.  0.
        5    1    3    3  502    0  0.78709799182E+02  0.55326040509E+03 -0.13278338916E+04  0.14406447314E+04  0.46999998093E+01 0. -1.
       -5    1    3    3    0  502 -0.78709799182E+02 -0.55326040509E+03  0.22429647724E+04  0.23115374469E+04  0.46999998093E+01 0.  1.
</event>
<event>
 5   0  0.2238968E-07  0.3595827E+04  0.7818609E-02  0.8091448E-01
       -2   -1    0    0    0  501  0.00000000000E+00  0.00000000000E+00  0.14546291269E+04  0.14546291269E+04  0.25500000920E-02 0. -1.
        2   -1    0    0  501    0  0.00000000000E+00  0.00000000000E+00 -0.22222108836E+04  0.22222108836E+04  0.25500000920E-02 0.  1.
    10030    2    1    2    0    0  0.00000000000E+00  0.00000000000E+00 -0.76758175672E+03  0.36768400105E+04  0.35958268464E+04 0.  0.
        3    1    3    3  502    0  0.12547191322E+04  0.12815912751E+04 -0.51189867942E+03  0.18651639513E+04  0.10100000352E+00 0.  1.
       -3    1    3    3    0  502 -0.12547191322E+04 -0.12815912751E+04 -0.25568307729E+03  0.18116760591E+04  0.10100000352E+00 0. -1.
</event>
<event>
 5   0  0.7261233E-08  0.3408791E+04  0.7818609E-02  0.8135752E-01
       -1   -1    0    0    0  501  0.00000000000E+00  0.00000000000E+00  0.13938022501E+04  0.13938022501E+04  0.50400001928E-02 0. -1.
        1   -1    0    0  501    0  0.00000000000E+00  0.00000000000E+00 -0.20842011056E+04  0.20842011056E+04  0.50400001928E-02 0.  1.
    10030    2    1    2    0    0  0.00000000000E+00  0.00000000000E+00 -0.69039885557E+03  0.34780033557E+04  0.34087910998E+04 0.  0.
        3    1    3    3  502    0 -0.55505025560E+03 -0.13627211342E+04 -0.12228237295E+04  0.19132139346E+04  0.10100000352E+00 0.  1.
       -3    1    3    3    0  502  0.55505025560E+03  0.13627211342E+04  0.53242487389E+03  0.15647894211E+04  0.10100000352E+00 0. -1.
</event>
<event>
 5   0  0.7261233E-08  0.3598924E+04  0.7818609E-02  0.8090738E-01
       -1   -1    0    0    0  501  0.00000000000E+00  0.00000000000E+00  0.12230049915E+04  0.12230049916E+04  0.50400001928E-02 0. -1.
        1   -1    0    0  501    0  0.00000000000E+00  0.00000000000E+00 -0.26476291424E+04  0.26476291424E+04  0.50400001928E-02 0.  1.
    10030    2    1    2    0    0  0.00000000000E+00  0.00000000000E+00 -0.14246241509E+04  0.38706341340E+04  0.35989240931E+04 0.  0.
        3    1    3    3  502    0 -0.24376773810E+03  0.43329292737E+03 -0.25723005338E+04  0.26199037229E+04  0.10100000352E+00 0.  1.
       -3    1    3    3    0  502  0.24376773810E+03 -0.43329292737E+03  0.11476763829E+04  0.12507304111E+04  0.10100000352E+00 0. -1.
</event>
<event>
 5   0  0.7514289E-08  0.3637277E+04  0.7818609E-02  0.8082006E-01
        1   -1    0    0  501    0  0.00000000000E+00  0.00000000000E+00  0.17779846982E+04  0.17779846982E+04  0.50400001928E-02 0.  1.
       -1   -1    0    0    0  501  0.00000000000E+00  0.00000000000E+00 -0.18602216612E+04  0.18602216612E+04  0.50400001928E-02 0. -1.
    10030    2    1    2    0    0  0.00000000000E+00  0.00000000000E+00 -0.82236963078E+02  0.36382063594E+04  0.36372768104E+04 0.  0.
        4    1    3    3  502    0 -0.46632018232E+03 -0.37446369769E+02 -0.17990053222E+04  0.18588379448E+04  0.12699999809E+01 0. -1.
       -4    1    3    3    0  502  0.46632018232E+03  0.37446369769E+02  0.17167683591E+04  0.17793684146E+04  0.12699999809E+01 0.  1.
</event>
<event>
 5   0  0.2199902E-07  0.3610211E+04  0.7818609E-02  0.8088157E-01
        2   -1    0    0  501    0  0.00000000000E+00  0.00000000000E+00  0.13338315520E+04  0.13338315520E+04  0.25500000920E-02 0.  1.
       -2   -1    0    0    0  501  0.00000000000E+00  0.00000000000E+00 -0.24428921120E+04  0.24428921120E+04  0.25500000920E-02 0. -1.
    10030    2    1    2    0    0  0.00000000000E+00  0.00000000000E+00 -0.11090605601E+04  0.37767236640E+04  0.36102113939E+04 0.  0.
        1    1    3    3  502    0 -0.77203262634E+03 -0.79039749688E+03 -0.20478291338E+04  0.23268791847E+04  0.50400001928E-02 0. -1.
       -1    1    3    3    0  502  0.77203262634E+03  0.79039749688E+03  0.93876857368E+03  0.14498444793E+04  0.50400001928E-02 0.  1.
</event>
<event>
 5   0  0.2342606E-07  0.3590799E+04  0.7818609E-02  0.8092603E-01
       -2   -1    0    0    0  501  0.00000000000E+00  0.00000000000E+00  0.11271418875E+04  0.11271418875E+04  0.25500000920E-02 0.  1.
        2   -1    0    0  501    0  0.00000000000E+00  0.00000000000E+00 -0.28598522721E+04  0.28598522721E+04  0.25500000920E-02 0. -1.
    10030    2    1    2    0    0  0.00000000000E+00  0.00000000000E+00 -0.17327103846E+04  0.39869941596E+04  0.35907989573E+04 0.  0.
        5    1    3    3  502    0 -0.44090795811E+03  0.21703027121E+03 -0.27837149687E+04  0.28267637119E+04  0.46999998093E+01 0. -1.
       -5    1    3    3    0  502  0.44090795811E+03 -0.21703027121E+03  0.10510045840E+04  0.11602304477E+04  0.46999998093E+01 0.  1.
</event>
<event>
 5   0  0.2198900E-07  0.3604118E+04  0.7818609E-02  0.8089549E-01
       -2   -1    0    0    0  501  0.00000000000E+00  0.00000000000E+00  0.14257711854E+04  0.14257711854E+04  0.25500000920E-02 0. -1.
        2   -1    0    0  501    0  0.00000000000E+00  0.00000000000E+00 -0.22776562117E+04  0.22776562117E+04  0.25500000920E-02 0.  1.
    10030    2    1    2    0    0  0.00000000000E+00  0.00000000000E+00 -0.85188502628E+03  0.37034273971E+04  0.36041179764E+04 0.  0.
        2    1    3    3  502    0 -0.91329641214E+02 -0.15944648228E+04 -0.12836627134E+04  0.20490117463E+04  0.25500000920E-02 0.  1.
       -2    1    3    3    0  502  0.91329641214E+02  0.15944648228E+04  0.43177768714E+03  0.16544156508E+04  0.25500000920E-02 0. -1.
</event>
<event>
 5   0  0.2238968E-07  0.3611526E+04  0.7818609E-02  0.8087857E-01
       -2   -1    0    0    0  501  0.00000000000E+00  0.00000000000E+00  0.22172795837E+04  0.22172795837E+04  0.25500000920E-02 0.  1.
        2   -1    0    0  501    0  0.00000000000E+00  0.00000000000E+00 -0.14706222030E+04  0.14706222030E+04  0.25500000920E-02 0. -1.
    10030    2    1    2    0    0  0.00000000000E+00  0.00000000000E+00  0.74665738071E+03  0.36879017867E+04  0.36115263178E+04 0.  0.
        3    1    3    3  502    0  0.47992984583E+01  0.26748693855E+03 -0.14502730763E+04  0.14747421136E+04  0.10100000352E+00 0. -1.
       -3    1    3    3    0  502 -0.47992984583E+01 -0.26748693855E+03  0.21969304570E+04  0.22131596731E+04  0.10100000352E+00 0.  1.
</event>
<event>
 5   0  0.7347303E-08  0.3576559E+04  0.7818609E-02  0.8095882E-01
       -1   -1    0    0    0  501  0.00000000000E+00  0.00000000000E+00  0.20595294734E+04  0.20595294734E+04  0.50400001928E-02 0.  1.
        1   -1    0    0  501    0  0.00000000000E+00  0.00000000000E+00 -0.15527540510E+04  0.15527540510E+04  0.50400001928E-02 0. -1.
    10030    2    1    2    0    0  0.00000000000E+00  0.00000000000E+00  0.50677542245E+03  0.36122835244E+04  0.35765585319E+04 0.  0.
        2    1    3    3  502    0  0.80880677320E+03 -0.14622388522E+04  0.89664176436E+03  0.18963853276E+04  0.25500000920E-02 0.  1.
       -2    1    3    3    0  502 -0.80880677320E+03  0.14622388522E+04 -0.38986634191E+03  0.17158981968E+04  0.25500000920E-02 0. -1.
</event>
<event>
 5   0  0.7236375E-08  0.3592983E+04  0.7818609E-02  0.8092101E-01
        1   -1    0    0  501    0  0.00000000000E+00  0.00000000000E+00  0.13510110373E+04  0.13510110373E+04  0.50400001928E-02 0. -1.
       -1   -1    0    0    0  501  0.00000000000E+00  0.00000000000E+00 -0.23888644583E+04  0.23888644583E+04  0.50400001928E-02 0.  1.
    10030    2    1    2    0    0  0.00000000000E+00  0.00000000000E+00 -0.10378534210E+04  0.37398754955E+04  0.35929833006E+04 0.  0.
        1    1    3    3  502    0 -0.50078290067E+03 -0.17250213704E+04 -0.48770008365E+03  0.18612720418E+04  0.50400001928E-02 0.  1.
       -1    1    3    3    0  502  0.50078290067E+03  0.17250213704E+04 -0.55015333737E+03  0.18786034538E+04  0.50400001928E-02 0. -1.
</event>
<event>
 5   0  0.2238968E-07  0.3348038E+04  0.7818609E-02  0.8150779E-01
       -2   -1    0    0    0  501  0.00000000000E+00  0.00000000000E+00  0.19005121272E+04  0.19005121272E+04  0.25500000920E-02 0. -1.
        2   -1    0    0  501    0  0.00000000000E+00  0.00000000000E+00 -0.14745180051E+04  0.14745180051E+04  0.25500000920E-02 0.  1.
    10030    2    1    2    0    0  0.00000000000E+00  0.00000000000E+00  0.42599412212E+03  0.33750301323E+04  0.33480378436E+04 0.  0.
        3    1    3    3  502    0 -0.12715233098E+04  0.98555870743E+03  0.67959138177E+03  0.17464082998E+04  0.10100000352E+00 0. -1.
       -3    1    3    3    0  502  0.12715233098E+04 -0.98555870743E+03 -0.25359725964E+03  0.16286218326E+04  0.10100000352E+00 0.  1.
</event>
<event>
 5   0  0.2342606E-07  0.3573556E+04  0.7818609E-02  0.8096576E-01
       -2   -1    0    0    0  501  0.00000000000E+00  0.00000000000E+00  0.14244380213E+04  0.14244380213E+04  0.25500000920E-02 0. -1.
        2   -1    0    0  501    0  0.00000000000E+00  0.00000000000E+00 -0.22412882800E+04  0.22412882800E+04  0.25500000920E-02 0.  1.
    10030    2    1    2    0    0  0.00000000000E+00  0.00000000000E+00 -0.81685025876E+03  0.36657263013E+04  0.35735563478E+04 0.  0.
        5    1    3    3  502    0 -0.39918083326E+03  0.17404282681E+04 -0.47425397076E+03  0.18475320871E+04  0.46999998093E+01 0. -1.
       -5    1    3    3    0  502  0.39918083326E+03 -0.17404282681E+04 -0.34259628800E+03  0.18181942142E+04  0.46999998093E+01 0.  1.
</event>
<event>
 5   0  0.7261233E-08  0.3625204E+04  0.7818609E-02  0.8084743E-01
        1   -1    0    0  501    0  0.00000000000E+00  0.00000000000E+00  0.20277420003E+04  0.20277420003E+04  0.50400001928E-02 0.  1.
       -1   -1    0    0    0  501  0.00000000000E+00  0.00000000000E+00 -0.16202876201E+04  0.16202876201E+04  0.50400001928E-02 0. -1.
    10030    2    1    2    0    0  0.00000000000E+00  0.00000000000E+00  0.40745438019E+03  0.36480296204E+04  0.36252035860E+04 0.  0.
        3    1    3    3  502    0 -0.14260793793E+04 -0.92670895007E+03 -0.42714396472E+03  0.17535517816E+04  0.10100000352E+00 0. -1.
       -3    1    3    3    0  502  0.14260793793E+04  0.92670895007E+03  0.83459834491E+03  0.18944778388E+04  0.10100000352E+00 0.  1.
</event>
<event>
 5   0  0.7514289E-08  0.3594984E+04  0.7818609E-02  0.8091642E-01
       -1   -1    0    0    0  501  0.00000000000E+00  0.00000000000E+00  0.14708600044E+04  0.14708600044E+04  0.50400001928E-02 0. -1.
        1   -1    0    0  501    0  0.00000000000E+00  0.00000000000E+00 -0.21966588147E+04  0.21966588147E+04  0.50400001928E-02 0.  1.
    10030    2    1    2    0    0  0.00000000000E+00  0.00000000000E+00 -0.72579881033E+03  0.36675188191E+04  0.35949840577E+04 0.  0.
        4    1    3    3  502    0  0.17187915012E+04  0.11175387331E+03 -0.88731667682E+03  0.19375411352E+04  0.12699999809E+01 0. -1.
       -4    1    3    3    0  502 -0.17187915012E+04 -0.11175387331E+03  0.16151786648E+03  0.17299776839E+04  0.12699999809E+01 0.  1.
</event>
<event>
 5   0  0.7347303E-08  0.3594406E+04  0.7818609E-02  0.8091774E-01
        1   -1    0    0  501    0  0.00000000000E+00  0.00000000000E+00  0.11383907565E+04  0.11383907565E+04  0.50400001928E-02 0. -1.
       -1   -1    0    0    0  501  0.00000000000E+00  0.00000000000E+00 -0.28372839915E+04  0.28372839915E+04  0.50400001928E-02 0.  1.
    10030    2    1    2    0    0  0.00000000000E+00  0.00000000000E+00 -0.16988932350E+04  0.39756747480E+04  0.35944055806E+04 0.  0.
        2    1    3    3  502    0  0.49334890716E+03  0.13362375840E+04 -0.20616005487E+04  0.25058174011E+04  0.25500000920E-02 0.  1.
       -2    1    3    3    0  502 -0.49334890716E+03 -0.13362375840E+04  0.36270731364E+03  0.14698573470E+04  0.25500000920E-02 0. -1.
</event>
<event>
 5   0  0.2309391E-07  0.3601833E+04  0.7818609E-02  0.8090072E-01
       -2   -1    0    0    0  501  0.00000000000E+00  0.00000000000E+00  0.15953336367E+04  0.15953336367E+04  0.25500000920E-02 0. -1.
        2   -1    0    0  501    0  0.00000000000E+00  0.00000000000E+00 -0.20329919550E+04  0.20329919550E+04  0.25500000920E-02 0.  1.
    10030    2    1    2    0    0  0.00000000000E+00  0.00000000000E+00 -0.43765831838E+03  0.36283255917E+04  0.36018331160E+04 0.  0.
        4    1    3    3  502    0 -0.33475337951E+03  0.17658702504E+04 -0.33342559413E+03  0.18279857237E+04  0.12699999809E+01 0. -1.
       -4    1    3    3    0  502  0.33475337951E+03 -0.17658702504E+04 -0.10423272426E+03  0.18003398680E+04  0.12699999809E+01 0.  1.
</event>
<event>
 5   0  0.7236375E-08  0.3614093E+04  0.7818609E-02  0.8087271E-01
        1   -1    0    0  501    0  0.00000000000E+00  0.00000000000E+00  0.16810654292E+04  0.16810654292E+04  0.50400001928E-02 0.  1.
       -1   -1    0    0    0  501  0.00000000000E+00  0.00000000000E+00 -0.19424684395E+04  0.19424684395E+04  0.50400001928E-02 0. -1.
    10030    2    1    2    0    0  0.00000000000E+00  0.00000000000E+00 -0.26140301027E+03  0.36235338687E+04  0.36140927165E+04 0.  0.
        5    1    3    3  502    0  0.17873912292E+04 -0.24400162194E+02  0.13462479303E+03  0.17926262017E+04  0.46999998093E+01 0. -1.
       -5    1    3    3    0  502 -0.17873912292E+04  0.24400162194E+02 -0.39602780330E+03  0.18309076670E+04  0.46999998093E+01 0.  1.
</event>
<event>
 5   0  0.2342606E-07  0.3598256E+04  0.7818609E-02  0.8090891E-01
        2   -1    0    0  501    0  0.00000000000E+00  0.00000000000E+00  0.19701785843E+04  0.19701785843E+04  0.25500000920E-02 0. -1.
       -2   -1    0    0    0  501  0.00000000000E+00  0.00000000000E+00 -0.16429275515E+04  0.16429275515E+04  0.25500000920E-02 0.  1.
    10030    2    1    2    0    0  0.00000000000E+00  0.00000000000E+00  0.32725103276E+03  0.36131061358E+04  0.35982555093E+04 0.  0.
        5    1    3    3  502    0  0.12158107242E+04 -0.85197346694E+03  0.11840796472E+04  0.18989789905E+04  0.46999998093E+01 0. -1.
       -5    1    3    3    0  502 -0.12158107242E+04  0.85197346694E+03 -0.85682861447E+03  0.17141271452E+04  0.46999998093E+01 0.  1.
</event>
<event>
 5   0  0.7347303E-08  0.3609285E+04  0.7818609E-02  0.8088368E-01
        1   -1    0    0  501    0  0.00000000000E+00  0.00000000000E+00  0.18713280477E+04  0.18713280477E+04  0.50400001928E-02 0. -1.
       -1   -1    0    0    0  501  0.00000000000E+00  0.00000000000E+00 -0.17403335200E+04  0.17403335200E+04  0.50400001928E-02 0.  1.
    10030    2    1    2    0    0  0.00000000000E+00  0.00000000000E+00  0.13099452767E+03  0.36116615677E+04  0.36092852081E+04 0.  0.
        2    1    3    3  502    0  0.92943333552E+03  0.12989638632E+04 -0.77504476565E+03  0.17753444262E+04  0.25500000920E-02 0.  1.
       -2    1    3    3    0  502 -0.92943333552E+03 -0.12989638632E+04  0.90603929332E+03  0.18363171415E+04  0.25500000920E-02 0. -1.
</event>
<event>
 5   0  0.2199902E-07  0.3607698E+04  0.7818609E-02  0.8088731E-01
       -2   -1    0    0    0  501  0.00000000000E+00  0.00000000000E+00  0.16281847347E+04  0.16281847347E+04  0.25500000920E-02 0. -1.
        2   -1    0    0  501    0  0.00000000000E+00  0.00000000000E+00 -0.19984656859E+04  0.19984656859E+04  0.25500000920E-02 0.  1.
    10030    2    1    2    0    0  0.00000000000E+00  0.00000000000E+00 -0.37028095116E+03  0.36266504206E+04  0.36076980598E+04 0.  0.
        1    1    3    3  502    0 -0.14277764551E+03  0.14987290236E+04  0.81370765401E+03  0.17113428319E+04  0.50400001928E-02 0. -1.
       -1    1    3    3    0  502  0.14277764551E+03 -0.14987290236E+04 -0.11839886052E+04  0.19153075887E+04  0.50400001928E-02 0.  1.
</event>
<event>
 5   0  0.7236375E-08  0.3597025E+04  0.7818609E-02  0.8091174E-01
        1   -1    0    0  501    0  0.00000000000E+00  0.00000000000E+00  0.24638271448E+04  0.24638271449E+04  0.50400001928E-02 0. -1.
       -1   -1    0    0    0  501  0.00000000000E+00  0.00000000000E+00 -0.13128544931E+04  0.13128544931E+04  0.50400001928E-02 0.  1.
    10030    2    1    2    0    0  0.00000000000E+00  0.00000000000E+00  0.11509726518E+04  0.37766816379E+04  0.35970246245E+04 0.  0.
        5    1    3    3  502    0 -0.38095244326E+03  0.14567133459E+04 -0.45724961291E+03  0.15736066327E+04  0.46999998093E+01 0.  1.
       -5    1    3    3    0  502  0.38095244326E+03 -0.14567133459E+04  0.16082222647E+04  0.22030750052E+04  0.46999998093E+01 0. -1.
</event>
<event>
 5   0  0.7347303E-08  0.3607521E+04  0.7818609E-02  0.8088771E-01
        1   -1    0    0  501    0  0.00000000000E+00  0.00000000000E+00  0.17228127427E+04  0.17228127427E+04  0.50400001928E-02 0. -1.
       -1   -1    0    0    0  501  0.00000000000E+00  0.00000000000E+00 -0.18885119228E+04  0.18885119229E+04  0.50400001928E-02 0.  1.
    10030    2    1    2    0    0  0.00000000000E+00  0.00000000000E+00 -0.16569918016E+03  0.36113246655E+04  0.36075212573E+04 0.  0.
        2    1    3    3  502    0  0.15623086162E+03  0.14310183596E+03 -0.18760131480E+04  0.18879384389E+04  0.25500000920E-02 0.  1.
       -2    1    3    3    0  502 -0.15623086162E+03 -0.14310183596E+03  0.17103139678E+04  0.17233862266E+04  0.25500000920E-02 0. -1.
</event>
<event>
 5   0  0.2198900E-07  0.3601340E+04  0.7818609E-02  0.8090185E-01
       -2   -1    0    0    0  501  0.00000000000E+00  0.00000000000E+00  0.13525372998E+04  0.13525372998E+04  0.25500000920E-02 0. -1.
        2   -1    0    0  501    0  0.00000000000E+00  0.00000000000E+00 -0.23972818314E+04  0.23972818314E+04  0.25500000920E-02 0.  1.
    10030    2    1    2    0    0  0.00000000000E+00  0.00000000000E+00 -0.10447445317E+04  0.37498191312E+04  0.36013403588E+04 0.  0.
        2    1    3    3  502    0  0.66924610301E+03  0.16610194033E+04 -0.71865780691E+03  0.19295970688E+04  0.25500000920E-02 0. -1.
       -2    1    3    3    0  502 -0.66924610301E+03 -0.16610194033E+04 -0.32608672477E+03  0.18202220624E+04  0.25500000920E-02 0.  1.
</event>
<event>
 5   0  0.2198900E-07  0.3591080E+04  0.7818609E-02  0.8092538E-01
        2   -1    0    0  501    0  0.00000000000E+00  0.00000000000E+00  0.15462826035E+04  0.15462826035E+04  0.25500000920E-02 0.  1.
       -2   -1    0    0    0  501  0.00000000000E+00  0.00000000000E+00 -0.20849767422E+04  0.20849767422E+04  0.25500000920E-02 0. -1.
    10030    2    1    2    0    0  0.00000000000E+00  0.00000000000E+00 -0.53869413865E+03  0.36312593457E+04  0.35910796511E+04 0.  0.
        2    1    3    3  502    0 -0.15311254496E+04 -0.78924389262E+03  0.24298965154E+03  0.17396249697E+04  0.25500000920E-02 0.  1.
       -2    1    3    3    0  502  0.15311254496E+04  0.78924389262E+03 -0.78168379019E+03  0.18916343760E+04  0.25500000920E-02 0. -1.
</event>
<event>
 5   0  0.2309391E-07  0.3608920E+04  0.7818609E-02  0.8088451E-01
        2   -1    0    0  501    0  0.00000000000E+00  0.00000000000E+00  0.17165581562E+04  0.17165581562E+04  0.25500000920E-02 0. -1.
       -2   -1    0    0    0  501  0.00000000000E+00  0.00000000000E+00 -0.18968636502E+04  0.18968636502E+04  0.25500000920E-02 0.  1.
    10030    2    1    2    0    0  0.00000000000E+00  0.00000000000E+00 -0.18030549405E+03  0.36134218064E+04  0.36089204868E+04 0.  0.
        4    1    3    3  502    0  0.52065082090E+03 -0.14742589176E+04  0.81183631107E+03  0.17617027111E+04  0.12699999809E+01 0. -1.
       -4    1    3    3    0  502 -0.52065082090E+03  0.14742589176E+04 -0.99214180512E+03  0.18517190953E+04  0.12699999809E+01 0.  1.
</event>
<event>
 5   0  0.2198900E-07  0.3649030E+04  0.7818609E-02  0.8079352E-01
        2   -1    0    0  501    0  0.00000000000E+00  0.00000000000E+00  0.13214181264E+04  0.13214181264E+04  0.25500000920E-02 0. -1.
       -2   -1    0    0    0  501  0.00000000000E+00  0.00000000000E+00 -0.25191527427E+04  0.25191527427E+04  0.25500000920E-02 0.  1.
    10030    2    1    2    0    0  0.00000000000E+00  0.00000000000E+00 -0.11977346163E+04  0.38405708691E+04  0.36490295134E+04 0.  0.
        2    1    3    3  502    0  0.84921458363E+03 -0.10522578374E+04 -0.18880902723E+04  0.23223472698E+04  0.25500000920E-02 0.  1.
       -2    1    3    3    0  502 -0.84921458363E+03  0.10522578374E+04  0.69035565601E+03  0.15182235992E+04  0.25500000920E-02 0. -1.
</event>
<event>
 5   0  0.2198900E-07  0.3517482E+04  0.7818609E-02  0.8109660E-01
        2   -1    0    0  501    0  0.00000000000E+00  0.00000000000E+00  0.21537551601E+04  0.21537551601E+04  0.25500000920E-02 0.  1.
       -2   -1    0    0    0  501  0.00000000000E+00  0.00000000000E+00 -0.14361748785E+04  0.14361748785E+04  0.25500000920E-02 0. -1.
    10030    2    1    2    0    0  0.00000000000E+00  0.00000000000E+00  0.71758028162E+03  0.35899300385E+04  0.35174815168E+04 0.  0.
        2    1    3    3  502    0  0.32038016440E+03 -0.99854008876E+03 -0.10821837251E+04  0.15069331018E+04  0.25500000920E-02 0. -1.
       -2    1    3    3    0  502 -0.32038016440E+03  0.99854008876E+03  0.17997640067E+04  0.20829969367E+04  0.25500000920E-02 0.  1.
</event>
<event>
 5   0  0.2238968E-07  0.3589125E+04  0.7818609E-02  0.8092987E-01
        2   -1    0    0  501    0  0.00000000000E+00  0.00000000000E+00  0.13373123252E+04  0.13373123252E+04  0.25500000920E-02 0. -1.
       -2   -1    0    0    0  501  0.00000000000E+00  0.00000000000E+00 -0.24081541502E+04  0.24081541502E+04  0.25500000920E-02 0.  1.
    10030    2    1    2    0    0  0.00000000000E+00  0.00000000000E+00 -0.10708418250E+04  0.37454664755E+04  0.35891248104E+04 0.  0.
        3    1    3    3  502    0 -0.23953542230E+03  0.11186789624E+03 -0.23877212583E+04  0.24023123157E+04  0.10100000352E+00 0.  1.
       -3    1    3    3    0  502  0.23953542230E+03 -0.11186789624E+03  0.13168794333E+04  0.13431541597E+04  0.10100000352E+00 0. -1.
</event>
<event>
 5   0  0.7514289E-08  0.3603312E+04  0.7818609E-02  0.8089734E-01
       -1   -1    0    0    0  501  0.00000000000E+00  0.00000000000E+00  0.15770144456E+04  0.15770144456E+04  0.50400001928E-02 0. -1.
        1   -1    0    0  501    0  0.00000000000E+00  0.00000000000E+00 -0.20582965949E+04  0.20582965949E+04  0.50400001928E-02 0.  1.
    10030    2    1    2    0    0  0.00000000000E+00  0.00000000000E+00 -0.48128214933E+03  0.36353110405E+04  0.36033115121E+04 0.  0.
        4    1    3    3  502    0  0.49343905904E+03  0.17318433544E+04 -0.29769718639E+03  0.18252092310E+04  0.12699999809E+01 0.  1.
       -4    1    3    3    0  502 -0.49343905904E+03 -0.17318433544E+04 -0.18358496294E+03  0.18101018095E+04  0.12699999809E+01 0. -1.
</event>
<event>
 5   0  0.7236375E-08  0.3614753E+04  0.7818609E-02  0.8087121E-01
       -1   -1    0    0    0  501  0.00000000000E+00  0.00000000000E+00  0.16867842681E+04  0.16867842681E+04  0.50400001928E-02 0. -1.
        1   -1    0    0  501    0  0.00000000000E+00  0.00000000000E+00 -0.19365902271E+04  0.19365902271E+04  0.50400001928E-02 0.  1.
    10030    2    1    2    0    0  0.00000000000E+00  0.00000000000E+00 -0.24980595901E+03  0.36233744953E+04  0.36147530643E+04 0.  0.
        1    1    3    3  502    0 -0.24811230647E+03  0.16005610354E+04  0.67904145570E+03  0.17562609838E+04  0.50400001928E-02 0. -1.
       -1    1    3    3    0  502  0.24811230647E+03 -0.16005610354E+04 -0.92884741471E+03  0.18671135114E+04  0.50400001928E-02 0.  1.
</event>
<event>
 5   0  0.7261233E-08  0.3616452E+04  0.7818609E-02  0.8086734E-01
        1   -1    0    0  501    0  0.00000000000E+00  0.00000000000E+00  0.21781910890E+04  0.21781910890E+04  0.50400001928E-02 0. -1.
       -1   -1    0    0    0  501  0.00000000000E+00  0.00000000000E+00 -0.15010989736E+04  0.15010989736E+04  0.50400001928E-02 0.  1.
    10030    2    1    2    0    0  0.00000000000E+00  0.00000000000E+00  0.67709211540E+03  0.36792900627E+04  0.36164515250E+04 0.  0.
        3    1    3    3  502    0  0.17904111368E+03  0.17781351118E+04  0.61875911962E+03  0.18912120596E+04  0.10100000352E+00 0.  1.
       -3    1    3    3    0  502 -0.17904111368E+03 -0.17781351118E+04  0.58332995780E+02  0.17880780030E+04  0.10100000352E+00 0. -1.
</event>
<event>
 5   0  0.7347303E-08  0.3498858E+04  0.7818609E-02  0.8114061E-01
        1   -1    0    0  501    0  0.00000000000E+00  0.00000000000E+00  0.16249119371E+04  0.16249119371E+04  0.50400001928E-02 0. -1.
       -1   -1    0    0    0  501  0.00000000000E+00  0.00000000000E+00 -0.18834873599E+04  0.18834873599E+04  0.50400001928E-02 0.  1.
    10030    2    1    2    0    0  0.00000000000E+00  0.00000000000E+00 -0.25857542276E+03  0.35083992970E+04  0.34988575818E+04 0.  0.
        2    1    3    3  502    0 -0.11566536097E+04 -0.67547957255E+03  0.99911707738E+03  0.16710341589E+04  0.25500000920E-02 0. -1.
       -2    1    3    3    0  502  0.11566536097E+04  0.67547957255E+03 -0.12576925001E+04  0.18373651381E+04  0.25500000920E-02 0.  1.
</event>
<event>
 5   0  0.7261233E-08  0.3587070E+04  0.7818609E-02  0.8093460E-01
       -1   -1    0    0    0  501  0.00000000000E+00  0.00000000000E+00  0.20125761640E+04  0.20125761640E+04  0.50400001928E-02 0. -1.
        1   -1    0    0  501    0  0.00000000000E+00  0.00000000000E+00 -0.15983335051E+04  0.15983335052E+04  0.50400001928E-02 0.  1.
    10030    2    1    2    0    0  0.00000000000E+00  0.00000000000E+00  0.41424265890E+03  0.36109096692E+04  0.35870700660E+04 0.  0.
        3    1    3    3  502    0 -0.57857921294E+03 -0.17738675158E+03  0.19066986963E+04  0.20004299273E+04  0.10100000352E+00 0. -1.
       -3    1    3    3    0  502  0.57857921294E+03  0.17738675158E+03 -0.14924560374E+04  0.16104797419E+04  0.10100000352E+00 0.  1.
</event>
<event>
 5   0  0.2309391E-07  0.3586556E+04  0.7818609E-02  0.8093578E-01
       -2   -1    0    0    0  501  0.00000000000E+00  0.00000000000E+00  0.14949787330E+04  0.14949787330E+04  0.25500000920E-02 0.  1.
        2   -1    0    0  501    0  0.00000000000E+00  0.00000000000E+00 -0.21510984587E+04  0.21510984587E+04  0.25500000920E-02 0. -1.
    10030    2    1    2    0    0  0.00000000000E+00  0.00000000000E+00 -0.65611972574E+03  0.36460771917E+04  0.35865562582E+04 0.  0.
        4    1    3    3  502    0 -0.32584109040E+03  0.64813015808E+03 -0.19952765046E+04  0.21230579504E+04  0.12699999809E+01 0. -1.
       -4    1    3    3    0  502  0.32584109040E+03 -0.64813015808E+03  0.13391567789E+04  0.15230192413E+04  0.12699999809E+01 0.  1.
</event>
<event>
 5   0  0.2309391E-07  0.3623941E+04  0.7818609E-02  0.8085030E-01
       -2   -1    0    0    0  501  0.00000000000E+00  0.00000000000E+00  0.22965742625E+04  0.22965742625E+04  0.25500000920E-02 0.  1.
        2   -1    0    0  501    0  0.00000000000E+00  0.00000000000E+00 -0.14296236833E+04  0.14296236833E+04  0.25500000920E-02 0. -1.
    10030    2    1    2    0    0  0.00000000000E+00  0.00000000000E+00  0.86695057913E+03  0.37261979458E+04  0.36239409246E+04 0.  0.
        4    1    3    3  502    0 -0.57053689229E+03 -0.75480219313E+03 -0.11554433837E+04  0.14934154553E+04  0.12699999809E+01 0. -1.
       -4    1    3    3    0  502  0.57053689229E+03  0.75480219313E+03  0.20223939628E+04  0.22327824905E+04  0.12699999809E+01 0.  1.
</event>
<event>
 5   0  0.2198900E-07  0.3624937E+04  0.7818609E-02  0.8084803E-01
        2   -1    0    0  501    0  0.00000000000E+00  0.00000000000E+00  0.23000738799E+04  0.23000738799E+04  0.25500000920E-02 0.  1.
       -2   -1    0    0    0  501  0.00000000000E+00  0.00000000000E+00 -0.14282335462E+04  0.14282335462E+04  0.25500000920E-02 0. -1.
    10030    2    1    2    0    0  0.00000000000E+00  0.00000000000E+00  0.87184033368E+03  0.37283074262E+04  0.36249373369E+04 0.  0.
        2    1    3    3  502    0 -0.10250326066E+04 -0.10616336261E+04  0.15182033143E+04  0.21172385563E+04  0.25500000920E-02 0.  1.
       -2    1    3    3    0  502  0.10250326066E+04  0.10616336261E+04 -0.64636298064E+03  0.16110688699E+04  0.25500000920E-02 0. -1.
</event>
<event>
 5   0  0.7236375E-08  0.3608469E+04  0.7818609E-02  0.8088554E-01
       -3   -1    0    0    0  501  0.00000000000E+00  0.00000000000E+00  0.28303614637E+04  0.28303614655E+04  0.10100000352E+00 0.  1.
        3   -1    0    0  501    0  0.00000000000E+00  0.00000000000E+00 -0.11501226547E+04  0.11501226592E+04  0.10100000352E+00 0. -1.
    10030    2    1    2    0    0  0.00000000000E+00  0.00000000000E+00  0.16802388089E+04  0.39804841246E+04  0.36084694001E+04 0.  0.
        3    1    3    3  502    0  0.26460763524E+03 -0.31393697147E+03 -0.10979053586E+04  0.11721645829E+04  0.10100000352E+00 0. -1.
       -3    1    3    3    0  502 -0.26460763524E+03  0.31393697147E+03  0.27781441675E+04  0.28083195417E+04  0.10100000352E+00 0.  1.
</event>
<event>
 5   0  0.7514289E-08  0.3607665E+04  0.7818609E-02  0.8088738E-01
       -1   -1    0    0    0  501  0.00000000000E+00  0.00000000000E+00  0.22835413991E+04  0.22835413991E+04  0.50400001928E-02 0.  1.
        1   -1    0    0  501    0  0.00000000000E+00  0.00000000000E+00 -0.14248974836E+04  0.14248974836E+04  0.50400001928E-02 0. -1.
    10030    2    1    2    0    0  0.00000000000E+00  0.00000000000E+00  0.85864391551E+03  0.37084388826E+04  0.36076653909E+04 0.  0.
        4    1    3    3  502    0  0.73112406797E+03  0.15253017365E+04 -0.21485923136E+03  0.17050671225E+04  0.12699999809E+01 0. -1.
       -4    1    3    3    0  502 -0.73112406797E+03 -0.15253017365E+04  0.10735031469E+04  0.20033717601E+04  0.12699999809E+01 0.  1.
</event>
<event>
 5   0  0.7261233E-08  0.3610509E+04  0.7818609E-02  0.8088089E-01
        1   -1    0    0  501    0  0.00000000000E+00  0.00000000000E+00  0.18163970403E+04  0.18163970403E+04  0.50400001928E-02 0.  1.
       -1   -1    0    0    0  501  0.00000000000E+00  0.00000000000E+00 -0.17941804537E+04  0.17941804537E+04  0.50400001928E-02 0. -1.
    10030    2    1    2    0    0  0.00000000000E+00  0.00000000000E+00  0.22216586635E+02  0.36105774940E+04  0.36105091419E+04 0.  0.
        3    1    3    3  502    0  0.41600268266E+03 -0.17188083687E+04 -0.35164313338E+03  0.18030566668E+04  0.10100000352E+00 0. -1.
       -3    1    3    3    0  502 -0.41600268266E+03  0.17188083687E+04  0.37385972002E+03  0.18075208272E+04  0.10100000352E+00 0.  1.
</event>
<event>
 5   0  0.7514289E-08  0.3587257E+04  0.7818609E-02  0.8093417E-01
       -1   -1    0    0    0  501  0.00000000000E+00  0.00000000000E+00  0.21547650011E+04  0.21547650011E+04  0.50400001928E-02 0. -1.
        1   -1    0    0  501    0  0.00000000000E+00  0.00000000000E+00 -0.14930180458E+04  0.14930180458E+04  0.50400001928E-02 0.  1.
    10030    2    1    2    0    0  0.00000000000E+00  0.00000000000E+00  0.66174695527E+03  0.36477830469E+04  0.35872569080E+04 0.  0.
        4    1    3    3  502    0  0.16725496278E+04  0.11980911651E+03 -0.31651979420E+03  0.17064474427E+04  0.12699999809E+01 0.  1.
       -4    1    3    3    0  502 -0.16725496278E+04 -0.11980911651E+03  0.97826674947E+03  0.19413356041E+04  0.12699999809E+01 0. -1.
</event>
<event>
 5   0  0.7514289E-08  0.3597646E+04  0.7818609E-02  0.8091031E-01
       -1   -1    0    0    0  501  0.00000000000E+00  0.00000000000E+00  0.14522024926E+04  0.14522024926E+04  0.50400001928E-02 0.  1.
        1   -1    0    0  501    0  0.00000000000E+00  0.00000000000E+00 -0.22281766927E+04  0.22281766927E+04  0.50400001928E-02 0. -1.
    10030    2    1    2    0    0  0.00000000000E+00  0.00000000000E+00 -0.77597420012E+03  0.36803791854E+04  0.35976457565E+04 0.  0.
        4    1    3    3  502    0  0.83372983592E+03 -0.75110499177E+03 -0.18261972713E+04  0.21434230181E+04  0.12699999809E+01 0. -1.
       -4    1    3    3    0  502 -0.83372983592E+03  0.75110499177E+03  0.10502230712E+04  0.15369561673E+04  0.12699999809E+01 0.  1.
</event>
<event>
 5   0  0.2199902E-07  0.3588471E+04  0.7818609E-02  0.8093138E-01
       -2   -1    0    0    0  501  0.00000000000E+00  0.00000000000E+00  0.20989685857E+04  0.20989685857E+04  0.25500000920E-02 0.  1.
        2   -1    0    0  501    0  0.00000000000E+00  0.00000000000E+00 -0.15337444827E+04  0.15337444827E+04  0.25500000920E-02 0. -1.
    10030    2    1    2    0    0  0.00000000000E+00  0.00000000000E+00  0.56522410309E+03  0.36327130684E+04  0.35884712554E+04 0.  0.
        1    1    3    3  502    0 -0.20884846297E+03 -0.15233365980E+04 -0.65350998540E+03  0.16707026582E+04  0.50400001928E-02 0.  1.
       -1    1    3    3    0  502  0.20884846297E+03  0.15233365980E+04  0.12187340885E+04  0.19620104102E+04  0.50400001928E-02 0. -1.
</event>
<event>
 5   0  0.2198900E-07  0.3597659E+04  0.7818609E-02  0.8091028E-01
       -2   -1    0    0    0  501  0.00000000000E+00  0.00000000000E+00  0.15950132850E+04  0.15950132850E+04  0.25500000920E-02 0. -1.
        2   -1    0    0  501    0  0.00000000000E+00  0.00000000000E+00 -0.20286897068E+04  0.20286897068E+04  0.25500000920E-02 0.  1.
    10030    2    1    2    0    0  0.00000000000E+00  0.00000000000E+00 -0.43367642182E+03  0.36237029918E+04  0.35976587017E+04 0.  0.
        2    1    3    3  502    0  0.12378991029E+04  0.13038544209E+04 -0.27519287088E+03  0.18188352471E+04  0.25500000920E-02 0. -1.
       -2    1    3    3    0  502 -0.12378991029E+04 -0.13038544209E+04 -0.15848355094E+03  0.18048677447E+04  0.25500000920E-02 0.  1.
</event>
<event>
 5   0  0.2238968E-07  0.3602633E+04  0.7818609E-02  0.8089889E-01
       -2   -1    0    0    0  501  0.00000000000E+00  0.00000000000E+00  0.14791724249E+04  0.14791724249E+04  0.25500000920E-02 0. -1.
        2   -1    0    0  501    0  0.00000000000E+00  0.00000000000E+00 -0.21936195203E+04  0.21936195203E+04  0.25500000920E-02 0.  1.
    10030    2    1    2    0    0  0.00000000000E+00  0.00000000000E+00 -0.71444709544E+03  0.36727919452E+04  0.36026332065E+04 0.  0.
        3    1    3    3  502    0 -0.10380007218E+04  0.99529760500E+03 -0.14630964610E+04  0.20515150707E+04  0.10100000352E+00 0.  1.
       -3    1    3    3    0  502  0.10380007218E+04 -0.99529760500E+03  0.74864936561E+03  0.16212768745E+04  0.10100000352E+00 0. -1.
</event>
<event>
 5   0  0.2342606E-07  0.3603117E+04  0.7818609E-02  0.8089778E-01
        2   -1    0    0  501    0  0.00000000000E+00  0.00000000000E+00  0.27619497972E+04  0.27619497972E+04  0.25500000920E-02 0. -1.
       -2   -1    0    0    0  501  0.00000000000E+00  0.00000000000E+00 -0.11751168699E+04  0.11751168699E+04  0.25500000920E-02 0.  1.
    10030    2    1    2    0    0  0.00000000000E+00  0.00000000000E+00  0.15868329273E+04  0.39370666671E+04  0.36031174283E+04 0.  0.
        5    1    3    3  502    0  0.12368909436E+04 -0.11778778063E+04  0.14194929568E+04  0.22208731790E+04  0.46999998093E+01 0. -1.
       -5    1    3    3    0  502 -0.12368909436E+04  0.11778778063E+04  0.16733997049E+03  0.17161934881E+04  0.46999998093E+01 0.  1.
</event>
<event>
 5   0  0.7236375E-08  0.3581703E+04  0.7818609E-02  0.8094696E-01
       -1   -1    0    0    0  501  0.00000000000E+00  0.00000000000E+00  0.13731611058E+04  0.13731611059E+04  0.50400001928E-02 0.  1.
        1   -1    0    0  501    0  0.00000000000E+00  0.00000000000E+00 -0.23355954698E+04  0.23355954698E+04  0.50400001928E-02 0. -1.
    10030    2    1    2    0    0  0.00000000000E+00  0.00000000000E+00 -0.96243436399E+03  0.37087565757E+04  0.35817028677E+04 0.  0.
        5    1    3    3  502    0 -0.17800116872E+03 -0.17803081559E+04 -0.56105760274E+03  0.18750971361E+04  0.46999998093E+01 0. -1.
       -5    1    3    3    0  502  0.17800116872E+03  0.17803081559E+04 -0.40137676125E+03  0.18336594396E+04  0.46999998093E+01 0.  1.
</event>
<event>
 5   0  0.7347303E-08  0.3595713E+04  0.7818609E-02  0.8091474E-01
       -1   -1    0    0    0  501  0.00000000000E+00  0.00000000000E+00  0.15743011361E+04  0.15743011361E+04  0.50400001928E-02 0. -1.
        1   -1    0    0  501    0  0.00000000000E+00  0.00000000000E+00 -0.20531575802E+04  0.20531575803E+04  0.50400001928E-02 0.  1.
    10030    2    1    2    0    0  0.00000000000E+00  0.00000000000E+00 -0.47885644419E+03  0.36274587163E+04  0.35957131761E+04 0.  0.
        2    1    3    3  502    0 -0.21652858734E+03 -0.17753282907E+04 -0.42438574217E+03  0.18381453770E+04  0.25500000920E-02 0.  1.
       -2    1    3    3    0  502  0.21652858734E+03  0.17753282907E+04 -0.54470702022E+02  0.17893133393E+04  0.25500000920E-02 0. -1.
</event>
<event>
 5   0  0.7236375E-08  0.3604991E+04  0.7818609E-02  0.8089349E-01
       -1   -1    0    0    0  501  0.00000000000E+00  0.00000000000E+00  0.15171319639E+04  0.15171319639E+04  0.50400001928E-02 0. -1.
        1   -1    0    0  501    0  0.00000000000E+00  0.00000000000E+00 -0.21415344105E+04  0.21415344105E+04  0.50400001928E-02 0.  1.
    10030    2    1    2    0    0  0.00000000000E+00  0.00000000000E+00 -0.62440244659E+03  0.36586663745E+04  0.36049911545E+04 0.  0.
        5    1    3    3  502    0  0.15101127711E+04 -0.39720847728E+03  0.60162350050E+03  0.16733762524E+04  0.46999998093E+01 0. -1.
       -5    1    3    3    0  502 -0.15101127711E+04  0.39720847728E+03 -0.12260259471E+04  0.19852901220E+04  0.46999998093E+01 0.  1.
</event>
<event>
 5   0  0.2198900E-07  0.3602637E+04  0.7818609E-02  0.8089888E-01
        2   -1    0    0  501    0  0.00000000000E+00  0.00000000000E+00  0.16691409440E+04  0.16691409440E+04  0.25500000920E-02 0. -1.
       -2   -1    0    0    0  501  0.00000000000E+00  0.00000000000E+00 -0.19439630110E+04  0.19439630110E+04  0.25500000920E-02 0.  1.
    10030    2    1    2    0    0  0.00000000000E+00  0.00000000000E+00 -0.27482206698E+03  0.36131039550E+04  0.36026369538E+04 0.  0.
        2    1    3    3  502    0  0.70106431830E+03  0.15033736690E+04  0.56685757459E+03  0.17529834788E+04  0.25500000920E-02 0. -1.
       -2    1    3    3    0  502 -0.70106431830E+03 -0.15033736690E+04 -0.84167964156E+03  0.18601204762E+04  0.25500000920E-02 0.  1.
</event>
<event>
 5   0  0.2199902E-07  0.3601294E+04  0.7818609E-02  0.8090195E-01
       -2   -1    0    0    0  501  0.00000000000E+00  0.00000000000E+00  0.14527328837E+04  0.14527328837E+04  0.25500000920E-02 0.  1.
        2   -1    0    0  501    0  0.00000000000E+00  0.00000000000E+00 -0.22318834403E+04  0.22318834403E+04  0.25500000920E-02 0. -1.
    10030    2    1    2    0    0  0.00000000000E+00  0.00000000000E+00 -0.77915055655E+03  0.36846163240E+04  0.36012944708E+04 0.  0.
        1    1    3    3  502    0 -0.21044290185E+03 -0.17656586718E+04 -0.99296959155E+02  0.17809257835E+04  0.50400001928E-02 0.  1.
       -1    1    3    3    0  502  0.21044290185E+03  0.17656586718E+04 -0.67985359739E+03  0.19036905405E+04  0.50400001928E-02 0. -1.
</event>
<event>
 5   0  0.2199902E-07  0.3615917E+04  0.7818609E-02  0.8086855E-01
       -2   -1    0    0    0  501  0.00000000000E+00  0.00000000000E+00  0.16470239047E+04  0.16470239047E+04  0.25500000920E-02 0. -1.
        2   -1    0    0  501    0  0.00000000000E+00  0.00000000000E+00 -0.19846180081E+04  0.19846180081E+04  0.25500000920E-02 0.  1.
    10030    2    1    2    0    0  0.00000000000E+00  0.00000000000E+00 -0.33759410345E+03  0.36316419128E+04  0.36159166479E+04 0.  0.
        1    1    3    3  502    0  0.81980051202E+03  0.52283391786E+03 -0.16996584210E+04  0.19581284261E+04  0.50400001928E-02 0.  1.
       -1    1    3    3    0  502 -0.81980051202E+03 -0.52283391786E+03  0.13620643175E+04  0.16735134867E+04  0.50400001928E-02 0. -1.
</event>
<event>
 5   0  0.2238968E-07  0.3595532E+04  0.7818609E-02  0.8091516E-01
       -2   -1    0    0    0  501  0.00000000000E+00  0.00000000000E+00  0.11481050471E+04  0.11481050471E+04  0.25500000920E-02 0. -1.
        2   -1    0    0  501    0  0.00000000000E+00  0.00000000000E+00 -0.28150400747E+04  0.28150400747E+04  0.25500000920E-02 0.  1.
    10030    2    1    2    0    0  0.00000000000E+00  0.00000000000E+00 -0.16669350275E+04  0.39631451218E+04  0.35955315143E+04 0.  0.
        3    1    3    3  502    0  0.18935269350E+03 -0.15584974099E+04 -0.17989162463E+04  0.23876491138E+04  0.10100000352E+00 0. -1.
       -3    1    3    3    0  502 -0.18935269350E+03  0.15584974099E+04  0.13198121874E+03  0.15754960081E+04  0.10100000352E+00 0.  1.
</event>
<event>
 5   0  0.7514289E-08  0.3576220E+04  0.7818609E-02  0.8095961E-01
       -1   -1    0    0    0  501  0.00000000000E+00  0.00000000000E+00  0.22778868365E+04  0.22778868365E+04  0.50400001928E-02 0.  1.
        1   -1    0    0  501    0  0.00000000000E+00  0.00000000000E+00 -0.14036421916E+04  0.14036421916E+04  0.50400001928E-02 0. -1.
    10030    2    1    2    0    0  0.00000000000E+00  0.00000000000E+00  0.87424464495E+03  0.36815290281E+04  0.35762203911E+04 0.  0.
        4    1    3    3  502    0 -0.13839457436E+04  0.33096665586E+03 -0.67757984199E+03  0.15760586295E+04  0.12699999809E+01 0. -1.
       -4    1    3    3    0  502  0.13839457436E+04 -0.33096665586E+03  0.15518244869E+04  0.21054703986E+04  0.12699999809E+01 0.  1.
</event>
<event>
 5   0  0.2199902E-07  0.3595920E+04  0.7818609E-02  0.8091427E-01
        2   -1    0    0  501    0  0.00000000000E+00  0.00000000000E+00  0.20433958183E+04  0.20433958183E+04  0.25500000920E-02 0. -1.
       -2   -1    0    0    0  501  0.00000000000E+00  0.00000000000E+00 -0.15820040576E+04  0.15820040576E+04  0.25500000920E-02 0.  1.
    10030    2    1    2    0    0  0.00000000000E+00  0.00000000000E+00  0.46139176070E+03  0.36253998759E+04  0.35959201748E+04 0.  0.
        1    1    3    3  502    0 -0.14367535034E+04  0.76975990710E+03  0.99577777372E+03  0.19100691921E+04  0.50400001928E-02 0. -1.
       -1    1    3    3    0  502  0.14367535034E+04 -0.76975990710E+03 -0.53438601302E+03  0.17153306838E+04  0.50400001928E-02 0.  1.
</event>
<event>
 5   0  0.7347303E-08  0.3602568E+04  0.7818609E-02  0.8089904E-01
       -1   -1    0    0    0  501  0.00000000000E+00  0.00000000000E+00  0.11570383867E+04  0.11570383867E+04  0.50400001928E-02 0. -1.
        1   -1    0    0  501    0  0.00000000000E+00  0.00000000000E+00 -0.28042489730E+04  0.28042489730E+04  0.50400001928E-02 0.  1.
    10030    2    1    2    0    0  0.00000000000E+00  0.00000000000E+00 -0.16472105864E+04  0.39612873597E+04  0.36025678106E+04 0.  0.
        2    1    3    3  502    0 -0.93687219129E+03  0.12009031598E+04  0.23377368651E+03  0.15409568581E+04  0.25500000920E-02 0. -1.
       -2    1    3    3    0  502  0.93687219129E+03 -0.12009031598E+04 -0.18809842729E+04  0.24203305016E+04  0.25500000920E-02 0.  1.
</event>
<event>
 5   0  0.2342606E-07  0.3600694E+04  0.7818609E-02  0.8090333E-01
       -2   -1    0    0    0  501  0.00000000000E+00  0.00000000000E+00  0.14625855285E+04  0.14625855285E+04  0.25500000920E-02 0. -1.
        2   -1    0    0  501    0  0.00000000000E+00  0.00000000000E+00 -0.22161097137E+04  0.22161097137E+04  0.25500000920E-02 0.  1.
    10030    2    1    2    0    0  0.00000000000E+00  0.00000000000E+00 -0.75352418518E+03  0.36786952422E+04  0.36006943757E+04 0.  0.
        5    1    3    3  502    0  0.54951222657E+03 -0.66752348836E+03  0.12365842778E+04  0.15088784115E+04  0.46999998093E+01 0. -1.
       -5    1    3    3    0  502 -0.54951222657E+03  0.66752348836E+03 -0.19901084629E+04  0.21698168307E+04  0.46999998093E+01 0.  1.
</event>
<event>
 5   0  0.2238968E-07  0.3626721E+04  0.7818609E-02  0.8084398E-01
        2   -1    0    0  501    0  0.00000000000E+00  0.00000000000E+00  0.13346464514E+04  0.13346464515E+04  0.25500000920E-02 0. -1.
       -2   -1    0    0    0  501  0.00000000000E+00  0.00000000000E+00 -0.24637814689E+04  0.24637814689E+04  0.25500000920E-02 0.  1.
    10030    2    1    2    0    0  0.00000000000E+00  0.00000000000E+00 -0.11291350174E+04  0.37984279203E+04  0.36267214917E+04 0.  0.
        3    1    3    3  502    0 -0.31199970600E+03 -0.14447116981E+04  0.53576353321E+03  0.15721254024E+04  0.10100000352E+00 0. -1.
       -3    1    3    3    0  502  0.31199970600E+03  0.14447116981E+04 -0.16648985506E+04  0.22263025179E+04  0.10100000352E+00 0.  1.
</event>
<event>
 5   0  0.7347303E-08  0.3598613E+04  0.7818609E-02  0.8090809E-01
       -1   -1    0    0    0  501  0.00000000000E+00  0.00000000000E+00  0.17105765016E+04  0.17105765016E+04  0.50400001928E-02 0.  1.
        1   -1    0    0  501    0  0.00000000000E+00  0.00000000000E+00 -0.18926393042E+04  0.18926393042E+04  0.50400001928E-02 0. -1.
    10030    2    1    2    0    0  0.00000000000E+00  0.00000000000E+00 -0.18206280263E+03  0.36032158058E+04  0.35986132439E+04 0.  0.
        2    1    3    3  502    0 -0.81829505652E+03  0.41181168130E+03 -0.16416594580E+04  0.18799578284E+04  0.25500000920E-02 0. -1.
       -2    1    3    3    0  502  0.81829505652E+03 -0.41181168130E+03  0.14595966554E+04  0.17232579774E+04  0.25500000920E-02 0.  1.
</event>
<event>
 5   0  0.7347303E-08  0.3598971E+04  0.7818609E-02  0.8090727E-01
       -1   -1    0    0    0  501  0.00000000000E+00  0.00000000000E+00  0.33724668165E+04  0.33724668165E+04  0.50400001928E-02 0. -1.
        1   -1    0    0  501    0  0.00000000000E+00  0.00000000000E+00 -0.96017200731E+03  0.96017200733E+03  0.50400001928E-02 0.  1.
    10030    2    1    2    0    0  0.00000000000E+00  0.00000000000E+00  0.24122948092E+04  0.43326388238E+04  0.35989710934E+04 0.  0.
        2    1    3    3  502    0  0.42578328510E+03  0.17160090822E+04  0.16093393283E+04  0.23908056486E+04  0.25500000920E-02 0. -1.
       -2    1    3    3    0  502 -0.42578328510E+03 -0.17160090822E+04  0.80295548091E+03  0.19418331752E+04  0.25500000920E-02 0.  1.
</event>
<event>
 5   0  0.7236375E-08  0.3606897E+04  0.7818609E-02  0.8088914E-01
       -3   -1    0    0    0  501  0.00000000000E+00  0.00000000000E+00  0.24714401218E+04  0.24714401239E+04  0.10100000352E+00 0.  1.
        3   -1    0    0  501    0  0.00000000000E+00  0.00000000000E+00 -0.13160042473E+04  0.13160042511E+04  0.10100000352E+00 0. -1.
    10030    2    1    2    0    0  0.00000000000E+00  0.00000000000E+00  0.11554358746E+04  0.37874443751E+04  0.36068965655E+04 0.  0.
        2    1    3    3  502    0 -0.57157398744E+03 -0.15138628798E+04  0.14137817297E+04  0.21487802170E+04  0.25500000920E-02 0.  1.
       -2    1    3    3    0  502  0.57157398744E+03  0.15138628798E+04 -0.25834585514E+03  0.16386641580E+04  0.25500000920E-02 0. -1.
</event>
<event>
 5   0  0.2198900E-07  0.3659062E+04  0.7818609E-02  0.8077095E-01
        2   -1    0    0  501    0  0.00000000000E+00  0.00000000000E+00  0.11266683734E+04  0.11266683734E+04  0.25500000920E-02 0. -1.
       -2   -1    0    0    0  501  0.00000000000E+00  0.00000000000E+00 -0.29708692063E+04  0.29708692063E+04  0.25500000920E-02 0.  1.
    10030    2    1    2    0    0  0.00000000000E+00  0.00000000000E+00 -0.18442008328E+04  0.40975375797E+04  0.36590623806E+04 0.  0.
        2    1    3    3  502    0 -0.50717711713E+03 -0.16573741316E+04 -0.15780076751E+04  0.23439765065E+04  0.25500000920E-02 0.  1.
       -2    1    3    3    0  502  0.50717711713E+03  0.16573741316E+04 -0.26619315771E+03  0.17535610732E+04  0.25500000920E-02 0. -1.
</event>
<event>
 5   0  0.2198900E-07  0.3615483E+04  0.7818609E-02  0.8086954E-01
        2   -1    0    0  501    0  0.00000000000E+00  0.00000000000E+00  0.25554401168E+04  0.25554401169E+04  0.25500000920E-02 0.  1.
       -2   -1    0    0    0  501  0.00000000000E+00  0.00000000000E+00 -0.12788127653E+04  0.12788127653E+04  0.25500000920E-02 0. -1.
    10030    2    1    2    0    0  0.00000000000E+00  0.00000000000E+00  0.12766273516E+04  0.38342528821E+04  0.36154830617E+04 0.  0.
        2    1    3    3  502    0 -0.89806711731E+03 -0.83935071318E+03  0.20439965668E+04  0.23851532722E+04  0.25500000920E-02 0.  1.
       -2    1    3    3    0  502  0.89806711731E+03  0.83935071318E+03 -0.76736921524E+03  0.14490996099E+04  0.25500000920E-02 0. -1.
</event>
<event>
 5   0  0.7261233E-08  0.3652607E+04  0.7818609E-02  0.8078547E-01
        1   -1    0    0  501    0  0.00000000000E+00  0.00000000000E+00  0.22024018198E+04  0.22024018198E+04  0.50400001928E-02 0.  1.
       -1   -1    0    0    0  501  0.00000000000E+00  0.00000000000E+00 -0.15144300849E+04  0.15144300849E+04  0.50400001928E-02 0. -1.
    10030    2    1    2    0    0  0.00000000000E+00  0.00000000000E+00  0.68797173498E+03  0.37168319047E+04  0.36526065077E+04 0.  0.
        3    1    3    3  502    0 -0.81662421435E+03  0.14001043925E+04 -0.51236737030E+03  0.16999081592E+04  0.10100000352E+00 0. -1.
       -3    1    3    3    0  502  0.81662421435E+03 -0.14001043925E+04  0.12003391053E+04  0.20169237455E+04  0.10100000352E+00 0.  1.
</event>
<event>
 5   0  0.2309391E-07  0.3593329E+04  0.7818609E-02  0.8092022E-01
        2   -1    0    0  501    0  0.00000000000E+00  0.00000000000E+00  0.18192927673E+04  0.18192927673E+04  0.25500000920E-02 0.  1.
       -2   -1    0    0    0  501  0.00000000000E+00  0.00000000000E+00 -0.17743172242E+04  0.17743172242E+04  0.25500000920E-02 0. -1.
    10030    2    1    2    0    0  0.00000000000E+00  0.00000000000E+00  0.44975543146E+02  0.35936099915E+04  0.35933285365E+04 0.  0.
        4    1    3    3  502    0 -0.39922484435E+03  0.15929989944E+04 -0.70624934836E+03  0.17876845436E+04  0.12699999809E+01 0. -1.
       -4    1    3    3    0  502  0.39922484435E+03 -0.15929989944E+04  0.75122489151E+03  0.18059254478E+04  0.12699999809E+01 0.  1.
</event>
<event>
 5   0  0.7236375E-08  0.3571670E+04  0.7818609E-02  0.8097012E-01
        1   -1    0    0  501    0  0.00000000000E+00  0.00000000000E+00  0.21279244974E+04  0.21279244974E+04  0.50400001928E-02 0. -1.
       -1   -1    0    0    0  501  0.00000000000E+00  0.00000000000E+00 -0.14987402090E+04  0.14987402090E+04  0.50400001928E-02 0.  1.
    10030    2    1    2    0    0  0.00000000000E+00  0.00000000000E+00  0.62918428838E+03  0.36266647064E+04  0.35716696409E+04 0.  0.
        1    1    3    3  502    0  0.59871224797E+03  0.19868931379E+03 -0.13818428370E+04  0.15190205480E+04  0.50400001928E-02 0.  1.
       -1    1    3    3    0  502 -0.59871224797E+03 -0.19868931379E+03  0.20110271253E+04  0.21076441583E+04  0.50400001928E-02 0. -1.
</event>
<event>
 5   0  0.2198900E-07  0.3603962E+04  0.7818609E-02  0.8089585E-01
       -2   -1    0    0    0  501  0.00000000000E+00  0.00000000000E+00  0.23934542453E+04  0.23934542453E+04  0.25500000920E-02 0. -1.
        2   -1    0    0  501    0  0.00000000000E+00  0.00000000000E+00 -0.13566736467E+04  0.13566736467E+04  0.25500000920E-02 0.  1.
    10030    2    1    2    0    0  0.00000000000E+00  0.00000000000E+00  0.10367805986E+04  0.37501278920E+04  0.36039624299E+04 0.  0.
        2    1    3    3  502    0  0.82260507866E+03 -0.35906670736E+03 -0.11075204554E+04  0.14255558828E+04  0.25500000920E-02 0.  1.
       -2    1    3    3    0  502 -0.82260507866E+03  0.35906670736E+03  0.21443010540E+04  0.23245720092E+04  0.25500000920E-02 0. -1.
</event>
<event>
 5   0  0.7236375E-08  0.3607701E+04  0.7818609E-02  0.8088730E-01
        1   -1    0    0  501    0  0.00000000000E+00  0.00000000000E+00  0.22067056897E+04  0.22067056898E+04  0.50400001928E-02 0.  1.
       -1   -1    0    0    0  501  0.00000000000E+00  0.00000000000E+00 -0.14745402853E+04  0.14745402853E+04  0.50400001928E-02 0. -1.
    10030    2    1    2    0    0  0.00000000000E+00  0.00000000000E+00  0.73216540443E+03  0.36812459751E+04  0.36077008953E+04 0.  0.
        5    1    3    3  502    0 -0.26499771609E+03  0.11218682582E+04 -0.10496603429E+04  0.15590449332E+04  0.46999998093E+01 0. -1.
       -5    1    3    3    0  502  0.26499771609E+03 -0.11218682582E+04  0.17818257473E+04  0.21222010419E+04  0.46999998093E+01 0.  1.
</event>
<event>
 5   0  0.2199902E-07  0.3613330E+04  0.7818609E-02  0.8087445E-01
       -2   -1    0    0    0  501  0.00000000000E+00  0.00000000000E+00  0.17233492775E+04  0.17233492775E+04  0.25500000920E-02 0. -1.
        2   -1    0    0  501    0  0.00000000000E+00  0.00000000000E+00 -0.18940084408E+04  0.18940084408E+04  0.25500000920E-02 0.  1.
    10030    2    1    2    0    0  0.00000000000E+00  0.00000000000E+00 -0.17065916328E+03  0.36173577183E+04  0.36133298095E+04 0.  0.
        1    1    3    3  502    0  0.52973246597E+03  0.17170994199E+04  0.10193822079E+03  0.17998439667E+04  0.50400001928E-02 0. -1.
       -1    1    3    3    0  502 -0.52973246597E+03 -0.17170994199E+04 -0.27259738407E+03  0.18175137516E+04  0.50400001928E-02 0.  1.
</event>
<event>
 5   0  0.2342606E-07  0.3600914E+04  0.7818609E-02  0.8090282E-01
       -2   -1    0    0    0  501  0.00000000000E+00  0.00000000000E+00  0.24573822753E+04  0.24573822753E+04  0.25500000920E-02 0. -1.
        2   -1    0    0  501    0  0.00000000000E+00  0.00000000000E+00 -0.13191455420E+04  0.13191455420E+04  0.25500000920E-02 0.  1.
    10030    2    1    2    0    0  0.00000000000E+00  0.00000000000E+00  0.11382367333E+04  0.37765278174E+04  0.36009137027E+04 0.  0.
        5    1    3    3  502    0 -0.35642106265E+03 -0.17449106170E+04  0.29189042796E+03  0.18047080503E+04  0.46999998093E+01 0.  1.
       -5    1    3    3    0  502  0.35642106265E+03  0.17449106170E+04  0.84634630534E+03  0.19718197670E+04  0.46999998093E+01 0. -1.
</event>
<event>
 5   0  0.7236375E-08  0.3582712E+04  0.7818609E-02  0.8094463E-01
        1   -1    0    0  501    0  0.00000000000E+00  0.00000000000E+00  0.21370091448E+04  0.21370091448E+04  0.50400001928E-02 0.  1.
       -1   -1    0    0    0  501  0.00000000000E+00  0.00000000000E+00 -0.15016112681E+04  0.15016112681E+04  0.50400001928E-02 0. -1.
    10030    2    1    2    0    0  0.00000000000E+00  0.00000000000E+00  0.63539787674E+03  0.36386204129E+04  0.35827123869E+04 0.  0.
        1    1    3    3  502    0 -0.17174756977E+04 -0.47966700649E+03  0.14428962846E+03  0.17890284252E+04  0.50400001928E-02 0. -1.
       -1    1    3    3    0  502  0.17174756977E+04  0.47966700649E+03  0.49110824828E+03  0.18495919877E+04  0.50400001928E-02 0.  1.
</event>
<event>
 5   0  0.7514289E-08  0.3577219E+04  0.7818609E-02  0.8095730E-01
        1   -1    0    0  501    0  0.00000000000E+00  0.00000000000E+00  0.12015663927E+04  0.12015663927E+04  0.50400001928E-02 0.  1.
       -1   -1    0    0    0  501  0.00000000000E+00  0.00000000000E+00 -0.26624614348E+04  0.26624614348E+04  0.50400001928E-02 0. -1.
    10030    2    1    2    0    0  0.00000000000E+00  0.00000000000E+00 -0.14608950421E+04  0.38640278275E+04  0.35772191333E+04 0.  0.
        4    1    3    3  502    0 -0.94876400115E+03  0.85929402134E+03  0.61894459195E+03  0.14218415403E+04  0.12699999809E+01 0.  1.
       -4    1    3    3    0  502  0.94876400115E+03 -0.85929402134E+03 -0.20798396341E+04  0.24421862872E+04  0.12699999809E+01 0. -1.
</event>
<event>
 5   0  0.7514289E-08  0.3600620E+04  0.7818609E-02  0.8090350E-01
        1   -1    0    0  501    0  0.00000000000E+00  0.00000000000E+00  0.28078687817E+04  0.28078687817E+04  0.50400001928E-02 0. -1.
       -1   -1    0    0    0  501  0.00000000000E+00  0.00000000000E+00 -0.11542974288E+04  0.11542974288E+04  0.50400001928E-02 0.  1.
    10030    2    1    2    0    0  0.00000000000E+00  0.00000000000E+00  0.16535713529E+04  0.39621662106E+04  0.36006197885E+04 0.  0.
        4    1    3    3  502    0 -0.10581752161E+04  0.56873873490E+03 -0.64871723993E+03  0.13652963806E+04  0.12699999809E+01 0.  1.
       -4    1    3    3    0  502  0.10581752161E+04 -0.56873873490E+03  0.23022885928E+04  0.25968698300E+04  0.12699999809E+01 0. -1.
</event>
<event>
 5   0  0.2198900E-07  0.3644589E+04  0.7818609E-02  0.8080354E-01
       -2   -1    0    0    0  501  0.00000000000E+00  0.00000000000E+00  0.21074503143E+04  0.21074503143E+04  0.25500000920E-02 0.  1.
        2   -1    0    0  501    0  0.00000000000E+00  0.00000000000E+00 -0.15757228182E+04  0.15757228182E+04  0.25500000920E-02 0. -1.
    10030    2    1    2    0    0  0.00000000000E+00  0.00000000000E+00  0.53172749613E+03  0.36831731325E+04  0.36445891667E+04 0.  0.
        2    1    3    3  502    0  0.12940356392E+04 -0.11741945126E+04 -0.25681236696E+03  0.17661295481E+04  0.25500000920E-02 0.  1.
       -2    1    3    3    0  502 -0.12940356392E+04  0.11741945126E+04  0.78853986309E+03  0.19170435844E+04  0.25500000920E-02 0. -1.
</event>
<event>
 5   0  0.2198900E-07  0.3630219E+04  0.7818609E-02  0.8083605E-01
        2   -1    0    0  501    0  0.00000000000E+00  0.00000000000E+00  0.13276963564E+04  0.13276963564E+04  0.25500000920E-02 0. -1.
       -2   -1    0    0    0  501  0.00000000000E+00  0.00000000000E+00 -0.24814574681E+04  0.24814574681E+04  0.25500000920E-02 0.  1.
    10030    2    1    2    0    0  0.00000000000E+00  0.00000000000E+00 -0.11537611117E+04  0.38091538245E+04  0.36302187477E+04 0.  0.
        2    1    3    3  502    0  0.68453291580E+03  0.19647664327E+03 -0.23287348637E+04  0.24351990575E+04  0.25500000920E-02 0.  1.
       -2    1    3    3    0  502 -0.68453291580E+03 -0.19647664327E+03  0.11749737519E+04  0.13739547671E+04  0.25500000920E-02 0. -1.
</event>
<event>
 5   0  0.2309391E-07  0.3584904E+04  0.7818609E-02  0.8093958E-01
       -2   -1    0    0    0  501  0.00000000000E+00  0.00000000000E+00  0.20435196796E+04  0.20435196796E+04  0.25500000920E-02 0.  1.
        2   -1    0    0  501    0  0.00000000000E+00  0.00000000000E+00 -0.15722309066E+04  0.15722309066E+04  0.25500000920E-02 0. -1.
    10030    2    1    2    0    0  0.00000000000E+00  0.00000000000E+00  0.47128877298E+03  0.36157505862E+04  0.35849043494E+04 0.  0.
        4    1    3    3  502    0  0.77656760715E+03  0.16049283955E+04  0.42170603345E+03  0.18321271775E+04  0.12699999809E+01 0. -1.
       -4    1    3    3    0  502 -0.77656760715E+03 -0.16049283955E+04  0.49582739530E+02  0.17836234087E+04  0.12699999809E+01 0.  1.
</event>
<event>
 5   0  0.2342606E-07  0.3596174E+04  0.7818609E-02  0.8091369E-01
       -2   -1    0    0    0  501  0.00000000000E+00  0.00000000000E+00  0.10417395259E+04  0.10417395259E+04  0.25500000920E-02 0. -1.
        2   -1    0    0  501    0  0.00000000000E+00  0.00000000000E+00 -0.31035752919E+04  0.31035752919E+04  0.25500000920E-02 0.  1.
    10030    2    1    2    0    0  0.00000000000E+00  0.00000000000E+00 -0.20618357661E+04  0.41453148178E+04  0.35961741076E+04 0.  0.
        5    1    3    3  502    0 -0.11948802621E+04  0.41895784842E+03 -0.25025119286E+04  0.28046127294E+04  0.46999998093E+01 0.  1.
       -5    1    3    3    0  502  0.11948802621E+04 -0.41895784842E+03  0.44067616250E+03  0.13407020884E+04  0.46999998093E+01 0. -1.
</event>
<event>
 5   0  0.2198900E-07  0.3603707E+04  0.7818609E-02  0.8089643E-01
       -2   -1    0    0    0  501  0.00000000000E+00  0.00000000000E+00  0.15671640090E+04  0.15671640090E+04  0.25500000920E-02 0.  1.
        2   -1    0    0  501    0  0.00000000000E+00  0.00000000000E+00 -0.20716889117E+04  0.20716889117E+04  0.25500000920E-02 0. -1.
    10030    2    1    2    0    0  0.00000000000E+00  0.00000000000E+00 -0.50452490270E+03  0.36388529207E+04  0.36037071469E+04 0.  0.
        2    1    3    3  502    0 -0.22012863416E+03  0.52816047658E+03  0.14729868500E+04  0.15802216189E+04  0.25500000920E-02 0.  1.
       -2    1    3    3    0  502  0.22012863416E+03 -0.52816047658E+03 -0.19775117527E+04  0.20586313018E+04  0.25500000920E-02 0. -1.
</event>
<event>
 5   0  0.2199902E-07  0.3601911E+04  0.7818609E-02  0.8090054E-01
       -2   -1    0    0    0  501  0.00000000000E+00  0.00000000000E+00  0.13694235515E+04  0.13694235515E+04  0.25500000920E-02 0. -1.
        2   -1    0    0  501    0  0.00000000000E+00  0.00000000000E+00 -0.23684710864E+04  0.23684710864E+04  0.25500000920E-02 0.  1.
    10030    2    1    2    0    0  0.00000000000E+00  0.00000000000E+00 -0.99904753487E+03  0.37378946379E+04  0.36019106523E+04 0.  0.
        1    1    3    3  502    0  0.44451183305E+02  0.17591245959E+04 -0.10171780967E+03  0.17626235458E+04  0.50400001928E-02 0. -1.
       -1    1    3    3    0  502 -0.44451183305E+02 -0.17591245959E+04 -0.89732972520E+03  0.19752710921E+04  0.50400001928E-02 0.  1.
</event>
<event>
 5   0  0.2309391E-07  0.3609483E+04  0.7818609E-02  0.8088323E-01
       -2   -1    0    0    0  501  0.00000000000E+00  0.00000000000E+00  0.21840724327E+04  0.21840724327E+04  0.25500000920E-02 0.  1.
        2   -1    0    0  501    0  0.00000000000E+00  0.00000000000E+00 -0.14912931283E+04  0.14912931283E+04  0.25500000920E-02 0. -1.
    10030    2    1    2    0    0  0.00000000000E+00  0.00000000000E+00  0.69277930444E+03  0.36753655610E+04  0.36094831822E+04 0.  0.
        4    1    3    3  502    0  0.87083696181E+03  0.10228916741E+04 -0.88077420880E+03  0.16063714424E+04  0.12699999809E+01 0. -1.
       -4    1    3    3    0  502 -0.87083696181E+03 -0.10228916741E+04  0.15735535132E+04  0.20689941186E+04  0.12699999809E+01 0.  1.
</event>
<event>
 5   0  0.2309391E-07  0.3593111E+04  0.7818609E-02  0.8092072E-01
       -2   -1    0    0    0  501  0.00000000000E+00  0.00000000000E+00  0.13981519553E+04  0.13981519553E+04  0.25500000920E-02 0. -1.
        2   -1    0    0  501    0  0.00000000000E+00  0.00000000000E+00 -0.23084840899E+04  0.23084840899E+04  0.25500000920E-02 0.  1.
    10030    2    1    2    0    0  0.00000000000E+00  0.00000000000E+00 -0.91033213457E+03  0.37066360452E+04  0.35931109329E+04 0.  0.
        4    1    3    3  502    0  0.56011925113E+03 -0.15432686832E+04 -0.12077344870E+04  0.20381452372E+04  0.12699999809E+01 0.  1.
       -4    1    3    3    0  502 -0.56011925113E+03  0.15432686832E+04  0.29740235242E+03  0.16684908079E+04  0.12699999809E+01 0. -1.
</event>
<event>
 5   0  0.2342606E-07  0.3604828E+04  0.7818609E-02  0.8089387E-01
        2   -1    0    0  501    0  0.00000000000E+00  0.00000000000E+00  0.24534070275E+04  0.24534070275E+04  0.25500000920E-02 0. -1.
       -2   -1    0    0    0  501  0.00000000000E+00  0.00000000000E+00 -0.13241572103E+04  0.13241572103E+04  0.25500000920E-02 0.  1.
    10030    2    1    2    0    0  0.00000000000E+00  0.00000000000E+00  0.11292498172E+04  0.37775642379E+04  0.36048282097E+04 0.  0.
        5    1    3    3  502    0 -0.15230483602E+03  0.82789398276E+03 -0.11055042891E+04  0.13895204327E+04  0.46999998093E+01 0.  1.
       -5    1    3    3    0  502  0.15230483602E+03 -0.82789398276E+03  0.22347541063E+04  0.23880438051E+04  0.46999998093E+01 0. -1.
</event>
<event>
 5   0  0.7514289E-08  0.3592160E+04  0.7818609E-02  0.8092290E-01
       -1   -1    0    0    0  501  0.00000000000E+00  0.00000000000E+00  0.12407945462E+04  0.12407945462E+04  0.50400001928E-02 0.  1.
        1   -1    0    0  501    0  0.00000000000E+00  0.00000000000E+00 -0.25998689119E+04  0.25998689119E+04  0.50400001928E-02 0. -1.
    10030    2    1    2    0    0  0.00000000000E+00  0.00000000000E+00 -0.13590743657E+04  0.38406634581E+04  0.35921598888E+04 0.  0.
        4    1    3    3  502    0 -0.95366553502E+02 -0.25537853050E+03  0.12185464896E+04  0.12486673431E+04  0.12699999809E+01 0.  1.
       -4    1    3    3    0  502  0.95366553502E+02  0.25537853050E+03 -0.25776208554E+04  0.25919961150E+04  0.12699999809E+01 0. -1.
</event>
<event>
 5   0  0.2342606E-07  0.3617213E+04  0.7818609E-02  0.8086560E-01
        2   -1    0    0  501    0  0.00000000000E+00  0.00000000000E+00  0.15964684507E+04  0.15964684507E+04  0.25500000920E-02 0.  1.
       -2   -1    0    0    0  501  0.00000000000E+00  0.00000000000E+00 -0.20489333857E+04  0.20489333857E+04  0.25500000920E-02 0. -1.
    10030    2    1    2    0    0  0.00000000000E+00  0.00000000000E+00 -0.45246493504E+03  0.36454018364E+04  0.36172130199E+04 0.  0.
        5    1    3    3  502    0 -0.57958619290E+03 -0.28842840019E+03 -0.19281570884E+04  0.20339427093E+04  0.46999998093E+01 0. -1.
       -5    1    3    3    0  502  0.57958619290E+03  0.28842840019E+03  0.14756921533E+04  0.16114591271E+04  0.46999998093E+01 0.  1.
</event>
<event>
 5   0  0.2238968E-07  0.3614053E+04  0.7818609E-02  0.8087280E-01
        2   -1    0    0  501    0  0.00000000000E+00  0.00000000000E+00  0.19426525211E+04  0.19426525211E+04  0.25500000920E-02 0. -1.
       -2   -1    0    0    0  501  0.00000000000E+00  0.00000000000E+00 -0.16808695812E+04  0.16808695812E+04  0.25500000920E-02 0.  1.
    10030    2    1    2    0    0  0.00000000000E+00  0.00000000000E+00  0.26178293993E+03  0.36235221022E+04  0.36140534193E+04 0.  0.
        3    1    3    3  502    0  0.11434985874E+04  0.68639707354E+03  0.13533543588E+04  0.19000784175E+04  0.10100000352E+00 0. -1.
       -3    1    3    3    0  502 -0.11434985874E+04 -0.68639707354E+03 -0.10915714188E+04  0.17234436848E+04  0.10100000352E+00 0.  1.
</event>
<event>
 5   0  0.2342606E-07  0.3599264E+04  0.7818609E-02  0.8090660E-01
        2   -1    0    0  501    0  0.00000000000E+00  0.00000000000E+00  0.14603428802E+04  0.14603428802E+04  0.25500000920E-02 0.  1.
       -2   -1    0    0    0  501  0.00000000000E+00  0.00000000000E+00 -0.22177497081E+04  0.22177497081E+04  0.25500000920E-02 0. -1.
    10030    2    1    2    0    0  0.00000000000E+00  0.00000000000E+00 -0.75740682791E+03  0.36780925882E+04  0.35992638115E+04 0.  0.
        5    1    3    3  502    0 -0.28550060947E+03 -0.17249196942E+04  0.57008240393E+02  0.17493228915E+04  0.46999998093E+01 0. -1.
       -5    1    3    3    0  502  0.28550060947E+03  0.17249196942E+04 -0.81441506830E+03  0.19287696967E+04  0.46999998093E+01 0.  1.
</event>
<event>
 5   0  0.7236375E-08  0.3600341E+04  0.7818609E-02  0.8090413E-01
        1   -1    0    0  501    0  0.00000000000E+00  0.00000000000E+00  0.15935181269E+04  0.15935181270E+04  0.50400001928E-02 0. -1.
       -1   -1    0    0    0  501  0.00000000000E+00  0.00000000000E+00 -0.20336226963E+04  0.20336226963E+04  0.50400001928E-02 0.  1.
    10030    2    1    2    0    0  0.00000000000E+00  0.00000000000E+00 -0.44010456939E+03  0.36271408233E+04  0.36003414449E+04 0.  0.
        1    1    3    3  502    0 -0.11322307599E+04 -0.59010426649E+03  0.10584269792E+04  0.16584442135E+04  0.50400001928E-02 0. -1.
       -1    1    3    3    0  502  0.11322307599E+04  0.59010426649E+03 -0.14985315486E+04  0.19686966098E+04  0.50400001928E-02 0.  1.
</event>
<event>
 5   0  0.7236375E-08  0.3598873E+04  0.7818609E-02  0.8090750E-01
       -1   -1    0    0    0  501  0.00000000000E+00  0.00000000000E+00  0.16648837255E+04  0.16648837255E+04  0.50400001928E-02 0.  1.
        1   -1    0    0  501    0  0.00000000000E+00  0.00000000000E+00 -0.19448632670E+04  0.19448632670E+04  0.50400001928E-02 0. -1.
    10030    2    1    2    0    0  0.00000000000E+00  0.00000000000E+00 -0.27997954150E+03  0.36097469925E+04  0.35988727132E+04 0.  0.
        5    1    3    3  502    0 -0.42897013153E+03  0.45836056770E+03  0.15514744068E+04  0.16736799899E+04  0.46999998093E+01 0.  1.
       -5    1    3    3    0  502  0.42897013153E+03 -0.45836056770E+03 -0.18314539483E+04  0.19360670026E+04  0.46999998093E+01 0. -1.
</event>
<event>
 5   0  0.7236375E-08  0.3609316E+04  0.7818609E-02  0.8088361E-01
       -1   -1    0    0    0  501  0.00000000000E+00  0.00000000000E+00  0.22100816602E+04  0.22100816602E+04  0.50400001928E-02 0. -1.
        1   -1    0    0  501    0  0.00000000000E+00  0.00000000000E+00 -0.14736067976E+04  0.14736067976E+04  0.50400001928E-02 0.  1.
    10030    2    1    2    0    0  0.00000000000E+00  0.00000000000E+00  0.73647486259E+03  0.36836884578E+04  0.36093164770E+04 0.  0.
        5    1    3    3  502    0  0.46878646568E+03 -0.22031575606E+03 -0.13961028194E+04  0.14891020634E+04  0.46999998093E+01 0.  1.
       -5    1    3    3    0  502 -0.46878646568E+03  0.22031575606E+03  0.21325776820E+04  0.21945863944E+04  0.46999998093E+01 0. -1.
</event>
<event>
 5   0  0.2199902E-07  0.3590776E+04  0.7818609E-02  0.8092608E-01
       -2   -1    0    0    0  501  0.00000000000E+00  0.00000000000E+00  0.13506064179E+04  0.13506064179E+04  0.25500000920E-02 0. -1.
        2   -1    0    0  501    0  0.00000000000E+00  0.00000000000E+00 -0.23866454009E+04  0.23866454009E+04  0.25500000920E-02 0.  1.
    10030    2    1    2    0    0  0.00000000000E+00  0.00000000000E+00 -0.10360389830E+04  0.37372518188E+04  0.35907762925E+04 0.  0.
        1    1    3    3  502    0  0.86172821628E+03  0.12717823052E+03  0.11159475577E+04  0.14156584237E+04  0.50400001928E-02 0. -1.
       -1    1    3    3    0  502 -0.86172821628E+03 -0.12717823052E+03 -0.21519865407E+04  0.23215933951E+04  0.50400001928E-02 0.  1.
</event>
<event>
 5   0  0.2199902E-07  0.3597837E+04  0.7818609E-02  0.8090987E-01
       -2   -1    0    0    0  501  0.00000000000E+00  0.00000000000E+00  0.13773578030E+04  0.13773578030E+04  0.25500000920E-02 0.  1.
        2   -1    0    0  501    0  0.00000000000E+00  0.00000000000E+00 -0.23495040211E+04  0.23495040211E+04  0.25500000920E-02 0. -1.
    10030    2    1    2    0    0  0.00000000000E+00  0.00000000000E+00 -0.97214621813E+03  0.37268618240E+04  0.35978369593E+04 0.  0.
        1    1    3    3  502    0  0.24657961971E+03  0.39620207364E+03  0.13135649956E+04  0.13939980594E+04  0.50400001928E-02 0.  1.
       -1    1    3    3    0  502 -0.24657961971E+03 -0.39620207364E+03 -0.22857112137E+04  0.23328637646E+04  0.50400001928E-02 0. -1.
</event>
<event>
 5   0  0.7514289E-08  0.3601423E+04  0.7818609E-02  0.8090166E-01
       -1   -1    0    0    0  501  0.00000000000E+00  0.00000000000E+00  0.17824039522E+04  0.17824039522E+04  0.50400001928E-02 0. -1.
        1   -1    0    0  501    0  0.00000000000E+00  0.00000000000E+00 -0.18192069446E+04  0.18192069446E+04  0.50400001928E-02 0.  1.
    10030    2    1    2    0    0  0.00000000000E+00  0.00000000000E+00 -0.36802992380E+02  0.36016108969E+04  0.36014228566E+04 0.  0.
        4    1    3    3  502    0  0.17081843575E+04 -0.56773551697E+03 -0.66804628891E+02  0.18013000549E+04  0.12699999809E+01 0. -1.
       -4    1    3    3    0  502 -0.17081843575E+04  0.56773551697E+03  0.30001636512E+02  0.18003108419E+04  0.12699999809E+01 0.  1.
</event>
<event>
 5   0  0.2198900E-07  0.3596055E+04  0.7818609E-02  0.8091396E-01
       -2   -1    0    0    0  501  0.00000000000E+00  0.00000000000E+00  0.13585173596E+04  0.13585173596E+04  0.25500000920E-02 0. -1.
        2   -1    0    0  501    0  0.00000000000E+00  0.00000000000E+00 -0.23797287019E+04  0.23797287019E+04  0.25500000920E-02 0.  1.
    10030    2    1    2    0    0  0.00000000000E+00  0.00000000000E+00 -0.10212113424E+04  0.37382460615E+04  0.35960549232E+04 0.  0.
        2    1    3    3  502    0 -0.21094213376E+03  0.16974439542E+04  0.65463375976E+02  0.17117529071E+04  0.25500000920E-02 0.  1.
       -2    1    3    3    0  502  0.21094213376E+03 -0.16974439542E+04 -0.10866747183E+04  0.20264931544E+04  0.25500000920E-02 0. -1.
</event>
<event>
 5   0  0.2342606E-07  0.3684663E+04  0.7818609E-02  0.8071369E-01
       -2   -1    0    0    0  501  0.00000000000E+00  0.00000000000E+00  0.21069515668E+04  0.21069515668E+04  0.25500000920E-02 0. -1.
        2   -1    0    0  501    0  0.00000000000E+00  0.00000000000E+00 -0.16109458463E+04  0.16109458463E+04  0.25500000920E-02 0.  1.
    10030    2    1    2    0    0  0.00000000000E+00  0.00000000000E+00  0.49600572050E+03  0.37178974131E+04  0.36846627389E+04 0.  0.
        5    1    3    3  502    0  0.86291562076E+03 -0.27274330485E+03  0.18672046232E+04  0.20749668609E+04  0.46999998093E+01 0. -1.
       -5    1    3    3    0  502 -0.86291562076E+03  0.27274330485E+03 -0.13711989027E+04  0.16429305523E+04  0.46999998093E+01 0.  1.
</event>
<event>
 5   0  0.2342606E-07  0.3597877E+04  0.7818609E-02  0.8090978E-01
        2   -1    0    0  501    0  0.00000000000E+00  0.00000000000E+00  0.20819185438E+04  0.20819185438E+04  0.25500000920E-02 0. -1.
       -2   -1    0    0    0  501  0.00000000000E+00  0.00000000000E+00 -0.15544216522E+04  0.15544216522E+04  0.25500000920E-02 0.  1.
    10030    2    1    2    0    0  0.00000000000E+00  0.00000000000E+00  0.52749689165E+03  0.36363401960E+04  0.35978767420E+04 0.  0.
        5    1    3    3  502    0 -0.62916834735E+03 -0.35655015156E+03 -0.14010330396E+04  0.15766726001E+04  0.46999998093E+01 0.  1.
       -5    1    3    3    0  502  0.62916834735E+03  0.35655015156E+03  0.19285299313E+04  0.20596675959E+04  0.46999998093E+01 0. -1.
</event>
<event>
 5   0  0.7236375E-08  0.3601885E+04  0.7818609E-02  0.8090060E-01
       -1   -1    0    0    0  501  0.00000000000E+00  0.00000000000E+00  0.15035878380E+04  0.15035878380E+04  0.50400001928E-02 0.  1.
        1   -1    0    0  501    0  0.00000000000E+00  0.00000000000E+00 -0.21571025195E+04  0.21571025195E+04  0.50400001928E-02 0. -1.
    10030    2    1    2    0    0  0.00000000000E+00  0.00000000000E+00 -0.65351468147E+03  0.36606903575E+04  0.36018845699E+04 0.  0.
        1    1    3    3  502    0 -0.91878075070E+03  0.72897030985E+02  0.12457334763E+04  0.15496205790E+04  0.50400001928E-02 0.  1.
       -1    1    3    3    0  502  0.91878075070E+03 -0.72897030985E+02 -0.18992481577E+04  0.21110697785E+04  0.50400001928E-02 0. -1.
</event>
<event>
 5   0  0.7514289E-08  0.3693649E+04  0.7818609E-02  0.8069371E-01
       -1   -1    0    0    0  501  0.00000000000E+00  0.00000000000E+00  0.16989458681E+04  0.16989458681E+04  0.50400001928E-02 0. -1.
        1   -1    0    0  501    0  0.00000000000E+00  0.00000000000E+00 -0.20075747266E+04  0.20075747266E+04  0.50400001928E-02 0.  1.
    10030    2    1    2    0    0  0.00000000000E+00  0.00000000000E+00 -0.30862885850E+03  0.37065205948E+04  0.36936490287E+04 0.  0.
        4    1    3    3  502    0 -0.15652081366E+04 -0.58738228017E+03 -0.94181967300E+03  0.19188330733E+04  0.12699999809E+01 0.  1.
       -4    1    3    3    0  502  0.15652081366E+04  0.58738228017E+03  0.63319081450E+03  0.17876875215E+04  0.12699999809E+01 0. -1.
</event>
<event>
 5   0  0.2238968E-07  0.3642159E+04  0.7818609E-02  0.8080902E-01
       -2   -1    0    0    0  501  0.00000000000E+00  0.00000000000E+00  0.15663637954E+04  0.15663637954E+04  0.25500000920E-02 0. -1.
        2   -1    0    0  501    0  0.00000000000E+00  0.00000000000E+00 -0.21172158264E+04  0.21172158264E+04  0.25500000920E-02 0.  1.
    10030    2    1    2    0    0  0.00000000000E+00  0.00000000000E+00 -0.55085203098E+03  0.36835796219E+04  0.36421588201E+04 0.  0.
        3    1    3    3  502    0  0.13595947087E+04  0.68864592955E+03 -0.12835566285E+04  0.19925482722E+04  0.10100000352E+00 0.  1.
       -3    1    3    3    0  502 -0.13595947087E+04 -0.68864592955E+03  0.73270459754E+03  0.16910313497E+04  0.10100000352E+00 0. -1.
</event>
<event>
 5   0  0.2199902E-07  0.3566539E+04  0.7818609E-02  0.8098200E-01
        2   -1    0    0  501    0  0.00000000000E+00  0.00000000000E+00  0.10432622515E+04  0.10432622515E+04  0.25500000920E-02 0.  1.
       -2   -1    0    0    0  501  0.00000000000E+00  0.00000000000E+00 -0.30481789286E+04  0.30481789286E+04  0.25500000920E-02 0. -1.
    10030    2    1    2    0    0  0.00000000000E+00  0.00000000000E+00 -0.20049166770E+04  0.40914411801E+04  0.35665389453E+04 0.  0.
        1    1    3    3  502    0 -0.12008977720E+04  0.15361037109E+03  0.49955072076E+03  0.13096955858E+04  0.50400001928E-02 0.  1.
       -1    1    3    3    0  502  0.12008977720E+04 -0.15361037109E+03 -0.25044673978E+04  0.27817455943E+04  0.50400001928E-02 0. -1.
</event>
<event>
 5   0  0.2342606E-07  0.3608971E+04  0.7818609E-02  0.8088440E-01
       -2   -1    0    0    0  501  0.00000000000E+00  0.00000000000E+00  0.14237067147E+04  0.14237067147E+04  0.25500000920E-02 0. -1.
        2   -1    0    0  501    0  0.00000000000E+00  0.00000000000E+00 -0.22871053389E+04  0.22871053389E+04  0.25500000920E-02 0.  1.
    10030    2    1    2    0    0  0.00000000000E+00  0.00000000000E+00 -0.86339862420E+03  0.37108120536E+04  0.36089706168E+04 0.  0.
        5    1    3    3  502    0  0.14496727873E+04  0.98559469348E+03  0.83940804570E+01  0.17530090247E+04  0.46999998093E+01 0. -1.
       -5    1    3    3    0  502 -0.14496727873E+04 -0.98559469348E+03 -0.87179270466E+03  0.19578030289E+04  0.46999998093E+01 0.  1.
</event>
<event>
 5   0  0.2342606E-07  0.3617330E+04  0.7818609E-02  0.8086534E-01
       -2   -1    0    0    0  501  0.00000000000E+00  0.00000000000E+00  0.14086250049E+04  0.14086250049E+04  0.25500000920E-02 0.  1.
        2   -1    0    0  501    0  0.00000000000E+00  0.00000000000E+00 -0.23223136557E+04  0.23223136557E+04  0.25500000920E-02 0. -1.
    10030    2    1    2    0    0  0.00000000000E+00  0.00000000000E+00 -0.91368865076E+03  0.37309386606E+04  0.36173300014E+04 0.  0.
        5    1    3    3  502    0  0.13318056870E+04  0.10687330465E+04  0.15799029065E+03  0.17148993366E+04  0.46999998093E+01 0.  1.
       -5    1    3    3    0  502 -0.13318056870E+04 -0.10687330465E+04 -0.10716789414E+04  0.20160393240E+04  0.46999998093E+01 0. -1.
</event>
<event>
 5   0  0.2238968E-07  0.3586246E+04  0.7818609E-02  0.8093649E-01
        2   -1    0    0  501    0  0.00000000000E+00  0.00000000000E+00  0.21321986791E+04  0.21321986791E+04  0.25500000920E-02 0.  1.
       -2   -1    0    0    0  501  0.00000000000E+00  0.00000000000E+00 -0.15079694328E+04  0.15079694328E+04  0.25500000920E-02 0. -1.
    10030    2    1    2    0    0  0.00000000000E+00  0.00000000000E+00  0.62422924624E+03  0.36401681119E+04  0.35862461894E+04 0.  0.
        3    1    3    3  502    0 -0.17885022010E+04 -0.74868669537E+02  0.41830590496E+03  0.18382941226E+04  0.10100000352E+00 0.  1.
       -3    1    3    3    0  502  0.17885022010E+04  0.74868669537E+02  0.20592334128E+03  0.18018739893E+04  0.10100000352E+00 0. -1.
</event>
<event>
 5   0  0.2309391E-07  0.3598771E+04  0.7818609E-02  0.8090773E-01
        2   -1    0    0  501    0  0.00000000000E+00  0.00000000000E+00  0.23647186036E+04  0.23647186036E+04  0.25500000920E-02 0. -1.
       -2   -1    0    0    0  501  0.00000000000E+00  0.00000000000E+00 -0.13692066579E+04  0.13692066579E+04  0.25500000920E-02 0.  1.
    10030    2    1    2    0    0  0.00000000000E+00  0.00000000000E+00  0.99551194574E+03  0.37339252615E+04  0.35987711548E+04 0.  0.
        4    1    3    3  502    0 -0.92804058553E+03  0.88033417375E+03 -0.81529076282E+03  0.15168876777E+04  0.12699999809E+01 0.  1.
       -4    1    3    3    0  502  0.92804058553E+03 -0.88033417375E+03  0.18108027086E+04  0.22170375838E+04  0.12699999809E+01 0. -1.
</event>
<event>
 5   0  0.7236375E-08  0.3466904E+04  0.7818609E-02  0.8121678E-01
       -3   -1    0    0    0  501  0.00000000000E+00  0.00000000000E+00  0.33774801223E+04  0.33774801238E+04  0.10100000352E+00 0.  1.
        3   -1    0    0  501    0  0.00000000000E+00  0.00000000000E+00 -0.88967386254E+03  0.88967386828E+03  0.10100000352E+00 0. -1.
    10030    2    1    2    0    0  0.00000000000E+00  0.00000000000E+00  0.24878062598E+04  0.42671539921E+04  0.34669039800E+04 0.  0.
        3    1    3    3  502    0  0.11384449408E+04  0.12710860659E+04  0.86827114071E+03  0.19145786623E+04  0.10100000352E+00 0. -1.
       -3    1    3    3    0  502 -0.11384449408E+04 -0.12710860659E+04  0.16195351191E+04  0.23525753298E+04  0.10100000352E+00 0.  1.
</event>
<event>
 5   0  0.2238968E-07  0.3628802E+04  0.7818609E-02  0.8083926E-01
       -2   -1    0    0    0  501  0.00000000000E+00  0.00000000000E+00  0.15264104271E+04  0.15264104271E+04  0.25500000920E-02 0.  1.
        2   -1    0    0  501    0  0.00000000000E+00  0.00000000000E+00 -0.21567276751E+04  0.21567276751E+04  0.25500000920E-02 0. -1.
    10030    2    1    2    0    0  0.00000000000E+00  0.00000000000E+00 -0.63031724809E+03  0.36831381022E+04  0.36288023433E+04 0.  0.
        3    1    3    3  502    0  0.18195777910E+03  0.93574902724E+03 -0.18820741019E+04  0.21097245817E+04  0.10100000352E+00 0. -1.
       -3    1    3    3    0  502 -0.18195777910E+03 -0.93574902724E+03  0.12517568538E+04  0.15734135205E+04  0.10100000352E+00 0.  1.
</event>
<event>
 5   0  0.2309391E-07  0.3603725E+04  0.7818609E-02  0.8089639E-01
        2   -1    0    0  501    0  0.00000000000E+00  0.00000000000E+00  0.17097816512E+04  0.17097816512E+04  0.25500000920E-02 0. -1.
       -2   -1    0    0    0  501  0.00000000000E+00  0.00000000000E+00 -0.18989021550E+04  0.18989021550E+04  0.25500000920E-02 0.  1.
    10030    2    1    2    0    0  0.00000000000E+00  0.00000000000E+00 -0.18912050378E+03  0.36086838062E+04  0.36037247742E+04 0.  0.
        4    1    3    3  502    0 -0.89528452967E+03  0.95756925739E+03  0.11433581740E+04  0.17394662396E+04  0.12699999809E+01 0. -1.
       -4    1    3    3    0  502  0.89528452967E+03 -0.95756925739E+03 -0.13324786778E+04  0.18692175666E+04  0.12699999809E+01 0.  1.
</event>
<event>
 5   0  0.2199902E-07  0.3594629E+04  0.7818609E-02  0.8091723E-01
        2   -1    0    0  501    0  0.00000000000E+00  0.00000000000E+00  0.21180212414E+04  0.21180212414E+04  0.25500000920E-02 0.  1.
       -2   -1    0    0    0  501  0.00000000000E+00  0.00000000000E+00 -0.15251682504E+04  0.15251682504E+04  0.25500000920E-02 0. -1.
    10030    2    1    2    0    0  0.00000000000E+00  0.00000000000E+00  0.59285299101E+03  0.36431894917E+04  0.35946286323E+04 0.  0.
        1    1    3    3  502    0  0.76559022338E+02  0.68013610126E+03  0.19807717022E+04  0.20956867457E+04  0.50400001928E-02 0.  1.
       -1    1    3    3    0  502 -0.76559022338E+02 -0.68013610126E+03 -0.13879187111E+04  0.15475027460E+04  0.50400001928E-02 0. -1.
</event>
<event>
 5   0  0.7514289E-08  0.3614309E+04  0.7818609E-02  0.8087222E-01
        1   -1    0    0  501    0  0.00000000000E+00  0.00000000000E+00  0.11776275305E+04  0.11776275305E+04  0.50400001928E-02 0.  1.
       -1   -1    0    0    0  501  0.00000000000E+00  0.00000000000E+00 -0.27732087422E+04  0.27732087422E+04  0.50400001928E-02 0. -1.
    10030    2    1    2    0    0  0.00000000000E+00  0.00000000000E+00 -0.15955812117E+04  0.39508362727E+04  0.36143087653E+04 0.  0.
        4    1    3    3  502    0  0.60086237044E+03 -0.15438784955E+04 -0.15869590566E+04  0.22941310027E+04  0.12699999809E+01 0. -1.
       -4    1    3    3    0  502 -0.60086237044E+03  0.15438784955E+04 -0.86221550633E+01  0.16567052700E+04  0.12699999809E+01 0.  1.
</event>
<event>
 5   0  0.2238968E-07  0.3577819E+04  0.7818609E-02  0.8095591E-01
        2   -1    0    0  501    0  0.00000000000E+00  0.00000000000E+00  0.17919161677E+04  0.17919161677E+04  0.25500000920E-02 0. -1.
       -2   -1    0    0    0  501  0.00000000000E+00  0.00000000000E+00 -0.17859078236E+04  0.17859078236E+04  0.25500000920E-02 0.  1.
    10030    2    1    2    0    0  0.00000000000E+00  0.00000000000E+00  0.60083440782E+01  0.35778239913E+04  0.35778189463E+04 0.  0.
        3    1    3    3  502    0  0.11003047394E+04 -0.91603971443E+03 -0.10695633360E+04  0.17871108018E+04  0.10100000352E+00 0.  1.
       -3    1    3    3    0  502 -0.11003047394E+04  0.91603971443E+03  0.10755716800E+04  0.17907131895E+04  0.10100000352E+00 0. -1.
</event>
<event>
 5   0  0.2342606E-07  0.3601924E+04  0.7818609E-02  0.8090051E-01
       -2   -1    0    0    0  501  0.00000000000E+00  0.00000000000E+00  0.15397105170E+04  0.15397105170E+04  0.25500000920E-02 0.  1.
        2   -1    0    0  501    0  0.00000000000E+00  0.00000000000E+00 -0.21065416782E+04  0.21065416782E+04  0.25500000920E-02 0. -1.
    10030    2    1    2    0    0  0.00000000000E+00  0.00000000000E+00 -0.56683116111E+03  0.36462521952E+04  0.36019241394E+04 0.  0.
        5    1    3    3  502    0  0.30932027041E+03 -0.49978163585E+03  0.14398807037E+04  0.15552296435E+04  0.46999998093E+01 0.  1.
       -5    1    3    3    0  502 -0.30932027041E+03  0.49978163585E+03 -0.20067118648E+04  0.20910225517E+04  0.46999998093E+01 0. -1.
</event>
<event>
 5   0  0.7261233E-08  0.3594620E+04  0.7818609E-02  0.8091725E-01
       -1   -1    0    0    0  501  0.00000000000E+00  0.00000000000E+00  0.21829029022E+04  0.21829029022E+04  0.50400001928E-02 0. -1.
        1   -1    0    0  501    0  0.00000000000E+00  0.00000000000E+00 -0.14798287848E+04  0.14798287848E+04  0.50400001928E-02 0.  1.
    10030    2    1    2    0    0  0.00000000000E+00  0.00000000000E+00  0.70307411739E+03  0.36627316869E+04  0.35946196177E+04 0.  0.
        3    1    3    3  502    0 -0.17641074253E+04  0.21375902283E+03  0.77073510123E+02  0.17786816084E+04  0.10100000352E+00 0.  1.
       -3    1    3    3    0  502  0.17641074253E+04 -0.21375902283E+03  0.62600060727E+03  0.18840500785E+04  0.10100000352E+00 0. -1.
</event>
<event>
 5   0  0.7514289E-08  0.3596795E+04  0.7818609E-02  0.8091226E-01
        1   -1    0    0  501    0  0.00000000000E+00  0.00000000000E+00  0.19541500779E+04  0.19541500779E+04  0.50400001928E-02 0.  1.
       -1   -1    0    0    0  501  0.00000000000E+00  0.00000000000E+00 -0.16550589189E+04  0.16550589189E+04  0.50400001928E-02 0. -1.
    10030    2    1    2    0    0  0.00000000000E+00  0.00000000000E+00  0.29909115905E+03  0.36092089968E+04  0.35967949707E+04 0.  0.
        4    1    3    3  502    0  0.13985727865E+04  0.11172111030E+04  0.32353784714E+03  0.18190230452E+04  0.12699999809E+01 0.  1.
       -4    1    3    3    0  502 -0.13985727865E+04 -0.11172111030E+04 -0.24446688083E+02  0.17901859515E+04  0.12699999809E+01 0. -1.
</event>
<event>
 5   0  0.2309391E-07  0.3609887E+04  0.7818609E-02  0.8088231E-01
        2   -1    0    0  501    0  0.00000000000E+00  0.00000000000E+00  0.16285940522E+04  0.16285940522E+04  0.25500000920E-02 0.  1.
       -2   -1    0    0    0  501  0.00000000000E+00  0.00000000000E+00 -0.20003887341E+04  0.20003887341E+04  0.25500000920E-02 0. -1.
    10030    2    1    2    0    0  0.00000000000E+00  0.00000000000E+00 -0.37179468196E+03  0.36289827863E+04  0.36098870865E+04 0.  0.
        4    1    3    3  502    0 -0.10572689268E+04  0.11982007927E+04 -0.10295726362E+04  0.19009271815E+04  0.12699999809E+01 0. -1.
       -4    1    3    3    0  502  0.10572689268E+04 -0.11982007927E+04  0.65777795424E+03  0.17280556048E+04  0.12699999809E+01 0.  1.
</event>
<event>
 5   0  0.7261233E-08  0.3602903E+04  0.7818609E-02  0.8089827E-01
       -1   -1    0    0    0  501  0.00000000000E+00  0.00000000000E+00  0.24521697709E+04  0.24521697709E+04  0.50400001928E-02 0.  1.
        1   -1    0    0  501    0  0.00000000000E+00  0.00000000000E+00 -0.13234103637E+04  0.13234103637E+04  0.50400001928E-02 0. -1.
    10030    2    1    2    0    0  0.00000000000E+00  0.00000000000E+00  0.11287594072E+04  0.37755801346E+04  0.36029026567E+04 0.  0.
        3    1    3    3  502    0  0.85202366738E+03 -0.14528980058E+04 -0.10528597840E+03  0.16875846919E+04  0.10100000352E+00 0. -1.
       -3    1    3    3    0  502 -0.85202366738E+03  0.14528980058E+04  0.12340453856E+04  0.20879954427E+04  0.10100000352E+00 0.  1.
</event>
<event>
 5   0  0.2342606E-07  0.3573361E+04  0.7818609E-02  0.8096621E-01
       -2   -1    0    0    0  501  0.00000000000E+00  0.00000000000E+00  0.12344562300E+04  0.12344562300E+04  0.25500000920E-02 0. -1.
        2   -1    0    0  501    0  0.00000000000E+00  0.00000000000E+00 -0.25859377935E+04  0.25859377935E+04  0.25500000920E-02 0.  1.
    10030    2    1    2    0    0  0.00000000000E+00  0.00000000000E+00 -0.13514815635E+04  0.38203940234E+04  0.35733608939E+04 0.  0.
        5    1    3    3  502    0  0.30452310486E+03  0.11051779282E+04 -0.21409010202E+04  0.24285040339E+04  0.46999998093E+01 0.  1.
       -5    1    3    3    0  502 -0.30452310486E+03 -0.11051779282E+04  0.78941945670E+03  0.13918899895E+04  0.46999998093E+01 0. -1.
</event>
<event>
 5   0  0.2198900E-07  0.3593338E+04  0.7818609E-02  0.8092019E-01
       -2   -1    0    0    0  501  0.00000000000E+00  0.00000000000E+00  0.19171986961E+04  0.19171986961E+04  0.25500000920E-02 0. -1.
        2   -1    0    0  501    0  0.00000000000E+00  0.00000000000E+00 -0.16837171039E+04  0.16837171040E+04  0.25500000920E-02 0.  1.
    10030    2    1    2    0    0  0.00000000000E+00  0.00000000000E+00  0.23348159218E+03  0.36009158001E+04  0.35933384123E+04 0.  0.
        2    1    3    3  502    0 -0.21638884330E+03 -0.10509321715E+04  0.15608687257E+04  0.18940944378E+04  0.25500000920E-02 0. -1.
       -2    1    3    3    0  502  0.21638884330E+03  0.10509321715E+04 -0.13273871335E+04  0.17068213623E+04  0.25500000920E-02 0.  1.
</event>
<event>
 5   0  0.2342606E-07  0.3601476E+04  0.7818609E-02  0.8090154E-01
        2   -1    0    0  501    0  0.00000000000E+00  0.00000000000E+00  0.11761715053E+04  0.11761715053E+04  0.25500000920E-02 0. -1.
       -2   -1    0    0    0  501  0.00000000000E+00  0.00000000000E+00 -0.27569600863E+04  0.27569600863E+04  0.25500000920E-02 0.  1.
    10030    2    1    2    0    0  0.00000000000E+00  0.00000000000E+00 -0.15807885810E+04  0.39331315916E+04  0.36014763055E+04 0.  0.
        5    1    3    3  502    0  0.11520383265E+04 -0.79703879380E+01  0.72102647958E+03  0.13591015809E+04  0.46999998093E+01 0. -1.
       -5    1    3    3    0  502 -0.11520383265E+04  0.79703879380E+01 -0.23018150606E+04  0.25740300107E+04  0.46999998093E+01 0.  1.
</event>
<event>
 5   0  0.7236375E-08  0.3612291E+04  0.7818609E-02  0.8087682E-01
       -1   -1    0    0    0  501  0.00000000000E+00  0.00000000000E+00  0.14845867067E+04  0.14845867067E+04  0.50400001928E-02 0. -1.
        1   -1    0    0  501    0  0.00000000000E+00  0.00000000000E+00 -0.21973531963E+04  0.21973531963E+04  0.50400001928E-02 0.  1.
    10030    2    1    2    0    0  0.00000000000E+00  0.00000000000E+00 -0.71276648960E+03  0.36819399030E+04  0.36122908771E+04 0.  0.
        5    1    3    3  502    0  0.86934738291E+03 -0.19995388476E+02  0.12571663213E+04  0.15286117680E+04  0.46999998093E+01 0. -1.
       -5    1    3    3    0  502 -0.86934738291E+03  0.19995388476E+02 -0.19699328109E+04  0.21533281351E+04  0.46999998093E+01 0.  1.
</event>
<event>
 5   0  0.7514289E-08  0.3581995E+04  0.7818609E-02  0.8094628E-01
        1   -1    0    0  501    0  0.00000000000E+00  0.00000000000E+00  0.29957862529E+04  0.29957862529E+04  0.50400001928E-02 0.  1.
       -1   -1    0    0    0  501  0.00000000000E+00  0.00000000000E+00 -0.10707278610E+04  0.10707278610E+04  0.50400001928E-02 0. -1.
    10030    2    1    2    0    0  0.00000000000E+00  0.00000000000E+00  0.19250583919E+04  0.40665141139E+04  0.35819948668E+04 0.  0.
        4    1    3    3  502    0  0.33320709538E+03  0.57159180403E+03  0.28519618247E+04  0.29277008080E+04  0.12699999809E+01 0.  1.
       -4    1    3    3    0  502 -0.33320709538E+03 -0.57159180403E+03 -0.92690343282E+03  0.11388133058E+04  0.12699999809E+01 0. -1.
</event>
<event>
 5   0  0.2238968E-07  0.3610440E+04  0.7818609E-02  0.8088105E-01
       -2   -1    0    0    0  501  0.00000000000E+00  0.00000000000E+00  0.14458763429E+04  0.14458763429E+04  0.25500000920E-02 0.  1.
        2   -1    0    0  501    0  0.00000000000E+00  0.00000000000E+00 -0.22538710266E+04  0.22538710266E+04  0.25500000920E-02 0. -1.
    10030    2    1    2    0    0  0.00000000000E+00  0.00000000000E+00 -0.80799468370E+03  0.36997473695E+04  0.36104397502E+04 0.  0.
        3    1    3    3  502    0 -0.75331248757E+03 -0.12741968856E+04 -0.14628830153E+04  0.20811256891E+04  0.10100000352E+00 0. -1.
       -3    1    3    3    0  502  0.75331248757E+03  0.12741968856E+04  0.65488833161E+03  0.16186216804E+04  0.10100000352E+00 0.  1.
</event>
<event>
 5   0  0.7347303E-08  0.3587360E+04  0.7818609E-02  0.8093393E-01
        1   -1    0    0  501    0  0.00000000000E+00  0.00000000000E+00  0.14777124333E+04  0.14777124333E+04  0.50400001928E-02 0. -1.
       -1   -1    0    0    0  501  0.00000000000E+00  0.00000000000E+00 -0.21772086290E+04  0.21772086290E+04  0.50400001928E-02 0.  1.
    10030    2    1    2    0    0  0.00000000000E+00  0.00000000000E+00 -0.69949619567E+03  0.36549210623E+04  0.35873601777E+04 0.  0.
        2    1    3    3  502    0  0.23446849587E+03 -0.18175831199E+03  0.14525432680E+04  0.14825294280E+04  0.25500000920E-02 0. -1.
       -2    1    3    3    0  502 -0.23446849587E+03  0.18175831199E+03 -0.21520394637E+04  0.21723916343E+04  0.25500000920E-02 0.  1.
</event>
<event>
 5   0  0.2309391E-07  0.3594606E+04  0.7818609E-02  0.8091728E-01
        2   -1    0    0  501    0  0.00000000000E+00  0.00000000000E+00  0.27901423111E+04  0.27901423111E+04  0.25500000920E-02 0.  1.
       -2   -1    0    0    0  501  0.00000000000E+00  0.00000000000E+00 -0.11577538501E+04  0.11577538501E+04  0.25500000920E-02 0. -1.
    10030    2    1    2    0    0  0.00000000000E+00  0.00000000000E+00  0.16323884610E+04  0.39478961612E+04  0.35946059606E+04 0.  0.
        4    1    3    3  502    0  0.64335400423E+03 -0.16759829434E+04  0.72125025573E+03  0.19346903488E+04  0.12699999809E+01 0. -1.
       -4    1    3    3    0  502 -0.64335400423E+03  0.16759829434E+04  0.91113820525E+03  0.20132058125E+04  0.12699999809E+01 0.  1.
</event>
<event>
 5   0  0.7514289E-08  0.3604256E+04  0.7818609E-02  0.8089518E-01
        1   -1    0    0  501    0  0.00000000000E+00  0.00000000000E+00  0.21776482008E+04  0.21776482008E+04  0.50400001928E-02 0. -1.
       -1   -1    0    0    0  501  0.00000000000E+00  0.00000000000E+00 -0.14913633290E+04  0.14913633290E+04  0.50400001928E-02 0.  1.
    10030    2    1    2    0    0  0.00000000000E+00  0.00000000000E+00  0.68628487187E+03  0.36690115298E+04  0.36042556347E+04 0.  0.
        4    1    3    3  502    0 -0.17644280945E+03 -0.17585615184E+04  0.70159441725E+03  0.19015538431E+04  0.12699999809E+01 0.  1.
       -4    1    3    3    0  502  0.17644280945E+03  0.17585615184E+04 -0.15309545381E+02  0.17674576867E+04  0.12699999809E+01 0. -1.
</event>
<event>
 5   0  0.7236375E-08  0.3528932E+04  0.7818609E-02  0.8106967E-01
        1   -1    0    0  501    0  0.00000000000E+00  0.00000000000E+00  0.16743521428E+04  0.16743521428E+04  0.50400001928E-02 0.  1.
       -1   -1    0    0    0  501  0.00000000000E+00  0.00000000000E+00 -0.18594301408E+04  0.18594301408E+04  0.50400001928E-02 0. -1.
    10030    2    1    2    0    0  0.00000000000E+00  0.00000000000E+00 -0.18507799801E+03  0.35337822836E+04  0.35289323261E+04 0.  0.
        1    1    3    3  502    0  0.19811632282E+03  0.15540947996E+04 -0.90536887904E+03  0.18094622214E+04  0.50400001928E-02 0. -1.
       -1    1    3    3    0  502 -0.19811632282E+03 -0.15540947996E+04  0.72029088103E+03  0.17243200622E+04  0.50400001928E-02 0.  1.
</event>
<event>
 5   0  0.7236375E-08  0.3601389E+04  0.7818609E-02  0.8090174E-01
       -1   -1    0    0    0  501  0.00000000000E+00  0.00000000000E+00  0.15615469297E+04  0.15615469297E+04  0.50400001928E-02 0.  1.
        1   -1    0    0  501    0  0.00000000000E+00  0.00000000000E+00 -0.20764672522E+04  0.20764672522E+04  0.50400001928E-02 0. -1.
    10030    2    1    2    0    0  0.00000000000E+00  0.00000000000E+00 -0.51492032257E+03  0.36380141819E+04  0.36013892110E+04 0.  0.
        5    1    3    3  502    0  0.15220446724E+04 -0.36158663936E+03 -0.11582200804E+04  0.19464996088E+04  0.46999998093E+01 0. -1.
       -5    1    3    3    0  502 -0.15220446724E+04  0.36158663936E+03  0.64329975783E+03  0.16915145731E+04  0.46999998093E+01 0.  1.
</event>
<event>
 5   0  0.7261233E-08  0.3594629E+04  0.7818609E-02  0.8091723E-01
        1   -1    0    0  501    0  0.00000000000E+00  0.00000000000E+00  0.21193744670E+04  0.21193744670E+04  0.50400001928E-02 0. -1.
       -1   -1    0    0    0  501  0.00000000000E+00  0.00000000000E+00 -0.15241944704E+04  0.15241944704E+04  0.50400001928E-02 0.  1.
    10030    2    1    2    0    0  0.00000000000E+00  0.00000000000E+00  0.59517999658E+03  0.36435689374E+04  0.35946286837E+04 0.  0.
        3    1    3    3  502    0 -0.88309524540E+02  0.17124581778E+04 -0.24828393707E+03  0.17326155103E+04  0.10100000352E+00 0.  1.
       -3    1    3    3    0  502  0.88309524540E+02 -0.17124581778E+04  0.84346393365E+03  0.19109534271E+04  0.10100000352E+00 0. -1.
</event>
<event>
 5   0  0.2198900E-07  0.3739174E+04  0.7818609E-02  0.8059335E-01
       -2   -1    0    0    0  501  0.00000000000E+00  0.00000000000E+00  0.25530016762E+04  0.25530016762E+04  0.25500000920E-02 0.  1.
        2   -1    0    0  501    0  0.00000000000E+00  0.00000000000E+00 -0.13691161845E+04  0.13691161845E+04  0.25500000920E-02 0. -1.
    10030    2    1    2    0    0  0.00000000000E+00  0.00000000000E+00  0.11838854917E+04  0.39221178607E+04  0.37391741943E+04 0.  0.
        2    1    3    3  502    0 -0.59387870604E+03 -0.16683033958E+04 -0.36912604460E+02  0.17712398703E+04  0.25500000920E-02 0. -1.
       -2    1    3    3    0  502  0.59387870604E+03  0.16683033958E+04  0.12207980962E+04  0.21508779904E+04  0.25500000920E-02 0.  1.
</event>
<event>
 5   0  0.7514289E-08  0.3595278E+04  0.7818609E-02  0.8091574E-01
        1   -1    0    0  501    0  0.00000000000E+00  0.00000000000E+00  0.16452025616E+04  0.16452025616E+04  0.50400001928E-02 0.  1.
       -1   -1    0    0    0  501  0.00000000000E+00  0.00000000000E+00 -0.19641998473E+04  0.19641998473E+04  0.50400001928E-02 0. -1.
    10030    2    1    2    0    0  0.00000000000E+00  0.00000000000E+00 -0.31899728568E+03  0.36094024088E+04  0.35952783593E+04 0.  0.
        4    1    3    3  502    0 -0.55435620964E+03  0.16981214842E+04 -0.36172888206E+03  0.18225742178E+04  0.12699999809E+01 0.  1.
       -4    1    3    3    0  502  0.55435620964E+03 -0.16981214842E+04  0.42731596377E+02  0.17868281911E+04  0.12699999809E+01 0. -1.
</event>
<event>
 5   0  0.2238968E-07  0.3645886E+04  0.7818609E-02  0.8080061E-01
       -2   -1    0    0    0  501  0.00000000000E+00  0.00000000000E+00  0.10694517131E+04  0.10694517131E+04  0.25500000920E-02 0.  1.
        2   -1    0    0  501    0  0.00000000000E+00  0.00000000000E+00 -0.31073123191E+04  0.31073123191E+04  0.25500000920E-02 0. -1.
    10030    2    1    2    0    0  0.00000000000E+00  0.00000000000E+00 -0.20378606060E+04  0.41767640322E+04  0.36458856169E+04 0.  0.
        3    1    3    3  502    0 -0.11682856278E+04  0.57804316667E+03 -0.24788959962E+04  0.28007053720E+04  0.10100000352E+00 0. -1.
       -3    1    3    3    0  502  0.11682856278E+04 -0.57804316667E+03  0.44103539025E+03  0.13760586602E+04  0.10100000352E+00 0.  1.
</event>
<event>
 5   0  0.2309391E-07  0.3608450E+04  0.7818609E-02  0.8088559E-01
       -2   -1    0    0    0  501  0.00000000000E+00  0.00000000000E+00  0.11766875554E+04  0.11766875554E+04  0.25500000920E-02 0. -1.
        2   -1    0    0  501    0  0.00000000000E+00  0.00000000000E+00 -0.27664336825E+04  0.27664336825E+04  0.25500000920E-02 0.  1.
    10030    2    1    2    0    0  0.00000000000E+00  0.00000000000E+00 -0.15897461271E+04  0.39431212379E+04  0.36084501310E+04 0.  0.
        4    1    3    3  502    0  0.80408727926E+03 -0.99464358714E+03 -0.21854350603E+04  0.25321927719E+04  0.12699999809E+01 0.  1.
       -4    1    3    3    0  502 -0.80408727926E+03  0.99464358714E+03  0.59568893324E+03  0.14109284660E+04  0.12699999809E+01 0. -1.
</event>
<event>
 5   0  0.7236375E-08  0.3599116E+04  0.7818609E-02  0.8090694E-01
       -1   -1    0    0    0  501  0.00000000000E+00  0.00000000000E+00  0.13818483502E+04  0.13818483502E+04  0.50400001928E-02 0. -1.
        1   -1    0    0  501    0  0.00000000000E+00  0.00000000000E+00 -0.23435343082E+04  0.23435343082E+04  0.50400001928E-02 0.  1.
    10030    2    1    2    0    0  0.00000000000E+00  0.00000000000E+00 -0.96168595804E+03  0.37253826584E+04  0.35991160122E+04 0.  0.
        1    1    3    3  502    0  0.16605066731E+04 -0.36189038820E+03 -0.10933478132E+04  0.20208059049E+04  0.50400001928E-02 0.  1.
       -1    1    3    3    0  502 -0.16605066731E+04  0.36189038820E+03  0.13166185519E+03  0.17045767535E+04  0.50400001928E-02 0. -1.
</event>
<event>
 5   0  0.2342606E-07  0.3598098E+04  0.7818609E-02  0.8090927E-01
        2   -1    0    0  501    0  0.00000000000E+00  0.00000000000E+00  0.22420275279E+04  0.22420275279E+04  0.25500000920E-02 0.  1.
       -2   -1    0    0    0  501  0.00000000000E+00  0.00000000000E+00 -0.14435942138E+04  0.14435942138E+04  0.25500000920E-02 0. -1.
    10030    2    1    2    0    0  0.00000000000E+00  0.00000000000E+00  0.79843331417E+03  0.36856217417E+04  0.35980983680E+04 0.  0.
        5    1    3    3  502    0  0.67005468309E+03  0.16662974234E+04  0.29161136439E+03  0.18194998377E+04  0.46999998093E+01 0. -1.
       -5    1    3    3    0  502 -0.67005468309E+03 -0.16662974234E+04  0.50682194977E+03  0.18661219040E+04  0.46999998093E+01 0.  1.
</event>
<event>
 5   0  0.2199902E-07  0.3596209E+04  0.7818609E-02  0.8091361E-01
        2   -1    0    0  501    0  0.00000000000E+00  0.00000000000E+00  0.24764584012E+04  0.24764584012E+04  0.25500000920E-02 0. -1.
       -2   -1    0    0    0  501  0.00000000000E+00  0.00000000000E+00 -0.13055656322E+04  0.13055656322E+04  0.25500000920E-02 0.  1.
    10030    2    1    2    0    0  0.00000000000E+00  0.00000000000E+00  0.11708927690E+04  0.37820240334E+04  0.35962085469E+04 0.  0.
        1    1    3    3  502    0  0.45906620687E+03 -0.11577405149E+04  0.19494074605E+04  0.23132864780E+04  0.50400001928E-02 0. -1.
       -1    1    3    3    0  502 -0.45906620687E+03  0.11577405149E+04 -0.77851469145E+03  0.14687375555E+04  0.50400001928E-02 0.  1.
</event>
<event>
 5   0  0.2238968E-07  0.3633522E+04  0.7818609E-02  0.8082856E-01
       -2   -1    0    0    0  501  0.00000000000E+00  0.00000000000E+00  0.13751083775E+04  0.13751083776E+04  0.25500000920E-02 0.  1.
        2   -1    0    0  501    0  0.00000000000E+00  0.00000000000E+00 -0.24002620167E+04  0.24002620167E+04  0.25500000920E-02 0. -1.
    10030    2    1    2    0    0  0.00000000000E+00  0.00000000000E+00 -0.10251536391E+04  0.37753703942E+04  0.36335219319E+04 0.  0.
        3    1    3    3  502    0  0.53334684903E+03 -0.17254935032E+04 -0.71733261397E+03  0.19432840194E+04  0.10100000352E+00 0. -1.
       -3    1    3    3    0  502 -0.53334684903E+03  0.17254935032E+04 -0.30782102517E+03  0.18320863748E+04  0.10100000352E+00 0.  1.
</event>
<event>
 5   0  0.7236375E-08  0.3623649E+04  0.7818609E-02  0.8085096E-01
        1   -1    0    0  501    0  0.00000000000E+00  0.00000000000E+00  0.13170336083E+04  0.13170336083E+04  0.50400001928E-02 0. -1.
       -1   -1    0    0    0  501  0.00000000000E+00  0.00000000000E+00 -0.24925009688E+04  0.24925009688E+04  0.50400001928E-02 0.  1.
    10030    2    1    2    0    0  0.00000000000E+00  0.00000000000E+00 -0.11754673604E+04  0.38095345771E+04  0.36236487383E+04 0.  0.
        1    1    3    3  502    0 -0.11760693543E+04 -0.12577643470E+04  0.47333736249E+01  0.17219560632E+04  0.50400001928E-02 0. -1.
       -1    1    3    3    0  502  0.11760693543E+04  0.12577643470E+04 -0.11802007341E+04  0.20875785139E+04  0.50400001928E-02 0.  1.
</event>
<event>
 5   0  0.7347303E-08  0.3593198E+04  0.7818609E-02  0.8092052E-01
        1   -1    0    0  501    0  0.00000000000E+00  0.00000000000E+00  0.17821436951E+04  0.17821436951E+04  0.50400001928E-02 0.  1.
       -1   -1    0    0    0  501  0.00000000000E+00  0.00000000000E+00 -0.18111716822E+04  0.18111716822E+04  0.50400001928E-02 0. -1.
    10030    2    1    2    0    0  0.00000000000E+00  0.00000000000E+00 -0.29027987026E+02  0.35933153773E+04  0.35931981266E+04 0.  0.
        2    1    3    3  502    0 -0.14388322633E+04 -0.10665046230E+04  0.12725734723E+03  0.17955124130E+04  0.25500000920E-02 0. -1.
       -2    1    3    3    0  502  0.14388322633E+04  0.10665046230E+04 -0.15628533425E+03  0.17978029643E+04  0.25500000920E-02 0.  1.
</event>
<event>
 5   0  0.2199902E-07  0.3447095E+04  0.7818609E-02  0.8126443E-01
        2   -1    0    0  501    0  0.00000000000E+00  0.00000000000E+00  0.21810810916E+04  0.21810810916E+04  0.25500000920E-02 0. -1.
       -2   -1    0    0    0  501  0.00000000000E+00  0.00000000000E+00 -0.13619925214E+04  0.13619925214E+04  0.25500000920E-02 0.  1.
    10030    2    1    2    0    0  0.00000000000E+00  0.00000000000E+00  0.81908857022E+03  0.35430736130E+04  0.34470950873E+04 0.  0.
        1    1    3    3  502    0 -0.33838352005E+03  0.52701231093E+03  0.20599837324E+04  0.21530857763E+04  0.50400001928E-02 0. -1.
       -1    1    3    3    0  502  0.33838352005E+03 -0.52701231093E+03 -0.12408951622E+04  0.13899878367E+04  0.50400001928E-02 0.  1.
</event>
<event>
 5   0  0.2238968E-07  0.3596750E+04  0.7818609E-02  0.8091237E-01
        2   -1    0    0  501    0  0.00000000000E+00  0.00000000000E+00  0.21849157860E+04  0.21849157860E+04  0.25500000920E-02 0. -1.
       -2   -1    0    0    0  501  0.00000000000E+00  0.00000000000E+00 -0.14802180906E+04  0.14802180906E+04  0.25500000920E-02 0.  1.
    10030    2    1    2    0    0  0.00000000000E+00  0.00000000000E+00  0.70469769541E+03  0.36651338765E+04  0.35967495730E+04 0.  0.
        3    1    3    3  502    0 -0.65503297237E+03  0.11650463079E+04 -0.87375299194E+03  0.15968235330E+04  0.10100000352E+00 0.  1.
       -3    1    3    3    0  502  0.65503297237E+03 -0.11650463079E+04  0.15784506874E+04  0.20683103435E+04  0.10100000352E+00 0. -1.
</event>
<event>
 5   0  0.7236375E-08  0.3598980E+04  0.7818609E-02  0.8090725E-01
       -1   -1    0    0    0  501  0.00000000000E+00  0.00000000000E+00  0.13238627666E+04  0.13238627666E+04  0.50400001928E-02 0.  1.
        1   -1    0    0  501    0  0.00000000000E+00  0.00000000000E+00 -0.24459964837E+04  0.24459964837E+04  0.50400001928E-02 0. -1.
    10030    2    1    2    0    0  0.00000000000E+00  0.00000000000E+00 -0.11221337171E+04  0.37698592504E+04  0.35989796733E+04 0.  0.
        5    1    3    3  502    0  0.41095866043E+03  0.13772428397E+04 -0.16952786359E+04  0.22225383244E+04  0.46999998093E+01 0. -1.
       -5    1    3    3    0  502 -0.41095866043E+03 -0.13772428397E+04  0.57314491877E+03  0.15473209260E+04  0.46999998093E+01 0.  1.
</event>
<event>
 5   0  0.2238968E-07  0.3578979E+04  0.7818609E-02  0.8095324E-01
       -2   -1    0    0    0  501  0.00000000000E+00  0.00000000000E+00  0.14198361531E+04  0.14198361531E+04  0.25500000920E-02 0. -1.
        2   -1    0    0  501    0  0.00000000000E+00  0.00000000000E+00 -0.22553817483E+04  0.22553817483E+04  0.25500000920E-02 0.  1.
    10030    2    1    2    0    0  0.00000000000E+00  0.00000000000E+00 -0.83554559520E+03  0.36752179015E+04  0.35789789300E+04 0.  0.
        3    1    3    3  502    0  0.17326600092E+04 -0.24049914569E+03 -0.80517309814E+03  0.19256828074E+04  0.10100000352E+00 0. -1.
       -3    1    3    3    0  502 -0.17326600092E+04  0.24049914569E+03 -0.30372497066E+02  0.17495350941E+04  0.10100000352E+00 0.  1.
</event>
<event>
 5   0  0.7514289E-08  0.3588256E+04  0.7818609E-02  0.8093187E-01
        1   -1    0    0  501    0  0.00000000000E+00  0.00000000000E+00  0.23825628864E+04  0.23825628864E+04  0.50400001928E-02 0. -1.
       -1   -1    0    0    0  501  0.00000000000E+00  0.00000000000E+00 -0.13510222614E+04  0.13510222614E+04  0.50400001928E-02 0.  1.
    10030    2    1    2    0    0  0.00000000000E+00  0.00000000000E+00  0.10315406250E+04  0.37335851478E+04  0.35882561217E+04 0.  0.
        4    1    3    3  502    0 -0.30121764612E+03  0.15312191935E+04 -0.40525237622E+03  0.16123260806E+04  0.12699999809E+01 0.  1.
       -4    1    3    3    0  502  0.30121764612E+03 -0.15312191935E+04  0.14367930012E+04  0.21212590672E+04  0.12699999809E+01 0. -1.
</event>
<event>
 5   0  0.7514289E-08  0.3664229E+04  0.7818609E-02  0.8075936E-01
       -1   -1    0    0    0  501  0.00000000000E+00  0.00000000000E+00  0.12653913498E+04  0.12653913498E+04  0.50400001928E-02 0. -1.
        1   -1    0    0  501    0  0.00000000000E+00  0.00000000000E+00 -0.26526527854E+04  0.26526527854E+04  0.50400001928E-02 0.  1.
    10030    2    1    2    0    0  0.00000000000E+00  0.00000000000E+00 -0.13872614357E+04  0.39180441352E+04  0.36642291897E+04 0.  0.
        4    1    3    3  502    0  0.76274797756E+03 -0.12488637383E+04 -0.18723491288E+04  0.23763707596E+04  0.12699999809E+01 0.  1.
       -4    1    3    3    0  502 -0.76274797756E+03  0.12488637383E+04  0.48508769310E+03  0.15416733756E+04  0.12699999809E+01 0. -1.
</event>
<event>
 5   0  0.2238968E-07  0.3638876E+04  0.7818609E-02  0.8081644E-01
       -2   -1    0    0    0  501  0.00000000000E+00  0.00000000000E+00  0.11584357633E+04  0.11584357634E+04  0.25500000920E-02 0.  1.
        2   -1    0    0  501    0  0.00000000000E+00  0.00000000000E+00 -0.28576082024E+04  0.28576082024E+04  0.25500000920E-02 0. -1.
    10030    2    1    2    0    0  0.00000000000E+00  0.00000000000E+00 -0.16991724390E+04  0.40160439657E+04  0.36388764965E+04 0.  0.
        3    1    3    3  502    0  0.16797006292E+04  0.52994532448E+03 -0.13530721028E+04  0.22210448839E+04  0.10100000352E+00 0. -1.
       -3    1    3    3    0  502 -0.16797006292E+04 -0.52994532448E+03 -0.34610033621E+03  0.17949990818E+04  0.10100000352E+00 0.  1.
</event>
<event>
 5   0  0.7236375E-08  0.3622743E+04  0.7818609E-02  0.8085302E-01
        1   -1    0    0  501    0  0.00000000000E+00  0.00000000000E+00  0.16928912747E+04  0.16928912747E+04  0.50400001928E-02 0.  1.
       -1   -1    0    0    0  501  0.00000000000E+00  0.00000000000E+00 -0.19381436909E+04  0.19381436909E+04  0.50400001928E-02 0. -1.
    10030    2    1    2    0    0  0.00000000000E+00  0.00000000000E+00 -0.24525241620E+03  0.36310349656E+04  0.36227429075E+04 0.  0.
        5    1    3    3  502    0  0.77737564743E+02 -0.11127035016E+04  0.13078378270E+04  0.17188990904E+04  0.46999998093E+01 0.  1.
       -5    1    3    3    0  502 -0.77737564743E+02  0.11127035016E+04 -0.15530902432E+04  0.19121358751E+04  0.46999998093E+01 0. -1.
</event>
<event>
 5   0  0.7236375E-08  0.3591921E+04  0.7818609E-02  0.8092345E-01
       -1   -1    0    0    0  501  0.00000000000E+00  0.00000000000E+00  0.16176563619E+04  0.16176563619E+04  0.50400001928E-02 0. -1.
        1   -1    0    0  501    0  0.00000000000E+00  0.00000000000E+00 -0.19939175732E+04  0.19939175732E+04  0.50400001928E-02 0.  1.
    10030    2    1    2    0    0  0.00000000000E+00  0.00000000000E+00 -0.37626121131E+03  0.36115739352E+04  0.35919206269E+04 0.  0.
        1    1    3    3  502    0 -0.13517690471E+03  0.62125991558E+03 -0.18769746495E+04  0.19817342186E+04  0.50400001928E-02 0.  1.
       -1    1    3    3    0  502  0.13517690471E+03 -0.62125991558E+03  0.15007134382E+04  0.16298397166E+04  0.50400001928E-02 0. -1.
</event>
<event>
 5   0  0.7514289E-08  0.3598755E+04  0.7818609E-02  0.8090777E-01
       -1   -1    0    0    0  501  0.00000000000E+00  0.00000000000E+00  0.16957111123E+04  0.16957111124E+04  0.50400001928E-02 0.  1.
        1   -1    0    0  501    0  0.00000000000E+00  0.00000000000E+00 -0.19093814085E+04  0.19093814085E+04  0.50400001928E-02 0. -1.
    10030    2    1    2    0    0  0.00000000000E+00  0.00000000000E+00 -0.21367029619E+03  0.36050925209E+04  0.35987549359E+04 0.  0.
        4    1    3    3  502    0 -0.17048007771E+04  0.57566635451E+03 -0.11133949307E+03  0.18028132286E+04  0.12699999809E+01 0. -1.
       -4    1    3    3    0  502  0.17048007771E+04 -0.57566635451E+03 -0.10233080311E+03  0.18022792923E+04  0.12699999809E+01 0.  1.
</event>
<event>
 5   0  0.2198900E-07  0.3600891E+04  0.7818609E-02  0.8090288E-01
       -2   -1    0    0    0  501  0.00000000000E+00  0.00000000000E+00  0.10824424306E+04  0.10824424306E+04  0.25500000920E-02 0.  1.
        2   -1    0    0  501    0  0.00000000000E+00  0.00000000000E+00 -0.29947122442E+04  0.29947122442E+04  0.25500000920E-02 0. -1.
    10030    2    1    2    0    0  0.00000000000E+00  0.00000000000E+00 -0.19122698136E+04  0.40771546748E+04  0.36008907790E+04 0.  0.
        2    1    3    3  502    0  0.15004255675E+04 -0.48478810548E+03  0.27896713401E+02  0.15770461685E+04  0.25500000920E-02 0.  1.
       -2    1    3    3    0  502 -0.15004255675E+04  0.48478810548E+03 -0.19401665270E+04  0.25001085064E+04  0.25500000920E-02 0. -1.
</event>
<event>
 5   0  0.2198900E-07  0.3567693E+04  0.7818609E-02  0.8097932E-01
        2   -1    0    0  501    0  0.00000000000E+00  0.00000000000E+00  0.24173088352E+04  0.24173088352E+04  0.25500000920E-02 0. -1.
       -2   -1    0    0    0  501  0.00000000000E+00  0.00000000000E+00 -0.13163845844E+04  0.13163845844E+04  0.25500000920E-02 0.  1.
    10030    2    1    2    0    0  0.00000000000E+00  0.00000000000E+00  0.11009242508E+04  0.37336934196E+04  0.35676928604E+04 0.  0.
        2    1    3    3  502    0  0.14102475071E+04  0.18954722591E+03  0.16763354747E+04  0.21988239598E+04  0.25500000920E-02 0. -1.
       -2    1    3    3    0  502 -0.14102475071E+04 -0.18954722591E+03 -0.57541122395E+03  0.15348694599E+04  0.25500000920E-02 0.  1.
</event>
<event>
 5   0  0.2198900E-07  0.3621263E+04  0.7818609E-02  0.8085638E-01
        2   -1    0    0  501    0  0.00000000000E+00  0.00000000000E+00  0.26940888832E+04  0.26940888832E+04  0.25500000920E-02 0.  1.
       -2   -1    0    0    0  501  0.00000000000E+00  0.00000000000E+00 -0.12168812760E+04  0.12168812760E+04  0.25500000920E-02 0. -1.
    10030    2    1    2    0    0  0.00000000000E+00  0.00000000000E+00  0.14772076073E+04  0.39109701592E+04  0.36212629387E+04 0.  0.
        2    1    3    3  502    0  0.15646919221E+03 -0.58739159859E+02  0.26857403840E+04  0.26909355821E+04  0.25500000920E-02 0.  1.
       -2    1    3    3    0  502 -0.15646919221E+03  0.58739159859E+02 -0.12085327767E+04  0.12200345771E+04  0.25500000920E-02 0. -1.
</event>
<event>
 5   0  0.7347303E-08  0.3597078E+04  0.7818609E-02  0.8091161E-01
       -1   -1    0    0    0  501  0.00000000000E+00  0.00000000000E+00  0.16871707368E+04  0.16871707368E+04  0.50400001928E-02 0.  1.
        1   -1    0    0  501    0  0.00000000000E+00  0.00000000000E+00 -0.19172587114E+04  0.19172587114E+04  0.50400001928E-02 0. -1.
    10030    2    1    2    0    0  0.00000000000E+00  0.00000000000E+00 -0.23008797457E+03  0.36044294482E+04  0.35970781436E+04 0.  0.
        2    1    3    3  502    0  0.40059321033E+03  0.19189605303E+03 -0.18614321564E+04  0.19136950353E+04  0.25500000920E-02 0. -1.
       -2    1    3    3    0  502 -0.40059321033E+03 -0.19189605303E+03  0.16313441818E+04  0.16907344129E+04  0.25500000920E-02 0.  1.
</event>
<event>
 5   0  0.7514289E-08  0.3610011E+04  0.7818609E-02  0.8088202E-01
        1   -1    0    0  501    0  0.00000000000E+00  0.00000000000E+00  0.10178758201E+04  0.10178758202E+04  0.50400001928E-02 0.  1.
       -1   -1    0    0    0  501  0.00000000000E+00  0.00000000000E+00 -0.32008279583E+04  0.32008279583E+04  0.50400001928E-02 0. -1.
    10030    2    1    2    0    0  0.00000000000E+00  0.00000000000E+00 -0.21829521381E+04  0.42187037784E+04  0.36100112926E+04 0.  0.
        4    1    3    3  502    0 -0.10561524645E+04  0.11674058703E+03  0.61364002998E+03  0.12270460840E+04  0.12699999809E+01 0.  1.
       -4    1    3    3    0  502  0.10561524645E+04 -0.11674058703E+03 -0.27965921681E+04  0.29916576944E+04  0.12699999809E+01 0. -1.
</event>
<event>
 5   0  0.7261233E-08  0.3574524E+04  0.7818609E-02  0.8096352E-01
        1   -1    0    0  501    0  0.00000000000E+00  0.00000000000E+00  0.19407672629E+04  0.19407672629E+04  0.50400001928E-02 0. -1.
       -1   -1    0    0    0  501  0.00000000000E+00  0.00000000000E+00 -0.16458979006E+04  0.16458979006E+04  0.50400001928E-02 0.  1.
    10030    2    1    2    0    0  0.00000000000E+00  0.00000000000E+00  0.29486936228E+03  0.35866651635E+04  0.35745236122E+04 0.  0.
        3    1    3    3  502    0 -0.62103103873E+03  0.14576383940E+03  0.18226498875E+04  0.19310565167E+04  0.10100000352E+00 0. -1.
       -3    1    3    3    0  502  0.62103103873E+03 -0.14576383940E+03 -0.15277805252E+04  0.16556086468E+04  0.10100000352E+00 0.  1.
</event>
<event>
 5   0  0.2342606E-07  0.3630412E+04  0.7818609E-02  0.8083561E-01
       -2   -1    0    0    0  501  0.00000000000E+00  0.00000000000E+00  0.17389826186E+04  0.17389826186E+04  0.25500000920E-02 0. -1.
        2   -1    0    0  501    0  0.00000000000E+00  0.00000000000E+00 -0.18947704929E+04  0.18947704929E+04  0.25500000920E-02 0.  1.
    10030    2    1    2    0    0  0.00000000000E+00  0.00000000000E+00 -0.15578787432E+03  0.36337531115E+04  0.36304120722E+04 0.  0.
        5    1    3    3  502    0  0.99656625790E+03  0.11864268882E+04 -0.10243845074E+04  0.18574549191E+04  0.46999998093E+01 0.  1.
       -5    1    3    3    0  502 -0.99656625790E+03 -0.11864268882E+04  0.86859663309E+03  0.17762981924E+04  0.46999998093E+01 0. -1.
</event>
<event>
 5   0  0.7514289E-08  0.3606049E+04  0.7818609E-02  0.8089108E-01
       -1   -1    0    0    0  501  0.00000000000E+00  0.00000000000E+00  0.19141818656E+04  0.19141818656E+04  0.50400001928E-02 0. -1.
        1   -1    0    0  501    0  0.00000000000E+00  0.00000000000E+00 -0.16983219578E+04  0.16983219578E+04  0.50400001928E-02 0.  1.
    10030    2    1    2    0    0  0.00000000000E+00  0.00000000000E+00  0.21585990779E+03  0.36125038233E+04  0.36060488590E+04 0.  0.
        4    1    3    3  502    0 -0.13003902403E+04 -0.12443382607E+04  0.21537396248E+03  0.18126720720E+04  0.12699999809E+01 0. -1.
       -4    1    3    3    0  502  0.13003902403E+04  0.12443382607E+04  0.48594531047E+00  0.17998317513E+04  0.12699999809E+01 0.  1.
</event>
<event>
 5   0  0.2238968E-07  0.3609411E+04  0.7818609E-02  0.8088339E-01
       -2   -1    0    0    0  501  0.00000000000E+00  0.00000000000E+00  0.17466989692E+04  0.17466989692E+04  0.25500000920E-02 0.  1.
        2   -1    0    0  501    0  0.00000000000E+00  0.00000000000E+00 -0.18646386779E+04  0.18646386779E+04  0.25500000920E-02 0. -1.
    10030    2    1    2    0    0  0.00000000000E+00  0.00000000000E+00 -0.11793970875E+03  0.36113376471E+04  0.36094112853E+04 0.  0.
        3    1    3    3  502    0  0.77745101502E+03  0.29755714427E+02  0.15702870666E+04  0.17524602606E+04  0.10100000352E+00 0.  1.
       -3    1    3    3    0  502 -0.77745101502E+03 -0.29755714427E+02 -0.16882267753E+04  0.18588773866E+04  0.10100000352E+00 0. -1.
</event>
<event>
 5   0  0.7514289E-08  0.3584835E+04  0.7818609E-02  0.8093974E-01
       -1   -1    0    0    0  501  0.00000000000E+00  0.00000000000E+00  0.19804157600E+04  0.19804157600E+04  0.50400001928E-02 0. -1.
        1   -1    0    0  501    0  0.00000000000E+00  0.00000000000E+00 -0.16222658894E+04  0.16222658894E+04  0.50400001928E-02 0.  1.
    10030    2    1    2    0    0  0.00000000000E+00  0.00000000000E+00  0.35814987064E+03  0.36026816494E+04  0.35848352455E+04 0.  0.
        4    1    3    3  502    0  0.73066606517E+02 -0.11086541152E+04  0.15925999274E+04  0.19418622036E+04  0.12699999809E+01 0. -1.
       -4    1    3    3    0  502 -0.73066606517E+02  0.11086541152E+04 -0.12344500568E+04  0.16608194458E+04  0.12699999809E+01 0.  1.
</event>
<event>
 5   0  0.7236375E-08  0.3627062E+04  0.7818609E-02  0.8084321E-01
       -3   -1    0    0    0  501  0.00000000000E+00  0.00000000000E+00  0.16286309665E+04  0.16286309696E+04  0.10100000352E+00 0. -1.
        3   -1    0    0  501    0  0.00000000000E+00  0.00000000000E+00 -0.20194232181E+04  0.20194232206E+04  0.10100000352E+00 0.  1.
    10030    2    1    2    0    0  0.00000000000E+00  0.00000000000E+00 -0.39079225156E+03  0.36480541902E+04  0.36270622811E+04 0.  0.
        2    1    3    3  502    0  0.77656938773E+03 -0.21801950435E+03  0.14382898361E+04  0.16490209735E+04  0.25500000920E-02 0. -1.
       -2    1    3    3    0  502 -0.77656938773E+03  0.21801950435E+03 -0.18290820877E+04  0.19990332167E+04  0.25500000920E-02 0.  1.
</event>
<event>
 5   0  0.7261233E-08  0.3851899E+04  0.7818609E-02  0.8035108E-01
        1   -1    0    0  501    0  0.00000000000E+00  0.00000000000E+00  0.14546565595E+04  0.14546565595E+04  0.50400001928E-02 0. -1.
       -1   -1    0    0    0  501  0.00000000000E+00  0.00000000000E+00 -0.25499365536E+04  0.25499365536E+04  0.50400001928E-02 0.  1.
    10030    2    1    2    0    0  0.00000000000E+00  0.00000000000E+00 -0.10952799941E+04  0.40045931131E+04  0.38518992375E+04 0.  0.
        3    1    3    3  502    0 -0.10283079342E+04 -0.32706073850E+03  0.11108715402E+04  0.15486838035E+04  0.10100000352E+00 0. -1.
       -3    1    3    3    0  502  0.10283079342E+04  0.32706073850E+03 -0.22061515343E+04  0.24559093096E+04  0.10100000352E+00 0.  1.
</event>
<event>
 5   0  0.7261233E-08  0.3578931E+04  0.7818609E-02  0.8095335E-01
        1   -1    0    0  501    0  0.00000000000E+00  0.00000000000E+00  0.27347159046E+04  0.27347159046E+04  0.50400001928E-02 0.  1.
       -1   -1    0    0    0  501  0.00000000000E+00  0.00000000000E+00 -0.11709393351E+04  0.11709393351E+04  0.50400001928E-02 0. -1.
    10030    2    1    2    0    0  0.00000000000E+00  0.00000000000E+00  0.15637765695E+04  0.39056552397E+04  0.35789308029E+04 0.  0.
        3    1    3    3  502    0 -0.17536997367E+04 -0.23620048167E+02  0.39426369283E+03  0.17976274761E+04  0.10100000352E+00 0. -1.
       -3    1    3    3    0  502  0.17536997367E+04  0.23620048167E+02  0.11695128767E+04  0.21080277636E+04  0.10100000352E+00 0.  1.
</event>
<event>
 5   0  0.2309391E-07  0.3605403E+04  0.7818609E-02  0.8089255E-01
       -2   -1    0    0    0  501  0.00000000000E+00  0.00000000000E+00  0.33314033764E+04  0.33314033764E+04  0.25500000920E-02 0.  1.
        2   -1    0    0  501    0  0.00000000000E+00  0.00000000000E+00 -0.97548473779E+03  0.97548473779E+03  0.25500000920E-02 0. -1.
    10030    2    1    2    0    0  0.00000000000E+00  0.00000000000E+00  0.23559186386E+04  0.43068881142E+04  0.36054032502E+04 0.  0.
        4    1    3    3  502    0  0.13123658927E+04 -0.75340306705E+03  0.76446950207E+01  0.15132681428E+04  0.12699999809E+01 0. -1.
       -4    1    3    3    0  502 -0.13123658927E+04  0.75340306705E+03  0.23482739436E+04  0.27936199714E+04  0.12699999809E+01 0.  1.
</event>
<event>
 5   0  0.2198900E-07  0.3605590E+04  0.7818609E-02  0.8089212E-01
        2   -1    0    0  501    0  0.00000000000E+00  0.00000000000E+00  0.12718079614E+04  0.12718079614E+04  0.25500000920E-02 0. -1.
       -2   -1    0    0    0  501  0.00000000000E+00  0.00000000000E+00 -0.25554724902E+04  0.25554724902E+04  0.25500000920E-02 0.  1.
    10030    2    1    2    0    0  0.00000000000E+00  0.00000000000E+00 -0.12836645289E+04  0.38272804516E+04  0.36055902475E+04 0.  0.
        2    1    3    3  502    0 -0.10562122980E+03 -0.15099339257E+04 -0.16813367795E+04  0.22622885912E+04  0.25500000920E-02 0.  1.
       -2    1    3    3    0  502  0.10562122980E+03  0.15099339257E+04  0.39767225059E+03  0.15649918604E+04  0.25500000920E-02 0. -1.
</event>
<event>
 5   0  0.7261233E-08  0.3818821E+04  0.7818609E-02  0.8042128E-01
       -1   -1    0    0    0  501  0.00000000000E+00  0.00000000000E+00  0.25540903127E+04  0.25540903127E+04  0.50400001928E-02 0. -1.
        1   -1    0    0  501    0  0.00000000000E+00  0.00000000000E+00 -0.14274546971E+04  0.14274546971E+04  0.50400001928E-02 0.  1.
    10030    2    1    2    0    0  0.00000000000E+00  0.00000000000E+00  0.11266356156E+04  0.39815450098E+04  0.38188208723E+04 0.  0.
        3    1    3    3  502    0  0.22782054203E+03 -0.57735590773E+03  0.24459761558E+04  0.25234978519E+04  0.10100000352E+00 0. -1.
       -3    1    3    3    0  502 -0.22782054203E+03  0.57735590773E+03 -0.13193405402E+04  0.14580471580E+04  0.10100000352E+00 0.  1.
</event>
<event>
 5   0  0.2238968E-07  0.3665750E+04  0.7818609E-02  0.8075595E-01
       -2   -1    0    0    0  501  0.00000000000E+00  0.00000000000E+00  0.14557075782E+04  0.14557075782E+04  0.25500000920E-02 0.  1.
        2   -1    0    0  501    0  0.00000000000E+00  0.00000000000E+00 -0.23077654293E+04  0.23077654293E+04  0.25500000920E-02 0. -1.
    10030    2    1    2    0    0  0.00000000000E+00  0.00000000000E+00 -0.85205785113E+03  0.37634730075E+04  0.36657504684E+04 0.  0.
        3    1    3    3  502    0  0.59824556227E+03  0.13105842829E+04 -0.15893295538E+04  0.21451101035E+04  0.10100000352E+00 0. -1.
       -3    1    3    3    0  502 -0.59824556227E+03 -0.13105842829E+04  0.73727170271E+03  0.16183629040E+04  0.10100000352E+00 0.  1.
</event>
<event>
 5   0  0.7236375E-08  0.3595057E+04  0.7818609E-02  0.8091625E-01
        1   -1    0    0  501    0  0.00000000000E+00  0.00000000000E+00  0.15247158358E+04  0.15247158358E+04  0.50400001928E-02 0.  1.
       -1   -1    0    0    0  501  0.00000000000E+00  0.00000000000E+00 -0.21191548328E+04  0.21191548328E+04  0.50400001928E-02 0. -1.
    10030    2    1    2    0    0  0.00000000000E+00  0.00000000000E+00 -0.59443899703E+03  0.36438706686E+04  0.35950571245E+04 0.  0.
        1    1    3    3  502    0  0.69195237939E+03 -0.27251372724E+03  0.13614744663E+04  0.15513460444E+04  0.50400001928E-02 0.  1.
       -1    1    3    3    0  502 -0.69195237939E+03  0.27251372724E+03 -0.19559134634E+04  0.20925246243E+04  0.50400001928E-02 0. -1.
</event>
<event>
 5   0  0.7514289E-08  0.3619260E+04  0.7818609E-02  0.8086094E-01
        1   -1    0    0  501    0  0.00000000000E+00  0.00000000000E+00  0.24409194532E+04  0.24409194532E+04  0.50400001928E-02 0.  1.
       -1   -1    0    0    0  501  0.00000000000E+00  0.00000000000E+00 -0.13416098574E+04  0.13416098574E+04  0.50400001928E-02 0. -1.
    10030    2    1    2    0    0  0.00000000000E+00  0.00000000000E+00  0.10993095958E+04  0.37825293106E+04  0.36192604767E+04 0.  0.
        4    1    3    3  502    0 -0.12417528009E+04 -0.24463153241E+03 -0.80212496025E+03  0.14983993693E+04  0.12699999809E+01 0. -1.
       -4    1    3    3    0  502  0.12417528009E+04  0.24463153241E+03  0.19014345560E+04  0.22841299413E+04  0.12699999809E+01 0.  1.
</event>
<event>
 5   0  0.7236375E-08  0.3590041E+04  0.7818609E-02  0.8092777E-01
        1   -1    0    0  501    0  0.00000000000E+00  0.00000000000E+00  0.25949382357E+04  0.25949382357E+04  0.50400001928E-02 0. -1.
       -1   -1    0    0    0  501  0.00000000000E+00  0.00000000000E+00 -0.12416861166E+04  0.12416861166E+04  0.50400001928E-02 0.  1.
    10030    2    1    2    0    0  0.00000000000E+00  0.00000000000E+00  0.13532521191E+04  0.38366243523E+04  0.35900411032E+04 0.  0.
        5    1    3    3  502    0  0.80571365836E+03 -0.30490598521E+03 -0.10063191070E+04  0.13247046442E+04  0.46999998093E+01 0.  1.
       -5    1    3    3    0  502 -0.80571365836E+03  0.30490598521E+03  0.23595712261E+04  0.25119197082E+04  0.46999998093E+01 0. -1.
</event>
<event>
 5   0  0.2238968E-07  0.3598011E+04  0.7818609E-02  0.8090947E-01
       -2   -1    0    0    0  501  0.00000000000E+00  0.00000000000E+00  0.16762813176E+04  0.16762813176E+04  0.25500000920E-02 0.  1.
        2   -1    0    0  501    0  0.00000000000E+00  0.00000000000E+00 -0.19307146702E+04  0.19307146702E+04  0.25500000920E-02 0. -1.
    10030    2    1    2    0    0  0.00000000000E+00  0.00000000000E+00 -0.25443335255E+03  0.36069959878E+04  0.35980110791E+04 0.  0.
        3    1    3    3  502    0 -0.11841913192E+04  0.13001141606E+04  0.25295982610E+03  0.17766807802E+04  0.10100000352E+00 0.  1.
       -3    1    3    3    0  502  0.11841913192E+04 -0.13001141606E+04 -0.50739317865E+03  0.18303152075E+04  0.10100000352E+00 0. -1.
</event>
<event>
 5   0  0.7236375E-08  0.3614140E+04  0.7818609E-02  0.8087260E-01
       -1   -1    0    0    0  501  0.00000000000E+00  0.00000000000E+00  0.14104708085E+04  0.14104708085E+04  0.50400001928E-02 0.  1.
        1   -1    0    0  501    0  0.00000000000E+00  0.00000000000E+00 -0.23151855353E+04  0.23151855353E+04  0.50400001928E-02 0. -1.
    10030    2    1    2    0    0  0.00000000000E+00  0.00000000000E+00 -0.90471472677E+03  0.37256563438E+04  0.36141397946E+04 0.  0.
        1    1    3    3  502    0  0.22044259880E+02  0.15965952784E+04  0.41985809355E+03  0.16510249093E+04  0.50400001928E-02 0.  1.
       -1    1    3    3    0  502 -0.22044259880E+02 -0.15965952784E+04 -0.13245728203E+04  0.20746314345E+04  0.50400001928E-02 0. -1.
</event>
<event>
 5   0  0.2199902E-07  0.3613249E+04  0.7818609E-02  0.8087464E-01
       -2   -1    0    0    0  501  0.00000000000E+00  0.00000000000E+00  0.13169417001E+04  0.13169417001E+04  0.25500000920E-02 0. -1.
        2   -1    0    0  501    0  0.00000000000E+00  0.00000000000E+00 -0.24783879282E+04  0.24783879282E+04  0.25500000920E-02 0.  1.
    10030    2    1    2    0    0  0.00000000000E+00  0.00000000000E+00 -0.11614462281E+04  0.37953296283E+04  0.36132491813E+04 0.  0.
        1    1    3    3  502    0  0.34557164870E+03  0.16272026747E+04  0.15954955885E+03  0.16711266770E+04  0.50400001928E-02 0. -1.
       -1    1    3    3    0  502 -0.34557164870E+03 -0.16272026747E+04 -0.13209957869E+04  0.21242029512E+04  0.50400001928E-02 0.  1.
</event>
<event>
 5   0  0.7514289E-08  0.3628150E+04  0.7818609E-02  0.8084074E-01
        1   -1    0    0  501    0  0.00000000000E+00  0.00000000000E+00  0.14756335931E+04  0.14756335931E+04  0.50400001928E-02 0.  1.
       -1   -1    0    0    0  501  0.00000000000E+00  0.00000000000E+00 -0.22301393880E+04  0.22301393880E+04  0.50400001928E-02 0. -1.
    10030    2    1    2    0    0  0.00000000000E+00  0.00000000000E+00 -0.75450579493E+03  0.37057729811E+04  0.36281502716E+04 0.  0.
        4    1    3    3  502    0  0.22198176073E+03 -0.30560812140E+03 -0.21895289007E+04  0.22218709787E+04  0.12699999809E+01 0. -1.
       -4    1    3    3    0  502 -0.22198176073E+03  0.30560812140E+03  0.14350231058E+04  0.14839020025E+04  0.12699999809E+01 0.  1.
</event>
<event>
 5   0  0.7236375E-08  0.3590338E+04  0.7818609E-02  0.8092708E-01
        1   -1    0    0  501    0  0.00000000000E+00  0.00000000000E+00  0.17396414750E+04  0.17396414750E+04  0.50400001928E-02 0. -1.
       -1   -1    0    0    0  501  0.00000000000E+00  0.00000000000E+00 -0.18524689935E+04  0.18524689936E+04  0.50400001928E-02 0.  1.
    10030    2    1    2    0    0  0.00000000000E+00  0.00000000000E+00 -0.11282751857E+03  0.35921104685E+04  0.35903380856E+04 0.  0.
        5    1    3    3  502    0  0.32426270413E+02  0.14073639669E+04 -0.11709138449E+04  0.18310614737E+04  0.46999998093E+01 0.  1.
       -5    1    3    3    0  502 -0.32426270413E+02 -0.14073639669E+04  0.10580863263E+04  0.17610489948E+04  0.46999998093E+01 0. -1.
</event>
<event>
 5   0  0.7347303E-08  0.3573429E+04  0.7818609E-02  0.8096605E-01
       -1   -1    0    0    0  501  0.00000000000E+00  0.00000000000E+00  0.13929314112E+04  0.13929314112E+04  0.50400001928E-02 0.  1.
        1   -1    0    0  501    0  0.00000000000E+00  0.00000000000E+00 -0.22918199609E+04  0.22918199609E+04  0.50400001928E-02 0. -1.
    10030    2    1    2    0    0  0.00000000000E+00  0.00000000000E+00 -0.89888854971E+03  0.36847513721E+04  0.35734286126E+04 0.  0.
        2    1    3    3  502    0 -0.11286596700E+04 -0.32344672235E+03 -0.18381961898E+04  0.21811592480E+04  0.25500000920E-02 0. -1.
       -2    1    3    3    0  502  0.11286596700E+04  0.32344672235E+03  0.93930764010E+03  0.15035921241E+04  0.25500000920E-02 0.  1.
</event>
<event>
 5   0  0.7514289E-08  0.3547962E+04  0.7818609E-02  0.8102517E-01
       -1   -1    0    0    0  501  0.00000000000E+00  0.00000000000E+00  0.16979472398E+04  0.16979472398E+04  0.50400001928E-02 0.  1.
        1   -1    0    0  501    0  0.00000000000E+00  0.00000000000E+00 -0.18534192838E+04  0.18534192838E+04  0.50400001928E-02 0. -1.
    10030    2    1    2    0    0  0.00000000000E+00  0.00000000000E+00 -0.15547204397E+03  0.35513665236E+04  0.35479617569E+04 0.  0.
        4    1    3    3  502    0 -0.27880870341E+03  0.47255249901E+03 -0.17663541597E+04  0.18496077389E+04  0.12699999809E+01 0. -1.
       -4    1    3    3    0  502  0.27880870341E+03 -0.47255249901E+03  0.16108821158E+04  0.17017587847E+04  0.12699999809E+01 0.  1.
</event>
<event>
 5   0  0.7236375E-08  0.3581634E+04  0.7818609E-02  0.8094712E-01
       -1   -1    0    0    0  501  0.00000000000E+00  0.00000000000E+00  0.17086149387E+04  0.17086149387E+04  0.50400001928E-02 0.  1.
        1   -1    0    0  501    0  0.00000000000E+00  0.00000000000E+00 -0.18769742912E+04  0.18769742912E+04  0.50400001928E-02 0. -1.
    10030    2    1    2    0    0  0.00000000000E+00  0.00000000000E+00 -0.16835935249E+03  0.35855892299E+04  0.35816344389E+04 0.  0.
        5    1    3    3  502    0  0.12358217590E+04  0.12957733748E+04 -0.11104519198E+03  0.17940560703E+04  0.46999998093E+01 0.  1.
       -5    1    3    3    0  502 -0.12358217590E+04 -0.12957733748E+04 -0.57314160515E+02  0.17915331596E+04  0.46999998093E+01 0. -1.
</event>
<event>
 5   0  0.2198900E-07  0.3598915E+04  0.7818609E-02  0.8090740E-01
        2   -1    0    0  501    0  0.00000000000E+00  0.00000000000E+00  0.15962130133E+04  0.15962130133E+04  0.25500000920E-02 0. -1.
       -2   -1    0    0    0  501  0.00000000000E+00  0.00000000000E+00 -0.20285806098E+04  0.20285806098E+04  0.25500000920E-02 0.  1.
    10030    2    1    2    0    0  0.00000000000E+00  0.00000000000E+00 -0.43236759647E+03  0.36247936230E+04  0.35989147074E+04 0.  0.
        2    1    3    3  502    0 -0.63754360991E+03 -0.89127149921E+03 -0.16537594201E+04  0.19838717094E+04  0.25500000920E-02 0.  1.
       -2    1    3    3    0  502  0.63754360991E+03  0.89127149921E+03  0.12213918236E+04  0.16409219136E+04  0.25500000920E-02 0. -1.
</event>
<event>
 5   0  0.7236375E-08  0.3568248E+04  0.7818609E-02  0.8097804E-01
       -1   -1    0    0    0  501  0.00000000000E+00  0.00000000000E+00  0.22365810674E+04  0.22365810674E+04  0.50400001928E-02 0.  1.
        1   -1    0    0  501    0  0.00000000000E+00  0.00000000000E+00 -0.14231983233E+04  0.14231983233E+04  0.50400001928E-02 0. -1.
    10030    2    1    2    0    0  0.00000000000E+00  0.00000000000E+00  0.81338274410E+03  0.36597793908E+04  0.35682479875E+04 0.  0.
        1    1    3    3  502    0  0.28282343350E+03  0.11919726277E+04 -0.92361896718E+03  0.15342293949E+04  0.50400001928E-02 0. -1.
       -1    1    3    3    0  502 -0.28282343350E+03 -0.11919726277E+04  0.17370017113E+04  0.21255499958E+04  0.50400001928E-02 0.  1.
</event>
<event>
 5   0  0.7236375E-08  0.3524314E+04  0.7818609E-02  0.8108052E-01
        1   -1    0    0  501    0  0.00000000000E+00  0.00000000000E+00  0.18629535366E+04  0.18629535366E+04  0.50400001928E-02 0. -1.
       -1   -1    0    0    0  501  0.00000000000E+00  0.00000000000E+00 -0.16668137354E+04  0.16668137354E+04  0.50400001928E-02 0.  1.
    10030    2    1    2    0    0  0.00000000000E+00  0.00000000000E+00  0.19613980119E+03  0.35297672720E+04  0.35243135747E+04 0.  0.
        1    1    3    3  502    0  0.11780700191E+04 -0.85228254685E+03 -0.89894129995E+03  0.17094823691E+04  0.50400001928E-02 0.  1.
       -1    1    3    3    0  502 -0.11780700191E+04  0.85228254685E+03  0.10950811011E+04  0.18202849029E+04  0.50400001928E-02 0. -1.
</event>
<event>
 5   0  0.7236375E-08  0.3601477E+04  0.7818609E-02  0.8090154E-01
       -1   -1    0    0    0  501  0.00000000000E+00  0.00000000000E+00  0.10890435043E+04  0.10890435043E+04  0.50400001928E-02 0.  1.
        1   -1    0    0  501    0  0.00000000000E+00  0.00000000000E+00 -0.29775290152E+04  0.29775290152E+04  0.50400001928E-02 0. -1.
    10030    2    1    2    0    0  0.00000000000E+00  0.00000000000E+00 -0.18884855109E+04  0.40665725195E+04  0.36014767154E+04 0.  0.
        1    1    3    3  502    0  0.10908569169E+04 -0.46727695379E+03  0.58504099281E+03  0.13230984574E+04  0.50400001928E-02 0.  1.
       -1    1    3    3    0  502 -0.10908569169E+04  0.46727695379E+03 -0.24735265037E+04  0.27434740621E+04  0.50400001928E-02 0. -1.
</event>
<event>
 5   0  0.2309391E-07  0.3591361E+04  0.7818609E-02  0.8092474E-01
       -2   -1    0    0    0  501  0.00000000000E+00  0.00000000000E+00  0.12298480940E+04  0.12298480940E+04  0.25500000920E-02 0.  1.
        2   -1    0    0  501    0  0.00000000000E+00  0.00000000000E+00 -0.26218423699E+04  0.26218423699E+04  0.25500000920E-02 0. -1.
    10030    2    1    2    0    0  0.00000000000E+00  0.00000000000E+00 -0.13919942759E+04  0.38516904640E+04  0.35913606566E+04 0.  0.
        4    1    3    3  502    0 -0.49898633712E+03  0.14308791073E+04 -0.17291897322E+04  0.22992392496E+04  0.12699999809E+01 0. -1.
       -4    1    3    3    0  502  0.49898633712E+03 -0.14308791073E+04  0.33719545626E+03  0.15524512143E+04  0.12699999809E+01 0.  1.
</event>
<event>
 5   0  0.7261233E-08  0.3605463E+04  0.7818609E-02  0.8089242E-01
       -1   -1    0    0    0  501  0.00000000000E+00  0.00000000000E+00  0.13320412176E+04  0.13320412176E+04  0.50400001928E-02 0. -1.
        1   -1    0    0  501    0  0.00000000000E+00  0.00000000000E+00 -0.24397445781E+04  0.24397445781E+04  0.50400001928E-02 0.  1.
    10030    2    1    2    0    0  0.00000000000E+00  0.00000000000E+00 -0.11077033605E+04  0.37717857957E+04  0.36054627101E+04 0.  0.
        3    1    3    3  502    0 -0.43941515455E+01  0.13470985632E+04 -0.18070913332E+04  0.22539460828E+04  0.10100000352E+00 0.  1.
       -3    1    3    3    0  502  0.43941515455E+01 -0.13470985632E+04  0.69938797271E+03  0.15178397129E+04  0.10100000352E+00 0. -1.
</event>
<event>
 5   0  0.2309391E-07  0.3613597E+04  0.7818609E-02  0.8087384E-01
       -2   -1    0    0    0  501  0.00000000000E+00  0.00000000000E+00  0.14957658144E+04  0.14957658144E+04  0.25500000920E-02 0. -1.
        2   -1    0    0  501    0  0.00000000000E+00  0.00000000000E+00 -0.21825075104E+04  0.21825075104E+04  0.25500000920E-02 0.  1.
    10030    2    1    2    0    0  0.00000000000E+00  0.00000000000E+00 -0.68674169607E+03  0.36782733248E+04  0.36135966148E+04 0.  0.
        4    1    3    3  502    0  0.16401068242E+04 -0.75449952803E+03 -0.26927668535E+03  0.18253031197E+04  0.12699999809E+01 0.  1.
       -4    1    3    3    0  502 -0.16401068242E+04  0.75449952803E+03 -0.41746501072E+03  0.18529702051E+04  0.12699999809E+01 0. -1.
</event>
<event>
 5   0  0.2238968E-07  0.3604189E+04  0.7818609E-02  0.8089533E-01
        2   -1    0    0  501    0  0.00000000000E+00  0.00000000000E+00  0.23000545088E+04  0.23000545088E+04  0.25500000920E-02 0.  1.
       -2   -1    0    0    0  501  0.00000000000E+00  0.00000000000E+00 -0.14119423133E+04  0.14119423133E+04  0.25500000920E-02 0. -1.
    10030    2    1    2    0    0  0.00000000000E+00  0.00000000000E+00  0.88811219555E+03  0.37119968221E+04  0.36041888318E+04 0.  0.
        3    1    3    3  502    0 -0.63252287599E+03 -0.16871163468E+04  0.40993635605E+03  0.18478351070E+04  0.10100000352E+00 0. -1.
       -3    1    3    3    0  502  0.63252287599E+03  0.16871163468E+04  0.47817583950E+03  0.18641617151E+04  0.10100000352E+00 0.  1.
</event>
<event>
 5   0  0.2199902E-07  0.3603206E+04  0.7818609E-02  0.8089758E-01
       -2   -1    0    0    0  501  0.00000000000E+00  0.00000000000E+00  0.16454558614E+04  0.16454558614E+04  0.25500000920E-02 0. -1.
        2   -1    0    0  501    0  0.00000000000E+00  0.00000000000E+00 -0.19725677671E+04  0.19725677671E+04  0.25500000920E-02 0.  1.
    10030    2    1    2    0    0  0.00000000000E+00  0.00000000000E+00 -0.32711190569E+03  0.36180236286E+04  0.36032059028E+04 0.  0.
        1    1    3    3  502    0 -0.50889648396E+03  0.12746529753E+04 -0.13354275181E+04  0.19149627920E+04  0.50400001928E-02 0.  1.
       -1    1    3    3    0  502  0.50889648396E+03 -0.12746529753E+04  0.10083156124E+04  0.17030608365E+04  0.50400001928E-02 0. -1.
</event>
<event>
 5   0  0.2309391E-07  0.3601587E+04  0.7818609E-02  0.8090128E-01
       -2   -1    0    0    0  501  0.00000000000E+00  0.00000000000E+00  0.21279019768E+04  0.21279019768E+04  0.25500000920E-02 0.  1.
        2   -1    0    0  501    0  0.00000000000E+00  0.00000000000E+00 -0.15239693495E+04  0.15239693495E+04  0.25500000920E-02 0. -1.
    10030    2    1    2    0    0  0.00000000000E+00  0.00000000000E+00  0.60393262727E+03  0.36518713263E+04  0.36015870898E+04 0.  0.
        4    1    3    3  502    0 -0.36523979029E+02 -0.71893717768E+03  0.19756639220E+04  0.21027254248E+04  0.12699999809E+01 0.  1.
       -4    1    3    3    0  502  0.36523979029E+02  0.71893717768E+03 -0.13717312947E+04  0.15491459015E+04  0.12699999809E+01 0. -1.
</event>
<event>
 5   0  0.7261233E-08  0.3497076E+04  0.7818609E-02  0.8114483E-01
       -1   -1    0    0    0  501  0.00000000000E+00  0.00000000000E+00  0.12869657742E+04  0.12869657742E+04  0.50400001928E-02 0.  1.
        1   -1    0    0  501    0  0.00000000000E+00  0.00000000000E+00 -0.23756537482E+04  0.23756537482E+04  0.50400001928E-02 0. -1.
    10030    2    1    2    0    0  0.00000000000E+00  0.00000000000E+00 -0.10886879741E+04  0.36626195224E+04  0.34970759587E+04 0.  0.
        3    1    3    3  502    0 -0.16480764996E+04 -0.50805342871E+03 -0.24240791472E+03  0.17415613806E+04  0.10100000352E+00 0.  1.
       -3    1    3    3    0  502  0.16480764996E+04  0.50805342871E+03 -0.84628005935E+03  0.19210581418E+04  0.10100000352E+00 0. -1.
</event>
<event>
 5   0  0.2238968E-07  0.3606741E+04  0.7818609E-02  0.8088949E-01
        2   -1    0    0  501    0  0.00000000000E+00  0.00000000000E+00  0.28249720079E+04  0.28249720079E+04  0.25500000920E-02 0.  1.
       -2   -1    0    0    0  501  0.00000000000E+00  0.00000000000E+00 -0.11512134362E+04  0.11512134362E+04  0.25500000920E-02 0. -1.
    10030    2    1    2    0    0  0.00000000000E+00  0.00000000000E+00  0.16737585717E+04  0.39761854441E+04  0.36067413173E+04 0.  0.
        3    1    3    3  502    0  0.13715861947E+04 -0.95753054969E+02  0.21233410459E+04  0.25296233997E+04  0.10100000352E+00 0.  1.
       -3    1    3    3    0  502 -0.13715861947E+04  0.95753054969E+02 -0.44958247414E+03  0.14465620444E+04  0.10100000352E+00 0. -1.
</event>
<event>
 5   0  0.7261233E-08  0.3586699E+04  0.7818609E-02  0.8093545E-01
        1   -1    0    0  501    0  0.00000000000E+00  0.00000000000E+00  0.14067849791E+04  0.14067849791E+04  0.50400001928E-02 0.  1.
       -1   -1    0    0    0  501  0.00000000000E+00  0.00000000000E+00 -0.22861368475E+04  0.22861368475E+04  0.50400001928E-02 0. -1.
    10030    2    1    2    0    0  0.00000000000E+00  0.00000000000E+00 -0.87935186840E+03  0.36929218266E+04  0.35866993056E+04 0.  0.
        3    1    3    3  502    0  0.39657235336E+03  0.17011627412E+04 -0.21597876184E+02  0.17469089220E+04  0.10100000352E+00 0.  1.
       -3    1    3    3    0  502 -0.39657235336E+03 -0.17011627412E+04 -0.85775399221E+03  0.19460129046E+04  0.10100000352E+00 0. -1.
</event>
<event>
 5   0  0.2309391E-07  0.3614245E+04  0.7818609E-02  0.8087236E-01
       -2   -1    0    0    0  501  0.00000000000E+00  0.00000000000E+00  0.18035947768E+04  0.18035947768E+04  0.25500000920E-02 0.  1.
        2   -1    0    0  501    0  0.00000000000E+00  0.00000000000E+00 -0.18106571206E+04  0.18106571206E+04  0.25500000920E-02 0. -1.
    10030    2    1    2    0    0  0.00000000000E+00  0.00000000000E+00 -0.70623437639E+01  0.36142518975E+04  0.36142449974E+04 0.  0.
        4    1    3    3  502    0  0.16964369544E+03 -0.17683149903E+04 -0.33515391561E+03  0.18077739483E+04  0.12699999809E+01 0. -1.
       -4    1    3    3    0  502 -0.16964369544E+03  0.17683149903E+04  0.32809157184E+03  0.18064779491E+04  0.12699999809E+01 0.  1.
</event>
<event>
 5   0  0.2198900E-07  0.3602412E+04  0.7818609E-02  0.8089939E-01
       -2   -1    0    0    0  501  0.00000000000E+00  0.00000000000E+00  0.19312381873E+04  0.19312381873E+04  0.25500000920E-02 0.  1.
        2   -1    0    0  501    0  0.00000000000E+00  0.00000000000E+00 -0.16799290958E+04  0.16799290958E+04  0.25500000920E-02 0. -1.
    10030    2    1    2    0    0  0.00000000000E+00  0.00000000000E+00  0.25130909146E+03  0.36111672831E+04  0.36024120929E+04 0.  0.
        2    1    3    3  502    0 -0.11836288201E+04 -0.75281045867E+02 -0.12332576033E+04  0.17110139496E+04  0.25500000920E-02 0. -1.
       -2    1    3    3    0  502  0.11836288201E+04  0.75281045867E+02  0.14845666947E+04  0.19001533335E+04  0.25500000920E-02 0.  1.
</event>
<event>
 5   0  0.2199902E-07  0.3594548E+04  0.7818609E-02  0.8091742E-01
       -2   -1    0    0    0  501  0.00000000000E+00  0.00000000000E+00  0.32646190978E+04  0.32646190978E+04  0.25500000920E-02 0.  1.
        2   -1    0    0  501    0  0.00000000000E+00  0.00000000000E+00 -0.98945525462E+03  0.98945525462E+03  0.25500000920E-02 0. -1.
    10030    2    1    2    0    0  0.00000000000E+00  0.00000000000E+00  0.22751638432E+04  0.42540743524E+04  0.35945483837E+04 0.  0.
        1    1    3    3  502    0 -0.12471552190E+04  0.62845751267E+03 -0.20128836474E+03  0.14109826332E+04  0.50400001928E-02 0. -1.
       -1    1    3    3    0  502  0.12471552190E+04 -0.62845751267E+03  0.24764522080E+04  0.28430917192E+04  0.50400001928E-02 0.  1.
</event>
<event>
 5   0  0.2199902E-07  0.3625508E+04  0.7818609E-02  0.8084674E-01
        2   -1    0    0  501    0  0.00000000000E+00  0.00000000000E+00  0.19644279571E+04  0.19644279571E+04  0.25500000920E-02 0.  1.
       -2   -1    0    0    0  501  0.00000000000E+00  0.00000000000E+00 -0.16727904495E+04  0.16727904495E+04  0.25500000920E-02 0. -1.
    10030    2    1    2    0    0  0.00000000000E+00  0.00000000000E+00  0.29163750761E+03  0.36372184066E+04  0.36255075923E+04 0.  0.
        1    1    3    3  502    0  0.15195076457E+04  0.27710116481E+03 -0.80613392094E+03  0.17422802413E+04  0.50400001928E-02 0. -1.
       -1    1    3    3    0  502 -0.15195076457E+04 -0.27710116481E+03  0.10977714285E+04  0.18949381653E+04  0.50400001928E-02 0.  1.
</event>
<event>
 5   0  0.2198900E-07  0.3605066E+04  0.7818609E-02  0.8089332E-01
        2   -1    0    0  501    0  0.00000000000E+00  0.00000000000E+00  0.16674855441E+04  0.16674855441E+04  0.25500000920E-02 0. -1.
       -2   -1    0    0    0  501  0.00000000000E+00  0.00000000000E+00 -0.19485178952E+04  0.19485178952E+04  0.25500000920E-02 0.  1.
    10030    2    1    2    0    0  0.00000000000E+00  0.00000000000E+00 -0.28103235105E+03  0.36160034393E+04  0.36050661146E+04 0.  0.
        2    1    3    3  502    0 -0.36642016733E+03 -0.49516012104E+03 -0.18396680372E+04  0.19400581877E+04  0.25500000920E-02 0.  1.
       -2    1    3    3    0  502  0.36642016733E+03  0.49516012104E+03  0.15586356861E+04  0.16759452517E+04  0.25500000920E-02 0. -1.
</event>
<event>
 5   0  0.7347303E-08  0.3601372E+04  0.7818609E-02  0.8090178E-01
        1   -1    0    0  501    0  0.00000000000E+00  0.00000000000E+00  0.20602333303E+04  0.20602333303E+04  0.50400001928E-02 0.  1.
       -1   -1    0    0    0  501  0.00000000000E+00  0.00000000000E+00 -0.15738359890E+04  0.15738359890E+04  0.50400001928E-02 0. -1.
    10030    2    1    2    0    0  0.00000000000E+00  0.00000000000E+00  0.48639734135E+03  0.36340693193E+04  0.36013716060E+04 0.  0.
        2    1    3    3  502    0  0.24353452955E+02  0.16652952072E+04 -0.44761033096E+03  0.17245742160E+04  0.25500000920E-02 0. -1.
       -2    1    3    3    0  502 -0.24353452955E+02 -0.16652952072E+04  0.93400767231E+03  0.19094951034E+04  0.25500000920E-02 0.  1.
</event>
<event>
 5   0  0.7347303E-08  0.3604459E+04  0.7818609E-02  0.8089471E-01
       -1   -1    0    0    0  501  0.00000000000E+00  0.00000000000E+00  0.20955982373E+04  0.20955982373E+04  0.50400001928E-02 0.  1.
        1   -1    0    0  501    0  0.00000000000E+00  0.00000000000E+00 -0.15499304920E+04  0.15499304920E+04  0.50400001928E-02 0. -1.
    10030    2    1    2    0    0  0.00000000000E+00  0.00000000000E+00  0.54566774533E+03  0.36455287293E+04  0.36044592421E+04 0.  0.
        2    1    3    3  502    0  0.50937467562E+03  0.87153640844E+03  0.17828263757E+04  0.20487821156E+04  0.25500000920E-02 0.  1.
       -2    1    3    3    0  502 -0.50937467562E+03 -0.87153640844E+03 -0.12371586304E+04  0.15967466136E+04  0.25500000920E-02 0. -1.
</event>
<event>
 5   0  0.7514289E-08  0.3607789E+04  0.7818609E-02  0.8088710E-01
        1   -1    0    0  501    0  0.00000000000E+00  0.00000000000E+00  0.15159373443E+04  0.15159373443E+04  0.50400001928E-02 0.  1.
       -1   -1    0    0    0  501  0.00000000000E+00  0.00000000000E+00 -0.21465496062E+04  0.21465496062E+04  0.50400001928E-02 0. -1.
    10030    2    1    2    0    0  0.00000000000E+00  0.00000000000E+00 -0.63061226185E+03  0.36624869505E+04  0.36077886355E+04 0.  0.
        4    1    3    3  502    0  0.15444395557E+04  0.92991907630E+03 -0.37943079419E+03  0.18422845519E+04  0.12699999809E+01 0. -1.
       -4    1    3    3    0  502 -0.15444395557E+04 -0.92991907630E+03 -0.25118146766E+03  0.18202023987E+04  0.12699999809E+01 0.  1.
</event>
<event>
 5   0  0.7236375E-08  0.3689573E+04  0.7818609E-02  0.8070277E-01
       -1   -1    0    0    0  501  0.00000000000E+00  0.00000000000E+00  0.12554903604E+04  0.12554903605E+04  0.50400001928E-02 0. -1.
        1   -1    0    0  501    0  0.00000000000E+00  0.00000000000E+00 -0.27106834572E+04  0.27106834572E+04  0.50400001928E-02 0.  1.
    10030    2    1    2    0    0  0.00000000000E+00  0.00000000000E+00 -0.14551930968E+04  0.39661738177E+04  0.36895728483E+04 0.  0.
        5    1    3    3  502    0  0.50188581440E+03  0.49286404845E+03  0.11056611062E+04  0.13104628620E+04  0.46999998093E+01 0. -1.
       -5    1    3    3    0  502 -0.50188581440E+03 -0.49286404845E+03 -0.25608542030E+04  0.26557109556E+04  0.46999998093E+01 0.  1.
</event>
<event>
 5   0  0.7236375E-08  0.3591485E+04  0.7818609E-02  0.8092445E-01
        1   -1    0    0  501    0  0.00000000000E+00  0.00000000000E+00  0.15094039192E+04  0.15094039192E+04  0.50400001928E-02 0.  1.
       -1   -1    0    0    0  501  0.00000000000E+00  0.00000000000E+00 -0.21364008941E+04  0.21364008941E+04  0.50400001928E-02 0. -1.
    10030    2    1    2    0    0  0.00000000000E+00  0.00000000000E+00 -0.62699697490E+03  0.36458048134E+04  0.35914854212E+04 0.  0.
        5    1    3    3  502    0 -0.62871773503E+03  0.95770048168E+03  0.10902368571E+04  0.15814912891E+04  0.46999998093E+01 0.  1.
       -5    1    3    3    0  502  0.62871773503E+03 -0.95770048168E+03 -0.17172338320E+04  0.20643135243E+04  0.46999998093E+01 0. -1.
</event>
<event>
 5   0  0.2238968E-07  0.3602359E+04  0.7818609E-02  0.8089952E-01
        2   -1    0    0  501    0  0.00000000000E+00  0.00000000000E+00  0.28009184069E+04  0.28009184069E+04  0.25500000920E-02 0. -1.
       -2   -1    0    0    0  501  0.00000000000E+00  0.00000000000E+00 -0.11582797942E+04  0.11582797942E+04  0.25500000920E-02 0.  1.
    10030    2    1    2    0    0  0.00000000000E+00  0.00000000000E+00  0.16426386127E+04  0.39591982010E+04  0.36023587804E+04 0.  0.
        3    1    3    3  502    0  0.25342474909E+02 -0.12675094041E+04 -0.58488335498E+03  0.13961772379E+04  0.10100000352E+00 0.  1.
       -3    1    3    3    0  502 -0.25342474909E+02  0.12675094041E+04  0.22275219677E+04  0.25630209631E+04  0.10100000352E+00 0. -1.
</event>
<event>
 5   0  0.2238968E-07  0.3597463E+04  0.7818609E-02  0.8091073E-01
       -2   -1    0    0    0  501  0.00000000000E+00  0.00000000000E+00  0.17559110097E+04  0.17559110097E+04  0.25500000920E-02 0.  1.
        2   -1    0    0  501    0  0.00000000000E+00  0.00000000000E+00 -0.18425965399E+04  0.18425965399E+04  0.25500000920E-02 0. -1.
    10030    2    1    2    0    0  0.00000000000E+00  0.00000000000E+00 -0.86685530191E+02  0.35985075496E+04  0.35974633012E+04 0.  0.
        3    1    3    3  502    0  0.49348737898E+03 -0.15809329773E+04 -0.74537030207E+03  0.18161651272E+04  0.10100000352E+00 0. -1.
       -3    1    3    3    0  502 -0.49348737898E+03  0.15809329773E+04  0.65868477188E+03  0.17823424224E+04  0.10100000352E+00 0.  1.
</event>
<event>
 5   0  0.7236375E-08  0.3625279E+04  0.7818609E-02  0.8084726E-01
        3   -1    0    0  501    0  0.00000000000E+00  0.00000000000E+00  0.16158843433E+04  0.16158843464E+04  0.10100000352E+00 0.  1.
       -3   -1    0    0    0  501  0.00000000000E+00  0.00000000000E+00 -0.20333525259E+04  0.20333525284E+04  0.10100000352E+00 0. -1.
    10030    2    1    2    0    0  0.00000000000E+00  0.00000000000E+00 -0.41746818264E+03  0.36492368748E+04  0.36252793113E+04 0.  0.
        2    1    3    3  502    0 -0.81216037111E+03  0.11235042756E+04  0.96680024602E+03  0.16901387639E+04  0.25500000920E-02 0.  1.
       -2    1    3    3    0  502  0.81216037111E+03 -0.11235042756E+04 -0.13842684287E+04  0.19590981109E+04  0.25500000920E-02 0. -1.
</event>
<event>
 5   0  0.2199902E-07  0.3601810E+04  0.7818609E-02  0.8090077E-01
        2   -1    0    0  501    0  0.00000000000E+00  0.00000000000E+00  0.22727603190E+04  0.22727603190E+04  0.25500000920E-02 0. -1.
       -2   -1    0    0    0  501  0.00000000000E+00  0.00000000000E+00 -0.14270134197E+04  0.14270134197E+04  0.25500000920E-02 0.  1.
    10030    2    1    2    0    0  0.00000000000E+00  0.00000000000E+00  0.84574689928E+03  0.36997737386E+04  0.36018103642E+04 0.  0.
        1    1    3    3  502    0  0.10545205839E+04  0.14011386948E+04  0.84396987418E+03  0.19461470789E+04  0.50400001928E-02 0. -1.
       -1    1    3    3    0  502 -0.10545205839E+04 -0.14011386948E+04  0.17770250990E+01  0.17536266598E+04  0.50400001928E-02 0.  1.
</event>
<event>
 5   0  0.7347303E-08  0.3597806E+04  0.7818609E-02  0.8090994E-01
        1   -1    0    0  501    0  0.00000000000E+00  0.00000000000E+00  0.23112917122E+04  0.23112917122E+04  0.50400001928E-02 0. -1.
       -1   -1    0    0    0  501  0.00000000000E+00  0.00000000000E+00 -0.14001056494E+04  0.14001056494E+04  0.50400001928E-02 0.  1.
    10030    2    1    2    0    0  0.00000000000E+00  0.00000000000E+00  0.91118606278E+03  0.37113973616E+04  0.35978063225E+04 0.  0.
        2    1    3    3  502    0  0.50749465514E+03  0.16686365076E+04  0.91013376130E+03  0.19672930852E+04  0.25500000920E-02 0.  1.
       -2    1    3    3    0  502 -0.50749465514E+03 -0.16686365076E+04  0.10523014815E+01  0.17441042764E+04  0.25500000920E-02 0. -1.
</event>
<event>
 5   0  0.2238968E-07  0.3653315E+04  0.7818609E-02  0.8078387E-01
       -2   -1    0    0    0  501  0.00000000000E+00  0.00000000000E+00  0.30529064974E+04  0.30529064974E+04  0.25500000920E-02 0.  1.
        2   -1    0    0  501    0  0.00000000000E+00  0.00000000000E+00 -0.10929514089E+04  0.10929514089E+04  0.25500000920E-02 0. -1.
    10030    2    1    2    0    0  0.00000000000E+00  0.00000000000E+00  0.19599550885E+04  0.41458579063E+04  0.36533154573E+04 0.  0.
        3    1    3    3  502    0 -0.62805340755E+03 -0.14139614523E+04 -0.12199139891E+03  0.15519729324E+04  0.10100000352E+00 0. -1.
       -3    1    3    3    0  502  0.62805340755E+03  0.14139614523E+04  0.20819464874E+04  0.25938849739E+04  0.10100000352E+00 0.  1.
</event>
<event>
 5   0  0.2309391E-07  0.3591468E+04  0.7818609E-02  0.8092449E-01
        2   -1    0    0  501    0  0.00000000000E+00  0.00000000000E+00  0.11335702668E+04  0.11335702668E+04  0.25500000920E-02 0. -1.
       -2   -1    0    0    0  501  0.00000000000E+00  0.00000000000E+00 -0.28446934942E+04  0.28446934942E+04  0.25500000920E-02 0.  1.
    10030    2    1    2    0    0  0.00000000000E+00  0.00000000000E+00 -0.17111232275E+04  0.39782637610E+04  0.35914676460E+04 0.  0.
        4    1    3    3  502    0  0.12403565455E+04 -0.12176479228E+04 -0.13552644943E+04  0.22040631312E+04  0.12699999809E+01 0.  1.
       -4    1    3    3    0  502 -0.12403565455E+04  0.12176479228E+04 -0.35585873320E+03  0.17742006298E+04  0.12699999809E+01 0. -1.
</event>
<event>
 5   0  0.2342606E-07  0.3624365E+04  0.7818609E-02  0.8084933E-01
        2   -1    0    0  501    0  0.00000000000E+00  0.00000000000E+00  0.23870717534E+04  0.23870717534E+04  0.25500000920E-02 0. -1.
       -2   -1    0    0    0  501  0.00000000000E+00  0.00000000000E+00 -0.13757463625E+04  0.13757463626E+04  0.25500000920E-02 0.  1.
    10030    2    1    2    0    0  0.00000000000E+00  0.00000000000E+00  0.10113253908E+04  0.37628181159E+04  0.36243649275E+04 0.  0.
        5    1    3    3  502    0 -0.23406322695E+03  0.32369193636E+03  0.23407895479E+04  0.23746325740E+04  0.46999998093E+01 0. -1.
       -5    1    3    3    0  502  0.23406322695E+03 -0.32369193636E+03 -0.13294641571E+04  0.13881855419E+04  0.46999998093E+01 0.  1.
</event>
<event>
 5   0  0.7236375E-08  0.3538990E+04  0.7818609E-02  0.8104612E-01
        1   -1    0    0  501    0  0.00000000000E+00  0.00000000000E+00  0.24627160622E+04  0.24627160622E+04  0.50400001928E-02 0.  1.
       -1   -1    0    0    0  501  0.00000000000E+00  0.00000000000E+00 -0.12714061309E+04  0.12714061310E+04  0.50400001928E-02 0. -1.
    10030    2    1    2    0    0  0.00000000000E+00  0.00000000000E+00  0.11913099312E+04  0.37341221931E+04  0.35389898560E+04 0.  0.
        1    1    3    3  502    0  0.30022647862E+03 -0.33592269722E+03 -0.12098743967E+04  0.12910368131E+04  0.50400001928E-02 0. -1.
       -1    1    3    3    0  502 -0.30022647862E+03  0.33592269722E+03  0.24011843280E+04  0.24430853800E+04  0.50400001928E-02 0.  1.
</event>
<event>
 5   0  0.7261233E-08  0.3605947E+04  0.7818609E-02  0.8089131E-01
       -1   -1    0    0    0  501  0.00000000000E+00  0.00000000000E+00  0.16618646629E+04  0.16618646629E+04  0.50400001928E-02 0. -1.
        1   -1    0    0  501    0  0.00000000000E+00  0.00000000000E+00 -0.19560637236E+04  0.19560637236E+04  0.50400001928E-02 0.  1.
    10030    2    1    2    0    0  0.00000000000E+00  0.00000000000E+00 -0.29419906073E+03  0.36179283866E+04  0.36059468553E+04 0.  0.
        3    1    3    3  502    0  0.13811898906E+03  0.11493184429E+04  0.12397753633E+04  0.16961876959E+04  0.10100000352E+00 0. -1.
       -3    1    3    3    0  502 -0.13811898906E+03 -0.11493184429E+04 -0.15339744240E+04  0.19217406906E+04  0.10100000352E+00 0.  1.
</event>
<event>
 5   0  0.7514289E-08  0.3596630E+04  0.7818609E-02  0.8091264E-01
       -1   -1    0    0    0  501  0.00000000000E+00  0.00000000000E+00  0.10761322909E+04  0.10761322909E+04  0.50400001928E-02 0.  1.
        1   -1    0    0  501    0  0.00000000000E+00  0.00000000000E+00 -0.30051485738E+04  0.30051485738E+04  0.50400001928E-02 0. -1.
    10030    2    1    2    0    0  0.00000000000E+00  0.00000000000E+00 -0.19290162829E+04  0.40812808647E+04  0.35966303225E+04 0.  0.
        4    1    3    3  502    0  0.94019386065E+03  0.84023440479E+03  0.49044367276E+03  0.13529578558E+04  0.12699999809E+01 0.  1.
       -4    1    3    3    0  502 -0.94019386065E+03 -0.84023440479E+03 -0.24194599557E+04  0.27283230089E+04  0.12699999809E+01 0. -1.
</event>
<event>
 5   0  0.7236375E-08  0.3612987E+04  0.7818609E-02  0.8087523E-01
        1   -1    0    0  501    0  0.00000000000E+00  0.00000000000E+00  0.22325521347E+04  0.22325521347E+04  0.50400001928E-02 0.  1.
       -1   -1    0    0    0  501  0.00000000000E+00  0.00000000000E+00 -0.14617433748E+04  0.14617433748E+04  0.50400001928E-02 0. -1.
    10030    2    1    2    0    0  0.00000000000E+00  0.00000000000E+00  0.77080875983E+03  0.36942955095E+04  0.36129867378E+04 0.  0.
        5    1    3    3  502    0 -0.38689854411E+03 -0.15853105817E+04  0.11777603824E+04  0.20124715482E+04  0.46999998093E+01 0.  1.
       -5    1    3    3    0  502  0.38689854411E+03  0.15853105817E+04 -0.40695162255E+03  0.16818239613E+04  0.46999998093E+01 0. -1.
</event>
<event>
 5   0  0.2238968E-07  0.3605349E+04  0.7818609E-02  0.8089268E-01
        2   -1    0    0  501    0  0.00000000000E+00  0.00000000000E+00  0.24320665409E+04  0.24320665409E+04  0.25500000920E-02 0. -1.
       -2   -1    0    0    0  501  0.00000000000E+00  0.00000000000E+00 -0.13361622815E+04  0.13361622815E+04  0.25500000920E-02 0.  1.
    10030    2    1    2    0    0  0.00000000000E+00  0.00000000000E+00  0.10959042594E+04  0.37682288224E+04  0.36053491248E+04 0.  0.
        3    1    3    3  502    0 -0.13966087212E+04 -0.72471543422E+03 -0.37151113152E+03  0.16167092848E+04  0.10100000352E+00 0.  1.
       -3    1    3    3    0  502  0.13966087212E+04  0.72471543422E+03  0.14674153909E+04  0.21515195375E+04  0.10100000352E+00 0. -1.
</event>
<event>
 5   0  0.7347303E-08  0.3613706E+04  0.7818609E-02  0.8087359E-01
       -1   -1    0    0    0  501  0.00000000000E+00  0.00000000000E+00  0.14118922155E+04  0.14118922155E+04  0.50400001928E-02 0.  1.
        1   -1    0    0  501    0  0.00000000000E+00  0.00000000000E+00 -0.23123001222E+04  0.23123001222E+04  0.50400001928E-02 0. -1.
    10030    2    1    2    0    0  0.00000000000E+00  0.00000000000E+00 -0.90040790664E+03  0.37241923377E+04  0.36137064310E+04 0.  0.
        2    1    3    3  502    0 -0.14852497411E+03 -0.14180673196E+04 -0.15939759328E+04  0.21386289685E+04  0.25500000920E-02 0. -1.
       -2    1    3    3    0  502  0.14852497411E+03  0.14180673196E+04  0.69356802614E+03  0.15855633692E+04  0.25500000920E-02 0.  1.
</event>
<event>
 5   0  0.7514289E-08  0.3627355E+04  0.7818609E-02  0.8084254E-01
        1   -1    0    0  501    0  0.00000000000E+00  0.00000000000E+00  0.25485572261E+04  0.25485572261E+04  0.50400001928E-02 0.  1.
       -1   -1    0    0    0  501  0.00000000000E+00  0.00000000000E+00 -0.12907011873E+04  0.12907011873E+04  0.50400001928E-02 0. -1.
    10030    2    1    2    0    0  0.00000000000E+00  0.00000000000E+00  0.12578560389E+04  0.38392584134E+04  0.36273548697E+04 0.  0.
        4    1    3    3  502    0 -0.10404644394E+04  0.79349748878E+03 -0.70031196659E+03  0.14841303776E+04  0.12699999809E+01 0. -1.
       -4    1    3    3    0  502  0.10404644394E+04 -0.79349748878E+03  0.19581680055E+04  0.23551280358E+04  0.12699999809E+01 0.  1.
</event>
<event>
 5   0  0.7261233E-08  0.3663527E+04  0.7818609E-02  0.8076093E-01
       -1   -1    0    0    0  501  0.00000000000E+00  0.00000000000E+00  0.14788880373E+04  0.14788880373E+04  0.50400001928E-02 0.  1.
        1   -1    0    0  501    0  0.00000000000E+00  0.00000000000E+00 -0.22688382338E+04  0.22688382338E+04  0.50400001928E-02 0. -1.
    10030    2    1    2    0    0  0.00000000000E+00  0.00000000000E+00 -0.78995019656E+03  0.37477262711E+04  0.36635271106E+04 0.  0.
        3    1    3    3  502    0 -0.10086832484E+02  0.10759096531E+04 -0.19115020278E+04  0.21935184837E+04  0.10100000352E+00 0. -1.
       -3    1    3    3    0  502  0.10086832484E+02 -0.10759096531E+04  0.11215518313E+04  0.15542077874E+04  0.10100000352E+00 0.  1.
</event>
<event>
 5   0  0.7514289E-08  0.3607761E+04  0.7818609E-02  0.8088716E-01
       -1   -1    0    0    0  501  0.00000000000E+00  0.00000000000E+00  0.24574568456E+04  0.24574568456E+04  0.50400001928E-02 0.  1.
        1   -1    0    0  501    0  0.00000000000E+00  0.00000000000E+00 -0.13241272509E+04  0.13241272509E+04  0.50400001928E-02 0. -1.
    10030    2    1    2    0    0  0.00000000000E+00  0.00000000000E+00  0.11333295947E+04  0.37815840965E+04  0.36077613985E+04 0.  0.
        4    1    3    3  502    0  0.10278113036E+04 -0.62854053506E+02 -0.98578784949E+03  0.14255265711E+04  0.12699999809E+01 0. -1.
       -4    1    3    3    0  502 -0.10278113036E+04  0.62854053506E+02  0.21191174442E+04  0.23560575254E+04  0.12699999809E+01 0.  1.
</event>
<event>
 5   0  0.2198900E-07  0.3594736E+04  0.7818609E-02  0.8091699E-01
        2   -1    0    0  501    0  0.00000000000E+00  0.00000000000E+00  0.22660712770E+04  0.22660712770E+04  0.25500000920E-02 0. -1.
       -2   -1    0    0    0  501  0.00000000000E+00  0.00000000000E+00 -0.14256089104E+04  0.14256089104E+04  0.25500000920E-02 0.  1.
    10030    2    1    2    0    0  0.00000000000E+00  0.00000000000E+00  0.84046236663E+03  0.36916801874E+04  0.35947358201E+04 0.  0.
        2    1    3    3  502    0  0.13389637481E+04 -0.51572738602E+03 -0.69142727198E+03  0.15927555770E+04  0.25500000920E-02 0.  1.
       -2    1    3    3    0  502 -0.13389637481E+04  0.51572738602E+03  0.15318896386E+04  0.20989246105E+04  0.25500000920E-02 0. -1.
</event>
<event>
 5   0  0.2342606E-07  0.3607032E+04  0.7818609E-02  0.8088883E-01
       -2   -1    0    0    0  501  0.00000000000E+00  0.00000000000E+00  0.18558944500E+04  0.18558944500E+04  0.25500000920E-02 0. -1.
        2   -1    0    0  501    0  0.00000000000E+00  0.00000000000E+00 -0.17526155381E+04  0.17526155381E+04  0.25500000920E-02 0.  1.
    10030    2    1    2    0    0  0.00000000000E+00  0.00000000000E+00  0.10327891199E+03  0.36085099881E+04  0.36070317160E+04 0.  0.
        5    1    3    3  502    0  0.99728772628E+03 -0.29872059730E+03 -0.14216590971E+04  0.17620878192E+04  0.46999998093E+01 0.  1.
       -5    1    3    3    0  502 -0.99728772628E+03  0.29872059730E+03  0.15249380091E+04  0.18464221689E+04  0.46999998093E+01 0. -1.
</event>
<event>
 5   0  0.2238968E-07  0.3598454E+04  0.7818609E-02  0.8090846E-01
        2   -1    0    0  501    0  0.00000000000E+00  0.00000000000E+00  0.11572975260E+04  0.11572975260E+04  0.25500000920E-02 0.  1.
       -2   -1    0    0    0  501  0.00000000000E+00  0.00000000000E+00 -0.27972217143E+04  0.27972217143E+04  0.25500000920E-02 0. -1.
    10030    2    1    2    0    0  0.00000000000E+00  0.00000000000E+00 -0.16399241883E+04  0.39545192403E+04  0.35984539845E+04 0.  0.
        3    1    3    3  502    0  0.62561766821E+03  0.16193982071E+04 -0.13393476986E+04  0.21926468680E+04  0.10100000352E+00 0. -1.
       -3    1    3    3    0  502 -0.62561766821E+03 -0.16193982071E+04 -0.30057648966E+03  0.17618723723E+04  0.10100000352E+00 0.  1.
</event>
<event>
 5   0  0.2342606E-07  0.3655275E+04  0.7818609E-02  0.8077946E-01
       -2   -1    0    0    0  501  0.00000000000E+00  0.00000000000E+00  0.15300609147E+04  0.15300609147E+04  0.25500000920E-02 0. -1.
        2   -1    0    0  501    0  0.00000000000E+00  0.00000000000E+00 -0.21830883805E+04  0.21830883805E+04  0.25500000920E-02 0.  1.
    10030    2    1    2    0    0  0.00000000000E+00  0.00000000000E+00 -0.65302746581E+03  0.37131492952E+04  0.36552746569E+04 0.  0.
        5    1    3    3  502    0 -0.18133757039E+04 -0.13169745822E+03 -0.51536160378E+03  0.18897871141E+04  0.46999998093E+01 0. -1.
       -5    1    3    3    0  502  0.18133757039E+04  0.13169745822E+03 -0.13766586202E+03  0.18233621811E+04  0.46999998093E+01 0.  1.
</event>
<event>
 5   0  0.7514289E-08  0.3602214E+04  0.7818609E-02  0.8089985E-01
        1   -1    0    0  501    0  0.00000000000E+00  0.00000000000E+00  0.14339166587E+04  0.14339166587E+04  0.50400001928E-02 0. -1.
       -1   -1    0    0    0  501  0.00000000000E+00  0.00000000000E+00 -0.22623258435E+04  0.22623258435E+04  0.50400001928E-02 0.  1.
    10030    2    1    2    0    0  0.00000000000E+00  0.00000000000E+00 -0.82840918478E+03  0.36962425022E+04  0.36022141604E+04 0.  0.
        4    1    3    3  502    0 -0.51443195701E+03  0.75206620704E+03 -0.20083806660E+04  0.22054111477E+04  0.12699999809E+01 0.  1.
       -4    1    3    3    0  502  0.51443195701E+03 -0.75206620704E+03  0.11799714812E+04  0.14908313545E+04  0.12699999809E+01 0. -1.
</event>
<event>
 5   0  0.7236375E-08  0.3582972E+04  0.7818609E-02  0.8094403E-01
        1   -1    0    0  501    0  0.00000000000E+00  0.00000000000E+00  0.21827734414E+04  0.21827734414E+04  0.50400001928E-02 0. -1.
       -1   -1    0    0    0  501  0.00000000000E+00  0.00000000000E+00 -0.14703412860E+04  0.14703412861E+04  0.50400001928E-02 0.  1.
    10030    2    1    2    0    0  0.00000000000E+00  0.00000000000E+00  0.71243215536E+03  0.36531147275E+04  0.35829719000E+04 0.  0.
        5    1    3    3  502    0 -0.16793433428E+04 -0.19874401327E+03 -0.24672074393E+03  0.17089723407E+04  0.46999998093E+01 0.  1.
       -5    1    3    3    0  502  0.16793433428E+04  0.19874401327E+03  0.95915289929E+03  0.19441423868E+04  0.46999998093E+01 0. -1.
</event>
<event>
 5   0  0.7261233E-08  0.3593924E+04  0.7818609E-02  0.8091885E-01
        1   -1    0    0  501    0  0.00000000000E+00  0.00000000000E+00  0.10085414413E+04  0.10085414413E+04  0.50400001928E-02 0. -1.
       -1   -1    0    0    0  501  0.00000000000E+00  0.00000000000E+00 -0.32017257254E+04  0.32017257254E+04  0.50400001928E-02 0.  1.
    10030    2    1    2    0    0  0.00000000000E+00  0.00000000000E+00 -0.21931842841E+04  0.42102671667E+04  0.35939243607E+04 0.  0.
        3    1    3    3  502    0 -0.16345340308E+04  0.39500511506E+03 -0.35443082519E+03  0.17185318614E+04  0.10100000352E+00 0. -1.
       -3    1    3    3    0  502  0.16345340308E+04 -0.39500511506E+03 -0.18387534589E+04  0.24917353052E+04  0.10100000352E+00 0.  1.
</event>
<event>
 5   0  0.7236375E-08  0.3600194E+04  0.7818609E-02  0.8090447E-01
       -1   -1    0    0    0  501  0.00000000000E+00  0.00000000000E+00  0.13233676324E+04  0.13233676324E+04  0.50400001928E-02 0. -1.
        1   -1    0    0  501    0  0.00000000000E+00  0.00000000000E+00 -0.24485636838E+04  0.24485636838E+04  0.50400001928E-02 0.  1.
    10030    2    1    2    0    0  0.00000000000E+00  0.00000000000E+00 -0.11251960514E+04  0.37719313162E+04  0.36001943976E+04 0.  0.
        5    1    3    3  502    0 -0.59296320852E+03 -0.12691510422E+04  0.62180505996E+03  0.15326491305E+04  0.46999998093E+01 0. -1.
       -5    1    3    3    0  502  0.59296320852E+03  0.12691510422E+04 -0.17470011113E+04  0.22392821858E+04  0.46999998093E+01 0.  1.
</event>
<event>
 5   0  0.2198900E-07  0.3616822E+04  0.7818609E-02  0.8086649E-01
        2   -1    0    0  501    0  0.00000000000E+00  0.00000000000E+00  0.11642625472E+04  0.11642625472E+04  0.25500000920E-02 0. -1.
       -2   -1    0    0    0  501  0.00000000000E+00  0.00000000000E+00 -0.28089458079E+04  0.28089458079E+04  0.25500000920E-02 0.  1.
    10030    2    1    2    0    0  0.00000000000E+00  0.00000000000E+00 -0.16446832608E+04  0.39732083551E+04  0.36168220311E+04 0.  0.
        2    1    3    3  502    0  0.70675870890E+03 -0.12904491451E+04 -0.19774160904E+04  0.24647395935E+04  0.25500000920E-02 0.  1.
       -2    1    3    3    0  502 -0.70675870890E+03  0.12904491451E+04  0.33273282968E+03  0.15084687616E+04  0.25500000920E-02 0. -1.
</event>
<event>
 5   0  0.2238968E-07  0.3611324E+04  0.7818609E-02  0.8087903E-01
        2   -1    0    0  501    0  0.00000000000E+00  0.00000000000E+00  0.16283220384E+04  0.16283220384E+04  0.25500000920E-02 0. -1.
       -2   -1    0    0    0  501  0.00000000000E+00  0.00000000000E+00 -0.20023162746E+04  0.20023162746E+04  0.25500000920E-02 0.  1.
    10030    2    1    2    0    0  0.00000000000E+00  0.00000000000E+00 -0.37399423620E+03  0.36306383129E+04  0.36113242544E+04 0.  0.
        3    1    3    3  502    0  0.36658063197E+03  0.17107093389E+04  0.26205480049E+03  0.17690620483E+04  0.10100000352E+00 0. -1.
       -3    1    3    3    0  502 -0.36658063197E+03 -0.17107093389E+04 -0.63604903669E+03  0.18615762647E+04  0.10100000352E+00 0.  1.
</event>
<event>
 5   0  0.2238968E-07  0.3604648E+04  0.7818609E-02  0.8089428E-01
       -2   -1    0    0    0  501  0.00000000000E+00  0.00000000000E+00  0.11766323953E+04  0.11766323953E+04  0.25500000920E-02 0. -1.
        2   -1    0    0  501    0  0.00000000000E+00  0.00000000000E+00 -0.27607364165E+04  0.27607364165E+04  0.25500000920E-02 0.  1.
    10030    2    1    2    0    0  0.00000000000E+00  0.00000000000E+00 -0.15841040212E+04  0.39373688118E+04  0.36046480564E+04 0.  0.
        3    1    3    3  502    0 -0.91403140011E+03  0.93809839875E+03 -0.21444319126E+04  0.25127813761E+04  0.10100000352E+00 0.  1.
       -3    1    3    3    0  502  0.91403140011E+03 -0.93809839875E+03  0.56032789133E+03  0.14245874358E+04  0.10100000352E+00 0. -1.
</event>
<event>
 5   0  0.7347303E-08  0.3600261E+04  0.7818609E-02  0.8090432E-01
       -1   -1    0    0    0  501  0.00000000000E+00  0.00000000000E+00  0.28884955092E+04  0.28884955092E+04  0.50400001928E-02 0.  1.
        1   -1    0    0  501    0  0.00000000000E+00  0.00000000000E+00 -0.11218541071E+04  0.11218541072E+04  0.50400001928E-02 0. -1.
    10030    2    1    2    0    0  0.00000000000E+00  0.00000000000E+00  0.17666414020E+04  0.40103496163E+04  0.36002614074E+04 0.  0.
        2    1    3    3  502    0 -0.77399496043E+03  0.25745108669E+03  0.26708247943E+04  0.27926070870E+04  0.25500000920E-02 0.  1.
       -2    1    3    3    0  502  0.77399496043E+03 -0.25745108669E+03 -0.90418339225E+03  0.12177425293E+04  0.25500000920E-02 0. -1.
</event>
<event>
 5   0  0.2309391E-07  0.3593031E+04  0.7818609E-02  0.8092090E-01
       -2   -1    0    0    0  501  0.00000000000E+00  0.00000000000E+00  0.15088935453E+04  0.15088935453E+04  0.25500000920E-02 0.  1.
        2   -1    0    0  501    0  0.00000000000E+00  0.00000000000E+00 -0.21389634555E+04  0.21389634555E+04  0.25500000920E-02 0. -1.
    10030    2    1    2    0    0  0.00000000000E+00  0.00000000000E+00 -0.63006991013E+03  0.36478570008E+04  0.35930311168E+04 0.  0.
        4    1    3    3  502    0 -0.11473219659E+04 -0.73496073020E+03 -0.15037777115E+04  0.20292520757E+04  0.12699999809E+01 0. -1.
       -4    1    3    3    0  502  0.11473219659E+04  0.73496073020E+03  0.87370780138E+03  0.16186049251E+04  0.12699999809E+01 0.  1.
</event>
<event>
 5   0  0.2238968E-07  0.3600301E+04  0.7818609E-02  0.8090423E-01
        2   -1    0    0  501    0  0.00000000000E+00  0.00000000000E+00  0.23362856565E+04  0.23362856565E+04  0.25500000920E-02 0.  1.
       -2   -1    0    0    0  501  0.00000000000E+00  0.00000000000E+00 -0.13870487310E+04  0.13870487310E+04  0.25500000920E-02 0. -1.
    10030    2    1    2    0    0  0.00000000000E+00  0.00000000000E+00  0.94923692550E+03  0.37233343876E+04  0.36003011292E+04 0.  0.
        3    1    3    3  502    0  0.81200792214E+03 -0.23794028312E+03  0.21178050789E+04  0.22805856280E+04  0.10100000352E+00 0.  1.
       -3    1    3    3    0  502 -0.81200792214E+03  0.23794028312E+03 -0.11685681534E+04  0.14427487596E+04  0.10100000352E+00 0. -1.
</event>
<event>
 5   0  0.2238968E-07  0.3635342E+04  0.7818609E-02  0.8082444E-01
       -2   -1    0    0    0  501  0.00000000000E+00  0.00000000000E+00  0.19411025327E+04  0.19411025327E+04  0.25500000920E-02 0.  1.
        2   -1    0    0  501    0  0.00000000000E+00  0.00000000000E+00 -0.17020879398E+04  0.17020879398E+04  0.25500000920E-02 0. -1.
    10030    2    1    2    0    0  0.00000000000E+00  0.00000000000E+00  0.23901459289E+03  0.36431904725E+04  0.36353416405E+04 0.  0.
        3    1    3    3  502    0 -0.22635760562E+03 -0.71088373009E+03 -0.15415796208E+04  0.17126182239E+04  0.10100000352E+00 0. -1.
       -3    1    3    3    0  502  0.22635760562E+03  0.71088373009E+03  0.17805942137E+04  0.19305722486E+04  0.10100000352E+00 0.  1.
</event>
<event>
 5   0  0.2238968E-07  0.3584258E+04  0.7818609E-02  0.8094107E-01
       -2   -1    0    0    0  501  0.00000000000E+00  0.00000000000E+00  0.17872892417E+04  0.17872892417E+04  0.25500000920E-02 0.  1.
        2   -1    0    0  501    0  0.00000000000E+00  0.00000000000E+00 -0.17969818616E+04  0.17969818616E+04  0.25500000920E-02 0. -1.
    10030    2    1    2    0    0  0.00000000000E+00  0.00000000000E+00 -0.96926198876E+01  0.35842711033E+04  0.35842579978E+04 0.  0.
        3    1    3    3  502    0 -0.16542197705E+04  0.59942007061E+03 -0.34540425863E+03  0.17930564917E+04  0.10100000352E+00 0. -1.
       -3    1    3    3    0  502  0.16542197705E+04 -0.59942007061E+03  0.33571163874E+03  0.17912146116E+04  0.10100000352E+00 0.  1.
</event>
<event>
 5   0  0.2342606E-07  0.3587079E+04  0.7818609E-02  0.8093458E-01
       -2   -1    0    0    0  501  0.00000000000E+00  0.00000000000E+00  0.22638509786E+04  0.22638509786E+04  0.25500000920E-02 0.  1.
        2   -1    0    0  501    0  0.00000000000E+00  0.00000000000E+00 -0.14209347416E+04  0.14209347416E+04  0.25500000920E-02 0. -1.
    10030    2    1    2    0    0  0.00000000000E+00  0.00000000000E+00  0.84291623704E+03  0.36847857202E+04  0.35870793163E+04 0.  0.
        5    1    3    3  502    0  0.55513774982E+03  0.14542990019E+04  0.13365649308E+04  0.20517288838E+04  0.46999998093E+01 0.  1.
       -5    1    3    3    0  502 -0.55513774982E+03 -0.14542990019E+04 -0.49364869379E+03  0.16330568365E+04  0.46999998093E+01 0. -1.
</event>
<event>
 5   0  0.7261233E-08  0.3601595E+04  0.7818609E-02  0.8090126E-01
       -1   -1    0    0    0  501  0.00000000000E+00  0.00000000000E+00  0.26823167484E+04  0.26823167484E+04  0.50400001928E-02 0.  1.
        1   -1    0    0  501    0  0.00000000000E+00  0.00000000000E+00 -0.12089819398E+04  0.12089819398E+04  0.50400001928E-02 0. -1.
    10030    2    1    2    0    0  0.00000000000E+00  0.00000000000E+00  0.14733348086E+04  0.38912986882E+04  0.36015954829E+04 0.  0.
        3    1    3    3  502    0  0.22656858594E+02  0.11303233244E+04  0.22511032829E+04  0.25190494540E+04  0.10100000352E+00 0.  1.
       -3    1    3    3    0  502 -0.22656858594E+02 -0.11303233244E+04 -0.77776847432E+03  0.13722492342E+04  0.10100000352E+00 0. -1.
</event>
<event>
 5   0  0.7347303E-08  0.3572660E+04  0.7818609E-02  0.8096783E-01
        1   -1    0    0  501    0  0.00000000000E+00  0.00000000000E+00  0.17860318794E+04  0.17860318794E+04  0.50400001928E-02 0. -1.
       -1   -1    0    0    0  501  0.00000000000E+00  0.00000000000E+00 -0.17866281311E+04  0.17866281311E+04  0.50400001928E-02 0.  1.
    10030    2    1    2    0    0  0.00000000000E+00  0.00000000000E+00 -0.59625161409E+00  0.35726600105E+04  0.35726599607E+04 0.  0.
        2    1    3    3  502    0  0.41028282880E+03 -0.10042697473E+04 -0.14194827967E+04  0.17865668571E+04  0.25500000920E-02 0.  1.
       -2    1    3    3    0  502 -0.41028282880E+03  0.10042697473E+04  0.14188865451E+04  0.17860931534E+04  0.25500000920E-02 0. -1.
</event>
<event>
 5   0  0.7514289E-08  0.3606447E+04  0.7818609E-02  0.8089016E-01
        1   -1    0    0  501    0  0.00000000000E+00  0.00000000000E+00  0.24862357893E+04  0.24862357893E+04  0.50400001928E-02 0. -1.
       -1   -1    0    0    0  501  0.00000000000E+00  0.00000000000E+00 -0.13078467596E+04  0.13078467596E+04  0.50400001928E-02 0.  1.
    10030    2    1    2    0    0  0.00000000000E+00  0.00000000000E+00  0.11783890297E+04  0.37940825489E+04  0.36064472383E+04 0.  0.
        4    1    3    3  502    0 -0.17034466524E+04 -0.25497061708E+03  0.11506987831E+04  0.20714366550E+04  0.12699999809E+01 0. -1.
       -4    1    3    3    0  502  0.17034466524E+04  0.25497061708E+03  0.27690246535E+02  0.17226458939E+04  0.12699999809E+01 0.  1.
</event>
<event>
 5   0  0.2238968E-07  0.3599817E+04  0.7818609E-02  0.8090534E-01
       -2   -1    0    0    0  501  0.00000000000E+00  0.00000000000E+00  0.14805963935E+04  0.14805963935E+04  0.25500000920E-02 0.  1.
        2   -1    0    0  501    0  0.00000000000E+00  0.00000000000E+00 -0.21880854038E+04  0.21880854038E+04  0.25500000920E-02 0. -1.
    10030    2    1    2    0    0  0.00000000000E+00  0.00000000000E+00 -0.70748901021E+03  0.36686817973E+04  0.35998174162E+04 0.  0.
        3    1    3    3  502    0 -0.76935351964E+02  0.17757677636E+04 -0.64271978806E+03  0.18900685001E+04  0.10100000352E+00 0.  1.
       -3    1    3    3    0  502  0.76935351964E+02 -0.17757677636E+04 -0.64769222144E+02  0.17786132972E+04  0.10100000352E+00 0. -1.
</event>
<event>
 5   0  0.2238968E-07  0.3652789E+04  0.7818609E-02  0.8078506E-01
        2   -1    0    0  501    0  0.00000000000E+00  0.00000000000E+00  0.12773232605E+04  0.12773232605E+04  0.25500000920E-02 0.  1.
       -2   -1    0    0    0  501  0.00000000000E+00  0.00000000000E+00 -0.26114896840E+04  0.26114896840E+04  0.25500000920E-02 0. -1.
    10030    2    1    2    0    0  0.00000000000E+00  0.00000000000E+00 -0.13341664235E+04  0.38888129446E+04  0.36527888075E+04 0.  0.
        3    1    3    3  502    0 -0.12180015776E+04 -0.91710517956E+03  0.40342744756E+03  0.15771377458E+04  0.10100000352E+00 0.  1.
       -3    1    3    3    0  502  0.12180015776E+04  0.91710517956E+03 -0.17375938711E+04  0.23116751988E+04  0.10100000352E+00 0. -1.
</event>
<event>
 5   0  0.2199902E-07  0.3604650E+04  0.7818609E-02  0.8089427E-01
        2   -1    0    0  501    0  0.00000000000E+00  0.00000000000E+00  0.23461624638E+04  0.23461624638E+04  0.25500000920E-02 0.  1.
       -2   -1    0    0    0  501  0.00000000000E+00  0.00000000000E+00 -0.13845483495E+04  0.13845483495E+04  0.25500000920E-02 0. -1.
    10030    2    1    2    0    0  0.00000000000E+00  0.00000000000E+00  0.96161411433E+03  0.37307108134E+04  0.36046499786E+04 0.  0.
        1    1    3    3  502    0  0.16980661788E+04 -0.60256225902E+03  0.52550709498E+03  0.18768771218E+04  0.50400001928E-02 0.  1.
       -1    1    3    3    0  502 -0.16980661788E+04  0.60256225902E+03  0.43610701935E+03  0.18538336915E+04  0.50400001928E-02 0. -1.
</event>
<event>
 5   0  0.7236375E-08  0.3579528E+04  0.7818609E-02  0.8095197E-01
       -1   -1    0    0    0  501  0.00000000000E+00  0.00000000000E+00  0.16764249303E+04  0.16764249303E+04  0.50400001928E-02 0.  1.
        1   -1    0    0  501    0  0.00000000000E+00  0.00000000000E+00 -0.19107654187E+04  0.19107654187E+04  0.50400001928E-02 0. -1.
    10030    2    1    2    0    0  0.00000000000E+00  0.00000000000E+00 -0.23434048842E+03  0.35871903489E+04  0.35795277810E+04 0.  0.
        1    1    3    3  502    0 -0.90589091996E+03  0.27699579295E+03 -0.16389365189E+04  0.18930076442E+04  0.50400001928E-02 0. -1.
       -1    1    3    3    0  502  0.90589091996E+03 -0.27699579295E+03  0.14045960304E+04  0.16941827047E+04  0.50400001928E-02 0.  1.
</event>
<event>
 5   0  0.2198900E-07  0.3605811E+04  0.7818609E-02  0.8089162E-01
        2   -1    0    0  501    0  0.00000000000E+00  0.00000000000E+00  0.17983413036E+04  0.17983413036E+04  0.25500000920E-02 0.  1.
       -2   -1    0    0    0  501  0.00000000000E+00  0.00000000000E+00 -0.18074815769E+04  0.18074815769E+04  0.25500000920E-02 0. -1.
    10030    2    1    2    0    0  0.00000000000E+00  0.00000000000E+00 -0.91402732516E+01  0.36058228805E+04  0.36058112958E+04 0.  0.
        2    1    3    3  502    0 -0.30566076200E+03 -0.13362032721E+04 -0.11757276422E+04  0.18058801661E+04  0.25500000920E-02 0.  1.
       -2    1    3    3    0  502  0.30566076200E+03  0.13362032721E+04  0.11665873689E+04  0.17999427144E+04  0.25500000920E-02 0. -1.
</event>
<event>
 5   0  0.2238968E-07  0.3586440E+04  0.7818609E-02  0.8093605E-01
       -2   -1    0    0    0  501  0.00000000000E+00  0.00000000000E+00  0.15485672631E+04  0.15485672631E+04  0.25500000920E-02 0. -1.
        2   -1    0    0  501    0  0.00000000000E+00  0.00000000000E+00 -0.20765248134E+04  0.20765248134E+04  0.25500000920E-02 0.  1.
    10030    2    1    2    0    0  0.00000000000E+00  0.00000000000E+00 -0.52795755024E+03  0.36250920765E+04  0.35864402112E+04 0.  0.
        3    1    3    3  502    0  0.51301629265E+02  0.85997385254E+03 -0.18536493748E+04  0.20440652874E+04  0.10100000352E+00 0.  1.
       -3    1    3    3    0  502 -0.51301629265E+02 -0.85997385254E+03  0.13256918245E+04  0.15810267892E+04  0.10100000352E+00 0. -1.
</event>
<event>
 5   0  0.7236375E-08  0.3596913E+04  0.7818609E-02  0.8091199E-01
       -1   -1    0    0    0  501  0.00000000000E+00  0.00000000000E+00  0.11439453310E+04  0.11439453310E+04  0.50400001928E-02 0. -1.
        1   -1    0    0  501    0  0.00000000000E+00  0.00000000000E+00 -0.28274484819E+04  0.28274484819E+04  0.50400001928E-02 0.  1.
    10030    2    1    2    0    0  0.00000000000E+00  0.00000000000E+00 -0.16835031509E+04  0.39713938128E+04  0.35969133931E+04 0.  0.
        1    1    3    3  502    0  0.57697681888E+03  0.11919832210E+04  0.50178495843E+03  0.14161618528E+04  0.50400001928E-02 0. -1.
       -1    1    3    3    0  502 -0.57697681888E+03 -0.11919832210E+04 -0.21852881094E+04  0.25552319601E+04  0.50400001928E-02 0.  1.
</event>
<event>
 5   0  0.2309391E-07  0.3583556E+04  0.7818609E-02  0.8094269E-01
        2   -1    0    0  501    0  0.00000000000E+00  0.00000000000E+00  0.17609494768E+04  0.17609494768E+04  0.25500000920E-02 0. -1.
       -2   -1    0    0    0  501  0.00000000000E+00  0.00000000000E+00 -0.18231457497E+04  0.18231457497E+04  0.25500000920E-02 0.  1.
    10030    2    1    2    0    0  0.00000000000E+00  0.00000000000E+00 -0.62196272833E+02  0.35840952265E+04  0.35835555272E+04 0.  0.
        4    1    3    3  502    0  0.75813704411E+03 -0.66546131935E+02 -0.16534601170E+04  0.18202011254E+04  0.12699999809E+01 0.  1.
       -4    1    3    3    0  502 -0.75813704411E+03  0.66546131935E+02  0.15912638442E+04  0.17638941011E+04  0.12699999809E+01 0. -1.
</event>
<event>
 5   0  0.7236375E-08  0.3589838E+04  0.7818609E-02  0.8092823E-01
       -3   -1    0    0    0  501  0.00000000000E+00  0.00000000000E+00  0.19461259364E+04  0.19461259390E+04  0.10100000352E+00 0.  1.
        3   -1    0    0  501    0  0.00000000000E+00  0.00000000000E+00 -0.16554604975E+04  0.16554605005E+04  0.10100000352E+00 0. -1.
    10030    2    1    2    0    0  0.00000000000E+00  0.00000000000E+00  0.29066543897E+03  0.36015864396E+04  0.35898382254E+04 0.  0.
        4    1    3    3  502    0  0.53055465107E+02 -0.28140041095E+03 -0.16323950231E+04  0.16573219958E+04  0.12699999809E+01 0. -1.
       -4    1    3    3    0  502 -0.53055465107E+02  0.28140041095E+03  0.19230604620E+04  0.19442644437E+04  0.12699999809E+01 0.  1.
</event>
<event>
 5   0  0.2342606E-07  0.3591456E+04  0.7818609E-02  0.8092452E-01
       -2   -1    0    0    0  501  0.00000000000E+00  0.00000000000E+00  0.12917889399E+04  0.12917889399E+04  0.25500000920E-02 0.  1.
        2   -1    0    0  501    0  0.00000000000E+00  0.00000000000E+00 -0.24962586079E+04  0.24962586080E+04  0.25500000920E-02 0. -1.
    10030    2    1    2    0    0  0.00000000000E+00  0.00000000000E+00 -0.12044696680E+04  0.37880475479E+04  0.35914561175E+04 0.  0.
        5    1    3    3  502    0  0.11954580184E+04  0.54175580992E+03  0.69041092539E+03  0.14830065972E+04  0.46999998093E+01 0.  1.
       -5    1    3    3    0  502 -0.11954580184E+04 -0.54175580992E+03 -0.18948805934E+04  0.23050409507E+04  0.46999998093E+01 0. -1.
</event>
<event>
 5   0  0.2309391E-07  0.3602503E+04  0.7818609E-02  0.8089919E-01
       -2   -1    0    0    0  501  0.00000000000E+00  0.00000000000E+00  0.12575554075E+04  0.12575554075E+04  0.25500000920E-02 0.  1.
        2   -1    0    0  501    0  0.00000000000E+00  0.00000000000E+00 -0.25800105518E+04  0.25800105518E+04  0.25500000920E-02 0. -1.
    10030    2    1    2    0    0  0.00000000000E+00  0.00000000000E+00 -0.13224551443E+04  0.38375659593E+04  0.36025025862E+04 0.  0.
        4    1    3    3  502    0 -0.15989416454E+04  0.66826643033E+03 -0.11845139052E+04  0.20991115292E+04  0.12699999809E+01 0. -1.
       -4    1    3    3    0  502  0.15989416454E+04 -0.66826643033E+03 -0.13794123905E+03  0.17384544301E+04  0.12699999809E+01 0.  1.
</event>
<event>
 5   0  0.2238968E-07  0.3601011E+04  0.7818609E-02  0.8090260E-01
       -2   -1    0    0    0  501  0.00000000000E+00  0.00000000000E+00  0.15401641774E+04  0.15401641774E+04  0.25500000920E-02 0. -1.
        2   -1    0    0  501    0  0.00000000000E+00  0.00000000000E+00 -0.21048539300E+04  0.21048539300E+04  0.25500000920E-02 0.  1.
    10030    2    1    2    0    0  0.00000000000E+00  0.00000000000E+00 -0.56468975262E+03  0.36450181074E+04  0.36010113144E+04 0.  0.
        3    1    3    3  502    0 -0.91545219204E+03  0.15225426267E+04 -0.57855019727E+03  0.18683974703E+04  0.10100000352E+00 0.  1.
       -3    1    3    3    0  502  0.91545219204E+03 -0.15225426267E+04  0.13860444650E+02  0.17766206371E+04  0.10100000352E+00 0. -1.
</event>
<event>
 5   0  0.2238968E-07  0.3591393E+04  0.7818609E-02  0.8092466E-01
       -2   -1    0    0    0  501  0.00000000000E+00  0.00000000000E+00  0.13540929837E+04  0.13540929837E+04  0.25500000920E-02 0.  1.
        2   -1    0    0  501    0  0.00000000000E+00  0.00000000000E+00 -0.23813180329E+04  0.23813180329E+04  0.25500000920E-02 0. -1.
    10030    2    1    2    0    0  0.00000000000E+00  0.00000000000E+00 -0.10272250492E+04  0.37354110166E+04  0.35913930669E+04 0.  0.
        3    1    3    3  502    0  0.87956392777E+03  0.29737356349E+03 -0.21122791110E+04  0.23073332643E+04  0.10100000352E+00 0. -1.
       -3    1    3    3    0  502 -0.87956392777E+03 -0.29737356349E+03  0.10850540618E+04  0.14280777523E+04  0.10100000352E+00 0.  1.
</event>
<event>
 5   0  0.2198900E-07  0.3390288E+04  0.7818609E-02  0.8140294E-01
       -2   -1    0    0    0  501  0.00000000000E+00  0.00000000000E+00  0.20424167657E+04  0.20424167657E+04  0.25500000920E-02 0. -1.
        2   -1    0    0  501    0  0.00000000000E+00  0.00000000000E+00 -0.14069182979E+04  0.14069182979E+04  0.25500000920E-02 0.  1.
    10030    2    1    2    0    0  0.00000000000E+00  0.00000000000E+00  0.63549846777E+03  0.34493350636E+04  0.33902882000E+04 0.  0.
        2    1    3    3  502    0  0.15937343201E+04  0.55729526386E+03  0.16363019705E+03  0.16962729543E+04  0.25500000920E-02 0.  1.
       -2    1    3    3    0  502 -0.15937343201E+04 -0.55729526386E+03  0.47186827072E+03  0.17530621093E+04  0.25500000920E-02 0. -1.
</event>
<event>
 5   0  0.2238968E-07  0.3585842E+04  0.7818609E-02  0.8093742E-01
       -2   -1    0    0    0  501  0.00000000000E+00  0.00000000000E+00  0.16495491412E+04  0.16495491412E+04  0.25500000920E-02 0.  1.
        2   -1    0    0  501    0  0.00000000000E+00  0.00000000000E+00 -0.19487542569E+04  0.19487542569E+04  0.25500000920E-02 0. -1.
    10030    2    1    2    0    0  0.00000000000E+00  0.00000000000E+00 -0.29920511573E+03  0.35983033982E+04  0.35858421109E+04 0.  0.
        3    1    3    3  502    0 -0.81124515153E+03 -0.85413617807E+03  0.12067226602E+04  0.16863709247E+04  0.10100000352E+00 0.  1.
       -3    1    3    3    0  502  0.81124515153E+03  0.85413617807E+03 -0.15059277760E+04  0.19119324735E+04  0.10100000352E+00 0. -1.
</event>
<event>
 5   0  0.7236375E-08  0.3605664E+04  0.7818609E-02  0.8089196E-01
       -1   -1    0    0    0  501  0.00000000000E+00  0.00000000000E+00  0.12452974346E+04  0.12452974347E+04  0.50400001928E-02 0.  1.
        1   -1    0    0  501    0  0.00000000000E+00  0.00000000000E+00 -0.26099808737E+04  0.26099808737E+04  0.50400001928E-02 0. -1.
    10030    2    1    2    0    0  0.00000000000E+00  0.00000000000E+00 -0.13646834390E+04  0.38552783083E+04  0.36056635930E+04 0.  0.
        5    1    3    3  502    0  0.40228811166E+03  0.14833423895E+04 -0.16899385686E+04  0.22843062021E+04  0.46999998093E+01 0. -1.
       -5    1    3    3    0  502 -0.40228811166E+03 -0.14833423895E+04  0.32525512957E+03  0.15709721062E+04  0.46999998093E+01 0.  1.
</event>
<event>
 5   0  0.2199902E-07  0.3589535E+04  0.7818609E-02  0.8092893E-01
       -2   -1    0    0    0  501  0.00000000000E+00  0.00000000000E+00  0.13531552216E+04  0.13531552216E+04  0.25500000920E-02 0.  1.
        2   -1    0    0  501    0  0.00000000000E+00  0.00000000000E+00 -0.23805027105E+04  0.23805027105E+04  0.25500000920E-02 0. -1.
    10030    2    1    2    0    0  0.00000000000E+00  0.00000000000E+00 -0.10273474888E+04  0.37336579321E+04  0.35895346064E+04 0.  0.
        1    1    3    3  502    0 -0.62844889343E+03  0.11086283983E+04 -0.18282142031E+04  0.22285358668E+04  0.50400001928E-02 0. -1.
       -1    1    3    3    0  502  0.62844889343E+03 -0.11086283983E+04  0.80086671430E+03  0.15051220652E+04  0.50400001928E-02 0.  1.
</event>
<event>
 5   0  0.7261233E-08  0.3612696E+04  0.7818609E-02  0.8087590E-01
       -1   -1    0    0    0  501  0.00000000000E+00  0.00000000000E+00  0.25221419704E+04  0.25221419704E+04  0.50400001928E-02 0.  1.
        1   -1    0    0  501    0  0.00000000000E+00  0.00000000000E+00 -0.12936992002E+04  0.12936992003E+04  0.50400001928E-02 0. -1.
    10030    2    1    2    0    0  0.00000000000E+00  0.00000000000E+00  0.12284427702E+04  0.38158411707E+04  0.36126959740E+04 0.  0.
        3    1    3    3  502    0 -0.54661671031E+03 -0.15260776821E+04 -0.22758214296E+03  0.16369167852E+04  0.10100000352E+00 0. -1.
       -3    1    3    3    0  502  0.54661671031E+03  0.15260776821E+04  0.14560249132E+04  0.21789243855E+04  0.10100000352E+00 0.  1.
</event>
<event>
 5   0  0.2309391E-07  0.3603967E+04  0.7818609E-02  0.8089584E-01
       -2   -1    0    0    0  501  0.00000000000E+00  0.00000000000E+00  0.15310328030E+04  0.15310328030E+04  0.25500000920E-02 0. -1.
        2   -1    0    0  501    0  0.00000000000E+00  0.00000000000E+00 -0.21208849094E+04  0.21208849094E+04  0.25500000920E-02 0.  1.
    10030    2    1    2    0    0  0.00000000000E+00  0.00000000000E+00 -0.58985210643E+03  0.36519177123E+04  0.36039669075E+04 0.  0.
        4    1    3    3  502    0 -0.56981136467E+03  0.68093000607E+03 -0.18838426166E+04  0.20825982045E+04  0.12699999809E+01 0.  1.
       -4    1    3    3    0  502  0.56981136467E+03 -0.68093000607E+03  0.12939905101E+04  0.15693195078E+04  0.12699999809E+01 0. -1.
</event>
<event>
 5   0  0.2309391E-07  0.3562074E+04  0.7818609E-02  0.8099235E-01
       -2   -1    0    0    0  501  0.00000000000E+00  0.00000000000E+00  0.16868451162E+04  0.16868451162E+04  0.25500000920E-02 0. -1.
        2   -1    0    0  501    0  0.00000000000E+00  0.00000000000E+00 -0.18804885682E+04  0.18804885682E+04  0.25500000920E-02 0.  1.
    10030    2    1    2    0    0  0.00000000000E+00  0.00000000000E+00 -0.19364345199E+03  0.35673336844E+04  0.35620740910E+04 0.  0.
        4    1    3    3  502    0 -0.18138741088E+03  0.17380982194E+02  0.16774849468E+04  0.16873532087E+04  0.12699999809E+01 0. -1.
       -4    1    3    3    0  502  0.18138741088E+03 -0.17380982194E+02 -0.18711283988E+04  0.18799804757E+04  0.12699999809E+01 0.  1.
</event>
<event>
 5   0  0.2309391E-07  0.3607813E+04  0.7818609E-02  0.8088704E-01
        2   -1    0    0  501    0  0.00000000000E+00  0.00000000000E+00  0.27548715494E+04  0.27548715494E+04  0.25500000920E-02 0. -1.
       -2   -1    0    0    0  501  0.00000000000E+00  0.00000000000E+00 -0.11812089421E+04  0.11812089421E+04  0.25500000920E-02 0.  1.
    10030    2    1    2    0    0  0.00000000000E+00  0.00000000000E+00  0.15736626074E+04  0.39360804915E+04  0.36078131373E+04 0.  0.
        4    1    3    3  502    0  0.57838093477E+03  0.98634546067E+03  0.23090137459E+04  0.25766156029E+04  0.12699999809E+01 0. -1.
       -4    1    3    3    0  502 -0.57838093477E+03 -0.98634546067E+03 -0.73535113851E+03  0.13594648886E+04  0.12699999809E+01 0.  1.
</event>
<event>
 5   0  0.2199902E-07  0.3620533E+04  0.7818609E-02  0.8085804E-01
       -2   -1    0    0    0  501  0.00000000000E+00  0.00000000000E+00  0.13499457481E+04  0.13499457481E+04  0.25500000920E-02 0. -1.
        2   -1    0    0  501    0  0.00000000000E+00  0.00000000000E+00 -0.24275533508E+04  0.24275533508E+04  0.25500000920E-02 0.  1.
    10030    2    1    2    0    0  0.00000000000E+00  0.00000000000E+00 -0.10776076027E+04  0.37774990989E+04  0.36205332890E+04 0.  0.
        1    1    3    3  502    0 -0.68871913153E+03 -0.84606938039E+03 -0.20460438458E+04  0.23187200904E+04  0.50400001928E-02 0.  1.
       -1    1    3    3    0  502  0.68871913153E+03  0.84606938039E+03  0.96843624314E+03  0.14587790085E+04  0.50400001928E-02 0. -1.
</event>
<event>
 5   0  0.7514289E-08  0.3615839E+04  0.7818609E-02  0.8086873E-01
       -1   -1    0    0    0  501  0.00000000000E+00  0.00000000000E+00  0.10051506673E+04  0.10051506673E+04  0.50400001928E-02 0.  1.
        1   -1    0    0  501    0  0.00000000000E+00  0.00000000000E+00 -0.32518239646E+04  0.32518239647E+04  0.50400001928E-02 0. -1.
    10030    2    1    2    0    0  0.00000000000E+00  0.00000000000E+00 -0.22466732974E+04  0.42569746320E+04  0.36158390606E+04 0.  0.
        4    1    3    3  502    0 -0.59694849443E+03 -0.82005980958E+03  0.63859638647E+03  0.11986044193E+04  0.12699999809E+01 0.  1.
       -4    1    3    3    0  502  0.59694849443E+03  0.82005980958E+03 -0.28852696838E+04  0.30583702126E+04  0.12699999809E+01 0. -1.
</event>
<event>
 5   0  0.7236375E-08  0.3654965E+04  0.7818609E-02  0.8078016E-01
        1   -1    0    0  501    0  0.00000000000E+00  0.00000000000E+00  0.10953216881E+04  0.10953216882E+04  0.50400001928E-02 0.  1.
       -1   -1    0    0    0  501  0.00000000000E+00  0.00000000000E+00 -0.30490509187E+04  0.30490509187E+04  0.50400001928E-02 0. -1.
    10030    2    1    2    0    0  0.00000000000E+00  0.00000000000E+00 -0.19537292306E+04  0.41443726069E+04  0.36549646234E+04 0.  0.
        5    1    3    3  502    0  0.93269001248E+03  0.10257624041E+03  0.80131573095E+03  0.12339212030E+04  0.46999998093E+01 0.  1.
       -5    1    3    3    0  502 -0.93269001248E+03 -0.10257624041E+03 -0.27550449615E+04  0.29104514039E+04  0.46999998093E+01 0. -1.
</event>
<event>
 5   0  0.2309391E-07  0.3597364E+04  0.7818609E-02  0.8091096E-01
        2   -1    0    0  501    0  0.00000000000E+00  0.00000000000E+00  0.34000103982E+04  0.34000103982E+04  0.25500000920E-02 0.  1.
       -2   -1    0    0    0  501  0.00000000000E+00  0.00000000000E+00 -0.95154306919E+03  0.95154306919E+03  0.25500000920E-02 0. -1.
    10030    2    1    2    0    0  0.00000000000E+00  0.00000000000E+00  0.24484673290E+04  0.43515534673E+04  0.35973636622E+04 0.  0.
        4    1    3    3  502    0 -0.10740510823E+04  0.99330886161E+03  0.24900430985E+04  0.28880035435E+04  0.12699999809E+01 0.  1.
       -4    1    3    3    0  502  0.10740510823E+04 -0.99330886161E+03 -0.41575769572E+02  0.14635499238E+04  0.12699999809E+01 0. -1.
</event>
<event>
 5   0  0.2199902E-07  0.3599773E+04  0.7818609E-02  0.8090544E-01
        2   -1    0    0  501    0  0.00000000000E+00  0.00000000000E+00  0.20450493203E+04  0.20450493203E+04  0.25500000920E-02 0.  1.
       -2   -1    0    0    0  501  0.00000000000E+00  0.00000000000E+00 -0.15841142824E+04  0.15841142824E+04  0.25500000920E-02 0. -1.
    10030    2    1    2    0    0  0.00000000000E+00  0.00000000000E+00  0.46093503792E+03  0.36291636027E+04  0.35997732354E+04 0.  0.
        1    1    3    3  502    0 -0.58740712749E+03 -0.96752723697E+03 -0.11803994536E+04  0.16353895431E+04  0.50400001928E-02 0. -1.
       -1    1    3    3    0  502  0.58740712749E+03  0.96752723697E+03  0.16413344915E+04  0.19937740596E+04  0.50400001928E-02 0.  1.
</event>
<event>
 5   0  0.2198900E-07  0.3584196E+04  0.7818609E-02  0.8094121E-01
       -2   -1    0    0    0  501  0.00000000000E+00  0.00000000000E+00  0.12597699245E+04  0.12597699245E+04  0.25500000920E-02 0. -1.
        2   -1    0    0  501    0  0.00000000000E+00  0.00000000000E+00 -0.25493668089E+04  0.25493668089E+04  0.25500000920E-02 0.  1.
    10030    2    1    2    0    0  0.00000000000E+00  0.00000000000E+00 -0.12895968845E+04  0.38091367334E+04  0.35841962180E+04 0.  0.
        2    1    3    3  502    0 -0.13330478193E+04 -0.22446614786E+03 -0.18951623190E+04  0.23278835357E+04  0.25500000920E-02 0.  1.
       -2    1    3    3    0  502  0.13330478193E+04  0.22446614786E+03  0.60556543455E+03  0.14812531977E+04  0.25500000920E-02 0. -1.
</event>
<event>
 5   0  0.2342606E-07  0.3617186E+04  0.7818609E-02  0.8086566E-01
       -2   -1    0    0    0  501  0.00000000000E+00  0.00000000000E+00  0.12965569464E+04  0.12965569464E+04  0.25500000920E-02 0. -1.
        2   -1    0    0  501    0  0.00000000000E+00  0.00000000000E+00 -0.25228428072E+04  0.25228428072E+04  0.25500000920E-02 0.  1.
    10030    2    1    2    0    0  0.00000000000E+00  0.00000000000E+00 -0.12262858608E+04  0.38193997537E+04  0.36171864019E+04 0.  0.
        5    1    3    3  502    0  0.14317189188E+04 -0.51960911958E+03 -0.16429463821E+04  0.22403364935E+04  0.46999998093E+01 0.  1.
       -5    1    3    3    0  502 -0.14317189188E+04  0.51960911958E+03  0.41666052136E+03  0.15790632602E+04  0.46999998093E+01 0. -1.
</event>
<event>
 5   0  0.2198900E-07  0.3593357E+04  0.7818609E-02  0.8092015E-01
        2   -1    0    0  501    0  0.00000000000E+00  0.00000000000E+00  0.19321621674E+04  0.19321621674E+04  0.25500000920E-02 0. -1.
       -2   -1    0    0    0  501  0.00000000000E+00  0.00000000000E+00 -0.16706954013E+04  0.16706954013E+04  0.25500000920E-02 0.  1.
    10030    2    1    2    0    0  0.00000000000E+00  0.00000000000E+00  0.26146676616E+03  0.36028575687E+04  0.35933574537E+04 0.  0.
        2    1    3    3  502    0 -0.14322079902E+04  0.10327140924E+04 -0.20231392462E+03  0.17772588579E+04  0.25500000920E-02 0.  1.
       -2    1    3    3    0  502  0.14322079902E+04 -0.10327140924E+04  0.46378069079E+03  0.18255987108E+04  0.25500000920E-02 0. -1.
</event>
<event>
 5   0  0.7261233E-08  0.3514839E+04  0.7818609E-02  0.8110282E-01
        1   -1    0    0  501    0  0.00000000000E+00  0.00000000000E+00  0.27811331046E+04  0.27811331046E+04  0.50400001928E-02 0. -1.
       -1   -1    0    0    0  501  0.00000000000E+00  0.00000000000E+00 -0.11105268206E+04  0.11105268206E+04  0.50400001928E-02 0.  1.
    10030    2    1    2    0    0  0.00000000000E+00  0.00000000000E+00  0.16706062841E+04  0.38916599252E+04  0.35148387754E+04 0.  0.
        3    1    3    3  502    0  0.13352323944E+04 -0.22080133693E+03 -0.40601757302E+03  0.14129575567E+04  0.10100000352E+00 0.  1.
       -3    1    3    3    0  502 -0.13352323944E+04  0.22080133693E+03  0.20766238571E+04  0.24787023685E+04  0.10100000352E+00 0. -1.
</event>
<event>
 5   0  0.2199902E-07  0.3602197E+04  0.7818609E-02  0.8089989E-01
        2   -1    0    0  501    0  0.00000000000E+00  0.00000000000E+00  0.31692815962E+04  0.31692815962E+04  0.25500000920E-02 0. -1.
       -2   -1    0    0    0  501  0.00000000000E+00  0.00000000000E+00 -0.10235621476E+04  0.10235621476E+04  0.25500000920E-02 0.  1.
    10030    2    1    2    0    0  0.00000000000E+00  0.00000000000E+00  0.21457194486E+04  0.41928437437E+04  0.36021974831E+04 0.  0.
        1    1    3    3  502    0  0.55547820912E+03 -0.21823601555E+03 -0.90512410133E+03  0.10841737122E+04  0.50400001928E-02 0.  1.
       -1    1    3    3    0  502 -0.55547820912E+03  0.21823601555E+03  0.30508435499E+04  0.31086700316E+04  0.50400001928E-02 0. -1.
</event>
<event>
 5   0  0.7347303E-08  0.3603063E+04  0.7818609E-02  0.8089791E-01
       -1   -1    0    0    0  501  0.00000000000E+00  0.00000000000E+00  0.11798344785E+04  0.11798344785E+04  0.50400001928E-02 0. -1.
        1   -1    0    0  501    0  0.00000000000E+00  0.00000000000E+00 -0.27508224643E+04  0.27508224643E+04  0.50400001928E-02 0.  1.
    10030    2    1    2    0    0  0.00000000000E+00  0.00000000000E+00 -0.15709879858E+04  0.39306569428E+04  0.36030626903E+04 0.  0.
        2    1    3    3  502    0  0.80770285034E+03  0.13176798991E+04  0.22433066447E+03  0.15617261149E+04  0.25500000920E-02 0. -1.
       -2    1    3    3    0  502 -0.80770285034E+03 -0.13176798991E+04 -0.17953186503E+04  0.23689308279E+04  0.25500000920E-02 0.  1.
</event>
<event>
 5   0  0.7514289E-08  0.3590364E+04  0.7818609E-02  0.8092702E-01
        1   -1    0    0  501    0  0.00000000000E+00  0.00000000000E+00  0.14428416477E+04  0.14428416478E+04  0.50400001928E-02 0. -1.
       -1   -1    0    0    0  501  0.00000000000E+00  0.00000000000E+00 -0.22335637185E+04  0.22335637185E+04  0.50400001928E-02 0.  1.
    10030    2    1    2    0    0  0.00000000000E+00  0.00000000000E+00 -0.79072207073E+03  0.36764053662E+04  0.35903641910E+04 0.  0.
        4    1    3    3  502    0 -0.10001363265E+04  0.64977215714E+03  0.97850801610E+03  0.15427106269E+04  0.12699999809E+01 0. -1.
       -4    1    3    3    0  502  0.10001363265E+04 -0.64977215714E+03 -0.17692300868E+04  0.21336947394E+04  0.12699999809E+01 0.  1.
</event>
<event>
 5   0  0.2238968E-07  0.3598982E+04  0.7818609E-02  0.8090725E-01
        2   -1    0    0  501    0  0.00000000000E+00  0.00000000000E+00  0.31159258320E+04  0.31159258320E+04  0.25500000920E-02 0.  1.
       -2   -1    0    0    0  501  0.00000000000E+00  0.00000000000E+00 -0.10392310905E+04  0.10392310905E+04  0.25500000920E-02 0. -1.
    10030    2    1    2    0    0  0.00000000000E+00  0.00000000000E+00  0.20766947415E+04  0.41551569225E+04  0.35989815228E+04 0.  0.
        3    1    3    3  502    0  0.84759770800E+03  0.11729732483E+04  0.22731508161E+04  0.26947175656E+04  0.10100000352E+00 0.  1.
       -3    1    3    3    0  502 -0.84759770800E+03 -0.11729732483E+04 -0.19645607456E+03  0.14604393569E+04  0.10100000352E+00 0. -1.
</event>
<event>
 5   0  0.2342606E-07  0.3566141E+04  0.7818609E-02  0.8098292E-01
        2   -1    0    0  501    0  0.00000000000E+00  0.00000000000E+00  0.27933207980E+04  0.27933207980E+04  0.25500000920E-02 0.  1.
       -2   -1    0    0    0  501  0.00000000000E+00  0.00000000000E+00 -0.11381936214E+04  0.11381936214E+04  0.25500000920E-02 0. -1.
    10030    2    1    2    0    0  0.00000000000E+00  0.00000000000E+00  0.16551271766E+04  0.39315144194E+04  0.35661407235E+04 0.  0.
        5    1    3    3  502    0  0.47937429508E+03  0.14521745872E+04 -0.18327950487E+03  0.15402026533E+04  0.46999998093E+01 0. -1.
       -5    1    3    3    0  502 -0.47937429508E+03 -0.14521745872E+04  0.18384066814E+04  0.23913117661E+04  0.46999998093E+01 0.  1.
</event>
<event>
 5   0  0.2342606E-07  0.3611309E+04  0.7818609E-02  0.8087906E-01
        2   -1    0    0  501    0  0.00000000000E+00  0.00000000000E+00  0.14366547140E+04  0.14366547140E+04  0.25500000920E-02 0.  1.
       -2   -1    0    0    0  501  0.00000000000E+00  0.00000000000E+00 -0.22694304670E+04  0.22694304670E+04  0.25500000920E-02 0. -1.
    10030    2    1    2    0    0  0.00000000000E+00  0.00000000000E+00 -0.83277575299E+03  0.37060851810E+04  0.36113088921E+04 0.  0.
        5    1    3    3  502    0 -0.66045081576E+03 -0.82155492530E+03 -0.19208837668E+04  0.21911102918E+04  0.46999998093E+01 0. -1.
       -5    1    3    3    0  502  0.66045081576E+03  0.82155492530E+03  0.10881080138E+04  0.15149748892E+04  0.46999998093E+01 0.  1.
</event>
<event>
 5   0  0.2199902E-07  0.3595611E+04  0.7818609E-02  0.8091498E-01
       -2   -1    0    0    0  501  0.00000000000E+00  0.00000000000E+00  0.19250723700E+04  0.19250723700E+04  0.25500000920E-02 0. -1.
        2   -1    0    0  501    0  0.00000000000E+00  0.00000000000E+00 -0.16789526235E+04  0.16789526235E+04  0.25500000920E-02 0.  1.
    10030    2    1    2    0    0  0.00000000000E+00  0.00000000000E+00  0.24611974646E+03  0.36040249935E+04  0.35956113839E+04 0.  0.
        1    1    3    3  502    0  0.14592831839E+03 -0.67961917791E+03  0.17849286570E+04  0.19155019216E+04  0.50400001928E-02 0. -1.
       -1    1    3    3    0  502 -0.14592831839E+03  0.67961917791E+03 -0.15388089106E+04  0.16885230719E+04  0.50400001928E-02 0.  1.
</event>
<event>
 5   0  0.7514289E-08  0.3618413E+04  0.7818609E-02  0.8086287E-01
        1   -1    0    0  501    0  0.00000000000E+00  0.00000000000E+00  0.18109007086E+04  0.18109007087E+04  0.50400001928E-02 0.  1.
       -1   -1    0    0    0  501  0.00000000000E+00  0.00000000000E+00 -0.18075135202E+04  0.18075135203E+04  0.50400001928E-02 0. -1.
    10030    2    1    2    0    0  0.00000000000E+00  0.00000000000E+00  0.33871883998E+01  0.36184142289E+04  0.36184126435E+04 0.  0.
        4    1    3    3  502    0  0.14455622948E+04  0.10713161853E+04  0.19105361220E+03  0.18093843739E+04  0.12699999809E+01 0. -1.
       -4    1    3    3    0  502 -0.14455622948E+04 -0.10713161853E+04 -0.18766642380E+03  0.18090298550E+04  0.12699999809E+01 0.  1.
</event>
<event>
 5   0  0.7236375E-08  0.3581279E+04  0.7818609E-02  0.8094793E-01
       -3   -1    0    0    0  501  0.00000000000E+00  0.00000000000E+00  0.18056160700E+04  0.18056160729E+04  0.10100000352E+00 0. -1.
        3   -1    0    0  501    0  0.00000000000E+00  0.00000000000E+00 -0.17757870185E+04  0.17757870214E+04  0.10100000352E+00 0.  1.
    10030    2    1    2    0    0  0.00000000000E+00  0.00000000000E+00  0.29829051548E+02  0.35814030942E+04  0.35812788709E+04 0.  0.
        4    1    3    3  502    0 -0.79372017116E+03 -0.14658371239E+04 -0.63910952875E+03  0.17852542638E+04  0.12699999809E+01 0.  1.
       -4    1    3    3    0  502  0.79372017116E+03  0.14658371239E+04  0.66893858030E+03  0.17961488304E+04  0.12699999809E+01 0. -1.
</event>
<event>
 5   0  0.2342606E-07  0.3604904E+04  0.7818609E-02  0.8089369E-01
        2   -1    0    0  501    0  0.00000000000E+00  0.00000000000E+00  0.27436796132E+04  0.27436796132E+04  0.25500000920E-02 0. -1.
       -2   -1    0    0    0  501  0.00000000000E+00  0.00000000000E+00 -0.11841152074E+04  0.11841152074E+04  0.25500000920E-02 0.  1.
    10030    2    1    2    0    0  0.00000000000E+00  0.00000000000E+00  0.15595644058E+04  0.39277948206E+04  0.36049037459E+04 0.  0.
        5    1    3    3  502    0 -0.17473570907E+04 -0.43578029853E+03  0.69788745934E+03  0.19313804045E+04  0.46999998093E+01 0. -1.
       -5    1    3    3    0  502  0.17473570907E+04  0.43578029853E+03  0.86167694646E+03  0.19964144161E+04  0.46999998093E+01 0.  1.
</event>
<event>
 5   0  0.2198900E-07  0.3546158E+04  0.7818609E-02  0.8102937E-01
        2   -1    0    0  501    0  0.00000000000E+00  0.00000000000E+00  0.17536991264E+04  0.17536991264E+04  0.25500000920E-02 0.  1.
       -2   -1    0    0    0  501  0.00000000000E+00  0.00000000000E+00 -0.17926729919E+04  0.17926729919E+04  0.25500000920E-02 0. -1.
    10030    2    1    2    0    0  0.00000000000E+00  0.00000000000E+00 -0.38973865543E+02  0.35463721183E+04  0.35461579547E+04 0.  0.
        2    1    3    3  502    0 -0.36081660504E+03 -0.47779137037E+03 -0.16885202711E+04  0.17915283760E+04  0.25500000920E-02 0. -1.
       -2    1    3    3    0  502  0.36081660504E+03  0.47779137037E+03  0.16495464055E+04  0.17548437424E+04  0.25500000920E-02 0.  1.
</event>
<event>
 5   0  0.2238968E-07  0.3591078E+04  0.7818609E-02  0.8092538E-01
       -2   -1    0    0    0  501  0.00000000000E+00  0.00000000000E+00  0.20581503929E+04  0.20581503929E+04  0.25500000920E-02 0.  1.
        2   -1    0    0  501    0  0.00000000000E+00  0.00000000000E+00 -0.15664356575E+04  0.15664356575E+04  0.25500000920E-02 0. -1.
    10030    2    1    2    0    0  0.00000000000E+00  0.00000000000E+00  0.49171473544E+03  0.36245860504E+04  0.35910779239E+04 0.  0.
        3    1    3    3  502    0  0.70466086499E+03 -0.12933935742E+04 -0.79063571435E+03  0.16716814037E+04  0.10100000352E+00 0. -1.
       -3    1    3    3    0  502 -0.70466086499E+03  0.12933935742E+04  0.12823504498E+04  0.19529046466E+04  0.10100000352E+00 0.  1.
</event>
<event>
 5   0  0.7236375E-08  0.3626942E+04  0.7818609E-02  0.8084348E-01
        1   -1    0    0  501    0  0.00000000000E+00  0.00000000000E+00  0.15436727787E+04  0.15436727787E+04  0.50400001928E-02 0.  1.
       -1   -1    0    0    0  501  0.00000000000E+00  0.00000000000E+00 -0.21304231242E+04  0.21304231242E+04  0.50400001928E-02 0. -1.
    10030    2    1    2    0    0  0.00000000000E+00  0.00000000000E+00 -0.58675034549E+03  0.36740959029E+04  0.36269415126E+04 0.  0.
        1    1    3    3  502    0 -0.15430196864E+04 -0.30205017630E+03  0.62199461306E+03  0.16908640868E+04  0.50400001928E-02 0.  1.
       -1    1    3    3    0  502  0.15430196864E+04  0.30205017630E+03 -0.12087449585E+04  0.19832318161E+04  0.50400001928E-02 0. -1.
</event>
<event>
 5   0  0.2238968E-07  0.3595461E+04  0.7818609E-02  0.8091532E-01
       -2   -1    0    0    0  501  0.00000000000E+00  0.00000000000E+00  0.16776026377E+04  0.16776026377E+04  0.25500000920E-02 0.  1.
        2   -1    0    0  501    0  0.00000000000E+00  0.00000000000E+00 -0.19264606754E+04  0.19264606754E+04  0.25500000920E-02 0. -1.
    10030    2    1    2    0    0  0.00000000000E+00  0.00000000000E+00 -0.24885803765E+03  0.36040633131E+04  0.35954613114E+04 0.  0.
        3    1    3    3  502    0  0.16108671187E+04  0.79250067956E+03 -0.29941637790E+02  0.17955073693E+04  0.10100000352E+00 0. -1.
       -3    1    3    3    0  502 -0.16108671187E+04 -0.79250067956E+03 -0.21891639986E+03  0.18085559438E+04  0.10100000352E+00 0.  1.
</event>
<event>
 5   0  0.2342606E-07  0.3582578E+04  0.7818609E-02  0.8094494E-01
        2   -1    0    0  501    0  0.00000000000E+00  0.00000000000E+00  0.23962028696E+04  0.23962028696E+04  0.25500000920E-02 0.  1.
       -2   -1    0    0    0  501  0.00000000000E+00  0.00000000000E+00 -0.13390837642E+04  0.13390837642E+04  0.25500000920E-02 0. -1.
    10030    2    1    2    0    0  0.00000000000E+00  0.00000000000E+00  0.10571191054E+04  0.37352866339E+04  0.35825780430E+04 0.  0.
        5    1    3    3  502    0  0.46125424975E+03  0.12304139050E+04  0.17978335000E+04  0.22268590536E+04  0.46999998093E+01 0.  1.
       -5    1    3    3    0  502 -0.46125424975E+03 -0.12304139050E+04 -0.74071439468E+03  0.15084275803E+04  0.46999998093E+01 0. -1.
</event>
<event>
 5   0  0.7236375E-08  0.3598174E+04  0.7818609E-02  0.8090910E-01
        1   -1    0    0  501    0  0.00000000000E+00  0.00000000000E+00  0.25483304818E+04  0.25483304819E+04  0.50400001928E-02 0. -1.
       -1   -1    0    0    0  501  0.00000000000E+00  0.00000000000E+00 -0.12701310269E+04  0.12701310269E+04  0.50400001928E-02 0.  1.
    10030    2    1    2    0    0  0.00000000000E+00  0.00000000000E+00  0.12781994549E+04  0.38184615088E+04  0.35981737656E+04 0.  0.
        1    1    3    3  502    0 -0.10301081017E+04  0.13924187735E+04  0.11554700189E+04  0.20820815802E+04  0.50400001928E-02 0.  1.
       -1    1    3    3    0  502  0.10301081017E+04 -0.13924187735E+04  0.12272943605E+03  0.17363799286E+04  0.50400001928E-02 0. -1.
</event>
<event>
 5   0  0.7347303E-08  0.3562515E+04  0.7818609E-02  0.8099132E-01
       -1   -1    0    0    0  501  0.00000000000E+00  0.00000000000E+00  0.24195298792E+04  0.24195298793E+04  0.50400001928E-02 0.  1.
        1   -1    0    0  501    0  0.00000000000E+00  0.00000000000E+00 -0.13113615889E+04  0.13113615889E+04  0.50400001928E-02 0. -1.
    10030    2    1    2    0    0  0.00000000000E+00  0.00000000000E+00  0.11081682903E+04  0.37308914682E+04  0.35625151491E+04 0.  0.
        2    1    3    3  502    0 -0.48503563513E+03  0.47607503096E+03  0.22784061693E+04  0.23776125998E+04  0.25500000920E-02 0.  1.
       -2    1    3    3    0  502  0.48503563513E+03 -0.47607503096E+03 -0.11702378789E+04  0.13532788684E+04  0.25500000920E-02 0. -1.
</event>
<event>
 5   0  0.2309391E-07  0.3602780E+04  0.7818609E-02  0.8089855E-01
        2   -1    0    0  501    0  0.00000000000E+00  0.00000000000E+00  0.18792399708E+04  0.18792399708E+04  0.25500000920E-02 0.  1.
       -2   -1    0    0    0  501  0.00000000000E+00  0.00000000000E+00 -0.17267651864E+04  0.17267651864E+04  0.25500000920E-02 0. -1.
    10030    2    1    2    0    0  0.00000000000E+00  0.00000000000E+00  0.15247478437E+03  0.36060051572E+04  0.36027801257E+04 0.  0.
        4    1    3    3  502    0  0.17951362820E+04  0.11804803980E+03  0.16881307779E+03  0.18069170094E+04  0.12699999809E+01 0. -1.
       -4    1    3    3    0  502 -0.17951362820E+04 -0.11804803980E+03 -0.16338293420E+02  0.17990881478E+04  0.12699999809E+01 0.  1.
</event>
<event>
 5   0  0.2309391E-07  0.3566564E+04  0.7818609E-02  0.8098194E-01
        2   -1    0    0  501    0  0.00000000000E+00  0.00000000000E+00  0.21621087312E+04  0.21621087312E+04  0.25500000920E-02 0. -1.
       -2   -1    0    0    0  501  0.00000000000E+00  0.00000000000E+00 -0.14708303483E+04  0.14708303484E+04  0.25500000920E-02 0.  1.
    10030    2    1    2    0    0  0.00000000000E+00  0.00000000000E+00  0.69127838281E+03  0.36329390795E+04  0.35665642505E+04 0.  0.
        4    1    3    3  502    0  0.15035385493E+04 -0.25283872879E+03 -0.59652739547E+03  0.16371933724E+04  0.12699999809E+01 0.  1.
       -4    1    3    3    0  502 -0.15035385493E+04  0.25283872879E+03  0.12878057783E+04  0.19957457071E+04  0.12699999809E+01 0. -1.
</event>
<event>
 5   0  0.2198900E-07  0.3664819E+04  0.7818609E-02  0.8075803E-01
        2   -1    0    0  501    0  0.00000000000E+00  0.00000000000E+00  0.14981847901E+04  0.14981847901E+04  0.25500000920E-02 0. -1.
       -2   -1    0    0    0  501  0.00000000000E+00  0.00000000000E+00 -0.22411951360E+04  0.22411951360E+04  0.25500000920E-02 0.  1.
    10030    2    1    2    0    0  0.00000000000E+00  0.00000000000E+00 -0.74301034594E+03  0.37393799262E+04  0.36648189393E+04 0.  0.
        2    1    3    3  502    0  0.16929586539E+04  0.68451185928E+03 -0.52644642845E+03  0.19004766063E+04  0.25500000920E-02 0.  1.
       -2    1    3    3    0  502 -0.16929586539E+04 -0.68451185928E+03 -0.21656391749E+03  0.18389033198E+04  0.25500000920E-02 0. -1.
</event>
<event>
 5   0  0.2199902E-07  0.3588699E+04  0.7818609E-02  0.8093085E-01
        2   -1    0    0  501    0  0.00000000000E+00  0.00000000000E+00  0.27087734868E+04  0.27087734868E+04  0.25500000920E-02 0. -1.
       -2   -1    0    0    0  501  0.00000000000E+00  0.00000000000E+00 -0.11886152854E+04  0.11886152854E+04  0.25500000920E-02 0.  1.
    10030    2    1    2    0    0  0.00000000000E+00  0.00000000000E+00  0.15201582013E+04  0.38973887722E+04  0.35886986896E+04 0.  0.
        1    1    3    3  502    0  0.20671986928E+03  0.15595327816E+04 -0.17718210281E+03  0.15831200520E+04  0.50400001928E-02 0.  1.
       -1    1    3    3    0  502 -0.20671986928E+03 -0.15595327816E+04  0.16973403041E+04  0.23142687202E+04  0.50400001928E-02 0. -1.
</event>
<event>
 5   0  0.2309391E-07  0.3618189E+04  0.7818609E-02  0.8086338E-01
        2   -1    0    0  501    0  0.00000000000E+00  0.00000000000E+00  0.27437338272E+04  0.27437338272E+04  0.25500000920E-02 0.  1.
       -2   -1    0    0    0  501  0.00000000000E+00  0.00000000000E+00 -0.11928357544E+04  0.11928357544E+04  0.25500000920E-02 0. -1.
    10030    2    1    2    0    0  0.00000000000E+00  0.00000000000E+00  0.15508980728E+04  0.39365695816E+04  0.36181894973E+04 0.  0.
        4    1    3    3  502    0  0.15084063880E+04 -0.49891854639E+03  0.17168078741E+04  0.23391537865E+04  0.12699999809E+01 0. -1.
       -4    1    3    3    0  502 -0.15084063880E+04  0.49891854639E+03 -0.16590980126E+03  0.15974157951E+04  0.12699999809E+01 0.  1.
</event>
<event>
 5   0  0.2238968E-07  0.3598910E+04  0.7818609E-02  0.8090741E-01
        2   -1    0    0  501    0  0.00000000000E+00  0.00000000000E+00  0.16999534550E+04  0.16999534550E+04  0.25500000920E-02 0.  1.
       -2   -1    0    0    0  501  0.00000000000E+00  0.00000000000E+00 -0.19047803551E+04  0.19047803551E+04  0.25500000920E-02 0. -1.
    10030    2    1    2    0    0  0.00000000000E+00  0.00000000000E+00 -0.20482690007E+03  0.36047338101E+04  0.35989098047E+04 0.  0.
        3    1    3    3  502    0  0.11007255429E+04 -0.13794799283E+04 -0.45437410330E+03  0.18223658879E+04  0.10100000352E+00 0. -1.
       -3    1    3    3    0  502 -0.11007255429E+04  0.13794799283E+04  0.24954720323E+03  0.17823679222E+04  0.10100000352E+00 0.  1.
</event>
<event>
 5   0  0.7261233E-08  0.3603128E+04  0.7818609E-02  0.8089776E-01
       -1   -1    0    0    0  501  0.00000000000E+00  0.00000000000E+00  0.13687242260E+04  0.13687242260E+04  0.50400001928E-02 0. -1.
        1   -1    0    0  501    0  0.00000000000E+00  0.00000000000E+00 -0.23712832131E+04  0.23712832131E+04  0.50400001928E-02 0.  1.
    10030    2    1    2    0    0  0.00000000000E+00  0.00000000000E+00 -0.10025589870E+04  0.37400074391E+04  0.36031279636E+04 0.  0.
        3    1    3    3  502    0  0.93618469961E+03 -0.30226091840E+03  0.10653033602E+04  0.14500602450E+04  0.10100000352E+00 0. -1.
       -3    1    3    3    0  502 -0.93618469961E+03  0.30226091840E+03 -0.20678623472E+04  0.22899471941E+04  0.10100000352E+00 0.  1.
</event>
<event>
 5   0  0.7261233E-08  0.3623085E+04  0.7818609E-02  0.8085224E-01
        1   -1    0    0  501    0  0.00000000000E+00  0.00000000000E+00  0.13695769835E+04  0.13695769835E+04  0.50400001928E-02 0.  1.
       -1   -1    0    0    0  501  0.00000000000E+00  0.00000000000E+00 -0.23961310420E+04  0.23961310420E+04  0.50400001928E-02 0. -1.
    10030    2    1    2    0    0  0.00000000000E+00  0.00000000000E+00 -0.10265540585E+04  0.37657080255E+04  0.36230848318E+04 0.  0.
        3    1    3    3  502    0 -0.40582402939E+03 -0.59019944857E+03 -0.22427060761E+04  0.23543064979E+04  0.10100000352E+00 0. -1.
       -3    1    3    3    0  502  0.40582402939E+03  0.59019944857E+03  0.12161520177E+04  0.14114015276E+04  0.10100000352E+00 0.  1.
</event>
<event>
 5   0  0.7514289E-08  0.3641193E+04  0.7818609E-02  0.8081121E-01
        1   -1    0    0  501    0  0.00000000000E+00  0.00000000000E+00  0.16545363957E+04  0.16545363958E+04  0.50400001928E-02 0. -1.
       -1   -1    0    0    0  501  0.00000000000E+00  0.00000000000E+00 -0.20033230544E+04  0.20033230544E+04  0.50400001928E-02 0.  1.
    10030    2    1    2    0    0  0.00000000000E+00  0.00000000000E+00 -0.34878665862E+03  0.36578594501E+04  0.36411926101E+04 0.  0.
        4    1    3    3  502    0 -0.11200985161E+04  0.92894260866E+03 -0.12734827292E+04  0.19337308320E+04  0.12699999809E+01 0.  1.
       -4    1    3    3    0  502  0.11200985161E+04 -0.92894260866E+03  0.92469607061E+03  0.17241286181E+04  0.12699999809E+01 0. -1.
</event>
<event>
 5   0  0.7236375E-08  0.3592909E+04  0.7818609E-02  0.8092118E-01
        1   -1    0    0  501    0  0.00000000000E+00  0.00000000000E+00  0.10692291070E+04  0.10692291071E+04  0.50400001928E-02 0.  1.
       -1   -1    0    0    0  501  0.00000000000E+00  0.00000000000E+00 -0.30182951747E+04  0.30182951747E+04  0.50400001928E-02 0. -1.
    10030    2    1    2    0    0  0.00000000000E+00  0.00000000000E+00 -0.19490660676E+04  0.40875242817E+04  0.35929091580E+04 0.  0.
        1    1    3    3  502    0 -0.15139141085E+04  0.89282603281E+03 -0.55164194509E+03  0.18421137556E+04  0.50400001928E-02 0.  1.
       -1    1    3    3    0  502  0.15139141085E+04 -0.89282603281E+03 -0.13974241225E+04  0.22454105262E+04  0.50400001928E-02 0. -1.
</event>
<event>
 5   0  0.2199902E-07  0.3657761E+04  0.7818609E-02  0.8077388E-01
        2   -1    0    0  501    0  0.00000000000E+00  0.00000000000E+00  0.15714408051E+04  0.15714408051E+04  0.25500000920E-02 0. -1.
       -2   -1    0    0    0  501  0.00000000000E+00  0.00000000000E+00 -0.21284947673E+04  0.21284947673E+04  0.25500000920E-02 0.  1.
    10030    2    1    2    0    0  0.00000000000E+00  0.00000000000E+00 -0.55705396221E+03  0.36999355723E+04  0.36577608072E+04 0.  0.
        1    1    3    3  502    0  0.13515270342E+04 -0.81867160577E+03 -0.12099892433E+04  0.19902066454E+04  0.50400001928E-02 0.  1.
       -1    1    3    3    0  502 -0.13515270342E+04  0.81867160577E+03  0.65293528114E+03  0.17097289269E+04  0.50400001928E-02 0. -1.
</event>
<event>
 5   0  0.2309391E-07  0.3607663E+04  0.7818609E-02  0.8088739E-01
        2   -1    0    0  501    0  0.00000000000E+00  0.00000000000E+00  0.19109522045E+04  0.19109522045E+04  0.25500000920E-02 0.  1.
       -2   -1    0    0    0  501  0.00000000000E+00  0.00000000000E+00 -0.17027151577E+04  0.17027151577E+04  0.25500000920E-02 0. -1.
    10030    2    1    2    0    0  0.00000000000E+00  0.00000000000E+00  0.20823704683E+03  0.36136673623E+04  0.36076625587E+04 0.  0.
        4    1    3    3  502    0  0.82036464914E+03  0.59020377879E+03 -0.13925126584E+04  0.17205905308E+04  0.12699999809E+01 0. -1.
       -4    1    3    3    0  502 -0.82036464914E+03 -0.59020377879E+03  0.16007497052E+04  0.18930768314E+04  0.12699999809E+01 0.  1.
</event>
<event>
 5   0  0.2198900E-07  0.3627045E+04  0.7818609E-02  0.8084325E-01
       -2   -1    0    0    0  501  0.00000000000E+00  0.00000000000E+00  0.15735252800E+04  0.15735252800E+04  0.25500000920E-02 0.  1.
        2   -1    0    0  501    0  0.00000000000E+00  0.00000000000E+00 -0.20901250574E+04  0.20901250574E+04  0.25500000920E-02 0. -1.
    10030    2    1    2    0    0  0.00000000000E+00  0.00000000000E+00 -0.51659977738E+03  0.36636503374E+04  0.36270454181E+04 0.  0.
        2    1    3    3  502    0  0.92394568197E+03  0.12791867298E+04 -0.11611157121E+04  0.19591283801E+04  0.25500000920E-02 0.  1.
       -2    1    3    3    0  502 -0.92394568197E+03 -0.12791867298E+04  0.64451593472E+03  0.17045219573E+04  0.25500000920E-02 0. -1.
</event>
<event>
 5   0  0.7236375E-08  0.3601881E+04  0.7818609E-02  0.8090061E-01
        1   -1    0    0  501    0  0.00000000000E+00  0.00000000000E+00  0.11828996330E+04  0.11828996330E+04  0.50400001928E-02 0. -1.
       -1   -1    0    0    0  501  0.00000000000E+00  0.00000000000E+00 -0.27418954825E+04  0.27418954825E+04  0.50400001928E-02 0.  1.
    10030    2    1    2    0    0  0.00000000000E+00  0.00000000000E+00 -0.15589958495E+04  0.39247951155E+04  0.36018812640E+04 0.  0.
        5    1    3    3  502    0  0.97722299308E+03  0.37104103332E+03  0.81851551631E+03  0.13276392458E+04  0.46999998093E+01 0. -1.
       -5    1    3    3    0  502 -0.97722299308E+03 -0.37104103332E+03 -0.23775113658E+04  0.25971558696E+04  0.46999998093E+01 0.  1.
</event>
<event>
 5   0  0.7261233E-08  0.3585493E+04  0.7818609E-02  0.8093823E-01
        1   -1    0    0  501    0  0.00000000000E+00  0.00000000000E+00  0.24063200191E+04  0.24063200191E+04  0.50400001928E-02 0. -1.
       -1   -1    0    0    0  501  0.00000000000E+00  0.00000000000E+00 -0.13356244089E+04  0.13356244089E+04  0.50400001928E-02 0.  1.
    10030    2    1    2    0    0  0.00000000000E+00  0.00000000000E+00  0.10706956102E+04  0.37419444280E+04  0.35854928549E+04 0.  0.
        3    1    3    3  502    0  0.10434603400E+04 -0.10837274979E+04  0.15529129400E+04  0.21621316751E+04  0.10100000352E+00 0. -1.
       -3    1    3    3    0  502 -0.10434603400E+04  0.10837274979E+04 -0.48221732980E+03  0.15798127529E+04  0.10100000352E+00 0.  1.
</event>
<event>
 5   0  0.2199902E-07  0.3594427E+04  0.7818609E-02  0.8091769E-01
       -2   -1    0    0    0  501  0.00000000000E+00  0.00000000000E+00  0.25417327716E+04  0.25417327716E+04  0.25500000920E-02 0. -1.
        2   -1    0    0  501    0  0.00000000000E+00  0.00000000000E+00 -0.12707776263E+04  0.12707776263E+04  0.25500000920E-02 0.  1.
    10030    2    1    2    0    0  0.00000000000E+00  0.00000000000E+00  0.12709551454E+04  0.38125103979E+04  0.35944274304E+04 0.  0.
        1    1    3    3  502    0  0.19930306371E+03  0.95961051408E+03  0.22333317328E+04  0.24389228521E+04  0.50400001928E-02 0. -1.
       -1    1    3    3    0  502 -0.19930306371E+03 -0.95961051408E+03 -0.96237658738E+03  0.13735875458E+04  0.50400001928E-02 0.  1.
</event>
<event>
 5   0  0.7514289E-08  0.3597463E+04  0.7818609E-02  0.8091073E-01
        1   -1    0    0  501    0  0.00000000000E+00  0.00000000000E+00  0.14370777456E+04  0.14370777456E+04  0.50400001928E-02 0.  1.
       -1   -1    0    0    0  501  0.00000000000E+00  0.00000000000E+00 -0.22513981348E+04  0.22513981348E+04  0.50400001928E-02 0. -1.
    10030    2    1    2    0    0  0.00000000000E+00  0.00000000000E+00 -0.81432038928E+03  0.36884758804E+04  0.35974625257E+04 0.  0.
        4    1    3    3  502    0 -0.10454257721E+04  0.39280947987E+03  0.10385548247E+04  0.15250613330E+04  0.12699999809E+01 0.  1.
       -4    1    3    3    0  502  0.10454257721E+04 -0.39280947987E+03 -0.18528752140E+04  0.21634145474E+04  0.12699999809E+01 0. -1.
</event>
<event>
 5   0  0.7261233E-08  0.3598079E+04  0.7818609E-02  0.8090932E-01
        1   -1    0    0  501    0  0.00000000000E+00  0.00000000000E+00  0.24801509414E+04  0.24801509415E+04  0.50400001928E-02 0.  1.
       -1   -1    0    0    0  501  0.00000000000E+00  0.00000000000E+00 -0.13049781376E+04  0.13049781376E+04  0.50400001928E-02 0. -1.
    10030    2    1    2    0    0  0.00000000000E+00  0.00000000000E+00  0.11751728039E+04  0.37851290790E+04  0.35980787965E+04 0.  0.
        3    1    3    3  502    0  0.72536175554E+03 -0.87577433444E+03  0.20541216554E+04  0.23478812037E+04  0.10100000352E+00 0.  1.
       -3    1    3    3    0  502 -0.72536175554E+03  0.87577433444E+03 -0.87894885156E+03  0.14372478753E+04  0.10100000352E+00 0. -1.
</event>
<event>
 5   0  0.7236375E-08  0.3722064E+04  0.7818609E-02  0.8063090E-01
        1   -1    0    0  501    0  0.00000000000E+00  0.00000000000E+00  0.16853253773E+04  0.16853253774E+04  0.50400001928E-02 0. -1.
       -1   -1    0    0    0  501  0.00000000000E+00  0.00000000000E+00 -0.20550574392E+04  0.20550574392E+04  0.50400001928E-02 0.  1.
    10030    2    1    2    0    0  0.00000000000E+00  0.00000000000E+00 -0.36973206183E+03  0.37403828165E+04  0.37220641876E+04 0.  0.
        1    1    3    3  502    0  0.15693590247E+04  0.13033514829E+03  0.81176367621E+03  0.17716758352E+04  0.50400001928E-02 0. -1.
       -1    1    3    3    0  502 -0.15693590247E+04 -0.13033514829E+03 -0.11814957380E+04  0.19687069813E+04  0.50400001928E-02 0.  1.
</event>
<event>
 5   0  0.7236375E-08  0.3594620E+04  0.7818609E-02  0.8091725E-01
        1   -1    0    0  501    0  0.00000000000E+00  0.00000000000E+00  0.15556694143E+04  0.15556694143E+04  0.50400001928E-02 0. -1.
       -1   -1    0    0    0  501  0.00000000000E+00  0.00000000000E+00 -0.20764848300E+04  0.20764848300E+04  0.50400001928E-02 0.  1.
    10030    2    1    2    0    0  0.00000000000E+00  0.00000000000E+00 -0.52081541570E+03  0.36321542444E+04  0.35946203913E+04 0.  0.
        5    1    3    3  502    0  0.62406064314E+02  0.63217061848E+03  0.14384472626E+04  0.15724779251E+04  0.46999998093E+01 0. -1.
       -5    1    3    3    0  502 -0.62406064314E+02 -0.63217061848E+03 -0.19592626783E+04  0.20596763193E+04  0.46999998093E+01 0.  1.
</event>
<event>
 5   0  0.7261233E-08  0.3603822E+04  0.7818609E-02  0.8089617E-01
       -1   -1    0    0    0  501  0.00000000000E+00  0.00000000000E+00  0.22201957381E+04  0.22201957381E+04  0.50400001928E-02 0. -1.
        1   -1    0    0  501    0  0.00000000000E+00  0.00000000000E+00 -0.14624310878E+04  0.14624310878E+04  0.50400001928E-02 0.  1.
    10030    2    1    2    0    0  0.00000000000E+00  0.00000000000E+00  0.75776465032E+03  0.36826268259E+04  0.36038220091E+04 0.  0.
        3    1    3    3  502    0 -0.21421035858E+03  0.17655172754E+04  0.82812461711E+02  0.17803918786E+04  0.10100000352E+00 0.  1.
       -3    1    3    3    0  502  0.21421035858E+03 -0.17655172754E+04  0.67495218860E+03  0.19022349473E+04  0.10100000352E+00 0. -1.
</event>
<event>
 5   0  0.2309391E-07  0.3593667E+04  0.7818609E-02  0.8091944E-01
        2   -1    0    0  501    0  0.00000000000E+00  0.00000000000E+00  0.14571598535E+04  0.14571598535E+04  0.25500000920E-02 0.  1.
       -2   -1    0    0    0  501  0.00000000000E+00  0.00000000000E+00 -0.22156869708E+04  0.22156869708E+04  0.25500000920E-02 0. -1.
    10030    2    1    2    0    0  0.00000000000E+00  0.00000000000E+00 -0.75852711729E+03  0.36728468242E+04  0.35936667078E+04 0.  0.
        4    1    3    3  502    0  0.62738958673E+03 -0.13849675329E+03  0.13357464183E+04  0.14822345128E+04  0.12699999809E+01 0.  1.
       -4    1    3    3    0  502 -0.62738958673E+03  0.13849675329E+03 -0.20942735356E+04  0.21906123114E+04  0.12699999809E+01 0. -1.
</event>
<event>
 5   0  0.2199902E-07  0.3583774E+04  0.7818609E-02  0.8094219E-01
       -2   -1    0    0    0  501  0.00000000000E+00  0.00000000000E+00  0.31330700763E+04  0.31330700763E+04  0.25500000920E-02 0.  1.
        2   -1    0    0  501    0  0.00000000000E+00  0.00000000000E+00 -0.10248283184E+04  0.10248283184E+04  0.25500000920E-02 0. -1.
    10030    2    1    2    0    0  0.00000000000E+00  0.00000000000E+00  0.21082417579E+04  0.41578983946E+04  0.35837739536E+04 0.  0.
        1    1    3    3  502    0 -0.44413907722E+03 -0.16204942586E+04  0.17764313349E+04  0.24451931314E+04  0.50400001928E-02 0.  1.
       -1    1    3    3    0  502  0.44413907722E+03  0.16204942586E+04  0.33181042301E+03  0.17127052633E+04  0.50400001928E-02 0. -1.
</event>
<event>
 5   0  0.7514289E-08  0.3595879E+04  0.7818609E-02  0.8091436E-01
        1   -1    0    0  501    0  0.00000000000E+00  0.00000000000E+00  0.31804969806E+04  0.31804969806E+04  0.50400001928E-02 0. -1.
       -1   -1    0    0    0  501  0.00000000000E+00  0.00000000000E+00 -0.10163776653E+04  0.10163776653E+04  0.50400001928E-02 0.  1.
    10030    2    1    2    0    0  0.00000000000E+00  0.00000000000E+00  0.21641193153E+04  0.41968746460E+04  0.35958788054E+04 0.  0.
        4    1    3    3  502    0  0.26030138339E+03  0.14151609453E+04 -0.17614566055E+03  0.14496434796E+04  0.12699999809E+01 0.  1.
       -4    1    3    3    0  502 -0.26030138339E+03 -0.14151609453E+04  0.23402649758E+04  0.27472311664E+04  0.12699999809E+01 0. -1.
</event>
<event>
 5   0  0.2342606E-07  0.3603195E+04  0.7818609E-02  0.8089760E-01
        2   -1    0    0  501    0  0.00000000000E+00  0.00000000000E+00  0.24059975787E+04  0.24059975787E+04  0.25500000920E-02 0.  1.
       -2   -1    0    0    0  501  0.00000000000E+00  0.00000000000E+00 -0.13490261935E+04  0.13490261935E+04  0.25500000920E-02 0. -1.
    10030    2    1    2    0    0  0.00000000000E+00  0.00000000000E+00  0.10569713852E+04  0.37550237722E+04  0.36031951128E+04 0.  0.
        5    1    3    3  502    0 -0.16405266883E+04  0.20386166266E+03 -0.21782156654E+03  0.16674398692E+04  0.46999998093E+01 0. -1.
       -5    1    3    3    0  502  0.16405266883E+04 -0.20386166266E+03  0.12747929517E+04  0.20875839031E+04  0.46999998093E+01 0.  1.
</event>
<event>
 5   0  0.7514289E-08  0.3601894E+04  0.7818609E-02  0.8090058E-01
        1   -1    0    0  501    0  0.00000000000E+00  0.00000000000E+00  0.20957446025E+04  0.20957446025E+04  0.50400001928E-02 0.  1.
       -1   -1    0    0    0  501  0.00000000000E+00  0.00000000000E+00 -0.15476169215E+04  0.15476169215E+04  0.50400001928E-02 0. -1.
    10030    2    1    2    0    0  0.00000000000E+00  0.00000000000E+00  0.54812768103E+03  0.36433615240E+04  0.36018938407E+04 0.  0.
        4    1    3    3  502    0 -0.16886422194E+04 -0.62598280846E+03  0.26757316038E+03  0.18207042678E+04  0.12699999809E+01 0.  1.
       -4    1    3    3    0  502  0.16886422194E+04  0.62598280846E+03  0.28055452065E+03  0.18226572562E+04  0.12699999809E+01 0. -1.
</event>
<event>
 5   0  0.7236375E-08  0.3598082E+04  0.7818609E-02  0.8090931E-01
       -1   -1    0    0    0  501  0.00000000000E+00  0.00000000000E+00  0.13310231285E+04  0.13310231285E+04  0.50400001928E-02 0.  1.
        1   -1    0    0  501    0  0.00000000000E+00  0.00000000000E+00 -0.24316252071E+04  0.24316252072E+04  0.50400001928E-02 0. -1.
    10030    2    1    2    0    0  0.00000000000E+00  0.00000000000E+00 -0.11006020787E+04  0.37626483357E+04  0.35980824841E+04 0.  0.
        1    1    3    3  502    0  0.95346517196E+03 -0.14149544486E+04  0.46188597415E+02  0.17068465990E+04  0.50400001928E-02 0.  1.
       -1    1    3    3    0  502 -0.95346517196E+03  0.14149544486E+04 -0.11467906761E+04  0.20558017367E+04  0.50400001928E-02 0. -1.
</event>
<event>
 5   0  0.7236375E-08  0.3614596E+04  0.7818609E-02  0.8087156E-01
        1   -1    0    0  501    0  0.00000000000E+00  0.00000000000E+00  0.24837903354E+04  0.24837903354E+04  0.50400001928E-02 0.  1.
       -1   -1    0    0    0  501  0.00000000000E+00  0.00000000000E+00 -0.13150570679E+04  0.13150570679E+04  0.50400001928E-02 0. -1.
    10030    2    1    2    0    0  0.00000000000E+00  0.00000000000E+00  0.11687332675E+04  0.37988474033E+04  0.36145959861E+04 0.  0.
        1    1    3    3  502    0 -0.57401817801E+02 -0.62959674244E+03 -0.11950538673E+04  0.13519766169E+04  0.50400001928E-02 0. -1.
       -1    1    3    3    0  502  0.57401817801E+02  0.62959674244E+03  0.23637871348E+04  0.24468707864E+04  0.50400001928E-02 0.  1.
</event>
<event>
 5   0  0.7261233E-08  0.3614960E+04  0.7818609E-02  0.8087074E-01
       -1   -1    0    0    0  501  0.00000000000E+00  0.00000000000E+00  0.19259867739E+04  0.19259867739E+04  0.50400001928E-02 0. -1.
        1   -1    0    0  501    0  0.00000000000E+00  0.00000000000E+00 -0.16962648977E+04  0.16962648977E+04  0.50400001928E-02 0.  1.
    10030    2    1    2    0    0  0.00000000000E+00  0.00000000000E+00  0.22972187619E+03  0.36222516716E+04  0.36149598936E+04 0.  0.
        3    1    3    3  502    0 -0.68441272070E+03  0.10163949950E+04  0.14462638867E+04  0.18955629239E+04  0.10100000352E+00 0. -1.
       -3    1    3    3    0  502  0.68441272070E+03 -0.10163949950E+04 -0.12165420105E+04  0.17266887478E+04  0.10100000352E+00 0.  1.
</event>
<event>
 5   0  0.2342606E-07  0.3606371E+04  0.7818609E-02  0.8089034E-01
       -2   -1    0    0    0  501  0.00000000000E+00  0.00000000000E+00  0.17906462420E+04  0.17906462420E+04  0.25500000920E-02 0.  1.
        2   -1    0    0  501    0  0.00000000000E+00  0.00000000000E+00 -0.18158128194E+04  0.18158128194E+04  0.25500000920E-02 0. -1.
    10030    2    1    2    0    0  0.00000000000E+00  0.00000000000E+00 -0.25166577402E+02  0.36064590614E+04  0.36063712517E+04 0.  0.
        5    1    3    3  502    0  0.95788903779E+03 -0.15066133164E+04 -0.26561359354E+03  0.18049952257E+04  0.46999998093E+01 0.  1.
       -5    1    3    3    0  502 -0.95788903779E+03  0.15066133164E+04  0.24044701614E+03  0.18014638357E+04  0.46999998093E+01 0. -1.
</event>
<event>
 5   0  0.2199902E-07  0.3596893E+04  0.7818609E-02  0.8091204E-01
        2   -1    0    0  501    0  0.00000000000E+00  0.00000000000E+00  0.13605625523E+04  0.13605625523E+04  0.25500000920E-02 0.  1.
       -2   -1    0    0    0  501  0.00000000000E+00  0.00000000000E+00 -0.23772597580E+04  0.23772597580E+04  0.25500000920E-02 0. -1.
    10030    2    1    2    0    0  0.00000000000E+00  0.00000000000E+00 -0.10166972057E+04  0.37378223104E+04  0.35968934396E+04 0.  0.
        1    1    3    3  502    0 -0.93182133234E+03  0.11070556224E+03  0.10859943746E+04  0.14352457973E+04  0.50400001928E-02 0.  1.
       -1    1    3    3    0  502  0.93182133234E+03 -0.11070556224E+03 -0.21026915803E+04  0.23025765131E+04  0.50400001928E-02 0. -1.
</event>
<event>
 5   0  0.7514289E-08  0.3591149E+04  0.7818609E-02  0.8092522E-01
        1   -1    0    0  501    0  0.00000000000E+00  0.00000000000E+00  0.24138958674E+04  0.24138958674E+04  0.50400001928E-02 0.  1.
       -1   -1    0    0    0  501  0.00000000000E+00  0.00000000000E+00 -0.13356362763E+04  0.13356362763E+04  0.50400001928E-02 0. -1.
    10030    2    1    2    0    0  0.00000000000E+00  0.00000000000E+00  0.10782595911E+04  0.37495321437E+04  0.35911485003E+04 0.  0.
        4    1    3    3  502    0 -0.31534282548E+03 -0.17475074523E+04  0.26119043353E+03  0.17948385579E+04  0.12699999809E+01 0. -1.
       -4    1    3    3    0  502  0.31534282548E+03  0.17475074523E+04  0.81706915761E+03  0.19546935859E+04  0.12699999809E+01 0.  1.
</event>
<event>
 5   0  0.7261233E-08  0.3500892E+04  0.7818609E-02  0.8113579E-01
       -1   -1    0    0    0  501  0.00000000000E+00  0.00000000000E+00  0.30455943455E+04  0.30455943455E+04  0.50400001928E-02 0. -1.
        1   -1    0    0  501    0  0.00000000000E+00  0.00000000000E+00 -0.10060632069E+04  0.10060632069E+04  0.50400001928E-02 0.  1.
    10030    2    1    2    0    0  0.00000000000E+00  0.00000000000E+00  0.20395311386E+04  0.40516575524E+04  0.35008915517E+04 0.  0.
        3    1    3    3  502    0 -0.16487314044E+04  0.44557196394E+03  0.57572373469E+03  0.18023061470E+04  0.10100000352E+00 0. -1.
       -3    1    3    3    0  502  0.16487314044E+04 -0.44557196394E+03  0.14638074039E+04  0.22493514054E+04  0.10100000352E+00 0.  1.
</event>
<event>
 5   0  0.2342606E-07  0.3613728E+04  0.7818609E-02  0.8087354E-01
        2   -1    0    0  501    0  0.00000000000E+00  0.00000000000E+00  0.19975704577E+04  0.19975704577E+04  0.25500000920E-02 0.  1.
       -2   -1    0    0    0  501  0.00000000000E+00  0.00000000000E+00 -0.16343639999E+04  0.16343639999E+04  0.25500000920E-02 0. -1.
    10030    2    1    2    0    0  0.00000000000E+00  0.00000000000E+00  0.36320645781E+03  0.36319344575E+04  0.36137278499E+04 0.  0.
        5    1    3    3  502    0  0.31110300228E+03  0.87737042388E+03 -0.13748018981E+04  0.16603211400E+04  0.46999998093E+01 0. -1.
       -5    1    3    3    0  502 -0.31110300228E+03 -0.87737042388E+03  0.17380083559E+04  0.19716133176E+04  0.46999998093E+01 0.  1.
</event>
<event>
 5   0  0.7261233E-08  0.3602721E+04  0.7818609E-02  0.8089869E-01
       -1   -1    0    0    0  501  0.00000000000E+00  0.00000000000E+00  0.16590228957E+04  0.16590228957E+04  0.50400001928E-02 0. -1.
        1   -1    0    0  501    0  0.00000000000E+00  0.00000000000E+00 -0.19559101571E+04  0.19559101571E+04  0.50400001928E-02 0.  1.
    10030    2    1    2    0    0  0.00000000000E+00  0.00000000000E+00 -0.29688726137E+03  0.36149330528E+04  0.36027210453E+04 0.  0.
        3    1    3    3  502    0 -0.14918692481E+03 -0.96765079444E+03 -0.16656188770E+04  0.19320691117E+04  0.10100000352E+00 0.  1.
       -3    1    3    3    0  502  0.14918692481E+03  0.96765079444E+03  0.13687316157E+04  0.16828639411E+04  0.10100000352E+00 0. -1.
</event>
<event>
 5   0  0.7261233E-08  0.3586454E+04  0.7818609E-02  0.8093602E-01
        1   -1    0    0  501    0  0.00000000000E+00  0.00000000000E+00  0.18057082713E+04  0.18057082713E+04  0.50400001928E-02 0. -1.
       -1   -1    0    0    0  501  0.00000000000E+00  0.00000000000E+00 -0.17808318129E+04  0.17808318129E+04  0.50400001928E-02 0.  1.
    10030    2    1    2    0    0  0.00000000000E+00  0.00000000000E+00  0.24876458342E+02  0.35865400842E+04  0.35864538109E+04 0.  0.
        3    1    3    3  502    0 -0.97876130817E+03 -0.98244459973E+03 -0.11244671397E+04  0.17853843979E+04  0.10100000352E+00 0.  1.
       -3    1    3    3    0  502  0.97876130817E+03  0.98244459973E+03  0.11493435980E+04  0.18011556863E+04  0.10100000352E+00 0. -1.
</event>
<event>
 5   0  0.2309391E-07  0.3621084E+04  0.7818609E-02  0.8085679E-01
       -2   -1    0    0    0  501  0.00000000000E+00  0.00000000000E+00  0.12985373652E+04  0.12985373652E+04  0.25500000920E-02 0.  1.
        2   -1    0    0  501    0  0.00000000000E+00  0.00000000000E+00 -0.25244263665E+04  0.25244263665E+04  0.25500000920E-02 0. -1.
    10030    2    1    2    0    0  0.00000000000E+00  0.00000000000E+00 -0.12258890013E+04  0.38229637317E+04  0.36210837950E+04 0.  0.
        4    1    3    3  502    0 -0.84583621915E+03  0.10619770631E+04 -0.18775679945E+04  0.23170018082E+04  0.12699999809E+01 0. -1.
       -4    1    3    3    0  502  0.84583621915E+03 -0.10619770631E+04  0.65167899314E+03  0.15059619236E+04  0.12699999809E+01 0.  1.
</event>
<event>
 5   0  0.2198900E-07  0.3608451E+04  0.7818609E-02  0.8088559E-01
        2   -1    0    0  501    0  0.00000000000E+00  0.00000000000E+00  0.18699424394E+04  0.18699424394E+04  0.25500000920E-02 0. -1.
       -2   -1    0    0    0  501  0.00000000000E+00  0.00000000000E+00 -0.17408181150E+04  0.17408181150E+04  0.25500000920E-02 0.  1.
    10030    2    1    2    0    0  0.00000000000E+00  0.00000000000E+00  0.12912432434E+03  0.36107605544E+04  0.36084510098E+04 0.  0.
        2    1    3    3  502    0 -0.13952625140E+04 -0.90867954074E+03  0.75982604461E+03  0.18302435927E+04  0.25500000920E-02 0. -1.
       -2    1    3    3    0  502  0.13952625140E+04  0.90867954074E+03 -0.63070172026E+03  0.17805169616E+04  0.25500000920E-02 0.  1.
</event>
<event>
 5   0  0.7347303E-08  0.3602650E+04  0.7818609E-02  0.8089885E-01
        1   -1    0    0  501    0  0.00000000000E+00  0.00000000000E+00  0.10915232150E+04  0.10915232150E+04  0.50400001928E-02 0.  1.
       -1   -1    0    0    0  501  0.00000000000E+00  0.00000000000E+00 -0.29727001351E+04  0.29727001351E+04  0.50400001928E-02 0. -1.
    10030    2    1    2    0    0  0.00000000000E+00  0.00000000000E+00 -0.18811769201E+04  0.40642233501E+04  0.36026496963E+04 0.  0.
        2    1    3    3  502    0 -0.12272903232E+04 -0.44168801196E+03  0.46093573541E+03  0.13833985650E+04  0.25500000920E-02 0.  1.
       -2    1    3    3    0  502  0.12272903232E+04  0.44168801196E+03 -0.23421126555E+04  0.26808247851E+04  0.25500000920E-02 0. -1.
</event>
<event>
 5   0  0.2198900E-07  0.3576401E+04  0.7818609E-02  0.8095919E-01
        2   -1    0    0  501    0  0.00000000000E+00  0.00000000000E+00  0.20733101798E+04  0.20733101798E+04  0.25500000920E-02 0. -1.
       -2   -1    0    0    0  501  0.00000000000E+00  0.00000000000E+00 -0.15422976178E+04  0.15422976178E+04  0.25500000920E-02 0.  1.
    10030    2    1    2    0    0  0.00000000000E+00  0.00000000000E+00  0.53101256196E+03  0.36156077977E+04  0.35764011807E+04 0.  0.
        2    1    3    3  502    0 -0.17822007685E+04 -0.22157779771E+02  0.11924544577E+03  0.17863230455E+04  0.25500000920E-02 0. -1.
       -2    1    3    3    0  502  0.17822007685E+04  0.22157779771E+02  0.41176711619E+03  0.18292847522E+04  0.25500000920E-02 0.  1.
</event>
<event>
 5   0  0.7347303E-08  0.3593215E+04  0.7818609E-02  0.8092048E-01
       -1   -1    0    0    0  501  0.00000000000E+00  0.00000000000E+00  0.21043751915E+04  0.21043751915E+04  0.50400001928E-02 0. -1.
        1   -1    0    0  501    0  0.00000000000E+00  0.00000000000E+00 -0.15338511427E+04  0.15338511427E+04  0.50400001928E-02 0.  1.
    10030    2    1    2    0    0  0.00000000000E+00  0.00000000000E+00  0.57052404883E+03  0.36382263342E+04  0.35932148793E+04 0.  0.
        2    1    3    3  502    0  0.13755187085E+04  0.58912286299E+03  0.12920420249E+04  0.19769901515E+04  0.25500000920E-02 0. -1.
       -2    1    3    3    0  502 -0.13755187085E+04 -0.58912286299E+03 -0.72151797604E+03  0.16612361827E+04  0.25500000920E-02 0.  1.
</event>
<event>
 5   0  0.7236375E-08  0.3603952E+04  0.7818609E-02  0.8089587E-01
       -1   -1    0    0    0  501  0.00000000000E+00  0.00000000000E+00  0.11689983232E+04  0.11689983232E+04  0.50400001928E-02 0.  1.
        1   -1    0    0  501    0  0.00000000000E+00  0.00000000000E+00 -0.27776924874E+04  0.27776924874E+04  0.50400001928E-02 0. -1.
    10030    2    1    2    0    0  0.00000000000E+00  0.00000000000E+00 -0.16086941642E+04  0.39466908106E+04  0.36039521974E+04 0.  0.
        1    1    3    3  502    0  0.99386838233E+03 -0.11688928970E+03  0.83672650711E+03  0.13044342510E+04  0.50400001928E-02 0.  1.
       -1    1    3    3    0  502 -0.99386838233E+03  0.11688928970E+03 -0.24454206713E+04  0.26422565597E+04  0.50400001928E-02 0. -1.
</event>
<event>
 5   0  0.2198900E-07  0.3610002E+04  0.7818609E-02  0.8088204E-01
       -2   -1    0    0    0  501  0.00000000000E+00  0.00000000000E+00  0.95810640081E+03  0.95810640082E+03  0.25500000920E-02 0. -1.
        2   -1    0    0  501    0  0.00000000000E+00  0.00000000000E+00 -0.34004875629E+04  0.34004875629E+04  0.25500000920E-02 0.  1.
    10030    2    1    2    0    0  0.00000000000E+00  0.00000000000E+00 -0.24423811620E+04  0.43585939637E+04  0.36100021606E+04 0.  0.
        2    1    3    3  502    0  0.33234853168E+03  0.35294300005E+03 -0.33204125110E+04  0.33556167169E+04  0.25500000920E-02 0.  1.
       -2    1    3    3    0  502 -0.33234853168E+03 -0.35294300005E+03  0.87803134893E+03  0.10029772468E+04  0.25500000920E-02 0. -1.
</event>
<event>
 5   0  0.2309391E-07  0.3599740E+04  0.7818609E-02  0.8090551E-01
        2   -1    0    0  501    0  0.00000000000E+00  0.00000000000E+00  0.18476052518E+04  0.18476052518E+04  0.25500000920E-02 0.  1.
       -2   -1    0    0    0  501  0.00000000000E+00  0.00000000000E+00 -0.17533679519E+04  0.17533679519E+04  0.25500000920E-02 0. -1.
    10030    2    1    2    0    0  0.00000000000E+00  0.00000000000E+00  0.94237299961E+02  0.36009732037E+04  0.35997398996E+04 0.  0.
        4    1    3    3  502    0  0.13939358565E+04  0.89219942799E+03  0.75478821318E+03  0.18190062812E+04  0.12699999809E+01 0.  1.
       -4    1    3    3    0  502 -0.13939358565E+04 -0.89219942799E+03 -0.66055091321E+03  0.17819669226E+04  0.12699999809E+01 0. -1.
</event>
<event>
 5   0  0.2199902E-07  0.3618984E+04  0.7818609E-02  0.8086157E-01
        2   -1    0    0  501    0  0.00000000000E+00  0.00000000000E+00  0.19741400079E+04  0.19741400079E+04  0.25500000920E-02 0.  1.
       -2   -1    0    0    0  501  0.00000000000E+00  0.00000000000E+00 -0.16585755749E+04  0.16585755749E+04  0.25500000920E-02 0. -1.
    10030    2    1    2    0    0  0.00000000000E+00  0.00000000000E+00  0.31556443295E+03  0.36327155828E+04  0.36189835029E+04 0.  0.
        1    1    3    3  502    0  0.16137818998E+03  0.89136269105E+03 -0.14145873983E+04  0.16797701851E+04  0.50400001928E-02 0. -1.
       -1    1    3    3    0  502 -0.16137818998E+03 -0.89136269105E+03  0.17301518313E+04  0.19529453977E+04  0.50400001928E-02 0.  1.
</event>
<event>
 5   0  0.2199902E-07  0.3597823E+04  0.7818609E-02  0.8090990E-01
       -2   -1    0    0    0  501  0.00000000000E+00  0.00000000000E+00  0.13508045643E+04  0.13508045643E+04  0.25500000920E-02 0.  1.
        2   -1    0    0  501    0  0.00000000000E+00  0.00000000000E+00 -0.23956707116E+04  0.23956707116E+04  0.25500000920E-02 0. -1.
    10030    2    1    2    0    0  0.00000000000E+00  0.00000000000E+00 -0.10448661473E+04  0.37464752759E+04  0.35978231929E+04 0.  0.
        1    1    3    3  502    0  0.13385649291E+04 -0.77039550456E+03  0.43807560610E+03  0.16053583835E+04  0.50400001928E-02 0.  1.
       -1    1    3    3    0  502 -0.13385649291E+04  0.77039550456E+03 -0.14829417534E+04  0.21411168924E+04  0.50400001928E-02 0. -1.
</event>
<event>
 5   0  0.7347303E-08  0.3609998E+04  0.7818609E-02  0.8088205E-01
        1   -1    0    0  501    0  0.00000000000E+00  0.00000000000E+00  0.26971966143E+04  0.26971966143E+04  0.50400001928E-02 0. -1.
       -1   -1    0    0    0  501  0.00000000000E+00  0.00000000000E+00 -0.12079284953E+04  0.12079284953E+04  0.50400001928E-02 0.  1.
    10030    2    1    2    0    0  0.00000000000E+00  0.00000000000E+00  0.14892681190E+04  0.39051251096E+04  0.36099975889E+04 0.  0.
        2    1    3    3  502    0 -0.30361943528E+03 -0.10509305882E+04  0.22977617115E+04  0.25448671371E+04  0.25500000920E-02 0. -1.
       -2    1    3    3    0  502  0.30361943528E+03  0.10509305882E+04 -0.80849359247E+03  0.13602579725E+04  0.25500000920E-02 0.  1.
</event>
<event>
 5   0  0.7236375E-08  0.3601628E+04  0.7818609E-02  0.8090119E-01
       -4   -1    0    0    0  501  0.00000000000E+00  0.00000000000E+00  0.22964183651E+04  0.22964187163E+04  0.12699999809E+01 0.  1.
        4   -1    0    0  501    0  0.00000000000E+00  0.00000000000E+00 -0.14121682794E+04  0.14121688504E+04  0.12699999809E+01 0. -1.
    10030    2    1    2    0    0  0.00000000000E+00  0.00000000000E+00  0.88425008572E+03  0.37085875667E+04  0.36016278994E+04 0.  0.
        2    1    3    3  502    0 -0.40297900265E+03 -0.11918625363E+04 -0.88454849624E+03  0.15379708789E+04  0.25500000920E-02 0. -1.
       -2    1    3    3    0  502  0.40297900265E+03  0.11918625363E+04  0.17687985820E+04  0.21706166879E+04  0.25500000920E-02 0.  1.
</event>
<event>
 5   0  0.2199902E-07  0.3615490E+04  0.7818609E-02  0.8086953E-01
       -2   -1    0    0    0  501  0.00000000000E+00  0.00000000000E+00  0.22949997332E+04  0.22949997332E+04  0.25500000920E-02 0. -1.
        2   -1    0    0  501    0  0.00000000000E+00  0.00000000000E+00 -0.14239398583E+04  0.14239398583E+04  0.25500000920E-02 0.  1.
    10030    2    1    2    0    0  0.00000000000E+00  0.00000000000E+00  0.87105987497E+03  0.37189395915E+04  0.36154897842E+04 0.  0.
        1    1    3    3  502    0  0.40122227906E+03 -0.14285718562E+04  0.14976168745E+04  0.21082346095E+04  0.50400001928E-02 0. -1.
       -1    1    3    3    0  502 -0.40122227906E+03  0.14285718562E+04 -0.62655699957E+03  0.16107049821E+04  0.50400001928E-02 0.  1.
</event>
<event>
 5   0  0.2342606E-07  0.3617154E+04  0.7818609E-02  0.8086574E-01
       -2   -1    0    0    0  501  0.00000000000E+00  0.00000000000E+00  0.21966061644E+04  0.21966061644E+04  0.25500000920E-02 0.  1.
        2   -1    0    0  501    0  0.00000000000E+00  0.00000000000E+00 -0.14890932922E+04  0.14890932922E+04  0.25500000920E-02 0. -1.
    10030    2    1    2    0    0  0.00000000000E+00  0.00000000000E+00  0.70751287218E+03  0.36856994566E+04  0.36171544093E+04 0.  0.
        5    1    3    3  502    0  0.23383130489E+03 -0.11465481244E+04 -0.10513899134E+04  0.15731155459E+04  0.46999998093E+01 0. -1.
       -5    1    3    3    0  502 -0.23383130489E+03  0.11465481244E+04  0.17589027856E+04  0.21125839107E+04  0.46999998093E+01 0.  1.
</event>
<event>
 5   0  0.2309391E-07  0.3610398E+04  0.7818609E-02  0.8088114E-01
       -2   -1    0    0    0  501  0.00000000000E+00  0.00000000000E+00  0.13547004009E+04  0.13547004009E+04  0.25500000920E-02 0.  1.
        2   -1    0    0  501    0  0.00000000000E+00  0.00000000000E+00 -0.24055087226E+04  0.24055087226E+04  0.25500000920E-02 0. -1.
    10030    2    1    2    0    0  0.00000000000E+00  0.00000000000E+00 -0.10508083217E+04  0.37602091235E+04  0.36103981115E+04 0.  0.
        4    1    3    3  502    0 -0.66108192599E+03  0.49764894072E+03  0.11455559775E+04  0.14131468046E+04  0.12699999809E+01 0.  1.
       -4    1    3    3    0  502  0.66108192599E+03 -0.49764894072E+03 -0.21963642992E+04  0.23470623189E+04  0.12699999809E+01 0. -1.
</event>
<event>
 5   0  0.7236375E-08  0.3610126E+04  0.7818609E-02  0.8088176E-01
        1   -1    0    0  501    0  0.00000000000E+00  0.00000000000E+00  0.14216464467E+04  0.14216464467E+04  0.50400001928E-02 0. -1.
       -1   -1    0    0    0  501  0.00000000000E+00  0.00000000000E+00 -0.22918865671E+04  0.22918865671E+04  0.50400001928E-02 0.  1.
    10030    2    1    2    0    0  0.00000000000E+00  0.00000000000E+00 -0.87024012040E+03  0.37135330138E+04  0.36101259781E+04 0.  0.
        1    1    3    3  502    0  0.16141531123E+04 -0.22259855440E+03 -0.12340338569E+04  0.20439862882E+04  0.50400001928E-02 0.  1.
       -1    1    3    3    0  502 -0.16141531123E+04  0.22259855440E+03  0.36379373653E+03  0.16695467256E+04  0.50400001928E-02 0. -1.
</event>
<event>
 5   0  0.2238968E-07  0.3605476E+04  0.7818609E-02  0.8089239E-01
        2   -1    0    0  501    0  0.00000000000E+00  0.00000000000E+00  0.12855132397E+04  0.12855132397E+04  0.25500000920E-02 0.  1.
       -2   -1    0    0    0  501  0.00000000000E+00  0.00000000000E+00 -0.25280671418E+04  0.25280671418E+04  0.25500000920E-02 0. -1.
    10030    2    1    2    0    0  0.00000000000E+00  0.00000000000E+00 -0.12425539021E+04  0.38135803814E+04  0.36054757143E+04 0.  0.
        3    1    3    3  502    0 -0.11403189337E+04  0.10862155318E+03 -0.20936499427E+04  0.23865238329E+04  0.10100000352E+00 0. -1.
       -3    1    3    3    0  502  0.11403189337E+04 -0.10862155318E+03  0.85109604058E+03  0.14270565486E+04  0.10100000352E+00 0.  1.
</event>
<event>
 5   0  0.2199902E-07  0.3613897E+04  0.7818609E-02  0.8087316E-01
        2   -1    0    0  501    0  0.00000000000E+00  0.00000000000E+00  0.17652603046E+04  0.17652603046E+04  0.25500000920E-02 0. -1.
       -2   -1    0    0    0  501  0.00000000000E+00  0.00000000000E+00 -0.18496213725E+04  0.18496213725E+04  0.25500000920E-02 0.  1.
    10030    2    1    2    0    0  0.00000000000E+00  0.00000000000E+00 -0.84361067844E+02  0.36148816771E+04  0.36138971693E+04 0.  0.
        1    1    3    3  502    0 -0.14537693460E+04  0.28357835492E+03 -0.10774509872E+04  0.18316011096E+04  0.50400001928E-02 0. -1.
       -1    1    3    3    0  502  0.14537693460E+04 -0.28357835492E+03  0.99308991939E+03  0.17832805676E+04  0.50400001928E-02 0.  1.
</event>
<event>
 5   0  0.7514289E-08  0.3593039E+04  0.7818609E-02  0.8092088E-01
        1   -1    0    0  501    0  0.00000000000E+00  0.00000000000E+00  0.20836837250E+04  0.20836837250E+04  0.50400001928E-02 0. -1.
       -1   -1    0    0    0  501  0.00000000000E+00  0.00000000000E+00 -0.15489314216E+04  0.15489314216E+04  0.50400001928E-02 0.  1.
    10030    2    1    2    0    0  0.00000000000E+00  0.00000000000E+00  0.53475230342E+03  0.36326151467E+04  0.35930394902E+04 0.  0.
        4    1    3    3  502    0 -0.88044166969E+03  0.80405631367E+03  0.16259771263E+04  0.20163053632E+04  0.12699999809E+01 0. -1.
       -4    1    3    3    0  502  0.88044166969E+03 -0.80405631367E+03 -0.10912248229E+04  0.16163097835E+04  0.12699999809E+01 0.  1.
</event>
<event>
 5   0  0.2238968E-07  0.3357018E+04  0.7818609E-02  0.8148537E-01
        2   -1    0    0  501    0  0.00000000000E+00  0.00000000000E+00  0.15679785737E+04  0.15679785737E+04  0.25500000920E-02 0.  1.
       -2   -1    0    0    0  501  0.00000000000E+00  0.00000000000E+00 -0.17968313292E+04  0.17968313292E+04  0.25500000920E-02 0. -1.
    10030    2    1    2    0    0  0.00000000000E+00  0.00000000000E+00 -0.22885275554E+03  0.33648099029E+04  0.33570183346E+04 0.  0.
        3    1    3    3  502    0 -0.33546830925E+03  0.13259898218E+04  0.86076807461E+03  0.16160784890E+04  0.10100000352E+00 0.  1.
       -3    1    3    3    0  502  0.33546830925E+03 -0.13259898218E+04 -0.10896208302E+04  0.17487314139E+04  0.10100000352E+00 0. -1.
</event>
<event>
 5   0  0.2199902E-07  0.3611797E+04  0.7818609E-02  0.8087795E-01
       -2   -1    0    0    0  501  0.00000000000E+00  0.00000000000E+00  0.13549414462E+04  0.13549414462E+04  0.25500000920E-02 0.  1.
        2   -1    0    0  501    0  0.00000000000E+00  0.00000000000E+00 -0.24069445602E+04  0.24069445602E+04  0.25500000920E-02 0. -1.
    10030    2    1    2    0    0  0.00000000000E+00  0.00000000000E+00 -0.10520031139E+04  0.37618860064E+04  0.36117967514E+04 0.  0.
        1    1    3    3  502    0 -0.10538951506E+04 -0.59292533770E+03 -0.19230116356E+04  0.22716137865E+04  0.50400001928E-02 0. -1.
       -1    1    3    3    0  502  0.10538951506E+04  0.59292533770E+03  0.87100852167E+03  0.14902722199E+04  0.50400001928E-02 0.  1.
</event>
<event>
 5   0  0.7347303E-08  0.3541865E+04  0.7818609E-02  0.8103940E-01
       -1   -1    0    0    0  501  0.00000000000E+00  0.00000000000E+00  0.20249202646E+04  0.20249202646E+04  0.50400001928E-02 0.  1.
        1   -1    0    0  501    0  0.00000000000E+00  0.00000000000E+00 -0.15488023370E+04  0.15488023370E+04  0.50400001928E-02 0. -1.
    10030    2    1    2    0    0  0.00000000000E+00  0.00000000000E+00  0.47611792761E+03  0.35737226016E+04  0.35418646151E+04 0.  0.
        2    1    3    3  502    0 -0.15198049650E+04  0.69086840070E+03  0.83421599593E+03  0.18662857784E+04  0.25500000920E-02 0.  1.
       -2    1    3    3    0  502  0.15198049650E+04 -0.69086840070E+03 -0.35809806832E+03  0.17074368232E+04  0.25500000920E-02 0. -1.
</event>
<event>
 5   0  0.2342606E-07  0.3600940E+04  0.7818609E-02  0.8090276E-01
       -2   -1    0    0    0  501  0.00000000000E+00  0.00000000000E+00  0.16182537266E+04  0.16182537266E+04  0.25500000920E-02 0.  1.
        2   -1    0    0  501    0  0.00000000000E+00  0.00000000000E+00 -0.20032035082E+04  0.20032035082E+04  0.25500000920E-02 0. -1.
    10030    2    1    2    0    0  0.00000000000E+00  0.00000000000E+00 -0.38494978159E+03  0.36214572347E+04  0.36009396230E+04 0.  0.
        5    1    3    3  502    0  0.11263149524E+04  0.77905813418E+03 -0.13679599477E+04  0.19356790687E+04  0.46999998093E+01 0. -1.
       -5    1    3    3    0  502 -0.11263149524E+04 -0.77905813418E+03  0.98301016610E+03  0.16857781660E+04  0.46999998093E+01 0.  1.
</event>
<event>
 5   0  0.7236375E-08  0.3588709E+04  0.7818609E-02  0.8093083E-01
       -1   -1    0    0    0  501  0.00000000000E+00  0.00000000000E+00  0.16035083799E+04  0.16035083799E+04  0.50400001928E-02 0.  1.
        1   -1    0    0  501    0  0.00000000000E+00  0.00000000000E+00 -0.20079143186E+04  0.20079143187E+04  0.50400001928E-02 0. -1.
    10030    2    1    2    0    0  0.00000000000E+00  0.00000000000E+00 -0.40440593872E+03  0.36114226986E+04  0.35887086458E+04 0.  0.
        1    1    3    3  502    0  0.65106663708E+03  0.16643045027E+04 -0.36418820859E+03  0.18238504037E+04  0.50400001928E-02 0. -1.
       -1    1    3    3    0  502 -0.65106663708E+03 -0.16643045027E+04 -0.40217730137E+02  0.17875722949E+04  0.50400001928E-02 0.  1.
</event>
<event>
 5   0  0.2199902E-07  0.3587847E+04  0.7818609E-02  0.8093281E-01
        2   -1    0    0  501    0  0.00000000000E+00  0.00000000000E+00  0.14972801413E+04  0.14972801413E+04  0.25500000920E-02 0.  1.
       -2   -1    0    0    0  501  0.00000000000E+00  0.00000000000E+00 -0.21493382543E+04  0.21493382543E+04  0.25500000920E-02 0. -1.
    10030    2    1    2    0    0  0.00000000000E+00  0.00000000000E+00 -0.65205811299E+03  0.36466183956E+04  0.35878469784E+04 0.  0.
        1    1    3    3  502    0  0.43887902857E+03 -0.58768117916E+03 -0.19899710643E+04  0.21208415327E+04  0.50400001928E-02 0. -1.
       -1    1    3    3    0  502 -0.43887902857E+03  0.58768117916E+03  0.13379129513E+04  0.15257768629E+04  0.50400001928E-02 0.  1.
</event>
<event>
 5   0  0.2198900E-07  0.3599470E+04  0.7818609E-02  0.8090613E-01
        2   -1    0    0  501    0  0.00000000000E+00  0.00000000000E+00  0.18148476369E+04  0.18148476369E+04  0.25500000920E-02 0.  1.
       -2   -1    0    0    0  501  0.00000000000E+00  0.00000000000E+00 -0.17847484601E+04  0.17847484601E+04  0.25500000920E-02 0. -1.
    10030    2    1    2    0    0  0.00000000000E+00  0.00000000000E+00  0.30099176844E+02  0.35995960970E+04  0.35994702529E+04 0.  0.
        2    1    3    3  502    0 -0.17945248629E+04  0.34001915936E+01  0.15185890515E+03  0.18009420235E+04  0.25500000920E-02 0. -1.
       -2    1    3    3    0  502  0.17945248629E+04 -0.34001915936E+01 -0.12175972830E+03  0.17986540736E+04  0.25500000920E-02 0.  1.
</event>
<event>
 5   0  0.7236375E-08  0.3600435E+04  0.7818609E-02  0.8090392E-01
       -1   -1    0    0    0  501  0.00000000000E+00  0.00000000000E+00  0.17418522958E+04  0.17418522958E+04  0.50400001928E-02 0.  1.
        1   -1    0    0  501    0  0.00000000000E+00  0.00000000000E+00 -0.18605379295E+04  0.18605379295E+04  0.50400001928E-02 0. -1.
    10030    2    1    2    0    0  0.00000000000E+00  0.00000000000E+00 -0.11868563372E+03  0.36023902254E+04  0.36004345649E+04 0.  0.
        5    1    3    3  502    0  0.28920133715E+03  0.17767649344E+04 -0.44197597746E+02  0.18006961329E+04  0.46999998093E+01 0. -1.
       -5    1    3    3    0  502 -0.28920133715E+03 -0.17767649344E+04 -0.74488035970E+02  0.18016940925E+04  0.46999998093E+01 0.  1.
</event>
<event>
 5   0  0.7261233E-08  0.3561269E+04  0.7818609E-02  0.8099422E-01
        1   -1    0    0  501    0  0.00000000000E+00  0.00000000000E+00  0.17332929152E+04  0.17332929152E+04  0.50400001928E-02 0. -1.
       -1   -1    0    0    0  501  0.00000000000E+00  0.00000000000E+00 -0.18292691609E+04  0.18292691609E+04  0.50400001928E-02 0.  1.
    10030    2    1    2    0    0  0.00000000000E+00  0.00000000000E+00 -0.95976245727E+02  0.35625620761E+04  0.35612690303E+04 0.  0.
        3    1    3    3  502    0 -0.52694727025E+03 -0.16655967788E+04  0.29677190460E+03  0.17719931232E+04  0.10100000352E+00 0. -1.
       -3    1    3    3    0  502  0.52694727025E+03  0.16655967788E+04 -0.39274815033E+03  0.17905689529E+04  0.10100000352E+00 0.  1.
</event>
<event>
 5   0  0.2199902E-07  0.3603700E+04  0.7818609E-02  0.8089645E-01
       -2   -1    0    0    0  501  0.00000000000E+00  0.00000000000E+00  0.16078237997E+04  0.16078237997E+04  0.25500000920E-02 0. -1.
        2   -1    0    0  501    0  0.00000000000E+00  0.00000000000E+00 -0.20192904553E+04  0.20192904553E+04  0.25500000920E-02 0.  1.
    10030    2    1    2    0    0  0.00000000000E+00  0.00000000000E+00 -0.41146665557E+03  0.36271142550E+04  0.36036999057E+04 0.  0.
        1    1    3    3  502    0 -0.15306317577E+04 -0.81509929435E+03 -0.69824159269E+03  0.18694281904E+04  0.50400001928E-02 0.  1.
       -1    1    3    3    0  502  0.15306317577E+04  0.81509929435E+03  0.28677493712E+03  0.17576860646E+04  0.50400001928E-02 0. -1.
</event>
<event>
 5   0  0.2342606E-07  0.3607665E+04  0.7818609E-02  0.8088738E-01
       -2   -1    0    0    0  501  0.00000000000E+00  0.00000000000E+00  0.13192073301E+04  0.13192073301E+04  0.25500000920E-02 0.  1.
        2   -1    0    0  501    0  0.00000000000E+00  0.00000000000E+00 -0.24664898803E+04  0.24664898803E+04  0.25500000920E-02 0. -1.
    10030    2    1    2    0    0  0.00000000000E+00  0.00000000000E+00 -0.11472825503E+04  0.37856972104E+04  0.36076649122E+04 0.  0.
        5    1    3    3  502    0 -0.31844711891E+03 -0.47343698400E+03 -0.23692962392E+04  0.24370346539E+04  0.46999998093E+01 0. -1.
       -5    1    3    3    0  502  0.31844711891E+03  0.47343698400E+03  0.12220136889E+04  0.13486625565E+04  0.46999998093E+01 0.  1.
</event>
<event>
 5   0  0.7236375E-08  0.3602272E+04  0.7818609E-02  0.8089972E-01
       -1   -1    0    0    0  501  0.00000000000E+00  0.00000000000E+00  0.10955830205E+04  0.10955830205E+04  0.50400001928E-02 0. -1.
        1   -1    0    0  501    0  0.00000000000E+00  0.00000000000E+00 -0.29610629720E+04  0.29610629720E+04  0.50400001928E-02 0.  1.
    10030    2    1    2    0    0  0.00000000000E+00  0.00000000000E+00 -0.18654799515E+04  0.40566459925E+04  0.36022716803E+04 0.  0.
        5    1    3    3  502    0  0.52940224582E+03 -0.70713241355E+03  0.83488572673E+03  0.12154666819E+04  0.46999998093E+01 0. -1.
       -5    1    3    3    0  502 -0.52940224582E+03  0.70713241355E+03 -0.27003656783E+04  0.28411793105E+04  0.46999998093E+01 0.  1.
</event>
<event>
 5   0  0.2199902E-07  0.3607660E+04  0.7818609E-02  0.8088739E-01
        2   -1    0    0  501    0  0.00000000000E+00  0.00000000000E+00  0.25977939674E+04  0.25977939674E+04  0.25500000920E-02 0. -1.
       -2   -1    0    0    0  501  0.00000000000E+00  0.00000000000E+00 -0.12525249953E+04  0.12525249953E+04  0.25500000920E-02 0.  1.
    10030    2    1    2    0    0  0.00000000000E+00  0.00000000000E+00  0.13452689721E+04  0.38503189627E+04  0.36076595609E+04 0.  0.
        1    1    3    3  502    0  0.31687500979E+03 -0.10693778794E+04 -0.84040433756E+03  0.13965164773E+04  0.50400001928E-02 0.  1.
       -1    1    3    3    0  502 -0.31687500979E+03  0.10693778794E+04  0.21856733097E+04  0.24538024854E+04  0.50400001928E-02 0. -1.
</event>
<event>
 5   0  0.7236375E-08  0.3601906E+04  0.7818609E-02  0.8090055E-01
        1   -1    0    0  501    0  0.00000000000E+00  0.00000000000E+00  0.19063358503E+04  0.19063358503E+04  0.50400001928E-02 0. -1.
       -1   -1    0    0    0  501  0.00000000000E+00  0.00000000000E+00 -0.17013959098E+04  0.17013959099E+04  0.50400001928E-02 0.  1.
    10030    2    1    2    0    0  0.00000000000E+00  0.00000000000E+00  0.20493994041E+03  0.36077317601E+04  0.36019061723E+04 0.  0.
        1    1    3    3  502    0 -0.57530707222E+03  0.37398747637E+03  0.17702718074E+04  0.18986066291E+04  0.50400001928E-02 0. -1.
       -1    1    3    3    0  502  0.57530707222E+03 -0.37398747637E+03 -0.15653318670E+04  0.17091251311E+04  0.50400001928E-02 0.  1.
</event>
<event>
 5   0  0.2238968E-07  0.3615334E+04  0.7818609E-02  0.8086988E-01
        2   -1    0    0  501    0  0.00000000000E+00  0.00000000000E+00  0.18066300412E+04  0.18066300412E+04  0.25500000920E-02 0. -1.
       -2   -1    0    0    0  501  0.00000000000E+00  0.00000000000E+00 -0.18087044473E+04  0.18087044473E+04  0.25500000920E-02 0.  1.
    10030    2    1    2    0    0  0.00000000000E+00  0.00000000000E+00 -0.20744061427E+01  0.36153344885E+04  0.36153338933E+04 0.  0.
        3    1    3    3  502    0  0.15013484154E+04 -0.49651950054E+03 -0.87686900978E+03  0.18081697789E+04  0.10100000352E+00 0.  1.
       -3    1    3    3    0  502 -0.15013484154E+04  0.49651950054E+03  0.87479460364E+03  0.18071647096E+04  0.10100000352E+00 0. -1.
</event>
<event>
 5   0  0.2309391E-07  0.3682686E+04  0.7818609E-02  0.8071810E-01
       -2   -1    0    0    0  501  0.00000000000E+00  0.00000000000E+00  0.14014810361E+04  0.14014810361E+04  0.25500000920E-02 0. -1.
        2   -1    0    0  501    0  0.00000000000E+00  0.00000000000E+00 -0.24192575220E+04  0.24192575220E+04  0.25500000920E-02 0.  1.
    10030    2    1    2    0    0  0.00000000000E+00  0.00000000000E+00 -0.10177764859E+04  0.38207385581E+04  0.36826857256E+04 0.  0.
        4    1    3    3  502    0  0.20379491604E+03 -0.14222918555E+04  0.68584253772E+03  0.15921143456E+04  0.12699999809E+01 0. -1.
       -4    1    3    3    0  502 -0.20379491604E+03  0.14222918555E+04 -0.17036190236E+04  0.22286242125E+04  0.12699999809E+01 0.  1.
</event>
<event>
 5   0  0.2198900E-07  0.3591821E+04  0.7818609E-02  0.8092368E-01
       -2   -1    0    0    0  501  0.00000000000E+00  0.00000000000E+00  0.15110857025E+04  0.15110857025E+04  0.25500000920E-02 0. -1.
        2   -1    0    0  501    0  0.00000000000E+00  0.00000000000E+00 -0.21344215109E+04  0.21344215109E+04  0.25500000920E-02 0.  1.
    10030    2    1    2    0    0  0.00000000000E+00  0.00000000000E+00 -0.62333580846E+03  0.36455072134E+04  0.35918206125E+04 0.  0.
        2    1    3    3  502    0  0.52582362276E+03  0.17171329409E+04 -0.32796433134E+03  0.18255400904E+04  0.25500000920E-02 0.  1.
       -2    1    3    3    0  502 -0.52582362276E+03 -0.17171329409E+04 -0.29537147713E+03  0.18199671229E+04  0.25500000920E-02 0. -1.
</event>
<event>
 5   0  0.2198900E-07  0.3597559E+04  0.7818609E-02  0.8091051E-01
        2   -1    0    0  501    0  0.00000000000E+00  0.00000000000E+00  0.17772037379E+04  0.17772037379E+04  0.25500000920E-02 0. -1.
       -2   -1    0    0    0  501  0.00000000000E+00  0.00000000000E+00 -0.18206173588E+04  0.18206173588E+04  0.25500000920E-02 0.  1.
    10030    2    1    2    0    0  0.00000000000E+00  0.00000000000E+00 -0.43413620901E+02  0.35978210968E+04  0.35975591589E+04 0.  0.
        2    1    3    3  502    0  0.14311377324E+04 -0.33887494227E+03 -0.10574542409E+04  0.18114085423E+04  0.25500000920E-02 0.  1.
       -2    1    3    3    0  502 -0.14311377324E+04  0.33887494227E+03  0.10140406200E+04  0.17864125544E+04  0.25500000920E-02 0. -1.
</event>
<event>
 5   0  0.2199902E-07  0.3599903E+04  0.7818609E-02  0.8090514E-01
       -2   -1    0    0    0  501  0.00000000000E+00  0.00000000000E+00  0.21546476342E+04  0.21546476342E+04  0.25500000920E-02 0.  1.
        2   -1    0    0  501    0  0.00000000000E+00  0.00000000000E+00 -0.15036454046E+04  0.15036454046E+04  0.25500000920E-02 0. -1.
    10030    2    1    2    0    0  0.00000000000E+00  0.00000000000E+00  0.65100222957E+03  0.36582930388E+04  0.35999033396E+04 0.  0.
        1    1    3    3  502    0 -0.20136953675E+03 -0.55060522098E+03  0.20549000750E+04  0.21368973111E+04  0.50400001928E-02 0.  1.
       -1    1    3    3    0  502  0.20136953675E+03  0.55060522098E+03 -0.14038978455E+04  0.15213957277E+04  0.50400001928E-02 0. -1.
</event>
<event>
 5   0  0.7236375E-08  0.3571276E+04  0.7818609E-02  0.8097103E-01
        1   -1    0    0  501    0  0.00000000000E+00  0.00000000000E+00  0.20619627361E+04  0.20619627361E+04  0.50400001928E-02 0. -1.
       -1   -1    0    0    0  501  0.00000000000E+00  0.00000000000E+00 -0.15463439295E+04  0.15463439295E+04  0.50400001928E-02 0.  1.
    10030    2    1    2    0    0  0.00000000000E+00  0.00000000000E+00  0.51561880657E+03  0.36083066656E+04  0.35712762760E+04 0.  0.
        5    1    3    3  502    0  0.13155137747E+04  0.12069629340E+04  0.29200489919E+03  0.18090397913E+04  0.46999998093E+01 0. -1.
       -5    1    3    3    0  502 -0.13155137747E+04 -0.12069629340E+04  0.22361390737E+03  0.17992668743E+04  0.46999998093E+01 0.  1.
</event>
<event>
 5   0  0.7236375E-08  0.3532236E+04  0.7818609E-02  0.8106193E-01
        1   -1    0    0  501    0  0.00000000000E+00  0.00000000000E+00  0.14398664910E+04  0.14398664910E+04  0.50400001928E-02 0. -1.
       -1   -1    0    0    0  501  0.00000000000E+00  0.00000000000E+00 -0.21662928152E+04  0.21662928152E+04  0.50400001928E-02 0.  1.
    10030    2    1    2    0    0  0.00000000000E+00  0.00000000000E+00 -0.72642632424E+03  0.36061593062E+04  0.35322357986E+04 0.  0.
        1    1    3    3  502    0  0.12901703577E+04  0.40989664522E+03  0.79481725900E+03  0.15698054933E+04  0.50400001928E-02 0. -1.
       -1    1    3    3    0  502 -0.12901703577E+04 -0.40989664522E+03 -0.15212435832E+04  0.20363538129E+04  0.50400001928E-02 0.  1.
</event>
<event>
 5   0  0.2199902E-07  0.3602023E+04  0.7818609E-02  0.8090028E-01
        2   -1    0    0  501    0  0.00000000000E+00  0.00000000000E+00  0.19300883265E+04  0.19300883265E+04  0.25500000920E-02 0.  1.
       -2   -1    0    0    0  501  0.00000000000E+00  0.00000000000E+00 -0.16805671754E+04  0.16805671754E+04  0.25500000920E-02 0. -1.
    10030    2    1    2    0    0  0.00000000000E+00  0.00000000000E+00  0.24952115115E+03  0.36106555019E+04  0.36020233686E+04 0.  0.
        1    1    3    3  502    0 -0.73983738520E+03  0.13951196309E+03 -0.15152593458E+04  0.16919910844E+04  0.50400001928E-02 0. -1.
       -1    1    3    3    0  502  0.73983738520E+03 -0.13951196309E+03  0.17647804970E+04  0.19186644175E+04  0.50400001928E-02 0.  1.
</event>
<event>
 5   0  0.7347303E-08  0.3596752E+04  0.7818609E-02  0.8091236E-01
       -1   -1    0    0    0  501  0.00000000000E+00  0.00000000000E+00  0.24320524115E+04  0.24320524116E+04  0.50400001928E-02 0.  1.
        1   -1    0    0  501    0  0.00000000000E+00  0.00000000000E+00 -0.13298055558E+04  0.13298055558E+04  0.50400001928E-02 0. -1.
    10030    2    1    2    0    0  0.00000000000E+00  0.00000000000E+00  0.11022468557E+04  0.37618579674E+04  0.35967523178E+04 0.  0.
        2    1    3    3  502    0 -0.16444365657E+04  0.43028332596E+03 -0.63064948628E+02  0.17009681205E+04  0.25500000920E-02 0. -1.
       -2    1    3    3    0  502  0.16444365657E+04 -0.43028332596E+03  0.11653118044E+04  0.20608898468E+04  0.25500000920E-02 0.  1.
</event>
<event>
 5   0  0.7261233E-08  0.3602457E+04  0.7818609E-02  0.8089929E-01
       -1   -1    0    0    0  501  0.00000000000E+00  0.00000000000E+00  0.12815052974E+04  0.12815052975E+04  0.50400001928E-02 0.  1.
        1   -1    0    0  501    0  0.00000000000E+00  0.00000000000E+00 -0.25317283813E+04  0.25317283813E+04  0.50400001928E-02 0. -1.
    10030    2    1    2    0    0  0.00000000000E+00  0.00000000000E+00 -0.12502230839E+04  0.38132336788E+04  0.36024565687E+04 0.  0.
        3    1    3    3  502    0 -0.49960578088E+02 -0.13744290741E+04 -0.18562956978E+04  0.23102781363E+04  0.10100000352E+00 0. -1.
       -3    1    3    3    0  502  0.49960578088E+02  0.13744290741E+04  0.60607261392E+03  0.15029555425E+04  0.10100000352E+00 0.  1.
</event>
<event>
 5   0  0.7514289E-08  0.3597892E+04  0.7818609E-02  0.8090975E-01
        1   -1    0    0  501    0  0.00000000000E+00  0.00000000000E+00  0.23557557078E+04  0.23557557078E+04  0.50400001928E-02 0. -1.
       -1   -1    0    0    0  501  0.00000000000E+00  0.00000000000E+00 -0.13737449702E+04  0.13737449702E+04  0.50400001928E-02 0.  1.
    10030    2    1    2    0    0  0.00000000000E+00  0.00000000000E+00  0.98201073755E+03  0.37295006780E+04  0.35978924690E+04 0.  0.
        4    1    3    3  502    0  0.61919680237E+03  0.16831876984E+04  0.63642392994E+03  0.19030403410E+04  0.12699999809E+01 0. -1.
       -4    1    3    3    0  502 -0.61919680237E+03 -0.16831876984E+04  0.34558680761E+03  0.18264603370E+04  0.12699999809E+01 0.  1.
</event>
<event>
 5   0  0.2199902E-07  0.3591642E+04  0.7818609E-02  0.8092409E-01
       -2   -1    0    0    0  501  0.00000000000E+00  0.00000000000E+00  0.16101398150E+04  0.16101398150E+04  0.25500000920E-02 0. -1.
        2   -1    0    0  501    0  0.00000000000E+00  0.00000000000E+00 -0.20029149457E+04  0.20029149457E+04  0.25500000920E-02 0.  1.
    10030    2    1    2    0    0  0.00000000000E+00  0.00000000000E+00 -0.39277513078E+03  0.36130547607E+04  0.35916420201E+04 0.  0.
        1    1    3    3  502    0 -0.53431741710E+03 -0.10883478194E+04 -0.15290409828E+04  0.19514001141E+04  0.50400001928E-02 0.  1.
       -1    1    3    3    0  502  0.53431741710E+03  0.10883478194E+04  0.11362658520E+04  0.16616546466E+04  0.50400001928E-02 0. -1.
</event>
<event>
 5   0  0.7347303E-08  0.3529906E+04  0.7818609E-02  0.8106739E-01
       -1   -1    0    0    0  501  0.00000000000E+00  0.00000000000E+00  0.13949714842E+04  0.13949714843E+04  0.50400001928E-02 0. -1.
        1   -1    0    0  501    0  0.00000000000E+00  0.00000000000E+00 -0.22330630875E+04  0.22330630876E+04  0.50400001928E-02 0.  1.
    10030    2    1    2    0    0  0.00000000000E+00  0.00000000000E+00 -0.83809160330E+03  0.36280345718E+04  0.35299061345E+04 0.  0.
        2    1    3    3  502    0 -0.15643645754E+03  0.14183445726E+04  0.64852322650E+03  0.15674042450E+04  0.25500000920E-02 0. -1.
       -2    1    3    3    0  502  0.15643645754E+03 -0.14183445726E+04 -0.14866148298E+04  0.20606303269E+04  0.25500000920E-02 0.  1.
</event>
<event>
 5   0  0.7236375E-08  0.3605635E+04  0.7818609E-02  0.8089202E-01
       -1   -1    0    0    0  501  0.00000000000E+00  0.00000000000E+00  0.14257088254E+04  0.14257088254E+04  0.50400001928E-02 0. -1.
        1   -1    0    0  501    0  0.00000000000E+00  0.00000000000E+00 -0.22796738705E+04  0.22796738705E+04  0.50400001928E-02 0.  1.
    10030    2    1    2    0    0  0.00000000000E+00  0.00000000000E+00 -0.85396504512E+03  0.37053826959E+04  0.36056351209E+04 0.  0.
        5    1    3    3  502    0  0.13105992744E+04 -0.61642773508E+03 -0.15302152485E+04  0.21069490757E+04  0.46999998093E+01 0.  1.
       -5    1    3    3    0  502 -0.13105992744E+04  0.61642773508E+03  0.67625020342E+03  0.15984336202E+04  0.46999998093E+01 0. -1.
</event>
<event>
 5   0  0.7236375E-08  0.3608679E+04  0.7818609E-02  0.8088507E-01
        1   -1    0    0  501    0  0.00000000000E+00  0.00000000000E+00  0.11011498353E+04  0.11011498353E+04  0.50400001928E-02 0. -1.
       -1   -1    0    0    0  501  0.00000000000E+00  0.00000000000E+00 -0.29565833318E+04  0.29565833318E+04  0.50400001928E-02 0.  1.
    10030    2    1    2    0    0  0.00000000000E+00  0.00000000000E+00 -0.18554334965E+04  0.40577331671E+04  0.36086791206E+04 0.  0.
        5    1    3    3  502    0  0.37733689113E+02 -0.18018124450E+04 -0.82925789657E+03  0.19838454242E+04  0.46999998093E+01 0.  1.
       -5    1    3    3    0  502 -0.37733689113E+02  0.18018124450E+04 -0.10261755999E+04  0.20738877429E+04  0.46999998093E+01 0. -1.
</event>
<event>
 5   0  0.2199902E-07  0.3514112E+04  0.7818609E-02  0.8110454E-01
        2   -1    0    0  501    0  0.00000000000E+00  0.00000000000E+00  0.17326765618E+04  0.17326765618E+04  0.25500000920E-02 0. -1.
       -2   -1    0    0    0  501  0.00000000000E+00  0.00000000000E+00 -0.17817787204E+04  0.17817787204E+04  0.25500000920E-02 0.  1.
    10030    2    1    2    0    0  0.00000000000E+00  0.00000000000E+00 -0.49102158577E+02  0.35144552822E+04  0.35141122504E+04 0.  0.
        1    1    3    3  502    0 -0.16176865840E+04  0.15182544521E+03  0.64430817758E+03  0.17478826841E+04  0.50400001928E-02 0. -1.
       -1    1    3    3    0  502  0.16176865840E+04 -0.15182544521E+03 -0.69341033616E+03  0.17665725980E+04  0.50400001928E-02 0.  1.
</event>
<event>
 5   0  0.7236375E-08  0.3624955E+04  0.7818609E-02  0.8084799E-01
       -1   -1    0    0    0  501  0.00000000000E+00  0.00000000000E+00  0.21219620101E+04  0.21219620101E+04  0.50400001928E-02 0. -1.
        1   -1    0    0  501    0  0.00000000000E+00  0.00000000000E+00 -0.15481307453E+04  0.15481307453E+04  0.50400001928E-02 0.  1.
    10030    2    1    2    0    0  0.00000000000E+00  0.00000000000E+00  0.57383126477E+03  0.36700927554E+04  0.36249549670E+04 0.  0.
        5    1    3    3  502    0  0.14463715897E+04 -0.88295920522E+03  0.93791893866E+03  0.19368329198E+04  0.46999998093E+01 0. -1.
       -5    1    3    3    0  502 -0.14463715897E+04  0.88295920522E+03 -0.36408767389E+03  0.17332598357E+04  0.46999998093E+01 0.  1.
</event>
<event>
 5   0  0.2198900E-07  0.3573517E+04  0.7818609E-02  0.8096585E-01
       -2   -1    0    0    0  501  0.00000000000E+00  0.00000000000E+00  0.16561190085E+04  0.16561190085E+04  0.25500000920E-02 0.  1.
        2   -1    0    0  501    0  0.00000000000E+00  0.00000000000E+00 -0.19277034131E+04  0.19277034131E+04  0.25500000920E-02 0. -1.
    10030    2    1    2    0    0  0.00000000000E+00  0.00000000000E+00 -0.27158440460E+03  0.35838224217E+04  0.35735171836E+04 0.  0.
        2    1    3    3  502    0  0.57224087375E+03  0.12876022294E+04  0.96606956940E+03  0.17084114059E+04  0.25500000920E-02 0.  1.
       -2    1    3    3    0  502 -0.57224087375E+03 -0.12876022294E+04 -0.12376539740E+04  0.18754110158E+04  0.25500000920E-02 0. -1.
</event>
<event>
 5   0  0.7347303E-08  0.3614835E+04  0.7818609E-02  0.8087102E-01
        1   -1    0    0  501    0  0.00000000000E+00  0.00000000000E+00  0.22067428785E+04  0.22067428785E+04  0.50400001928E-02 0.  1.
       -1   -1    0    0    0  501  0.00000000000E+00  0.00000000000E+00 -0.14803529123E+04  0.14803529123E+04  0.50400001928E-02 0. -1.
    10030    2    1    2    0    0  0.00000000000E+00  0.00000000000E+00  0.72638996615E+03  0.36870957908E+04  0.36148351259E+04 0.  0.
        2    1    3    3  502    0  0.28559675919E+03  0.13992098328E+04  0.14932245246E+04  0.20661735517E+04  0.25500000920E-02 0.  1.
       -2    1    3    3    0  502 -0.28559675919E+03 -0.13992098328E+04 -0.76683455842E+03  0.16209222391E+04  0.25500000920E-02 0. -1.
</event>
<event>
 5   0  0.2342606E-07  0.3617710E+04  0.7818609E-02  0.8086447E-01
        2   -1    0    0  501    0  0.00000000000E+00  0.00000000000E+00  0.19804947763E+04  0.19804947763E+04  0.25500000920E-02 0.  1.
       -2   -1    0    0    0  501  0.00000000000E+00  0.00000000000E+00 -0.16520906137E+04  0.16520906137E+04  0.25500000920E-02 0. -1.
    10030    2    1    2    0    0  0.00000000000E+00  0.00000000000E+00  0.32840416259E+03  0.36325853900E+04  0.36177102319E+04 0.  0.
        5    1    3    3  502    0  0.13874875603E+04  0.11478434136E+04  0.33598593737E+03  0.18318228278E+04  0.46999998093E+01 0.  1.
       -5    1    3    3    0  502 -0.13874875603E+04 -0.11478434136E+04 -0.75817747780E+01  0.18007625622E+04  0.46999998093E+01 0. -1.
</event>
<event>
 5   0  0.2309391E-07  0.3471340E+04  0.7818609E-02  0.8120616E-01
        2   -1    0    0  501    0  0.00000000000E+00  0.00000000000E+00  0.20343907811E+04  0.20343907811E+04  0.25500000920E-02 0. -1.
       -2   -1    0    0    0  501  0.00000000000E+00  0.00000000000E+00 -0.14808118106E+04  0.14808118106E+04  0.25500000920E-02 0.  1.
    10030    2    1    2    0    0  0.00000000000E+00  0.00000000000E+00  0.55357897047E+03  0.35152025916E+04  0.34713397390E+04 0.  0.
        4    1    3    3  502    0  0.75326063664E+03  0.11578282830E+03  0.18558977308E+04  0.20062814484E+04  0.12699999809E+01 0. -1.
       -4    1    3    3    0  502 -0.75326063664E+03 -0.11578282830E+03 -0.13023187603E+04  0.15089211432E+04  0.12699999809E+01 0.  1.
</event>
<event>
 5   0  0.2309391E-07  0.3596058E+04  0.7818609E-02  0.8091395E-01
        2   -1    0    0  501    0  0.00000000000E+00  0.00000000000E+00  0.30108116801E+04  0.30108116801E+04  0.25500000920E-02 0. -1.
       -2   -1    0    0    0  501  0.00000000000E+00  0.00000000000E+00 -0.10737661235E+04  0.10737661235E+04  0.25500000920E-02 0.  1.
    10030    2    1    2    0    0  0.00000000000E+00  0.00000000000E+00  0.19370455565E+04  0.40845778036E+04  0.35960576116E+04 0.  0.
        4    1    3    3  502    0  0.91182938300E+02 -0.12536324803E+04  0.24288715766E+04  0.27348359132E+04  0.12699999809E+01 0. -1.
       -4    1    3    3    0  502 -0.91182938300E+02  0.12536324803E+04 -0.49182602000E+03  0.13497418904E+04  0.12699999809E+01 0.  1.
</event>
<event>
 5   0  0.7236375E-08  0.3578363E+04  0.7818609E-02  0.8095466E-01
       -3   -1    0    0    0  501  0.00000000000E+00  0.00000000000E+00  0.22019018021E+04  0.22019018044E+04  0.10100000352E+00 0.  1.
        3   -1    0    0  501    0  0.00000000000E+00  0.00000000000E+00 -0.14538210779E+04  0.14538210814E+04  0.10100000352E+00 0. -1.
    10030    2    1    2    0    0  0.00000000000E+00  0.00000000000E+00  0.74808072416E+03  0.36557228858E+04  0.35783634595E+04 0.  0.
        2    1    3    3  502    0  0.47823959109E+03  0.13391194883E+04 -0.73535337763E+03  0.16008431217E+04  0.25500000920E-02 0. -1.
       -2    1    3    3    0  502 -0.47823959109E+03 -0.13391194883E+04  0.14834341018E+04  0.20548797641E+04  0.25500000920E-02 0.  1.
</event>
<event>
 5   0  0.7236375E-08  0.3562222E+04  0.7818609E-02  0.8099200E-01
        3   -1    0    0  501    0  0.00000000000E+00  0.00000000000E+00  0.18282724944E+04  0.18282724972E+04  0.10100000352E+00 0. -1.
       -3   -1    0    0    0  501  0.00000000000E+00  0.00000000000E+00 -0.17351665087E+04  0.17351665117E+04  0.10100000352E+00 0.  1.
    10030    2    1    2    0    0  0.00000000000E+00  0.00000000000E+00  0.93105985701E+02  0.35634390089E+04  0.35622224587E+04 0.  0.
        3    1    3    3  502    0  0.42229408892E+03 -0.31503878412E+03 -0.16554320308E+04  0.17372498242E+04  0.10100000352E+00 0.  1.
       -3    1    3    3    0  502 -0.42229408892E+03  0.31503878412E+03  0.17485380165E+04  0.18261891847E+04  0.10100000352E+00 0. -1.
</event>
<event>
 5   0  0.7236375E-08  0.3615461E+04  0.7818609E-02  0.8086959E-01
        1   -1    0    0  501    0  0.00000000000E+00  0.00000000000E+00  0.22722756657E+04  0.22722756657E+04  0.50400001928E-02 0.  1.
       -1   -1    0    0    0  501  0.00000000000E+00  0.00000000000E+00 -0.14381570555E+04  0.14381570555E+04  0.50400001928E-02 0. -1.
    10030    2    1    2    0    0  0.00000000000E+00  0.00000000000E+00  0.83411861019E+03  0.37104327211E+04  0.36154608450E+04 0.  0.
        5    1    3    3  502    0 -0.15831986258E+04 -0.24143847496E+03  0.12775696472E+04  0.20486621780E+04  0.46999998093E+01 0.  1.
       -5    1    3    3    0  502  0.15831986258E+04  0.24143847496E+03 -0.44345103702E+03  0.16617705432E+04  0.46999998093E+01 0. -1.
</event>
<event>
 5   0  0.2309391E-07  0.3599353E+04  0.7818609E-02  0.8090640E-01
       -2   -1    0    0    0  501  0.00000000000E+00  0.00000000000E+00  0.11912736358E+04  0.11912736358E+04  0.25500000920E-02 0.  1.
        2   -1    0    0  501    0  0.00000000000E+00  0.00000000000E+00 -0.27188010969E+04  0.27188010969E+04  0.25500000920E-02 0. -1.
    10030    2    1    2    0    0  0.00000000000E+00  0.00000000000E+00 -0.15275274611E+04  0.39100747327E+04  0.35993533129E+04 0.  0.
        4    1    3    3  502    0 -0.42839835912E+03  0.14810168954E+04  0.24476570892E+03  0.15610406989E+04  0.12699999809E+01 0.  1.
       -4    1    3    3    0  502  0.42839835912E+03 -0.14810168954E+04 -0.17722931700E+04  0.23490340338E+04  0.12699999809E+01 0. -1.
</event>
<event>
 5   0  0.2342606E-07  0.3630767E+04  0.7818609E-02  0.8083480E-01
        2   -1    0    0  501    0  0.00000000000E+00  0.00000000000E+00  0.22889769029E+04  0.22889769029E+04  0.25500000920E-02 0. -1.
       -2   -1    0    0    0  501  0.00000000000E+00  0.00000000000E+00 -0.14397771178E+04  0.14397771178E+04  0.25500000920E-02 0.  1.
    10030    2    1    2    0    0  0.00000000000E+00  0.00000000000E+00  0.84919978507E+03  0.37287540208E+04  0.36307666232E+04 0.  0.
        5    1    3    3  502    0 -0.15956386460E+04  0.41390044029E+03  0.12055284138E+04  0.20422284666E+04  0.46999998093E+01 0.  1.
       -5    1    3    3    0  502  0.15956386460E+04 -0.41390044029E+03 -0.35632862873E+03  0.16865255542E+04  0.46999998093E+01 0. -1.
</event>
<event>
 5   0  0.7236375E-08  0.3586891E+04  0.7818609E-02  0.8093501E-01
        1   -1    0    0  501    0  0.00000000000E+00  0.00000000000E+00  0.13044858146E+04  0.13044858146E+04  0.50400001928E-02 0. -1.
       -1   -1    0    0    0  501  0.00000000000E+00  0.00000000000E+00 -0.24656821467E+04  0.24656821467E+04  0.50400001928E-02 0.  1.
    10030    2    1    2    0    0  0.00000000000E+00  0.00000000000E+00 -0.11611963321E+04  0.37701679613E+04  0.35868913469E+04 0.  0.
        5    1    3    3  502    0 -0.89668149975E+03  0.39390482068E+03  0.99857608618E+03  0.13987047614E+04  0.46999998093E+01 0. -1.
       -5    1    3    3    0  502  0.89668149975E+03 -0.39390482068E+03 -0.21597724182E+04  0.23714631999E+04  0.46999998093E+01 0.  1.
</event>
<event>
 5   0  0.2309391E-07  0.3604502E+04  0.7818609E-02  0.8089461E-01
        2   -1    0    0  501    0  0.00000000000E+00  0.00000000000E+00  0.20951489368E+04  0.20951489368E+04  0.25500000920E-02 0. -1.
       -2   -1    0    0    0  501  0.00000000000E+00  0.00000000000E+00 -0.15502997280E+04  0.15502997280E+04  0.25500000920E-02 0.  1.
    10030    2    1    2    0    0  0.00000000000E+00  0.00000000000E+00  0.54484920878E+03  0.36454486648E+04  0.36045020887E+04 0.  0.
        4    1    3    3  502    0  0.97721156145E+03 -0.13664632400E+04 -0.38763239981E+03  0.17240721309E+04  0.12699999809E+01 0. -1.
       -4    1    3    3    0  502 -0.97721156145E+03  0.13664632400E+04  0.93248160858E+03  0.19213765340E+04  0.12699999809E+01 0.  1.
</event>
<event>
 5   0  0.2199902E-07  0.3601753E+04  0.7818609E-02  0.8090090E-01
        2   -1    0    0  501    0  0.00000000000E+00  0.00000000000E+00  0.10704083586E+04  0.10704083586E+04  0.25500000920E-02 0. -1.
       -2   -1    0    0    0  501  0.00000000000E+00  0.00000000000E+00 -0.30298303343E+04  0.30298303343E+04  0.25500000920E-02 0.  1.
    10030    2    1    2    0    0  0.00000000000E+00  0.00000000000E+00 -0.19594219757E+04  0.41002386928E+04  0.36017527482E+04 0.  0.
        1    1    3    3  502    0  0.57357423313E+03  0.41991828955E+03 -0.28633558839E+04  0.29502755276E+04  0.50400001928E-02 0.  1.
       -1    1    3    3    0  502 -0.57357423313E+03 -0.41991828955E+03  0.90393390826E+03  0.11499631652E+04  0.50400001928E-02 0. -1.
</event>
<event>
 5   0  0.7261233E-08  0.3594952E+04  0.7818609E-02  0.8091649E-01
        1   -1    0    0  501    0  0.00000000000E+00  0.00000000000E+00  0.24026127526E+04  0.24026127526E+04  0.50400001928E-02 0. -1.
       -1   -1    0    0    0  501  0.00000000000E+00  0.00000000000E+00 -0.13447530040E+04  0.13447530040E+04  0.50400001928E-02 0.  1.
    10030    2    1    2    0    0  0.00000000000E+00  0.00000000000E+00  0.10578597486E+04  0.37473657566E+04  0.35949524150E+04 0.  0.
        3    1    3    3  502    0 -0.64523818935E+03  0.11761983944E+04 -0.71809428146E+03  0.15216551486E+04  0.10100000352E+00 0.  1.
       -3    1    3    3    0  502  0.64523818935E+03 -0.11761983944E+04  0.17759540300E+04  0.22257106081E+04  0.10100000352E+00 0. -1.
</event>
<event>
 5   0  0.2238968E-07  0.3604231E+04  0.7818609E-02  0.8089523E-01
        2   -1    0    0  501    0  0.00000000000E+00  0.00000000000E+00  0.18282247234E+04  0.18282247234E+04  0.25500000920E-02 0. -1.
       -2   -1    0    0    0  501  0.00000000000E+00  0.00000000000E+00 -0.17763789372E+04  0.17763789372E+04  0.25500000920E-02 0.  1.
    10030    2    1    2    0    0  0.00000000000E+00  0.00000000000E+00  0.51845786247E+02  0.36046036606E+04  0.36042307868E+04 0.  0.
        3    1    3    3  502    0 -0.13022758946E+04  0.20902995679E+03  0.12540580193E+04  0.18199663608E+04  0.10100000352E+00 0. -1.
       -3    1    3    3    0  502  0.13022758946E+04 -0.20902995679E+03 -0.12022122330E+04  0.17846372998E+04  0.10100000352E+00 0.  1.
</event>
<event>
 5   0  0.7261233E-08  0.3630684E+04  0.7818609E-02  0.8083499E-01
        1   -1    0    0  501    0  0.00000000000E+00  0.00000000000E+00  0.22863787769E+04  0.22863787769E+04  0.50400001928E-02 0. -1.
       -1   -1    0    0    0  501  0.00000000000E+00  0.00000000000E+00 -0.14413473648E+04  0.14413473648E+04  0.50400001928E-02 0.  1.
    10030    2    1    2    0    0  0.00000000000E+00  0.00000000000E+00  0.84503141208E+03  0.37277261418E+04  0.36306836960E+04 0.  0.
        3    1    3    3  502    0 -0.78645133433E+01  0.21054412681E+03 -0.14287514701E+04  0.14442027051E+04  0.10100000352E+00 0.  1.
       -3    1    3    3    0  502  0.78645133433E+01 -0.21054412681E+03  0.22737828822E+04  0.22835234366E+04  0.10100000352E+00 0. -1.
</event>
<event>
 5   0  0.7236375E-08  0.3648098E+04  0.7818609E-02  0.8079562E-01
       -1   -1    0    0    0  501  0.00000000000E+00  0.00000000000E+00  0.18029992174E+04  0.18029992174E+04  0.50400001928E-02 0. -1.
        1   -1    0    0  501    0  0.00000000000E+00  0.00000000000E+00 -0.18453442116E+04  0.18453442116E+04  0.50400001928E-02 0.  1.
    10030    2    1    2    0    0  0.00000000000E+00  0.00000000000E+00 -0.42344994233E+02  0.36483434290E+04  0.36480976792E+04 0.  0.
        5    1    3    3  502    0 -0.36831869797E+03 -0.10567287775E+04 -0.14616853394E+04  0.18408912227E+04  0.46999998093E+01 0.  1.
       -5    1    3    3    0  502  0.36831869797E+03  0.10567287775E+04  0.14193403452E+04  0.18074522063E+04  0.46999998093E+01 0. -1.
</event>
<event>
 5   0  0.7236375E-08  0.3596412E+04  0.7818609E-02  0.8091314E-01
        1   -1    0    0  501    0  0.00000000000E+00  0.00000000000E+00  0.12752959744E+04  0.12752959745E+04  0.50400001928E-02 0.  1.
       -1   -1    0    0    0  501  0.00000000000E+00  0.00000000000E+00 -0.25355250393E+04  0.25355250393E+04  0.50400001928E-02 0. -1.
    10030    2    1    2    0    0  0.00000000000E+00  0.00000000000E+00 -0.12602290648E+04  0.38108210137E+04  0.35964120318E+04 0.  0.
        1    1    3    3  502    0 -0.10655864954E+04 -0.15029321567E+03 -0.21566560513E+04  0.24102340039E+04  0.50400001928E-02 0. -1.
       -1    1    3    3    0  502  0.10655864954E+04  0.15029321567E+03  0.89642698649E+03  0.14005870098E+04  0.50400001928E-02 0.  1.
</event>
<event>
 5   0  0.7236375E-08  0.3604848E+04  0.7818609E-02  0.8089382E-01
        1   -1    0    0  501    0  0.00000000000E+00  0.00000000000E+00  0.13252532805E+04  0.13252532805E+04  0.50400001928E-02 0.  1.
       -1   -1    0    0    0  501  0.00000000000E+00  0.00000000000E+00 -0.24514047164E+04  0.24514047164E+04  0.50400001928E-02 0. -1.
    10030    2    1    2    0    0  0.00000000000E+00  0.00000000000E+00 -0.11261514359E+04  0.37766579969E+04  0.36048479259E+04 0.  0.
        1    1    3    3  502    0 -0.24721754960E+03 -0.93776963871E+03  0.10286116849E+04  0.14137080358E+04  0.50400001928E-02 0.  1.
       -1    1    3    3    0  502  0.24721754960E+03  0.93776963871E+03 -0.21547631208E+04  0.23629499611E+04  0.50400001928E-02 0. -1.
</event>
<event>
 5   0  0.2238968E-07  0.3693258E+04  0.7818609E-02  0.8069458E-01
       -2   -1    0    0    0  501  0.00000000000E+00  0.00000000000E+00  0.16031267098E+04  0.16031267098E+04  0.25500000920E-02 0. -1.
        2   -1    0    0  501    0  0.00000000000E+00  0.00000000000E+00 -0.21271176401E+04  0.21271176401E+04  0.25500000920E-02 0.  1.
    10030    2    1    2    0    0  0.00000000000E+00  0.00000000000E+00 -0.52399093021E+03  0.37302443499E+04  0.36932582383E+04 0.  0.
        3    1    3    3  502    0  0.80914606500E+03  0.72789661064E+03  0.12447512735E+04  0.16534680443E+04  0.10100000352E+00 0. -1.
       -3    1    3    3    0  502 -0.80914606500E+03 -0.72789661064E+03 -0.17687422037E+04  0.20767763056E+04  0.10100000352E+00 0.  1.
</event>
<event>
 5   0  0.7236375E-08  0.3611238E+04  0.7818609E-02  0.8087922E-01
       -1   -1    0    0    0  501  0.00000000000E+00  0.00000000000E+00  0.14964847161E+04  0.14964847161E+04  0.50400001928E-02 0. -1.
        1   -1    0    0  501    0  0.00000000000E+00  0.00000000000E+00 -0.21786121516E+04  0.21786121517E+04  0.50400001928E-02 0.  1.
    10030    2    1    2    0    0  0.00000000000E+00  0.00000000000E+00 -0.68212743555E+03  0.36750968678E+04  0.36112378971E+04 0.  0.
        1    1    3    3  502    0 -0.42899945048E+03  0.11013722922E+04  0.10480641847E+04  0.15797151610E+04  0.50400001928E-02 0. -1.
       -1    1    3    3    0  502  0.42899945048E+03 -0.11013722922E+04 -0.17301916202E+04  0.20953817068E+04  0.50400001928E-02 0.  1.
</event>
<event>
 5   0  0.7347303E-08  0.3604288E+04  0.7818609E-02  0.8089510E-01
        1   -1    0    0  501    0  0.00000000000E+00  0.00000000000E+00  0.20992735877E+04  0.20992735877E+04  0.50400001928E-02 0.  1.
       -1   -1    0    0    0  501  0.00000000000E+00  0.00000000000E+00 -0.15470701884E+04  0.15470701884E+04  0.50400001928E-02 0. -1.
    10030    2    1    2    0    0  0.00000000000E+00  0.00000000000E+00  0.55220339924E+03  0.36463437761E+04  0.36042883263E+04 0.  0.
        2    1    3    3  502    0 -0.74672685441E+03  0.16399844262E+04  0.25187078821E+03  0.18195023515E+04  0.25500000920E-02 0.  1.
       -2    1    3    3    0  502  0.74672685441E+03 -0.16399844262E+04  0.30033261104E+03  0.18268414246E+04  0.25500000920E-02 0. -1.
</event>
<event>
 5   0  0.7236375E-08  0.3598750E+04  0.7818609E-02  0.8090778E-01
       -1   -1    0    0    0  501  0.00000000000E+00  0.00000000000E+00  0.14113854445E+04  0.14113854445E+04  0.50400001928E-02 0. -1.
        1   -1    0    0  501    0  0.00000000000E+00  0.00000000000E+00 -0.22940224727E+04  0.22940224727E+04  0.50400001928E-02 0.  1.
    10030    2    1    2    0    0  0.00000000000E+00  0.00000000000E+00 -0.88263702816E+03  0.37054079172E+04  0.35987497426E+04 0.  0.
        5    1    3    3  502    0  0.95490908562E+03  0.13630344675E+04  0.26307212538E+03  0.16849164236E+04  0.46999998093E+01 0. -1.
       -5    1    3    3    0  502 -0.95490908562E+03 -0.13630344675E+04 -0.11457091535E+04  0.20204914936E+04  0.46999998093E+01 0.  1.
</event>
<event>
 5   0  0.2309391E-07  0.3591026E+04  0.7818609E-02  0.8092550E-01
       -2   -1    0    0    0  501  0.00000000000E+00  0.00000000000E+00  0.20213970617E+04  0.20213970617E+04  0.25500000920E-02 0. -1.
        2   -1    0    0  501    0  0.00000000000E+00  0.00000000000E+00 -0.15948709823E+04  0.15948709823E+04  0.25500000920E-02 0.  1.
    10030    2    1    2    0    0  0.00000000000E+00  0.00000000000E+00  0.42652607940E+03  0.36162680439E+04  0.35910263253E+04 0.  0.
        4    1    3    3  502    0  0.67020309614E+03  0.76801711317E+03  0.17017745065E+04  0.19836987070E+04  0.12699999809E+01 0. -1.
       -4    1    3    3    0  502 -0.67020309614E+03 -0.76801711317E+03 -0.12752484271E+04  0.16325693369E+04  0.12699999809E+01 0.  1.
</event>
<event>
 5   0  0.2238968E-07  0.3600967E+04  0.7818609E-02  0.8090270E-01
        2   -1    0    0  501    0  0.00000000000E+00  0.00000000000E+00  0.23141905781E+04  0.23141905781E+04  0.25500000920E-02 0. -1.
       -2   -1    0    0    0  501  0.00000000000E+00  0.00000000000E+00 -0.14008094335E+04  0.14008094335E+04  0.25500000920E-02 0.  1.
    10030    2    1    2    0    0  0.00000000000E+00  0.00000000000E+00  0.91338114460E+03  0.37150000116E+04  0.36009665329E+04 0.  0.
        3    1    3    3  502    0  0.17697626092E+04 -0.29689181870E+03  0.30529346016E+03  0.18202770537E+04  0.10100000352E+00 0.  1.
       -3    1    3    3    0  502 -0.17697626092E+04  0.29689181870E+03  0.60808768444E+03  0.18947229579E+04  0.10100000352E+00 0. -1.
</event>
<event>
 5   0  0.7236375E-08  0.3558198E+04  0.7818609E-02  0.8100135E-01
       -1   -1    0    0    0  501  0.00000000000E+00  0.00000000000E+00  0.13789837057E+04  0.13789837057E+04  0.50400001928E-02 0. -1.
        1   -1    0    0  501    0  0.00000000000E+00  0.00000000000E+00 -0.22953085501E+04  0.22953085501E+04  0.50400001928E-02 0.  1.
    10030    2    1    2    0    0  0.00000000000E+00  0.00000000000E+00 -0.91632484445E+03  0.36742922558E+04  0.35581979091E+04 0.  0.
        1    1    3    3  502    0  0.46156165746E+03 -0.64774831301E+03 -0.21014926545E+04  0.22469731679E+04  0.50400001928E-02 0.  1.
       -1    1    3    3    0  502 -0.46156165746E+03  0.64774831301E+03  0.11851678100E+04  0.14273190879E+04  0.50400001928E-02 0. -1.
</event>
<event>
 5   0  0.7347303E-08  0.3595719E+04  0.7818609E-02  0.8091473E-01
        1   -1    0    0  501    0  0.00000000000E+00  0.00000000000E+00  0.15370657987E+04  0.15370657987E+04  0.50400001928E-02 0. -1.
       -1   -1    0    0    0  501  0.00000000000E+00  0.00000000000E+00 -0.21029015580E+04  0.21029015581E+04  0.50400001928E-02 0.  1.
    10030    2    1    2    0    0  0.00000000000E+00  0.00000000000E+00 -0.56583575937E+03  0.36399673567E+04  0.35957186002E+04 0.  0.
        2    1    3    3  502    0 -0.13581360337E+04 -0.86220155449E+03  0.52968896960E+03  0.16936633110E+04  0.25500000920E-02 0.  1.
       -2    1    3    3    0  502  0.13581360337E+04  0.86220155449E+03 -0.10955247290E+04  0.19463040457E+04  0.25500000920E-02 0. -1.
</event>
<event>
 5   0  0.7514289E-08  0.3590483E+04  0.7818609E-02  0.8092675E-01
       -1   -1    0    0    0  501  0.00000000000E+00  0.00000000000E+00  0.24098001592E+04  0.24098001592E+04  0.50400001928E-02 0. -1.
        1   -1    0    0  501    0  0.00000000000E+00  0.00000000000E+00 -0.13374103441E+04  0.13374103441E+04  0.50400001928E-02 0.  1.
    10030    2    1    2    0    0  0.00000000000E+00  0.00000000000E+00  0.10723898150E+04  0.37472105033E+04  0.35904827865E+04 0.  0.
        4    1    3    3  502    0  0.15174997866E+04 -0.73874565222E+03  0.11747346860E+04  0.20563448000E+04  0.12699999809E+01 0. -1.
       -4    1    3    3    0  502 -0.15174997866E+04  0.73874565222E+03 -0.10234487097E+03  0.16908657033E+04  0.12699999809E+01 0.  1.
</event>
<event>
 5   0  0.7261233E-08  0.3537137E+04  0.7818609E-02  0.8105045E-01
        1   -1    0    0  501    0  0.00000000000E+00  0.00000000000E+00  0.21406813480E+04  0.21406813480E+04  0.50400001928E-02 0. -1.
       -1   -1    0    0    0  501  0.00000000000E+00  0.00000000000E+00 -0.14611396689E+04  0.14611396689E+04  0.50400001928E-02 0.  1.
    10030    2    1    2    0    0  0.00000000000E+00  0.00000000000E+00  0.67954167914E+03  0.36018210169E+04  0.35371369417E+04 0.  0.
        3    1    3    3  502    0  0.12094066393E+04 -0.12301113391E+04 -0.57225476087E+02  0.17260107448E+04  0.10100000352E+00 0. -1.
       -3    1    3    3    0  502 -0.12094066393E+04  0.12301113391E+04  0.73676715523E+03  0.18758102721E+04  0.10100000352E+00 0.  1.
</event>
<event>
 5   0  0.7236375E-08  0.3556864E+04  0.7818609E-02  0.8100445E-01
        1   -1    0    0  501    0  0.00000000000E+00  0.00000000000E+00  0.10135788044E+04  0.10135788044E+04  0.50400001928E-02 0.  1.
       -1   -1    0    0    0  501  0.00000000000E+00  0.00000000000E+00 -0.31204484634E+04  0.31204484634E+04  0.50400001928E-02 0. -1.
    10030    2    1    2    0    0  0.00000000000E+00  0.00000000000E+00 -0.21068696590E+04  0.41340272679E+04  0.35568640249E+04 0.  0.
        1    1    3    3  502    0  0.90178313404E+02 -0.12815947014E+04  0.37582493197E+03  0.13386043054E+04  0.50400001928E-02 0.  1.
       -1    1    3    3    0  502 -0.90178313404E+02  0.12815947014E+04 -0.24826945910E+04  0.27954229625E+04  0.50400001928E-02 0. -1.
</event>
<event>
 5   0  0.2309391E-07  0.3645648E+04  0.7818609E-02  0.8080115E-01
        2   -1    0    0  501    0  0.00000000000E+00  0.00000000000E+00  0.13644279350E+04  0.13644279350E+04  0.25500000920E-02 0.  1.
       -2   -1    0    0    0  501  0.00000000000E+00  0.00000000000E+00 -0.24352234760E+04  0.24352234760E+04  0.25500000920E-02 0. -1.
    10030    2    1    2    0    0  0.00000000000E+00  0.00000000000E+00 -0.10707955410E+04  0.37996514110E+04  0.36456477825E+04 0.  0.
        4    1    3    3  502    0 -0.12995616789E+04 -0.34521148688E+03  0.74730412494E+03  0.15383421583E+04  0.12699999809E+01 0.  1.
       -4    1    3    3    0  502  0.12995616789E+04  0.34521148688E+03 -0.18180996660E+04  0.22613092527E+04  0.12699999809E+01 0. -1.
</event>
<event>
 5   0  0.2309391E-07  0.3601388E+04  0.7818609E-02  0.8090174E-01
       -2   -1    0    0    0  501  0.00000000000E+00  0.00000000000E+00  0.14710239251E+04  0.14710239251E+04  0.25500000920E-02 0. -1.
        2   -1    0    0  501    0  0.00000000000E+00  0.00000000000E+00 -0.22042464537E+04  0.22042464537E+04  0.25500000920E-02 0.  1.
    10030    2    1    2    0    0  0.00000000000E+00  0.00000000000E+00 -0.73322252858E+03  0.36752703787E+04  0.36013882157E+04 0.  0.
        4    1    3    3  502    0  0.13097454759E+04 -0.11259827957E+04  0.15297735588E+03  0.17339763990E+04  0.12699999809E+01 0.  1.
       -4    1    3    3    0  502 -0.13097454759E+04  0.11259827957E+04 -0.88619988445E+03  0.19412939798E+04  0.12699999809E+01 0. -1.
</event>
<event>
 5   0  0.7236375E-08  0.3615437E+04  0.7818609E-02  0.8086965E-01
       -1   -1    0    0    0  501  0.00000000000E+00  0.00000000000E+00  0.24234072236E+04  0.24234072236E+04  0.50400001928E-02 0. -1.
        1   -1    0    0  501    0  0.00000000000E+00  0.00000000000E+00 -0.13484509761E+04  0.13484509762E+04  0.50400001928E-02 0.  1.
    10030    2    1    2    0    0  0.00000000000E+00  0.00000000000E+00  0.10749562475E+04  0.37718581998E+04  0.36154368125E+04 0.  0.
        1    1    3    3  502    0 -0.13181786837E+04 -0.12224969738E+04  0.34021568102E+03  0.18297105243E+04  0.50400001928E-02 0.  1.
       -1    1    3    3    0  502  0.13181786837E+04  0.12224969738E+04  0.73474056646E+03  0.19421476754E+04  0.50400001928E-02 0. -1.
</event>
<event>
 5   0  0.7514289E-08  0.3604785E+04  0.7818609E-02  0.8089397E-01
        1   -1    0    0  501    0  0.00000000000E+00  0.00000000000E+00  0.21459496623E+04  0.21459496623E+04  0.50400001928E-02 0.  1.
       -1   -1    0    0    0  501  0.00000000000E+00  0.00000000000E+00 -0.15138372342E+04  0.15138372342E+04  0.50400001928E-02 0. -1.
    10030    2    1    2    0    0  0.00000000000E+00  0.00000000000E+00  0.63211242810E+03  0.36597868965E+04  0.36047848766E+04 0.  0.
        4    1    3    3  502    0  0.63189055558E+03  0.78080708144E+03  0.18354439230E+04  0.20923196171E+04  0.12699999809E+01 0.  1.
       -4    1    3    3    0  502 -0.63189055558E+03 -0.78080708144E+03 -0.12033314949E+04  0.15674672795E+04  0.12699999809E+01 0. -1.
</event>
<event>
 5   0  0.2309391E-07  0.3592731E+04  0.7818609E-02  0.8092159E-01
        2   -1    0    0  501    0  0.00000000000E+00  0.00000000000E+00  0.15958114165E+04  0.15958114165E+04  0.25500000920E-02 0. -1.
       -2   -1    0    0    0  501  0.00000000000E+00  0.00000000000E+00 -0.20221238420E+04  0.20221238420E+04  0.25500000920E-02 0.  1.
    10030    2    1    2    0    0  0.00000000000E+00  0.00000000000E+00 -0.42631242549E+03  0.36179352584E+04  0.35927306120E+04 0.  0.
        4    1    3    3  502    0  0.17135587121E+04 -0.19713763311E+03 -0.71845324292E+03  0.18685083305E+04  0.12699999809E+01 0.  1.
       -4    1    3    3    0  502 -0.17135587121E+04  0.19713763311E+03  0.29214081742E+03  0.17494269279E+04  0.12699999809E+01 0. -1.
</event>
<event>
 5   0  0.2309391E-07  0.3559270E+04  0.7818609E-02  0.8099886E-01
        2   -1    0    0  501    0  0.00000000000E+00  0.00000000000E+00  0.27507029346E+04  0.27507029346E+04  0.25500000920E-02 0.  1.
       -2   -1    0    0    0  501  0.00000000000E+00  0.00000000000E+00 -0.11513788654E+04  0.11513788654E+04  0.25500000920E-02 0. -1.
    10030    2    1    2    0    0  0.00000000000E+00  0.00000000000E+00  0.15993240692E+04  0.39020818000E+04  0.35592702757E+04 0.  0.
        4    1    3    3  502    0  0.15144415259E+04  0.29973257357E+03 -0.17088763758E+03  0.15532472271E+04  0.12699999809E+01 0. -1.
       -4    1    3    3    0  502 -0.15144415259E+04 -0.29973257357E+03  0.17702117068E+04  0.23488345729E+04  0.12699999809E+01 0.  1.
</event>
<event>
 5   0  0.2342606E-07  0.3589851E+04  0.7818609E-02  0.8092820E-01
        2   -1    0    0  501    0  0.00000000000E+00  0.00000000000E+00  0.18699196549E+04  0.18699196549E+04  0.25500000920E-02 0.  1.
       -2   -1    0    0    0  501  0.00000000000E+00  0.00000000000E+00 -0.17229388752E+04  0.17229388752E+04  0.25500000920E-02 0. -1.
    10030    2    1    2    0    0  0.00000000000E+00  0.00000000000E+00  0.14698077969E+03  0.35928585301E+04  0.35898508420E+04 0.  0.
        5    1    3    3  502    0 -0.13427209640E+04  0.39338096513E+03 -0.10517678364E+04  0.17503959102E+04  0.46999998093E+01 0. -1.
       -5    1    3    3    0  502  0.13427209640E+04 -0.39338096513E+03  0.11987486161E+04  0.18424626198E+04  0.46999998093E+01 0.  1.
</event>
<event>
 5   0  0.2199902E-07  0.3584013E+04  0.7818609E-02  0.8094164E-01
       -2   -1    0    0    0  501  0.00000000000E+00  0.00000000000E+00  0.12316256633E+04  0.12316256633E+04  0.25500000920E-02 0. -1.
        2   -1    0    0  501    0  0.00000000000E+00  0.00000000000E+00 -0.26073563937E+04  0.26073563937E+04  0.25500000920E-02 0.  1.
    10030    2    1    2    0    0  0.00000000000E+00  0.00000000000E+00 -0.13757307304E+04  0.38389820569E+04  0.35840128614E+04 0.  0.
        1    1    3    3  502    0 -0.48191797938E+03  0.10033053730E+04  0.81647555716E+03  0.13803981113E+04  0.50400001928E-02 0. -1.
       -1    1    3    3    0  502  0.48191797938E+03 -0.10033053730E+04 -0.21922062876E+04  0.24585839456E+04  0.50400001928E-02 0.  1.
</event>
<event>
 5   0  0.7236375E-08  0.3608168E+04  0.7818609E-02  0.8088623E-01
       -1   -1    0    0    0  501  0.00000000000E+00  0.00000000000E+00  0.13529149768E+04  0.13529149768E+04  0.50400001928E-02 0. -1.
        1   -1    0    0  501    0  0.00000000000E+00  0.00000000000E+00 -0.24057090915E+04  0.24057090915E+04  0.50400001928E-02 0.  1.
    10030    2    1    2    0    0  0.00000000000E+00  0.00000000000E+00 -0.10527941147E+04  0.37586240684E+04  0.36081684328E+04 0.  0.
        5    1    3    3  502    0 -0.12667183323E+04 -0.62150277587E+03  0.64469493541E+03  0.15512880724E+04  0.46999998093E+01 0. -1.
       -5    1    3    3    0  502  0.12667183323E+04  0.62150277587E+03 -0.16974890501E+04  0.22073359960E+04  0.46999998093E+01 0.  1.
</event>
<event>
 5   0  0.2342606E-07  0.3568304E+04  0.7818609E-02  0.8097791E-01
       -2   -1    0    0    0  501  0.00000000000E+00  0.00000000000E+00  0.16261722983E+04  0.16261722983E+04  0.25500000920E-02 0.  1.
        2   -1    0    0  501    0  0.00000000000E+00  0.00000000000E+00 -0.19574795877E+04  0.19574795877E+04  0.25500000920E-02 0. -1.
    10030    2    1    2    0    0  0.00000000000E+00  0.00000000000E+00 -0.33130728945E+03  0.35836518860E+04  0.35683044041E+04 0.  0.
        5    1    3    3  502    0 -0.99362193444E+03 -0.98750378262E+03  0.94396437586E+03  0.16892421680E+04  0.46999998093E+01 0.  1.
       -5    1    3    3    0  502  0.99362193444E+03  0.98750378262E+03 -0.12752716653E+04  0.18944097180E+04  0.46999998093E+01 0. -1.
</event>
<event>
 5   0  0.7347303E-08  0.3600217E+04  0.7818609E-02  0.8090442E-01
       -1   -1    0    0    0  501  0.00000000000E+00  0.00000000000E+00  0.14494614752E+04  0.14494614752E+04  0.50400001928E-02 0.  1.
        1   -1    0    0  501    0  0.00000000000E+00  0.00000000000E+00 -0.22355822181E+04  0.22355822181E+04  0.50400001928E-02 0. -1.
    10030    2    1    2    0    0  0.00000000000E+00  0.00000000000E+00 -0.78612074283E+03  0.36850436933E+04  0.36002168267E+04 0.  0.
        2    1    3    3  502    0 -0.15418240260E+04 -0.41591550770E+03  0.45728665233E+03  0.16611195379E+04  0.25500000920E-02 0.  1.
       -2    1    3    3    0  502  0.15418240260E+04  0.41591550770E+03 -0.12434073952E+04  0.20239241554E+04  0.25500000920E-02 0. -1.
</event>
<event>
 5   0  0.2342606E-07  0.3645931E+04  0.7818609E-02  0.8080051E-01
       -2   -1    0    0    0  501  0.00000000000E+00  0.00000000000E+00  0.13322996081E+04  0.13322996081E+04  0.25500000920E-02 0.  1.
        2   -1    0    0  501    0  0.00000000000E+00  0.00000000000E+00 -0.24943359917E+04  0.24943359917E+04  0.25500000920E-02 0. -1.
    10030    2    1    2    0    0  0.00000000000E+00  0.00000000000E+00 -0.11620363836E+04  0.38266355998E+04  0.36459308080E+04 0.  0.
        5    1    3    3  502    0  0.17012636847E+04 -0.46714131834E+03 -0.99290720568E+02  0.17670313731E+04  0.46999998093E+01 0.  1.
       -5    1    3    3    0  502 -0.17012636847E+04  0.46714131834E+03 -0.10627456631E+04  0.20596042267E+04  0.46999998093E+01 0. -1.
</event>
<event>
 5   0  0.7261233E-08  0.3610574E+04  0.7818609E-02  0.8088074E-01
        1   -1    0    0  501    0  0.00000000000E+00  0.00000000000E+00  0.24258956899E+04  0.24258956899E+04  0.50400001928E-02 0. -1.
       -1   -1    0    0    0  501  0.00000000000E+00  0.00000000000E+00 -0.13434465818E+04  0.13434465818E+04  0.50400001928E-02 0.  1.
    10030    2    1    2    0    0  0.00000000000E+00  0.00000000000E+00  0.10824491081E+04  0.37693422718E+04  0.36105740666E+04 0.  0.
        3    1    3    3  502    0 -0.59516890944E+03  0.12733288237E+04  0.17239447092E+04  0.22243151068E+04  0.10100000352E+00 0. -1.
       -3    1    3    3    0  502  0.59516890944E+03 -0.12733288237E+04 -0.64149560109E+03  0.15450271649E+04  0.10100000352E+00 0.  1.
</event>
<event>
 5   0  0.7514289E-08  0.3594484E+04  0.7818609E-02  0.8091756E-01
       -1   -1    0    0    0  501  0.00000000000E+00  0.00000000000E+00  0.15834812775E+04  0.15834812775E+04  0.50400001928E-02 0.  1.
        1   -1    0    0  501    0  0.00000000000E+00  0.00000000000E+00 -0.20398588376E+04  0.20398588376E+04  0.50400001928E-02 0. -1.
    10030    2    1    2    0    0  0.00000000000E+00  0.00000000000E+00 -0.45637756016E+03  0.36233401151E+04  0.35944837060E+04 0.  0.
        4    1    3    3  502    0 -0.11122568570E+04 -0.96932449740E+03  0.80638945507E+03  0.16813598256E+04  0.12699999809E+01 0.  1.
       -4    1    3    3    0  502  0.11122568570E+04  0.96932449740E+03 -0.12627670152E+04  0.19419802895E+04  0.12699999809E+01 0. -1.
</event>
<event>
 5   0  0.7261233E-08  0.3572016E+04  0.7818609E-02  0.8096932E-01
        1   -1    0    0  501    0  0.00000000000E+00  0.00000000000E+00  0.17896388901E+04  0.17896388901E+04  0.50400001928E-02 0. -1.
       -1   -1    0    0    0  501  0.00000000000E+00  0.00000000000E+00 -0.17823841635E+04  0.17823841635E+04  0.50400001928E-02 0.  1.
    10030    2    1    2    0    0  0.00000000000E+00  0.00000000000E+00  0.72547266514E+01  0.35720230536E+04  0.35720156865E+04 0.  0.
        3    1    3    3  502    0 -0.88032494394E+03  0.15624945010E+03  0.15497347233E+04  0.17891516483E+04  0.10100000352E+00 0. -1.
       -3    1    3    3    0  502  0.88032494394E+03 -0.15624945010E+03 -0.15424799967E+04  0.17828714053E+04  0.10100000352E+00 0.  1.
</event>
<event>
 5   0  0.7261233E-08  0.3598487E+04  0.7818609E-02  0.8090838E-01
       -1   -1    0    0    0  501  0.00000000000E+00  0.00000000000E+00  0.15424301525E+04  0.15424301525E+04  0.50400001928E-02 0.  1.
        1   -1    0    0  501    0  0.00000000000E+00  0.00000000000E+00 -0.20988161906E+04  0.20988161906E+04  0.50400001928E-02 0. -1.
    10030    2    1    2    0    0  0.00000000000E+00  0.00000000000E+00 -0.55638603803E+03  0.36412463431E+04  0.35984871138E+04 0.  0.
        3    1    3    3  502    0 -0.82467095194E+03  0.10448936486E+04  0.94672517287E+03  0.16334544619E+04  0.10100000352E+00 0.  1.
       -3    1    3    3    0  502  0.82467095194E+03 -0.10448936486E+04 -0.15031112109E+04  0.20077918812E+04  0.10100000352E+00 0. -1.
</event>
<event>
 5   0  0.2198900E-07  0.3585121E+04  0.7818609E-02  0.8093908E-01
       -2   -1    0    0    0  501  0.00000000000E+00  0.00000000000E+00  0.13226370544E+04  0.13226370544E+04  0.25500000920E-02 0. -1.
        2   -1    0    0  501    0  0.00000000000E+00  0.00000000000E+00 -0.24294442965E+04  0.24294442965E+04  0.25500000920E-02 0.  1.
    10030    2    1    2    0    0  0.00000000000E+00  0.00000000000E+00 -0.11068072421E+04  0.37520813509E+04  0.35851209453E+04 0.  0.
        2    1    3    3  502    0 -0.68957211406E+03 -0.12439188578E+04 -0.16952829849E+04  0.22128778150E+04  0.25500000920E-02 0. -1.
       -2    1    3    3    0  502  0.68957211406E+03  0.12439188578E+04  0.58847574277E+03  0.15392035359E+04  0.25500000920E-02 0.  1.
</event>
<event>
 5   0  0.7236375E-08  0.3623412E+04  0.7818609E-02  0.8085150E-01
        1   -1    0    0  501    0  0.00000000000E+00  0.00000000000E+00  0.17708891042E+04  0.17708891042E+04  0.50400001928E-02 0. -1.
       -1   -1    0    0    0  501  0.00000000000E+00  0.00000000000E+00 -0.18534633658E+04  0.18534633658E+04  0.50400001928E-02 0.  1.
    10030    2    1    2    0    0  0.00000000000E+00  0.00000000000E+00 -0.82574261557E+02  0.36243524700E+04  0.36234116960E+04 0.  0.
        5    1    3    3  502    0  0.27704675077E+03  0.17118220392E+04 -0.56598637730E+03  0.18241305505E+04  0.46999998093E+01 0.  1.
       -5    1    3    3    0  502 -0.27704675077E+03 -0.17118220392E+04  0.48341211574E+03  0.18002219195E+04  0.46999998093E+01 0. -1.
</event>
<event>
 5   0  0.7347303E-08  0.3595719E+04  0.7818609E-02  0.8091473E-01
       -1   -1    0    0    0  501  0.00000000000E+00  0.00000000000E+00  0.14709777094E+04  0.14709777094E+04  0.50400001928E-02 0. -1.
        1   -1    0    0  501    0  0.00000000000E+00  0.00000000000E+00 -0.21973815087E+04  0.21973815087E+04  0.50400001928E-02 0.  1.
    10030    2    1    2    0    0  0.00000000000E+00  0.00000000000E+00 -0.72640379933E+03  0.36683592181E+04  0.35957192429E+04 0.  0.
        2    1    3    3  502    0  0.18640211761E+03  0.25779865362E+03  0.14420345277E+04  0.14767090012E+04  0.25500000920E-02 0. -1.
       -2    1    3    3    0  502 -0.18640211761E+03 -0.25779865362E+03 -0.21684383270E+04  0.21916502169E+04  0.25500000920E-02 0.  1.
</event>
<event>
 5   0  0.7261233E-08  0.3637144E+04  0.7818609E-02  0.8082036E-01
       -1   -1    0    0    0  501  0.00000000000E+00  0.00000000000E+00  0.18146997473E+04  0.18146997473E+04  0.50400001928E-02 0. -1.
        1   -1    0    0  501    0  0.00000000000E+00  0.00000000000E+00 -0.18224525217E+04  0.18224525217E+04  0.50400001928E-02 0.  1.
    10030    2    1    2    0    0  0.00000000000E+00  0.00000000000E+00 -0.77527744049E+01  0.36371522690E+04  0.36371440063E+04 0.  0.
        3    1    3    3  502    0 -0.70809406317E+03 -0.49720127339E+03 -0.16034417772E+04  0.18219856892E+04  0.10100000352E+00 0.  1.
       -3    1    3    3    0  502  0.70809406317E+03  0.49720127339E+03  0.15956890028E+04  0.18151665798E+04  0.10100000352E+00 0. -1.
</event>
<event>
 5   0  0.2199902E-07  0.3597401E+04  0.7818609E-02  0.8091087E-01
        2   -1    0    0  501    0  0.00000000000E+00  0.00000000000E+00  0.16497129026E+04  0.16497129026E+04  0.25500000920E-02 0. -1.
       -2   -1    0    0    0  501  0.00000000000E+00  0.00000000000E+00 -0.19611429135E+04  0.19611429135E+04  0.25500000920E-02 0.  1.
    10030    2    1    2    0    0  0.00000000000E+00  0.00000000000E+00 -0.31143001086E+03  0.36108558161E+04  0.35974005995E+04 0.  0.
        1    1    3    3  502    0  0.98238941311E+03  0.14260457665E+04 -0.64397793349E+03  0.18475397333E+04  0.50400001928E-02 0.  1.
       -1    1    3    3    0  502 -0.98238941311E+03 -0.14260457665E+04  0.33254792262E+03  0.17633160828E+04  0.50400001928E-02 0. -1.
</event>
<event>
 5   0  0.2198900E-07  0.3606433E+04  0.7818609E-02  0.8089020E-01
       -2   -1    0    0    0  501  0.00000000000E+00  0.00000000000E+00  0.14037430955E+04  0.14037430955E+04  0.25500000920E-02 0.  1.
        2   -1    0    0  501    0  0.00000000000E+00  0.00000000000E+00 -0.23163704594E+04  0.23163704594E+04  0.25500000920E-02 0. -1.
    10030    2    1    2    0    0  0.00000000000E+00  0.00000000000E+00 -0.91262736384E+03  0.37201135549E+04  0.36064326080E+04 0.  0.
        2    1    3    3  502    0  0.42135378388E+03 -0.12795309808E+04 -0.16927853423E+04  0.21633910320E+04  0.25500000920E-02 0. -1.
       -2    1    3    3    0  502 -0.42135378388E+03  0.12795309808E+04  0.78015797845E+03  0.15567225230E+04  0.25500000920E-02 0.  1.
</event>
<event>
 5   0  0.7261233E-08  0.3594603E+04  0.7818609E-02  0.8091729E-01
       -1   -1    0    0    0  501  0.00000000000E+00  0.00000000000E+00  0.12696415826E+04  0.12696415826E+04  0.50400001928E-02 0.  1.
        1   -1    0    0  501    0  0.00000000000E+00  0.00000000000E+00 -0.25442560088E+04  0.25442560089E+04  0.50400001928E-02 0. -1.
    10030    2    1    2    0    0  0.00000000000E+00  0.00000000000E+00 -0.12746144263E+04  0.38138975914E+04  0.35946033025E+04 0.  0.
        3    1    3    3  502    0 -0.10948192278E+04 -0.13561361494E+04 -0.17172137245E+03  0.17513488052E+04  0.10100000352E+00 0.  1.
       -3    1    3    3    0  502  0.10948192278E+04  0.13561361494E+04 -0.11028930538E+04  0.20625487863E+04  0.10100000352E+00 0. -1.
</event>
<event>
 5   0  0.2199902E-07  0.3486596E+04  0.7818609E-02  0.8116974E-01
       -2   -1    0    0    0  501  0.00000000000E+00  0.00000000000E+00  0.14906886914E+04  0.14906886914E+04  0.25500000920E-02 0. -1.
        2   -1    0    0  501    0  0.00000000000E+00  0.00000000000E+00 -0.20387135633E+04  0.20387135633E+04  0.25500000920E-02 0.  1.
    10030    2    1    2    0    0  0.00000000000E+00  0.00000000000E+00 -0.54802487196E+03  0.35294022547E+04  0.34865956197E+04 0.  0.
        1    1    3    3  502    0 -0.65778907348E+03 -0.15881072101E+04 -0.56795013622E+03  0.18103420487E+04  0.50400001928E-02 0. -1.
       -1    1    3    3    0  502  0.65778907348E+03  0.15881072101E+04  0.19925264266E+02  0.17190602061E+04  0.50400001928E-02 0.  1.
</event>
<event>
 5   0  0.7236375E-08  0.3538919E+04  0.7818609E-02  0.8104628E-01
       -1   -1    0    0    0  501  0.00000000000E+00  0.00000000000E+00  0.20203459664E+04  0.20203459664E+04  0.50400001928E-02 0.  1.
        1   -1    0    0  501    0  0.00000000000E+00  0.00000000000E+00 -0.15497284750E+04  0.15497284750E+04  0.50400001928E-02 0. -1.
    10030    2    1    2    0    0  0.00000000000E+00  0.00000000000E+00  0.47061749139E+03  0.35700744415E+04  0.35389194247E+04 0.  0.
        1    1    3    3  502    0  0.12306035652E+04 -0.10632795350E+04  0.93861136097E+03  0.18777485963E+04  0.50400001928E-02 0. -1.
       -1    1    3    3    0  502 -0.12306035652E+04  0.10632795350E+04 -0.46799386958E+03  0.16923258451E+04  0.50400001928E-02 0.  1.
</event>
<event>
 5   0  0.7261233E-08  0.3600295E+04  0.7818609E-02  0.8090424E-01
        1   -1    0    0  501    0  0.00000000000E+00  0.00000000000E+00  0.29307718230E+04  0.29307718230E+04  0.50400001928E-02 0. -1.
       -1   -1    0    0    0  501  0.00000000000E+00  0.00000000000E+00 -0.11056923049E+04  0.11056923049E+04  0.50400001928E-02 0.  1.
    10030    2    1    2    0    0  0.00000000000E+00  0.00000000000E+00  0.18250795181E+04  0.40364641279E+04  0.36002954612E+04 0.  0.
        3    1    3    3  502    0 -0.41541676662E+03  0.10579338842E+04  0.24776305305E+04  0.27258848562E+04  0.10100000352E+00 0. -1.
       -3    1    3    3    0  502  0.41541676662E+03 -0.10579338842E+04 -0.65255101243E+03  0.13105792717E+04  0.10100000352E+00 0.  1.
</event>
<event>
 5   0  0.2309391E-07  0.3605085E+04  0.7818609E-02  0.8089328E-01
        2   -1    0    0  501    0  0.00000000000E+00  0.00000000000E+00  0.15547882160E+04  0.15547882160E+04  0.25500000920E-02 0.  1.
       -2   -1    0    0    0  501  0.00000000000E+00  0.00000000000E+00 -0.20897761762E+04  0.20897761762E+04  0.25500000920E-02 0. -1.
    10030    2    1    2    0    0  0.00000000000E+00  0.00000000000E+00 -0.53498796026E+03  0.36445643922E+04  0.36050849493E+04 0.  0.
        4    1    3    3  502    0 -0.15208119557E+04  0.92440797327E+03  0.21572006154E+02  0.17798500133E+04  0.12699999809E+01 0.  1.
       -4    1    3    3    0  502  0.15208119557E+04 -0.92440797327E+03 -0.55655996641E+03  0.18647143789E+04  0.12699999809E+01 0. -1.
</event>
<event>
 5   0  0.2342606E-07  0.3597075E+04  0.7818609E-02  0.8091162E-01
        2   -1    0    0  501    0  0.00000000000E+00  0.00000000000E+00  0.17759416956E+04  0.17759416956E+04  0.25500000920E-02 0. -1.
       -2   -1    0    0    0  501  0.00000000000E+00  0.00000000000E+00 -0.18214207435E+04  0.18214207435E+04  0.25500000920E-02 0.  1.
    10030    2    1    2    0    0  0.00000000000E+00  0.00000000000E+00 -0.45479047864E+02  0.35973624390E+04  0.35970749470E+04 0.  0.
        5    1    3    3  502    0 -0.71209610160E+02 -0.14268230931E+04 -0.11154475559E+04  0.18124955965E+04  0.46999998093E+01 0.  1.
       -5    1    3    3    0  502  0.71209610160E+02  0.14268230931E+04  0.10699685080E+04  0.17848668425E+04  0.46999998093E+01 0. -1.
</event>
<event>
 5   0  0.2199902E-07  0.3573222E+04  0.7818609E-02  0.8096653E-01
       -2   -1    0    0    0  501  0.00000000000E+00  0.00000000000E+00  0.12989176273E+04  0.12989176273E+04  0.25500000920E-02 0. -1.
        2   -1    0    0  501    0  0.00000000000E+00  0.00000000000E+00 -0.24574138444E+04  0.24574138444E+04  0.25500000920E-02 0.  1.
    10030    2    1    2    0    0  0.00000000000E+00  0.00000000000E+00 -0.11584962171E+04  0.37563314718E+04  0.35732216053E+04 0.  0.
        1    1    3    3  502    0 -0.18319313366E+03  0.14631922921E+03  0.12826754554E+04  0.13039269017E+04  0.50400001928E-02 0. -1.
       -1    1    3    3    0  502  0.18319313366E+03 -0.14631922921E+03 -0.24411716725E+04  0.24524045701E+04  0.50400001928E-02 0.  1.
</event>
<event>
 5   0  0.2342606E-07  0.3528609E+04  0.7818609E-02  0.8107043E-01
       -2   -1    0    0    0  501  0.00000000000E+00  0.00000000000E+00  0.10249245862E+04  0.10249245862E+04  0.25500000920E-02 0.  1.
        2   -1    0    0  501    0  0.00000000000E+00  0.00000000000E+00 -0.30370727970E+04  0.30370727970E+04  0.25500000920E-02 0. -1.
    10030    2    1    2    0    0  0.00000000000E+00  0.00000000000E+00 -0.20121482108E+04  0.40619973832E+04  0.35286091196E+04 0.  0.
        5    1    3    3  502    0 -0.83332497129E+03 -0.11191742402E+04  0.23684243101E+03  0.14153084168E+04  0.46999998093E+01 0.  1.
       -5    1    3    3    0  502  0.83332497129E+03  0.11191742402E+04 -0.22489906418E+04  0.26466889664E+04  0.46999998093E+01 0. -1.
</event>
<event>
 5   0  0.2309391E-07  0.3633584E+04  0.7818609E-02  0.8082842E-01
        2   -1    0    0  501    0  0.00000000000E+00  0.00000000000E+00  0.27999476953E+04  0.27999476953E+04  0.25500000920E-02 0.  1.
       -2   -1    0    0    0  501  0.00000000000E+00  0.00000000000E+00 -0.11788554265E+04  0.11788554265E+04  0.25500000920E-02 0. -1.
    10030    2    1    2    0    0  0.00000000000E+00  0.00000000000E+00  0.16210922688E+04  0.39788031218E+04  0.36335842000E+04 0.  0.
        4    1    3    3  502    0 -0.31550059833E+03  0.10230377831E+04 -0.79676160706E+03  0.13345327289E+04  0.12699999809E+01 0. -1.
       -4    1    3    3    0  502  0.31550059833E+03 -0.10230377831E+04  0.24178538758E+04  0.26442703929E+04  0.12699999809E+01 0.  1.
</event>
<event>
 5   0  0.7261233E-08  0.3609264E+04  0.7818609E-02  0.8088373E-01
        1   -1    0    0  501    0  0.00000000000E+00  0.00000000000E+00  0.10122194854E+04  0.10122194854E+04  0.50400001928E-02 0.  1.
       -1   -1    0    0    0  501  0.00000000000E+00  0.00000000000E+00 -0.32173811955E+04  0.32173811955E+04  0.50400001928E-02 0. -1.
    10030    2    1    2    0    0  0.00000000000E+00  0.00000000000E+00 -0.22051617101E+04  0.42296006809E+04  0.36092636025E+04 0.  0.
        3    1    3    3  502    0 -0.72385116158E+02 -0.84355837907E+03 -0.29701906029E+04  0.30885049088E+04  0.10100000352E+00 0. -1.
       -3    1    3    3    0  502  0.72385116158E+02  0.84355837907E+03  0.76502889284E+03  0.11410957721E+04  0.10100000352E+00 0.  1.
</event>
<event>
 5   0  0.7261233E-08  0.3567024E+04  0.7818609E-02  0.8098087E-01
       -1   -1    0    0    0  501  0.00000000000E+00  0.00000000000E+00  0.12540365758E+04  0.12540365758E+04  0.50400001928E-02 0.  1.
        1   -1    0    0  501    0  0.00000000000E+00  0.00000000000E+00 -0.25365407281E+04  0.25365407281E+04  0.50400001928E-02 0. -1.
    10030    2    1    2    0    0  0.00000000000E+00  0.00000000000E+00 -0.12825041523E+04  0.37905773039E+04  0.35670238850E+04 0.  0.
        3    1    3    3  502    0 -0.64240150572E+03  0.92393840501E+03  0.82914727341E+03  0.13977936479E+04  0.10100000352E+00 0.  1.
       -3    1    3    3    0  502  0.64240150572E+03 -0.92393840501E+03 -0.21116514257E+04  0.23927836561E+04  0.10100000352E+00 0. -1.
</event>
<event>
 5   0  0.2238968E-07  0.3599629E+04  0.7818609E-02  0.8090577E-01
        2   -1    0    0  501    0  0.00000000000E+00  0.00000000000E+00  0.15964642767E+04  0.15964642767E+04  0.25500000920E-02 0.  1.
       -2   -1    0    0    0  501  0.00000000000E+00  0.00000000000E+00 -0.20290667774E+04  0.20290667774E+04  0.25500000920E-02 0. -1.
    10030    2    1    2    0    0  0.00000000000E+00  0.00000000000E+00 -0.43260250074E+03  0.36255310541E+04  0.35996292171E+04 0.  0.
        3    1    3    3  502    0  0.13890625621E+04  0.28887980325E+02  0.93604828648E+03  0.16752658659E+04  0.10100000352E+00 0.  1.
       -3    1    3    3    0  502 -0.13890625621E+04 -0.28887980325E+02 -0.13686507872E+04  0.19502651882E+04  0.10100000352E+00 0. -1.
</event>
<event>
 5   0  0.2309391E-07  0.3659330E+04  0.7818609E-02  0.8077035E-01
       -2   -1    0    0    0  501  0.00000000000E+00  0.00000000000E+00  0.11539530365E+04  0.11539530365E+04  0.25500000920E-02 0. -1.
        2   -1    0    0  501    0  0.00000000000E+00  0.00000000000E+00 -0.29010494056E+04  0.29010494056E+04  0.25500000920E-02 0.  1.
    10030    2    1    2    0    0  0.00000000000E+00  0.00000000000E+00 -0.17470963692E+04  0.40550024421E+04  0.36593304145E+04 0.  0.
        4    1    3    3  502    0 -0.69121271733E+03 -0.85879154146E+03 -0.24917076160E+04  0.27246846402E+04  0.12699999809E+01 0.  1.
       -4    1    3    3    0  502  0.69121271733E+03  0.85879154146E+03  0.74461124680E+03  0.13303178019E+04  0.12699999809E+01 0. -1.
</event>
<event>
 5   0  0.7347303E-08  0.3606194E+04  0.7818609E-02  0.8089074E-01
        1   -1    0    0  501    0  0.00000000000E+00  0.00000000000E+00  0.23554460327E+04  0.23554460327E+04  0.50400001928E-02 0.  1.
       -1   -1    0    0    0  501  0.00000000000E+00  0.00000000000E+00 -0.13802730927E+04  0.13802730927E+04  0.50400001928E-02 0. -1.
    10030    2    1    2    0    0  0.00000000000E+00  0.00000000000E+00  0.97517293995E+03  0.37357191254E+04  0.36061939938E+04 0.  0.
        2    1    3    3  502    0  0.12371042518E+04  0.31873539308E+03 -0.83057094615E+03  0.15237674616E+04  0.25500000920E-02 0. -1.
       -2    1    3    3    0  502 -0.12371042518E+04 -0.31873539308E+03  0.18057438861E+04  0.22119516637E+04  0.25500000920E-02 0.  1.
</event>
<event>
 5   0  0.7236375E-08  0.3572241E+04  0.7818609E-02  0.8096880E-01
        1   -1    0    0  501    0  0.00000000000E+00  0.00000000000E+00  0.23212852848E+04  0.23212852848E+04  0.50400001928E-02 0.  1.
       -1   -1    0    0    0  501  0.00000000000E+00  0.00000000000E+00 -0.13743360165E+04  0.13743360165E+04  0.50400001928E-02 0. -1.
    10030    2    1    2    0    0  0.00000000000E+00  0.00000000000E+00  0.94694926831E+03  0.36956213014E+04  0.35722407374E+04 0.  0.
        1    1    3    3  502    0 -0.49639839356E+03 -0.47331387474E+03 -0.12326639948E+04  0.14106374139E+04  0.50400001928E-02 0. -1.
       -1    1    3    3    0  502  0.49639839356E+03  0.47331387474E+03  0.21796132632E+04  0.22849838875E+04  0.50400001928E-02 0.  1.
</event>
<event>
 5   0  0.7347303E-08  0.3597785E+04  0.7818609E-02  0.8090999E-01
        1   -1    0    0  501    0  0.00000000000E+00  0.00000000000E+00  0.18407393980E+04  0.18407393980E+04  0.50400001928E-02 0. -1.
       -1   -1    0    0    0  501  0.00000000000E+00  0.00000000000E+00 -0.17579965429E+04  0.17579965429E+04  0.50400001928E-02 0.  1.
    10030    2    1    2    0    0  0.00000000000E+00  0.00000000000E+00  0.82742855088E+02  0.35987359410E+04  0.35977845951E+04 0.  0.
        2    1    3    3  502    0  0.11404095993E+04  0.69309344023E+03 -0.11652231855E+04  0.17716257063E+04  0.25500000920E-02 0.  1.
       -2    1    3    3    0  502 -0.11404095993E+04 -0.69309344023E+03  0.12479660406E+04  0.18271102347E+04  0.25500000920E-02 0. -1.
</event>
<event>
 5   0  0.2309391E-07  0.3598442E+04  0.7818609E-02  0.8090849E-01
       -2   -1    0    0    0  501  0.00000000000E+00  0.00000000000E+00  0.17365337249E+04  0.17365337249E+04  0.25500000920E-02 0. -1.
        2   -1    0    0  501    0  0.00000000000E+00  0.00000000000E+00 -0.18641717179E+04  0.18641717179E+04  0.25500000920E-02 0.  1.
    10030    2    1    2    0    0  0.00000000000E+00  0.00000000000E+00 -0.12763799299E+03  0.36007054427E+04  0.35984424725E+04 0.  0.
        4    1    3    3  502    0  0.32294282895E+03 -0.11678388598E+04  0.12670760032E+04  0.17531750865E+04  0.12699999809E+01 0. -1.
       -4    1    3    3    0  502 -0.32294282895E+03  0.11678388598E+04 -0.13947139961E+04  0.18475303562E+04  0.12699999809E+01 0.  1.
</event>
<event>
 5   0  0.2309391E-07  0.3604785E+04  0.7818609E-02  0.8089396E-01
       -2   -1    0    0    0  501  0.00000000000E+00  0.00000000000E+00  0.26555805537E+04  0.26555805537E+04  0.25500000920E-02 0.  1.
        2   -1    0    0  501    0  0.00000000000E+00  0.00000000000E+00 -0.12233179168E+04  0.12233179168E+04  0.25500000920E-02 0. -1.
    10030    2    1    2    0    0  0.00000000000E+00  0.00000000000E+00  0.14322626369E+04  0.38788984705E+04  0.36047853034E+04 0.  0.
        4    1    3    3  502    0  0.14324435133E+04 -0.82122409793E+03 -0.61537943181E+02  0.16522989951E+04  0.12699999809E+01 0. -1.
       -4    1    3    3    0  502 -0.14324435133E+04  0.82122409793E+03  0.14938005801E+04  0.22265994754E+04  0.12699999809E+01 0.  1.
</event>
<event>
 5   0  0.2342606E-07  0.3595907E+04  0.7818609E-02  0.8091430E-01
       -2   -1    0    0    0  501  0.00000000000E+00  0.00000000000E+00  0.11511170283E+04  0.11511170283E+04  0.25500000920E-02 0. -1.
        2   -1    0    0  501    0  0.00000000000E+00  0.00000000000E+00 -0.28082602387E+04  0.28082602387E+04  0.25500000920E-02 0.  1.
    10030    2    1    2    0    0  0.00000000000E+00  0.00000000000E+00 -0.16571432104E+04  0.39593772670E+04  0.35959066622E+04 0.  0.
        5    1    3    3  502    0 -0.58864294278E+03 -0.25940173603E+03  0.10200689635E+04  0.12059654038E+04  0.46999998093E+01 0. -1.
       -5    1    3    3    0  502  0.58864294278E+03  0.25940173603E+03 -0.26772121739E+04  0.27534118633E+04  0.46999998093E+01 0.  1.
</event>
<event>
 5   0  0.7261233E-08  0.3564678E+04  0.7818609E-02  0.8098631E-01
        1   -1    0    0  501    0  0.00000000000E+00  0.00000000000E+00  0.16851981444E+04  0.16851981444E+04  0.50400001928E-02 0. -1.
       -1   -1    0    0    0  501  0.00000000000E+00  0.00000000000E+00 -0.18850789408E+04  0.18850789408E+04  0.50400001928E-02 0.  1.
    10030    2    1    2    0    0  0.00000000000E+00  0.00000000000E+00 -0.19988079638E+03  0.35702770852E+04  0.35646775636E+04 0.  0.
        3    1    3    3  502    0 -0.13139090720E+03 -0.89507891069E+03 -0.16380289921E+04  0.18712479301E+04  0.10100000352E+00 0.  1.
       -3    1    3    3    0  502  0.13139090720E+03  0.89507891069E+03  0.14381481957E+04  0.16990291551E+04  0.10100000352E+00 0. -1.
</event>
<event>
 5   0  0.7347303E-08  0.3710584E+04  0.7818609E-02  0.8065620E-01
        1   -1    0    0  501    0  0.00000000000E+00  0.00000000000E+00  0.22417607720E+04  0.22417607720E+04  0.50400001928E-02 0. -1.
       -1   -1    0    0    0  501  0.00000000000E+00  0.00000000000E+00 -0.15354485466E+04  0.15354485466E+04  0.50400001928E-02 0.  1.
    10030    2    1    2    0    0  0.00000000000E+00  0.00000000000E+00  0.70631222541E+03  0.37772093186E+04  0.37105839536E+04 0.  0.
        2    1    3    3  502    0  0.16106976874E+04  0.16563765949E+03 -0.56882469697E+03  0.17162005740E+04  0.25500000920E-02 0.  1.
       -2    1    3    3    0  502 -0.16106976874E+04 -0.16563765949E+03  0.12751369224E+04  0.20610087446E+04  0.25500000920E-02 0. -1.
</event>
<event>
 5   0  0.2199902E-07  0.3608882E+04  0.7818609E-02  0.8088460E-01
        2   -1    0    0  501    0  0.00000000000E+00  0.00000000000E+00  0.24968337954E+04  0.24968337954E+04  0.25500000920E-02 0. -1.
       -2   -1    0    0    0  501  0.00000000000E+00  0.00000000000E+00 -0.13040546571E+04  0.13040546571E+04  0.25500000920E-02 0.  1.
    10030    2    1    2    0    0  0.00000000000E+00  0.00000000000E+00  0.11927791383E+04  0.38008884525E+04  0.36088822308E+04 0.  0.
        1    1    3    3  502    0 -0.28872743079E+03 -0.71627829467E+02  0.24708300846E+04  0.24886734181E+04  0.50400001928E-02 0. -1.
       -1    1    3    3    0  502  0.28872743079E+03  0.71627829467E+02 -0.12780509462E+04  0.13122150344E+04  0.50400001928E-02 0.  1.
</event>
<event>
 5   0  0.7514289E-08  0.3600432E+04  0.7818609E-02  0.8090393E-01
       -1   -1    0    0    0  501  0.00000000000E+00  0.00000000000E+00  0.15172619068E+04  0.15172619068E+04  0.50400001928E-02 0.  1.
        1   -1    0    0  501    0  0.00000000000E+00  0.00000000000E+00 -0.21359379970E+04  0.21359379970E+04  0.50400001928E-02 0. -1.
    10030    2    1    2    0    0  0.00000000000E+00  0.00000000000E+00 -0.61867609020E+03  0.36531999038E+04  0.36004318398E+04 0.  0.
        4    1    3    3  502    0 -0.69001552608E+03  0.72228779836E+03  0.12102612757E+04  0.15692530256E+04  0.12699999809E+01 0.  1.
       -4    1    3    3    0  502  0.69001552608E+03 -0.72228779836E+03 -0.18289373659E+04  0.20839468782E+04  0.12699999809E+01 0. -1.
</event>
<event>
 5   0  0.2309391E-07  0.3616284E+04  0.7818609E-02  0.8086772E-01
        2   -1    0    0  501    0  0.00000000000E+00  0.00000000000E+00  0.22773406268E+04  0.22773406268E+04  0.25500000920E-02 0.  1.
       -2   -1    0    0    0  501  0.00000000000E+00  0.00000000000E+00 -0.14356123386E+04  0.14356123386E+04  0.25500000920E-02 0. -1.
    10030    2    1    2    0    0  0.00000000000E+00  0.00000000000E+00  0.84172828819E+03  0.37129529654E+04  0.36162844484E+04 0.  0.
        4    1    3    3  502    0  0.16283171309E+04 -0.76431768889E+03  0.23216195987E+03  0.18136976035E+04  0.12699999809E+01 0. -1.
       -4    1    3    3    0  502 -0.16283171309E+04  0.76431768889E+03  0.60956632832E+03  0.18992553619E+04  0.12699999809E+01 0.  1.
</event>
<event>
 5   0  0.2198900E-07  0.3606218E+04  0.7818609E-02  0.8089069E-01
        2   -1    0    0  501    0  0.00000000000E+00  0.00000000000E+00  0.14386587677E+04  0.14386587677E+04  0.25500000920E-02 0. -1.
       -2   -1    0    0    0  501  0.00000000000E+00  0.00000000000E+00 -0.22598841845E+04  0.22598841845E+04  0.25500000920E-02 0.  1.
    10030    2    1    2    0    0  0.00000000000E+00  0.00000000000E+00 -0.82122541677E+03  0.36985429522E+04  0.36062180722E+04 0.  0.
        2    1    3    3  502    0 -0.14392110100E+04  0.94732325195E+03  0.13445619891E+03  0.17282442375E+04  0.25500000920E-02 0. -1.
       -2    1    3    3    0  502  0.14392110100E+04 -0.94732325195E+03 -0.95568161568E+03  0.19702987148E+04  0.25500000920E-02 0.  1.
</event>
<event>
 5   0  0.7514289E-08  0.3580609E+04  0.7818609E-02  0.8094948E-01
        1   -1    0    0  501    0  0.00000000000E+00  0.00000000000E+00  0.16196067764E+04  0.16196067764E+04  0.50400001928E-02 0.  1.
       -1   -1    0    0    0  501  0.00000000000E+00  0.00000000000E+00 -0.19789927620E+04  0.19789927620E+04  0.50400001928E-02 0. -1.
    10030    2    1    2    0    0  0.00000000000E+00  0.00000000000E+00 -0.35938598555E+03  0.35985995384E+04  0.35806089358E+04 0.  0.
        4    1    3    3  502    0 -0.45168973240E+03  0.10395197561E+04  0.12131140958E+04  0.16602025057E+04  0.12699999809E+01 0.  1.
       -4    1    3    3    0  502  0.45168973240E+03 -0.10395197561E+04 -0.15725000813E+04  0.19383970327E+04  0.12699999809E+01 0. -1.
</event>
<event>
 5   0  0.2309391E-07  0.3586229E+04  0.7818609E-02  0.8093653E-01
       -2   -1    0    0    0  501  0.00000000000E+00  0.00000000000E+00  0.16249859205E+04  0.16249859205E+04  0.25500000920E-02 0.  1.
        2   -1    0    0  501    0  0.00000000000E+00  0.00000000000E+00 -0.19786382634E+04  0.19786382634E+04  0.25500000920E-02 0. -1.
    10030    2    1    2    0    0  0.00000000000E+00  0.00000000000E+00 -0.35365234290E+03  0.36036241838E+04  0.35862288380E+04 0.  0.
        4    1    3    3  502    0 -0.74850611477E+03 -0.97550864762E+03 -0.14882925515E+04  0.19305167332E+04  0.12699999809E+01 0. -1.
       -4    1    3    3    0  502  0.74850611477E+03  0.97550864762E+03  0.11346402086E+04  0.16731074506E+04  0.12699999809E+01 0.  1.
</event>
<event>
 5   0  0.7261233E-08  0.3611935E+04  0.7818609E-02  0.8087763E-01
        1   -1    0    0  501    0  0.00000000000E+00  0.00000000000E+00  0.22850614098E+04  0.22850614098E+04  0.50400001928E-02 0.  1.
       -1   -1    0    0    0  501  0.00000000000E+00  0.00000000000E+00 -0.14273221664E+04  0.14273221664E+04  0.50400001928E-02 0. -1.
    10030    2    1    2    0    0  0.00000000000E+00  0.00000000000E+00  0.85773924339E+03  0.37123835762E+04  0.36119351056E+04 0.  0.
        3    1    3    3  502    0  0.27486479008E+02 -0.53621942482E+03  0.22011290846E+04  0.22656690039E+04  0.10100000352E+00 0.  1.
       -3    1    3    3    0  502 -0.27486479008E+02  0.53621942482E+03 -0.13433898412E+04  0.14467145723E+04  0.10100000352E+00 0. -1.
</event>
<event>
 5   0  0.2342606E-07  0.3607495E+04  0.7818609E-02  0.8088777E-01
       -2   -1    0    0    0  501  0.00000000000E+00  0.00000000000E+00  0.20491967227E+04  0.20491967227E+04  0.25500000920E-02 0.  1.
        2   -1    0    0  501    0  0.00000000000E+00  0.00000000000E+00 -0.15876979979E+04  0.15876979979E+04  0.25500000920E-02 0. -1.
    10030    2    1    2    0    0  0.00000000000E+00  0.00000000000E+00  0.46149872483E+03  0.36368947205E+04  0.36074952717E+04 0.  0.
        5    1    3    3  502    0  0.75715828917E+03 -0.19121678370E+03  0.18699245426E+04  0.20264482274E+04  0.46999998093E+01 0.  1.
       -5    1    3    3    0  502 -0.75715828917E+03  0.19121678370E+03 -0.14084258178E+04  0.16104464932E+04  0.46999998093E+01 0. -1.
</event>
<event>
 5   0  0.2342606E-07  0.3599389E+04  0.7818609E-02  0.8090632E-01
       -2   -1    0    0    0  501  0.00000000000E+00  0.00000000000E+00  0.17226117509E+04  0.17226117509E+04  0.25500000920E-02 0. -1.
        2   -1    0    0  501    0  0.00000000000E+00  0.00000000000E+00 -0.18802260426E+04  0.18802260426E+04  0.25500000920E-02 0.  1.
    10030    2    1    2    0    0  0.00000000000E+00  0.00000000000E+00 -0.15761429173E+03  0.36028377935E+04  0.35993885454E+04 0.  0.
        5    1    3    3  502    0  0.66985079061E+03  0.13410640500E+04  0.91800083063E+03  0.17578112762E+04  0.46999998093E+01 0. -1.
       -5    1    3    3    0  502 -0.66985079061E+03 -0.13410640500E+04 -0.10756151224E+04  0.18450265172E+04  0.46999998093E+01 0.  1.
</event>
<event>
 5   0  0.2199902E-07  0.3646214E+04  0.7818609E-02  0.8079987E-01
        2   -1    0    0  501    0  0.00000000000E+00  0.00000000000E+00  0.21369676481E+04  0.21369676481E+04  0.25500000920E-02 0. -1.
       -2   -1    0    0    0  501  0.00000000000E+00  0.00000000000E+00 -0.15553433329E+04  0.15553433329E+04  0.25500000920E-02 0.  1.
    10030    2    1    2    0    0  0.00000000000E+00  0.00000000000E+00  0.58162431514E+03  0.36923109810E+04  0.36462135890E+04 0.  0.
        1    1    3    3  502    0 -0.20174466618E+03 -0.13218499612E+04  0.15457251695E+04  0.20438332931E+04  0.50400001928E-02 0. -1.
       -1    1    3    3    0  502  0.20174466618E+03  0.13218499612E+04 -0.96410085432E+03  0.16484776880E+04  0.50400001928E-02 0.  1.
</event>
<event>
 5   0  0.7514289E-08  0.3584150E+04  0.7818609E-02  0.8094132E-01
        1   -1    0    0  501    0  0.00000000000E+00  0.00000000000E+00  0.11489060054E+04  0.11489060054E+04  0.50400001928E-02 0.  1.
       -1   -1    0    0    0  501  0.00000000000E+00  0.00000000000E+00 -0.27952960553E+04  0.27952960553E+04  0.50400001928E-02 0. -1.
    10030    2    1    2    0    0  0.00000000000E+00  0.00000000000E+00 -0.16463900499E+04  0.39442020607E+04  0.35841497875E+04 0.  0.
        4    1    3    3  502    0 -0.32398580174E+03  0.12267463885E+04  0.56950570929E+03  0.13907594570E+04  0.12699999809E+01 0.  1.
       -4    1    3    3    0  502  0.32398580174E+03 -0.12267463885E+04 -0.22158957592E+04  0.25534426036E+04  0.12699999809E+01 0. -1.
</event>
<event>
 5   0  0.7261233E-08  0.3584320E+04  0.7818609E-02  0.8094093E-01
        1   -1    0    0  501    0  0.00000000000E+00  0.00000000000E+00  0.27277108331E+04  0.27277108331E+04  0.50400001928E-02 0.  1.
       -1   -1    0    0    0  501  0.00000000000E+00  0.00000000000E+00 -0.11774848453E+04  0.11774848453E+04  0.50400001928E-02 0. -1.
    10030    2    1    2    0    0  0.00000000000E+00  0.00000000000E+00  0.15502259878E+04  0.39051956784E+04  0.35843203921E+04 0.  0.
        3    1    3    3  502    0  0.38325401172E+03 -0.11901576063E+04  0.21739842236E+04  0.25079007516E+04  0.10100000352E+00 0.  1.
       -3    1    3    3    0  502 -0.38325401172E+03  0.11901576063E+04 -0.62375823577E+03  0.13972949268E+04  0.10100000352E+00 0. -1.
</event>
<event>
 5   0  0.7261233E-08  0.3598354E+04  0.7818609E-02  0.8090869E-01
        1   -1    0    0  501    0  0.00000000000E+00  0.00000000000E+00  0.93870077532E+03  0.93870077533E+03  0.50400001928E-02 0. -1.
       -1   -1    0    0    0  501  0.00000000000E+00  0.00000000000E+00 -0.34484231862E+04  0.34484231862E+04  0.50400001928E-02 0.  1.
    10030    2    1    2    0    0  0.00000000000E+00  0.00000000000E+00 -0.25097224109E+04  0.43871239615E+04  0.35983538006E+04 0.  0.
        3    1    3    3  502    0 -0.25250670727E+03 -0.27359572239E+03 -0.34009437158E+04  0.34212618176E+04  0.10100000352E+00 0.  1.
       -3    1    3    3    0  502  0.25250670727E+03  0.27359572239E+03  0.89122130491E+03  0.96586214392E+03  0.10100000352E+00 0. -1.
</event>
<event>
 5   0  0.2309391E-07  0.3599582E+04  0.7818609E-02  0.8090587E-01
       -2   -1    0    0    0  501  0.00000000000E+00  0.00000000000E+00  0.11276628945E+04  0.11276628945E+04  0.25500000920E-02 0. -1.
        2   -1    0    0  501    0  0.00000000000E+00  0.00000000000E+00 -0.28725317084E+04  0.28725317085E+04  0.25500000920E-02 0.  1.
    10030    2    1    2    0    0  0.00000000000E+00  0.00000000000E+00 -0.17448688140E+04  0.40001946029E+04  0.35995818762E+04 0.  0.
        4    1    3    3  502    0 -0.56604510344E+03 -0.46157974299E+03  0.95556283496E+03  0.12027322490E+04  0.12699999809E+01 0. -1.
       -4    1    3    3    0  502  0.56604510344E+03  0.46157974299E+03 -0.27004316489E+04  0.27974623539E+04  0.12699999809E+01 0.  1.
</event>
<event>
 5   0  0.7236375E-08  0.3607354E+04  0.7818609E-02  0.8088809E-01
        1   -1    0    0  501    0  0.00000000000E+00  0.00000000000E+00  0.21789726526E+04  0.21789726526E+04  0.50400001928E-02 0. -1.
       -1   -1    0    0    0  501  0.00000000000E+00  0.00000000000E+00 -0.14930200434E+04  0.14930200434E+04  0.50400001928E-02 0.  1.
    10030    2    1    2    0    0  0.00000000000E+00  0.00000000000E+00  0.68595260927E+03  0.36719926960E+04  0.36073535143E+04 0.  0.
        5    1    3    3  502    0 -0.29457594661E+03 -0.93631089350E+03 -0.11973384595E+04  0.15482553259E+04  0.46999998093E+01 0.  1.
       -5    1    3    3    0  502  0.29457594661E+03  0.93631089350E+03  0.18832910687E+04  0.21237373701E+04  0.46999998093E+01 0. -1.
</event>
<event>
 5   0  0.7514289E-08  0.3580176E+04  0.7818609E-02  0.8095048E-01
       -1   -1    0    0    0  501  0.00000000000E+00  0.00000000000E+00  0.17151466546E+04  0.17151466546E+04  0.50400001928E-02 0.  1.
        1   -1    0    0  501    0  0.00000000000E+00  0.00000000000E+00 -0.18683043315E+04  0.18683043315E+04  0.50400001928E-02 0. -1.
    10030    2    1    2    0    0  0.00000000000E+00  0.00000000000E+00 -0.15315767686E+03  0.35834509861E+04  0.35801764895E+04 0.  0.
        4    1    3    3  502    0 -0.58466972290E+03  0.14851845210E+04  0.73459596534E+03  0.17570556597E+04  0.12699999809E+01 0.  1.
       -4    1    3    3    0  502  0.58466972290E+03 -0.14851845210E+04 -0.88775364220E+03  0.18263953264E+04  0.12699999809E+01 0. -1.
</event>
<event>
 5   0  0.7347303E-08  0.3582551E+04  0.7818609E-02  0.8094500E-01
        1   -1    0    0  501    0  0.00000000000E+00  0.00000000000E+00  0.22380528249E+04  0.22380528249E+04  0.50400001928E-02 0.  1.
       -1   -1    0    0    0  501  0.00000000000E+00  0.00000000000E+00 -0.14336870239E+04  0.14336870240E+04  0.50400001928E-02 0. -1.
    10030    2    1    2    0    0  0.00000000000E+00  0.00000000000E+00  0.80436580091E+03  0.36717398488E+04  0.35825506522E+04 0.  0.
        2    1    3    3  502    0 -0.46390609284E+03 -0.80141970854E+03 -0.11693481045E+04  0.14915955892E+04  0.25500000920E-02 0. -1.
       -2    1    3    3    0  502  0.46390609284E+03  0.80141970854E+03  0.19737139054E+04  0.21801442596E+04  0.25500000920E-02 0.  1.
</event>
<event>
 5   0  0.2238968E-07  0.3572912E+04  0.7818609E-02  0.8096725E-01
       -2   -1    0    0    0  501  0.00000000000E+00  0.00000000000E+00  0.18376601387E+04  0.18376601387E+04  0.25500000920E-02 0.  1.
        2   -1    0    0  501    0  0.00000000000E+00  0.00000000000E+00 -0.17366790610E+04  0.17366790610E+04  0.25500000920E-02 0. -1.
    10030    2    1    2    0    0  0.00000000000E+00  0.00000000000E+00  0.10098107764E+03  0.35743391997E+04  0.35729124726E+04 0.  0.
        3    1    3    3  502    0  0.10108907971E+04 -0.22325973172E+03  0.15069842575E+04  0.18283179904E+04  0.10100000352E+00 0.  1.
       -3    1    3    3    0  502 -0.10108907971E+04  0.22325973172E+03 -0.14060031798E+04  0.17460212093E+04  0.10100000352E+00 0. -1.
</event>
<event>
 5   0  0.2309391E-07  0.3596231E+04  0.7818609E-02  0.8091356E-01
       -2   -1    0    0    0  501  0.00000000000E+00  0.00000000000E+00  0.19006852866E+04  0.19006852866E+04  0.25500000920E-02 0. -1.
        2   -1    0    0  501    0  0.00000000000E+00  0.00000000000E+00 -0.17010804960E+04  0.17010804960E+04  0.25500000920E-02 0.  1.
    10030    2    1    2    0    0  0.00000000000E+00  0.00000000000E+00  0.19960479062E+03  0.36017657825E+04  0.35962306211E+04 0.  0.
        4    1    3    3  502    0  0.11026349140E+04 -0.11183074037E+04 -0.77721763124E+03  0.17522796757E+04  0.12699999809E+01 0.  1.
       -4    1    3    3    0  502 -0.11026349140E+04  0.11183074037E+04  0.97682242186E+03  0.18494861068E+04  0.12699999809E+01 0. -1.
</event>
<event>
 5   0  0.2199902E-07  0.3631106E+04  0.7818609E-02  0.8083403E-01
        2   -1    0    0  501    0  0.00000000000E+00  0.00000000000E+00  0.24732481552E+04  0.24732481552E+04  0.25500000920E-02 0.  1.
       -2   -1    0    0    0  501  0.00000000000E+00  0.00000000000E+00 -0.13327545713E+04  0.13327545713E+04  0.25500000920E-02 0. -1.
    10030    2    1    2    0    0  0.00000000000E+00  0.00000000000E+00  0.11404935839E+04  0.38060027264E+04  0.36311060489E+04 0.  0.
        1    1    3    3  502    0  0.11192751748E+04 -0.48348961360E+03 -0.83979730482E+03  0.14804724369E+04  0.50400001928E-02 0. -1.
       -1    1    3    3    0  502 -0.11192751748E+04  0.48348961360E+03  0.19802908887E+04  0.23255302895E+04  0.50400001928E-02 0.  1.
</event>
<event>
 5   0  0.2238968E-07  0.3606376E+04  0.7818609E-02  0.8089033E-01
        2   -1    0    0  501    0  0.00000000000E+00  0.00000000000E+00  0.17632732671E+04  0.17632732671E+04  0.25500000920E-02 0.  1.
       -2   -1    0    0    0  501  0.00000000000E+00  0.00000000000E+00 -0.18440059206E+04  0.18440059206E+04  0.25500000920E-02 0. -1.
    10030    2    1    2    0    0  0.00000000000E+00  0.00000000000E+00 -0.80732653537E+02  0.36072791877E+04  0.36063756566E+04 0.  0.
        3    1    3    3  502    0  0.63728367819E+03  0.45353475415E+03  0.15847444100E+04  0.17672688293E+04  0.10100000352E+00 0.  1.
       -3    1    3    3    0  502 -0.63728367819E+03 -0.45353475415E+03 -0.16654770635E+04  0.18400103584E+04  0.10100000352E+00 0. -1.
</event>
<event>
 5   0  0.7236375E-08  0.3593170E+04  0.7818609E-02  0.8092058E-01
       -1   -1    0    0    0  501  0.00000000000E+00  0.00000000000E+00  0.21892150614E+04  0.21892150614E+04  0.50400001928E-02 0.  1.
        1   -1    0    0  501    0  0.00000000000E+00  0.00000000000E+00 -0.14743717292E+04  0.14743717292E+04  0.50400001928E-02 0. -1.
    10030    2    1    2    0    0  0.00000000000E+00  0.00000000000E+00  0.71484333221E+03  0.36635867906E+04  0.35931695177E+04 0.  0.
        5    1    3    3  502    0 -0.15649033425E+03  0.51860819928E+03 -0.13891138021E+04  0.14910073555E+04  0.46999998093E+01 0. -1.
       -5    1    3    3    0  502  0.15649033425E+03 -0.51860819928E+03  0.21039571343E+04  0.21725794351E+04  0.46999998093E+01 0.  1.
</event>
<event>
 5   0  0.7514289E-08  0.3602884E+04  0.7818609E-02  0.8089831E-01
        1   -1    0    0  501    0  0.00000000000E+00  0.00000000000E+00  0.12474848310E+04  0.12474848311E+04  0.50400001928E-02 0. -1.
       -1   -1    0    0    0  501  0.00000000000E+00  0.00000000000E+00 -0.26013887555E+04  0.26013887555E+04  0.50400001928E-02 0.  1.
    10030    2    1    2    0    0  0.00000000000E+00  0.00000000000E+00 -0.13539039244E+04  0.38488735865E+04  0.36028838517E+04 0.  0.
        4    1    3    3  502    0  0.12135598320E+04 -0.10720150666E+04  0.16640940612E+03  0.16277707063E+04  0.12699999809E+01 0. -1.
       -4    1    3    3    0  502 -0.12135598320E+04  0.10720150666E+04 -0.15203133305E+04  0.22211028803E+04  0.12699999809E+01 0.  1.
</event>
<event>
 5   0  0.7236375E-08  0.3605634E+04  0.7818609E-02  0.8089202E-01
       -1   -1    0    0    0  501  0.00000000000E+00  0.00000000000E+00  0.14982418819E+04  0.14982418819E+04  0.50400001928E-02 0.  1.
        1   -1    0    0  501    0  0.00000000000E+00  0.00000000000E+00 -0.21693087978E+04  0.21693087978E+04  0.50400001928E-02 0. -1.
    10030    2    1    2    0    0  0.00000000000E+00  0.00000000000E+00 -0.67106691589E+03  0.36675506797E+04  0.36056340888E+04 0.  0.
        5    1    3    3  502    0 -0.90142727756E+03 -0.80934553152E+03 -0.16935691257E+04  0.20822607425E+04  0.46999998093E+01 0. -1.
       -5    1    3    3    0  502  0.90142727756E+03  0.80934553152E+03  0.10225022098E+04  0.15852899372E+04  0.46999998093E+01 0.  1.
</event>
<event>
 5   0  0.7236375E-08  0.3606423E+04  0.7818609E-02  0.8089022E-01
        1   -1    0    0  501    0  0.00000000000E+00  0.00000000000E+00  0.17237713698E+04  0.17237713698E+04  0.50400001928E-02 0. -1.
       -1   -1    0    0    0  501  0.00000000000E+00  0.00000000000E+00 -0.18863125136E+04  0.18863125136E+04  0.50400001928E-02 0.  1.
    10030    2    1    2    0    0  0.00000000000E+00  0.00000000000E+00 -0.16254114373E+03  0.36100838834E+04  0.36064228845E+04 0.  0.
        1    1    3    3  502    0  0.11483431381E+04  0.12611010824E+04  0.50456159615E+03  0.17786653162E+04  0.50400001928E-02 0. -1.
       -1    1    3    3    0  502 -0.11483431381E+04 -0.12611010824E+04 -0.66710273989E+03  0.18314185672E+04  0.50400001928E-02 0.  1.
</event>
<event>
 5   0  0.2309391E-07  0.3618182E+04  0.7818609E-02  0.8086340E-01
       -2   -1    0    0    0  501  0.00000000000E+00  0.00000000000E+00  0.17949981814E+04  0.17949981814E+04  0.25500000920E-02 0. -1.
        2   -1    0    0  501    0  0.00000000000E+00  0.00000000000E+00 -0.18232942375E+04  0.18232942375E+04  0.25500000920E-02 0.  1.
    10030    2    1    2    0    0  0.00000000000E+00  0.00000000000E+00 -0.28296056070E+02  0.36182924188E+04  0.36181817756E+04 0.  0.
        4    1    3    3  502    0 -0.11013192824E+04 -0.35168289709E+03 -0.14056729563E+04  0.18200283225E+04  0.12699999809E+01 0.  1.
       -4    1    3    3    0  502  0.11013192824E+04  0.35168289709E+03  0.13773769002E+04  0.17982640963E+04  0.12699999809E+01 0. -1.
</event>
<event>
 5   0  0.2199902E-07  0.3588169E+04  0.7818609E-02  0.8093207E-01
       -2   -1    0    0    0  501  0.00000000000E+00  0.00000000000E+00  0.14595048608E+04  0.14595048608E+04  0.25500000920E-02 0. -1.
        2   -1    0    0  501    0  0.00000000000E+00  0.00000000000E+00 -0.22053639254E+04  0.22053639254E+04  0.25500000920E-02 0.  1.
    10030    2    1    2    0    0  0.00000000000E+00  0.00000000000E+00 -0.74585906468E+03  0.36648687862E+04  0.35881690980E+04 0.  0.
        1    1    3    3  502    0 -0.77928565809E+03 -0.70855028207E+03 -0.18563559228E+04  0.21343352481E+04  0.50400001928E-02 0.  1.
       -1    1    3    3    0  502  0.77928565809E+03  0.70855028207E+03  0.11104968582E+04  0.15305335381E+04  0.50400001928E-02 0. -1.
</event>
<event>
 5   0  0.2198900E-07  0.3577333E+04  0.7818609E-02  0.8095704E-01
       -2   -1    0    0    0  501  0.00000000000E+00  0.00000000000E+00  0.20913641991E+04  0.20913641991E+04  0.25500000920E-02 0.  1.
        2   -1    0    0  501    0  0.00000000000E+00  0.00000000000E+00 -0.15297807330E+04  0.15297807330E+04  0.25500000920E-02 0. -1.
    10030    2    1    2    0    0  0.00000000000E+00  0.00000000000E+00  0.56158346614E+03  0.36211449321E+04  0.35773334525E+04 0.  0.
        2    1    3    3  502    0 -0.73197572927E+03 -0.16215524180E+04  0.46773690749E+03  0.18395647657E+04  0.25500000920E-02 0.  1.
       -2    1    3    3    0  502  0.73197572927E+03  0.16215524180E+04  0.93846558647E+02  0.17815801664E+04  0.25500000920E-02 0. -1.
</event>
<event>
 5   0  0.7261233E-08  0.3596934E+04  0.7818609E-02  0.8091194E-01
       -1   -1    0    0    0  501  0.00000000000E+00  0.00000000000E+00  0.15836915918E+04  0.15836915918E+04  0.50400001928E-02 0. -1.
        1   -1    0    0  501    0  0.00000000000E+00  0.00000000000E+00 -0.20423699613E+04  0.20423699613E+04  0.50400001928E-02 0.  1.
    10030    2    1    2    0    0  0.00000000000E+00  0.00000000000E+00 -0.45867836959E+03  0.36260615531E+04  0.35969343253E+04 0.  0.
        3    1    3    3  502    0  0.10216622744E+04 -0.36923468987E+03 -0.16742482743E+04  0.19958044376E+04  0.10100000352E+00 0.  1.
       -3    1    3    3    0  502 -0.10216622744E+04  0.36923468987E+03  0.12155699047E+04  0.16302571155E+04  0.10100000352E+00 0. -1.
</event>
<event>
 5   0  0.2238968E-07  0.3609913E+04  0.7818609E-02  0.8088225E-01
       -2   -1    0    0    0  501  0.00000000000E+00  0.00000000000E+00  0.16795411251E+04  0.16795411251E+04  0.25500000920E-02 0. -1.
        2   -1    0    0  501    0  0.00000000000E+00  0.00000000000E+00 -0.19397373799E+04  0.19397373799E+04  0.25500000920E-02 0.  1.
    10030    2    1    2    0    0  0.00000000000E+00  0.00000000000E+00 -0.26019625485E+03  0.36192785050E+04  0.36099134070E+04 0.  0.
        3    1    3    3  502    0 -0.13950764486E+04  0.85666953676E+03  0.63197093550E+03  0.17548527762E+04  0.10100000352E+00 0. -1.
       -3    1    3    3    0  502  0.13950764486E+04 -0.85666953676E+03 -0.89216719035E+03  0.18644257288E+04  0.10100000352E+00 0.  1.
</event>
<event>
 5   0  0.2342606E-07  0.3617014E+04  0.7818609E-02  0.8086605E-01
       -2   -1    0    0    0  501  0.00000000000E+00  0.00000000000E+00  0.18016953603E+04  0.18016953603E+04  0.25500000920E-02 0.  1.
        2   -1    0    0  501    0  0.00000000000E+00  0.00000000000E+00 -0.18153447979E+04  0.18153447979E+04  0.25500000920E-02 0. -1.
    10030    2    1    2    0    0  0.00000000000E+00  0.00000000000E+00 -0.13649437621E+02  0.36170401582E+04  0.36170144040E+04 0.  0.
        5    1    3    3  502    0 -0.15580402772E+04  0.85866176651E+03  0.31857992603E+03  0.18072921164E+04  0.46999998093E+01 0.  1.
       -5    1    3    3    0  502  0.15580402772E+04 -0.85866176651E+03 -0.33222936365E+03  0.18097480418E+04  0.46999998093E+01 0. -1.
</event>
<event>
 5   0  0.2199902E-07  0.3593253E+04  0.7818609E-02  0.8092039E-01
        2   -1    0    0  501    0  0.00000000000E+00  0.00000000000E+00  0.21482384363E+04  0.21482384363E+04  0.25500000920E-02 0. -1.
       -2   -1    0    0    0  501  0.00000000000E+00  0.00000000000E+00 -0.15025647388E+04  0.15025647388E+04  0.25500000920E-02 0.  1.
    10030    2    1    2    0    0  0.00000000000E+00  0.00000000000E+00  0.64567369748E+03  0.36508031752E+04  0.35932533031E+04 0.  0.
        1    1    3    3  502    0  0.51240279120E+03 -0.12882262265E+04 -0.83817389828E+03  0.16200675649E+04  0.50400001928E-02 0.  1.
       -1    1    3    3    0  502 -0.51240279120E+03  0.12882262265E+04  0.14838475958E+04  0.20307356102E+04  0.50400001928E-02 0. -1.
</event>
<event>
 5   0  0.7261233E-08  0.3594681E+04  0.7818609E-02  0.8091711E-01
        1   -1    0    0  501    0  0.00000000000E+00  0.00000000000E+00  0.17742781055E+04  0.17742781055E+04  0.50400001928E-02 0.  1.
       -1   -1    0    0    0  501  0.00000000000E+00  0.00000000000E+00 -0.18207027931E+04  0.18207027931E+04  0.50400001928E-02 0. -1.
    10030    2    1    2    0    0  0.00000000000E+00  0.00000000000E+00 -0.46424687629E+02  0.35949808986E+04  0.35946811277E+04 0.  0.
        3    1    3    3  502    0 -0.12849156302E+04 -0.49384987840E+03  0.11325384819E+04  0.17825653711E+04  0.10100000352E+00 0.  1.
       -3    1    3    3    0  502  0.12849156302E+04  0.49384987840E+03 -0.11789631695E+04  0.18124155275E+04  0.10100000352E+00 0. -1.
</event>
<event>
 5   0  0.7514289E-08  0.3606328E+04  0.7818609E-02  0.8089044E-01
        1   -1    0    0  501    0  0.00000000000E+00  0.00000000000E+00  0.21013554225E+04  0.21013554225E+04  0.50400001928E-02 0.  1.
       -1   -1    0    0    0  501  0.00000000000E+00  0.00000000000E+00 -0.15472875166E+04  0.15472875166E+04  0.50400001928E-02 0. -1.
    10030    2    1    2    0    0  0.00000000000E+00  0.00000000000E+00  0.55406790588E+03  0.36486429391E+04  0.36063283340E+04 0.  0.
        4    1    3    3  502    0  0.39657993734E+03 -0.15217382759E+04  0.11696766600E+04  0.19598745186E+04  0.12699999809E+01 0.  1.
       -4    1    3    3    0  502 -0.39657993734E+03  0.15217382759E+04 -0.61560875407E+03  0.16887684205E+04  0.12699999809E+01 0. -1.
</event>
<event>
 5   0  0.7261233E-08  0.3594844E+04  0.7818609E-02  0.8091674E-01
        1   -1    0    0  501    0  0.00000000000E+00  0.00000000000E+00  0.21042522149E+04  0.21042522149E+04  0.50400001928E-02 0. -1.
       -1   -1    0    0    0  501  0.00000000000E+00  0.00000000000E+00 -0.15353324395E+04  0.15353324395E+04  0.50400001928E-02 0.  1.
    10030    2    1    2    0    0  0.00000000000E+00  0.00000000000E+00  0.56891977541E+03  0.36395846544E+04  0.35948444676E+04 0.  0.
        3    1    3    3  502    0 -0.22942170153E+03 -0.11495195787E+04  0.16640251470E+04  0.20354383506E+04  0.10100000352E+00 0. -1.
       -3    1    3    3    0  502  0.22942170153E+03  0.11495195787E+04 -0.10951053716E+04  0.16041463038E+04  0.10100000352E+00 0.  1.
</event>
<event>
 5   0  0.2309391E-07  0.3601280E+04  0.7818609E-02  0.8090199E-01
        2   -1    0    0  501    0  0.00000000000E+00  0.00000000000E+00  0.31743549268E+04  0.31743549268E+04  0.25500000920E-02 0.  1.
       -2   -1    0    0    0  501  0.00000000000E+00  0.00000000000E+00 -0.10214056621E+04  0.10214056621E+04  0.25500000920E-02 0. -1.
    10030    2    1    2    0    0  0.00000000000E+00  0.00000000000E+00  0.21529492647E+04  0.41957605889E+04  0.36012798257E+04 0.  0.
        4    1    3    3  502    0 -0.31680963154E+03  0.42603280094E+03  0.30810908686E+04  0.31264988156E+04  0.12699999809E+01 0.  1.
       -4    1    3    3    0  502  0.31680963154E+03 -0.42603280094E+03 -0.92814160390E+03  0.10692617733E+04  0.12699999809E+01 0. -1.
</event>
<event>
 5   0  0.2342606E-07  0.3582252E+04  0.7818609E-02  0.8094569E-01
       -2   -1    0    0    0  501  0.00000000000E+00  0.00000000000E+00  0.21159903429E+04  0.21159903429E+04  0.25500000920E-02 0.  1.
        2   -1    0    0  501    0  0.00000000000E+00  0.00000000000E+00 -0.15161377933E+04  0.15161377933E+04  0.25500000920E-02 0. -1.
    10030    2    1    2    0    0  0.00000000000E+00  0.00000000000E+00  0.59985254964E+03  0.36321281362E+04  0.35822523245E+04 0.  0.
        5    1    3    3  502    0  0.21444874750E+03 -0.16925668379E+04  0.85280733164E+03  0.19073733775E+04  0.46999998093E+01 0.  1.
       -5    1    3    3    0  502 -0.21444874750E+03  0.16925668379E+04 -0.25295478199E+03  0.17247547588E+04  0.46999998093E+01 0. -1.
</event>
<event>
 5   0  0.2198900E-07  0.3580370E+04  0.7818609E-02  0.8095003E-01
        2   -1    0    0  501    0  0.00000000000E+00  0.00000000000E+00  0.21828186588E+04  0.21828186588E+04  0.25500000920E-02 0. -1.
       -2   -1    0    0    0  501  0.00000000000E+00  0.00000000000E+00 -0.14681765470E+04  0.14681765470E+04  0.25500000920E-02 0.  1.
    10030    2    1    2    0    0  0.00000000000E+00  0.00000000000E+00  0.71464211178E+03  0.36509952058E+04  0.35803704620E+04 0.  0.
        2    1    3    3  502    0  0.63478009873E+03  0.12269384559E+03 -0.13449682168E+04  0.14922932211E+04  0.25500000920E-02 0.  1.
       -2    1    3    3    0  502 -0.63478009873E+03 -0.12269384559E+03  0.20596103286E+04  0.21587019848E+04  0.25500000920E-02 0. -1.
</event>
<event>
 5   0  0.2238968E-07  0.3578457E+04  0.7818609E-02  0.8095444E-01
        2   -1    0    0  501    0  0.00000000000E+00  0.00000000000E+00  0.20568620117E+04  0.20568620117E+04  0.25500000920E-02 0.  1.
       -2   -1    0    0    0  501  0.00000000000E+00  0.00000000000E+00 -0.15564188161E+04  0.15564188161E+04  0.25500000920E-02 0. -1.
    10030    2    1    2    0    0  0.00000000000E+00  0.00000000000E+00  0.50044319564E+03  0.36132808278E+04  0.35784570625E+04 0.  0.
        3    1    3    3  502    0 -0.99670536259E+03 -0.52655247533E+02  0.17496455357E+04  0.20143122066E+04  0.10100000352E+00 0.  1.
       -3    1    3    3    0  502  0.99670536259E+03  0.52655247533E+02 -0.12492023400E+04  0.15989686212E+04  0.10100000352E+00 0. -1.
</event>
<event>
 5   0  0.2198900E-07  0.3606342E+04  0.7818609E-02  0.8089041E-01
        2   -1    0    0  501    0  0.00000000000E+00  0.00000000000E+00  0.21899881346E+04  0.21899881346E+04  0.25500000920E-02 0. -1.
       -2   -1    0    0    0  501  0.00000000000E+00  0.00000000000E+00 -0.14846772459E+04  0.14846772459E+04  0.25500000920E-02 0.  1.
    10030    2    1    2    0    0  0.00000000000E+00  0.00000000000E+00  0.70531088872E+03  0.36746653805E+04  0.36063419429E+04 0.  0.
        2    1    3    3  502    0  0.11222931618E+04  0.80877584994E+03  0.15311860026E+04  0.20635384394E+04  0.25500000920E-02 0. -1.
       -2    1    3    3    0  502 -0.11222931618E+04 -0.80877584994E+03 -0.82587511386E+03  0.16111269411E+04  0.25500000920E-02 0.  1.
</event>
<event>
 5   0  0.2238968E-07  0.3595210E+04  0.7818609E-02  0.8091590E-01
       -2   -1    0    0    0  501  0.00000000000E+00  0.00000000000E+00  0.13418678746E+04  0.13418678746E+04  0.25500000920E-02 0.  1.
        2   -1    0    0  501    0  0.00000000000E+00  0.00000000000E+00 -0.24081241958E+04  0.24081241958E+04  0.25500000920E-02 0. -1.
    10030    2    1    2    0    0  0.00000000000E+00  0.00000000000E+00 -0.10662563212E+04  0.37499920704E+04  0.35952104230E+04 0.  0.
        3    1    3    3  502    0  0.69016145851E+03  0.21933644703E+03 -0.22492432364E+04  0.23629486797E+04  0.10100000352E+00 0. -1.
       -3    1    3    3    0  502 -0.69016145851E+03 -0.21933644703E+03  0.11829869153E+04  0.13870433907E+04  0.10100000352E+00 0.  1.
</event>
<event>
 5   0  0.2238968E-07  0.3640901E+04  0.7818609E-02  0.8081186E-01
       -2   -1    0    0    0  501  0.00000000000E+00  0.00000000000E+00  0.18935786258E+04  0.18935786258E+04  0.25500000920E-02 0.  1.
        2   -1    0    0  501    0  0.00000000000E+00  0.00000000000E+00 -0.17501468190E+04  0.17501468191E+04  0.25500000920E-02 0. -1.
    10030    2    1    2    0    0  0.00000000000E+00  0.00000000000E+00  0.14343180674E+03  0.36437254448E+04  0.36409013217E+04 0.  0.
        3    1    3    3  502    0 -0.15499849661E+03  0.90880462173E+03  0.16426755872E+04  0.18837020649E+04  0.10100000352E+00 0.  1.
       -3    1    3    3    0  502  0.15499849661E+03 -0.90880462173E+03 -0.14992437805E+04  0.17600233799E+04  0.10100000352E+00 0. -1.
</event>
<event>
 5   0  0.2198900E-07  0.3655827E+04  0.7818609E-02  0.8077822E-01
       -2   -1    0    0    0  501  0.00000000000E+00  0.00000000000E+00  0.14073509460E+04  0.14073509460E+04  0.25500000920E-02 0. -1.
        2   -1    0    0  501    0  0.00000000000E+00  0.00000000000E+00 -0.23741542782E+04  0.23741542782E+04  0.25500000920E-02 0.  1.
    10030    2    1    2    0    0  0.00000000000E+00  0.00000000000E+00 -0.96680333221E+03  0.37815052242E+04  0.36558272768E+04 0.  0.
        2    1    3    3  502    0  0.71473814622E+03 -0.15613929853E+04  0.16460883778E+03  0.17250781843E+04  0.25500000920E-02 0. -1.
       -2    1    3    3    0  502 -0.71473814622E+03  0.15613929853E+04 -0.11314121700E+04  0.20564270400E+04  0.25500000920E-02 0.  1.
</event>
<event>
 5   0  0.7236375E-08  0.3596478E+04  0.7818609E-02  0.8091299E-01
       -1   -1    0    0    0  501  0.00000000000E+00  0.00000000000E+00  0.21766803740E+04  0.21766803740E+04  0.50400001928E-02 0. -1.
        1   -1    0    0  501    0  0.00000000000E+00  0.00000000000E+00 -0.14855938660E+04  0.14855938660E+04  0.50400001928E-02 0.  1.
    10030    2    1    2    0    0  0.00000000000E+00  0.00000000000E+00  0.69108650794E+03  0.36622742400E+04  0.35964777279E+04 0.  0.
        5    1    3    3  502    0  0.11949890513E+03 -0.17731298913E+04  0.65982274231E+02  0.17783827907E+04  0.46999998093E+01 0.  1.
       -5    1    3    3    0  502 -0.11949890513E+03  0.17731298913E+04  0.62510423371E+03  0.18838914493E+04  0.46999998093E+01 0. -1.
</event>
<event>
 5   0  0.7347303E-08  0.3595863E+04  0.7818609E-02  0.8091440E-01
        1   -1    0    0  501    0  0.00000000000E+00  0.00000000000E+00  0.10832084154E+04  0.10832084154E+04  0.50400001928E-02 0. -1.
       -1   -1    0    0    0  501  0.00000000000E+00  0.00000000000E+00 -0.29842433198E+04  0.29842433198E+04  0.50400001928E-02 0.  1.
    10030    2    1    2    0    0  0.00000000000E+00  0.00000000000E+00 -0.19010349044E+04  0.40674517353E+04  0.35958628882E+04 0.  0.
        2    1    3    3  502    0  0.16694491590E+03  0.18472258829E+03  0.10636129122E+04  0.10923669102E+04  0.25500000920E-02 0. -1.
       -2    1    3    3    0  502 -0.16694491590E+03 -0.18472258829E+03 -0.29646478166E+04  0.29750848250E+04  0.25500000920E-02 0.  1.
</event>
<event>
 5   0  0.7347303E-08  0.3660536E+04  0.7818609E-02  0.8076764E-01
       -1   -1    0    0    0  501  0.00000000000E+00  0.00000000000E+00  0.12504252451E+04  0.12504252451E+04  0.50400001928E-02 0. -1.
        1   -1    0    0  501    0  0.00000000000E+00  0.00000000000E+00 -0.26789939852E+04  0.26789939852E+04  0.50400001928E-02 0.  1.
    10030    2    1    2    0    0  0.00000000000E+00  0.00000000000E+00 -0.14285687400E+04  0.39294192303E+04  0.36605364146E+04 0.  0.
        2    1    3    3  502    0 -0.11186946255E+04 -0.13463941399E+04 -0.12879821398E+04  0.21732815827E+04  0.25500000920E-02 0. -1.
       -2    1    3    3    0  502  0.11186946255E+04  0.13463941399E+04 -0.14058660025E+03  0.17561376476E+04  0.25500000920E-02 0.  1.
</event>
<event>
 5   0  0.7261233E-08  0.3603788E+04  0.7818609E-02  0.8089624E-01
       -1   -1    0    0    0  501  0.00000000000E+00  0.00000000000E+00  0.11978677931E+04  0.11978677931E+04  0.50400001928E-02 0. -1.
        1   -1    0    0  501    0  0.00000000000E+00  0.00000000000E+00 -0.27105015861E+04  0.27105015861E+04  0.50400001928E-02 0.  1.
    10030    2    1    2    0    0  0.00000000000E+00  0.00000000000E+00 -0.15126337930E+04  0.39083693792E+04  0.36037883141E+04 0.  0.
        3    1    3    3  502    0 -0.42351714608E+03  0.17339324836E+04 -0.48860611594E+03  0.18505741211E+04  0.10100000352E+00 0.  1.
       -3    1    3    3    0  502  0.42351714608E+03 -0.17339324836E+04 -0.10240276771E+04  0.20577952582E+04  0.10100000352E+00 0. -1.
</event>
<event>
 5   0  0.2199902E-07  0.3649073E+04  0.7818609E-02  0.8079342E-01
       -2   -1    0    0    0  501  0.00000000000E+00  0.00000000000E+00  0.10663679415E+04  0.10663679415E+04  0.25500000920E-02 0. -1.
        2   -1    0    0  501    0  0.00000000000E+00  0.00000000000E+00 -0.31217497272E+04  0.31217497272E+04  0.25500000920E-02 0.  1.
    10030    2    1    2    0    0  0.00000000000E+00  0.00000000000E+00 -0.20553817857E+04  0.41881176687E+04  0.36490732141E+04 0.  0.
        1    1    3    3  502    0 -0.14211174394E+04  0.70378547878E+03 -0.20632157275E+04  0.26022582337E+04  0.50400001928E-02 0. -1.
       -1    1    3    3    0  502  0.14211174394E+04 -0.70378547878E+03  0.78339417555E+01  0.15858594350E+04  0.50400001928E-02 0.  1.
</event>
<event>
 5   0  0.7261233E-08  0.3598583E+04  0.7818609E-02  0.8090816E-01
        1   -1    0    0  501    0  0.00000000000E+00  0.00000000000E+00  0.18492014938E+04  0.18492014938E+04  0.50400001928E-02 0. -1.
       -1   -1    0    0    0  501  0.00000000000E+00  0.00000000000E+00 -0.17507286982E+04  0.17507286982E+04  0.50400001928E-02 0.  1.
    10030    2    1    2    0    0  0.00000000000E+00  0.00000000000E+00  0.98472795619E+02  0.35999301920E+04  0.35985831234E+04 0.  0.
        3    1    3    3  502    0 -0.15717283595E+03  0.17905445304E+04  0.13110283065E+03  0.18022044773E+04  0.10100000352E+00 0. -1.
       -3    1    3    3    0  502  0.15717283595E+03 -0.17905445304E+04 -0.32630035027E+02  0.17977257146E+04  0.10100000352E+00 0.  1.
</event>
<event>
 5   0  0.2238968E-07  0.3592170E+04  0.7818609E-02  0.8092288E-01
        2   -1    0    0  501    0  0.00000000000E+00  0.00000000000E+00  0.23239906486E+04  0.23239906486E+04  0.25500000920E-02 0.  1.
       -2   -1    0    0    0  501  0.00000000000E+00  0.00000000000E+00 -0.13880957906E+04  0.13880957906E+04  0.25500000920E-02 0. -1.
    10030    2    1    2    0    0  0.00000000000E+00  0.00000000000E+00  0.93589485803E+03  0.37120864392E+04  0.35921701723E+04 0.  0.
        3    1    3    3  502    0 -0.16931126409E+04  0.55603122390E+03  0.69929707088E+03  0.19143713172E+04  0.10100000352E+00 0. -1.
       -3    1    3    3    0  502  0.16931126409E+04 -0.55603122390E+03  0.23659778715E+03  0.17977151220E+04  0.10100000352E+00 0.  1.
</event>
<event>
 5   0  0.7236375E-08  0.3608349E+04  0.7818609E-02  0.8088582E-01
       -1   -1    0    0    0  501  0.00000000000E+00  0.00000000000E+00  0.21165707717E+04  0.21165707718E+04  0.50400001928E-02 0.  1.
        1   -1    0    0  501    0  0.00000000000E+00  0.00000000000E+00 -0.15378861899E+04  0.15378861899E+04  0.50400001928E-02 0. -1.
    10030    2    1    2    0    0  0.00000000000E+00  0.00000000000E+00  0.57868458183E+03  0.36544569617E+04  0.36083486305E+04 0.  0.
        1    1    3    3  502    0  0.13167542497E+04 -0.12138997032E+04  0.68262483437E+02  0.17922204134E+04  0.50400001928E-02 0.  1.
       -1    1    3    3    0  502 -0.13167542497E+04  0.12138997032E+04  0.51042209839E+03  0.18622365483E+04  0.50400001928E-02 0. -1.
</event>
<event>
 5   0  0.2309391E-07  0.3595861E+04  0.7818609E-02  0.8091440E-01
       -2   -1    0    0    0  501  0.00000000000E+00  0.00000000000E+00  0.15983897868E+04  0.15983897868E+04  0.25500000920E-02 0. -1.
        2   -1    0    0  501    0  0.00000000000E+00  0.00000000000E+00 -0.20223814839E+04  0.20223814839E+04  0.25500000920E-02 0.  1.
    10030    2    1    2    0    0  0.00000000000E+00  0.00000000000E+00 -0.42399169716E+03  0.36207712707E+04  0.35958609033E+04 0.  0.
        4    1    3    3  502    0  0.12867222838E+03  0.46856324007E+02 -0.20171223665E+04  0.20217656422E+04  0.12699999809E+01 0.  1.
       -4    1    3    3    0  502 -0.12867222838E+03 -0.46856324007E+02  0.15931306694E+04  0.15990056285E+04  0.12699999809E+01 0. -1.
</event>
<event>
 5   0  0.2309391E-07  0.3548535E+04  0.7818609E-02  0.8102383E-01
       -2   -1    0    0    0  501  0.00000000000E+00  0.00000000000E+00  0.29626460706E+04  0.29626460706E+04  0.25500000920E-02 0. -1.
        2   -1    0    0  501    0  0.00000000000E+00  0.00000000000E+00 -0.10625718473E+04  0.10625718473E+04  0.25500000920E-02 0.  1.
    10030    2    1    2    0    0  0.00000000000E+00  0.00000000000E+00  0.19000742233E+04  0.40252179180E+04  0.35485345191E+04 0.  0.
        4    1    3    3  502    0  0.11312703996E+04  0.11008324983E+04  0.31005322136E+02  0.15787868283E+04  0.12699999809E+01 0. -1.
       -4    1    3    3    0  502 -0.11312703996E+04 -0.11008324983E+04  0.18690689012E+04  0.24464310897E+04  0.12699999809E+01 0.  1.
</event>
<event>
 5   0  0.7236375E-08  0.3585344E+04  0.7818609E-02  0.8093857E-01
       -1   -1    0    0    0  501  0.00000000000E+00  0.00000000000E+00  0.13958506901E+04  0.13958506901E+04  0.50400001928E-02 0.  1.
        1   -1    0    0  501    0  0.00000000000E+00  0.00000000000E+00 -0.23023037090E+04  0.23023037090E+04  0.50400001928E-02 0. -1.
    10030    2    1    2    0    0  0.00000000000E+00  0.00000000000E+00 -0.90645301888E+03  0.36981543991E+04  0.35853436215E+04 0.  0.
        5    1    3    3  502    0 -0.66554029270E+03 -0.10376165395E+04 -0.17957392415E+04  0.21781399123E+04  0.46999998093E+01 0. -1.
       -5    1    3    3    0  502  0.66554029270E+03  0.10376165395E+04  0.88928622258E+03  0.15200144868E+04  0.46999998093E+01 0.  1.
</event>
<event>
 5   0  0.7261233E-08  0.3599418E+04  0.7818609E-02  0.8090625E-01
       -1   -1    0    0    0  501  0.00000000000E+00  0.00000000000E+00  0.20031421054E+04  0.20031421054E+04  0.50400001928E-02 0. -1.
        1   -1    0    0  501    0  0.00000000000E+00  0.00000000000E+00 -0.16169360767E+04  0.16169360767E+04  0.50400001928E-02 0.  1.
    10030    2    1    2    0    0  0.00000000000E+00  0.00000000000E+00  0.38620602870E+03  0.36200781821E+04  0.35994181402E+04 0.  0.
        3    1    3    3  502    0 -0.51322063364E+03  0.11733380337E+04  0.14648112827E+04  0.19457105808E+04  0.10100000352E+00 0. -1.
       -3    1    3    3    0  502  0.51322063364E+03 -0.11733380337E+04 -0.10786052540E+04  0.16743676013E+04  0.10100000352E+00 0.  1.
</event>
<event>
 5   0  0.7347303E-08  0.3613885E+04  0.7818609E-02  0.8087319E-01
       -1   -1    0    0    0  501  0.00000000000E+00  0.00000000000E+00  0.21685288838E+04  0.21685288838E+04  0.50400001928E-02 0.  1.
        1   -1    0    0  501    0  0.00000000000E+00  0.00000000000E+00 -0.15056477789E+04  0.15056477789E+04  0.50400001928E-02 0. -1.
    10030    2    1    2    0    0  0.00000000000E+00  0.00000000000E+00  0.66288110490E+03  0.36741766627E+04  0.36138847228E+04 0.  0.
        2    1    3    3  502    0  0.11677056147E+04 -0.12184542883E+04 -0.32498858964E+03  0.17186578597E+04  0.25500000920E-02 0. -1.
       -2    1    3    3    0  502 -0.11677056147E+04  0.12184542883E+04  0.98786969454E+03  0.19555188030E+04  0.25500000920E-02 0.  1.
</event>
<event>
 5   0  0.2309391E-07  0.3571158E+04  0.7818609E-02  0.8097131E-01
       -2   -1    0    0    0  501  0.00000000000E+00  0.00000000000E+00  0.17067733729E+04  0.17067733729E+04  0.25500000920E-02 0. -1.
        2   -1    0    0  501    0  0.00000000000E+00  0.00000000000E+00 -0.18680228144E+04  0.18680228144E+04  0.25500000920E-02 0.  1.
    10030    2    1    2    0    0  0.00000000000E+00  0.00000000000E+00 -0.16124944145E+03  0.35747961873E+04  0.35711575712E+04 0.  0.
        4    1    3    3  502    0 -0.12326216144E+04 -0.55929517631E+03 -0.12463381226E+04  0.18399802900E+04  0.12699999809E+01 0.  1.
       -4    1    3    3    0  502  0.12326216144E+04  0.55929517631E+03  0.10850886812E+04  0.17348158973E+04  0.12699999809E+01 0. -1.
</event>
<event>
 5   0  0.7261233E-08  0.3562865E+04  0.7818609E-02  0.8099051E-01
        1   -1    0    0  501    0  0.00000000000E+00  0.00000000000E+00  0.18321497047E+04  0.18321497048E+04  0.50400001928E-02 0. -1.
       -1   -1    0    0    0  501  0.00000000000E+00  0.00000000000E+00 -0.17321192425E+04  0.17321192425E+04  0.50400001928E-02 0.  1.
    10030    2    1    2    0    0  0.00000000000E+00  0.00000000000E+00  0.10003046227E+03  0.35642689472E+04  0.35628650037E+04 0.  0.
        3    1    3    3  502    0  0.61037056025E+03  0.14476562351E+04 -0.79010193999E+03  0.17585567610E+04  0.10100000352E+00 0.  1.
       -3    1    3    3    0  502 -0.61037056025E+03 -0.14476562351E+04  0.89013240226E+03  0.18057121862E+04  0.10100000352E+00 0. -1.
</event>
<event>
 5   0  0.2198900E-07  0.3595097E+04  0.7818609E-02  0.8091616E-01
        2   -1    0    0  501    0  0.00000000000E+00  0.00000000000E+00  0.26154109587E+04  0.26154109587E+04  0.25500000920E-02 0.  1.
       -2   -1    0    0    0  501  0.00000000000E+00  0.00000000000E+00 -0.12354388831E+04  0.12354388831E+04  0.25500000920E-02 0. -1.
    10030    2    1    2    0    0  0.00000000000E+00  0.00000000000E+00  0.13799720756E+04  0.38508498418E+04  0.35950968797E+04 0.  0.
        2    1    3    3  502    0 -0.52384345932E+03 -0.17144928517E+04  0.83080190555E+03  0.19758870197E+04  0.25500000920E-02 0.  1.
       -2    1    3    3    0  502  0.52384345932E+03  0.17144928517E+04  0.54917017008E+03  0.18749628221E+04  0.25500000920E-02 0. -1.
</event>
<event>
 5   0  0.2309391E-07  0.3598548E+04  0.7818609E-02  0.8090824E-01
        2   -1    0    0  501    0  0.00000000000E+00  0.00000000000E+00  0.19377702029E+04  0.19377702029E+04  0.25500000920E-02 0.  1.
       -2   -1    0    0    0  501  0.00000000000E+00  0.00000000000E+00 -0.16706766830E+04  0.16706766830E+04  0.25500000920E-02 0. -1.
    10030    2    1    2    0    0  0.00000000000E+00  0.00000000000E+00  0.26709351990E+03  0.36084468859E+04  0.35985483156E+04 0.  0.
        4    1    3    3  502    0  0.46066371061E+03 -0.14239420077E+04 -0.86798185026E+03  0.17300913273E+04  0.12699999809E+01 0. -1.
       -4    1    3    3    0  502 -0.46066371061E+03  0.14239420077E+04  0.11350753702E+04  0.18783555586E+04  0.12699999809E+01 0.  1.
</event>
<event>
 5   0  0.7236375E-08  0.3598429E+04  0.7818609E-02  0.8090852E-01
        1   -1    0    0  501    0  0.00000000000E+00  0.00000000000E+00  0.20045271079E+04  0.20045271079E+04  0.50400001928E-02 0. -1.
       -1   -1    0    0    0  501  0.00000000000E+00  0.00000000000E+00 -0.16149309278E+04  0.16149309278E+04  0.50400001928E-02 0.  1.
    10030    2    1    2    0    0  0.00000000000E+00  0.00000000000E+00  0.38959618017E+03  0.36194580357E+04  0.35984290029E+04 0.  0.
        5    1    3    3  502    0  0.16467933753E+04  0.62643133235E+03  0.56135348381E+03  0.18491848092E+04  0.46999998093E+01 0. -1.
       -5    1    3    3    0  502 -0.16467933753E+04 -0.62643133235E+03 -0.17175730364E+03  0.17702732265E+04  0.46999998093E+01 0.  1.
</event>
<event>
 5   0  0.7347303E-08  0.3599293E+04  0.7818609E-02  0.8090654E-01
       -1   -1    0    0    0  501  0.00000000000E+00  0.00000000000E+00  0.21101736486E+04  0.21101736486E+04  0.50400001928E-02 0.  1.
        1   -1    0    0  501    0  0.00000000000E+00  0.00000000000E+00 -0.15348160292E+04  0.15348160292E+04  0.50400001928E-02 0. -1.
    10030    2    1    2    0    0  0.00000000000E+00  0.00000000000E+00  0.57535761937E+03  0.36449896779E+04  0.35992934531E+04 0.  0.
        2    1    3    3  502    0 -0.14234986634E+04 -0.76949094055E+03 -0.50988821514E+03  0.16965997596E+04  0.25500000920E-02 0. -1.
       -2    1    3    3    0  502  0.14234986634E+04  0.76949094055E+03  0.10852458345E+04  0.19483899183E+04  0.25500000920E-02 0.  1.
</event>
<event>
 5   0  0.2198900E-07  0.3598422E+04  0.7818609E-02  0.8090853E-01
       -2   -1    0    0    0  501  0.00000000000E+00  0.00000000000E+00  0.12970699564E+04  0.12970699564E+04  0.25500000920E-02 0. -1.
        2   -1    0    0  501    0  0.00000000000E+00  0.00000000000E+00 -0.24957486111E+04  0.24957486111E+04  0.25500000920E-02 0.  1.
    10030    2    1    2    0    0  0.00000000000E+00  0.00000000000E+00 -0.11986786547E+04  0.37928185676E+04  0.35984221777E+04 0.  0.
        2    1    3    3  502    0  0.26849017169E+01 -0.17802758763E+04 -0.32494676081E+03  0.18096905266E+04  0.25500000920E-02 0.  1.
       -2    1    3    3    0  502 -0.26849017169E+01  0.17802758763E+04 -0.87373189390E+03  0.19831280410E+04  0.25500000920E-02 0. -1.
</event>
<event>
 5   0  0.2238968E-07  0.3607467E+04  0.7818609E-02  0.8088783E-01
        2   -1    0    0  501    0  0.00000000000E+00  0.00000000000E+00  0.24704887799E+04  0.24704887799E+04  0.25500000920E-02 0.  1.
       -2   -1    0    0    0  501  0.00000000000E+00  0.00000000000E+00 -0.13169277792E+04  0.13169277792E+04  0.25500000920E-02 0. -1.
    10030    2    1    2    0    0  0.00000000000E+00  0.00000000000E+00  0.11535610007E+04  0.37874165590E+04  0.36074674232E+04 0.  0.
        3    1    3    3  502    0 -0.89942116640E+03  0.30061764050E+03  0.21876319700E+04  0.23843370245E+04  0.10100000352E+00 0.  1.
       -3    1    3    3    0  502  0.89942116640E+03 -0.30061764050E+03 -0.10340709693E+04  0.14030795345E+04  0.10100000352E+00 0. -1.
</event>
<event>
 5   0  0.2342606E-07  0.3598143E+04  0.7818609E-02  0.8090917E-01
        2   -1    0    0  501    0  0.00000000000E+00  0.00000000000E+00  0.21602872249E+04  0.21602872249E+04  0.25500000920E-02 0.  1.
       -2   -1    0    0    0  501  0.00000000000E+00  0.00000000000E+00 -0.14982539606E+04  0.14982539606E+04  0.25500000920E-02 0. -1.
    10030    2    1    2    0    0  0.00000000000E+00  0.00000000000E+00  0.66203326427E+03  0.36585411855E+04  0.35981433494E+04 0.  0.
        5    1    3    3  502    0 -0.95202686817E+03  0.15160096358E+04  0.51289465700E+03  0.18621824274E+04  0.46999998093E+01 0. -1.
       -5    1    3    3    0  502  0.95202686817E+03 -0.15160096358E+04  0.14913860726E+03  0.17963587581E+04  0.46999998093E+01 0.  1.
</event>
<event>
 5   0  0.7347303E-08  0.3588067E+04  0.7818609E-02  0.8093230E-01
        1   -1    0    0  501    0  0.00000000000E+00  0.00000000000E+00  0.22512587607E+04  0.22512587607E+04  0.50400001928E-02 0. -1.
       -1   -1    0    0    0  501  0.00000000000E+00  0.00000000000E+00 -0.14296699587E+04  0.14296699587E+04  0.50400001928E-02 0.  1.
    10030    2    1    2    0    0  0.00000000000E+00  0.00000000000E+00  0.82158880200E+03  0.36809287194E+04  0.35880674572E+04 0.  0.
        2    1    3    3  502    0  0.16668707235E+04 -0.64657662715E+03  0.56308731760E+03  0.18744563667E+04  0.25500000920E-02 0. -1.
       -2    1    3    3    0  502 -0.16668707235E+04  0.64657662715E+03  0.25850148440E+03  0.18064723527E+04  0.25500000920E-02 0.  1.
</event>
<event>
 5   0  0.2198900E-07  0.3845899E+04  0.7818609E-02  0.8036376E-01
       -2   -1    0    0    0  501  0.00000000000E+00  0.00000000000E+00  0.24555204297E+04  0.24555204297E+04  0.25500000920E-02 0.  1.
        2   -1    0    0  501    0  0.00000000000E+00  0.00000000000E+00 -0.15058861672E+04  0.15058861673E+04  0.25500000920E-02 0. -1.
    10030    2    1    2    0    0  0.00000000000E+00  0.00000000000E+00  0.94963426245E+03  0.39614065970E+04  0.38458987238E+04 0.  0.
        2    1    3    3  502    0 -0.14974243059E+04 -0.18799387180E+03 -0.75265892292E+03  0.16864509190E+04  0.25500000920E-02 0. -1.
       -2    1    3    3    0  502  0.14974243059E+04  0.18799387180E+03  0.17022931854E+04  0.22749556780E+04  0.25500000920E-02 0.  1.
</event>
<event>
 5   0  0.7347303E-08  0.3572428E+04  0.7818609E-02  0.8096837E-01
        1   -1    0    0  501    0  0.00000000000E+00  0.00000000000E+00  0.11675174115E+04  0.11675174115E+04  0.50400001928E-02 0. -1.
       -1   -1    0    0    0  501  0.00000000000E+00  0.00000000000E+00 -0.27327738532E+04  0.27327738533E+04  0.50400001928E-02 0.  1.
    10030    2    1    2    0    0  0.00000000000E+00  0.00000000000E+00 -0.15652564417E+04  0.39002912648E+04  0.35724283369E+04 0.  0.
        2    1    3    3  502    0 -0.12624531078E+04 -0.10212868835E+04  0.29807362350E+02  0.16241007440E+04  0.25500000920E-02 0.  1.
       -2    1    3    3    0  502  0.12624531078E+04  0.10212868835E+04 -0.15950638041E+04  0.22761905208E+04  0.25500000920E-02 0. -1.
</event>
<event>
 5   0  0.2342606E-07  0.3613696E+04  0.7818609E-02  0.8087362E-01
       -2   -1    0    0    0  501  0.00000000000E+00  0.00000000000E+00  0.11278977332E+04  0.11278977332E+04  0.25500000920E-02 0. -1.
        2   -1    0    0  501    0  0.00000000000E+00  0.00000000000E+00 -0.28945000766E+04  0.28945000766E+04  0.25500000920E-02 0.  1.
    10030    2    1    2    0    0  0.00000000000E+00  0.00000000000E+00 -0.17666023434E+04  0.40223978098E+04  0.36136962103E+04 0.  0.
        5    1    3    3  502    0 -0.36113752270E+03 -0.10002253162E+03 -0.28507637861E+04  0.28752914759E+04  0.46999998093E+01 0.  1.
       -5    1    3    3    0  502  0.36113752270E+03  0.10002253162E+03  0.10841614428E+04  0.11471063338E+04  0.46999998093E+01 0. -1.
</event>
<event>
 5   0  0.7236375E-08  0.3608103E+04  0.7818609E-02  0.8088638E-01
        1   -1    0    0  501    0  0.00000000000E+00  0.00000000000E+00  0.21807612451E+04  0.21807612452E+04  0.50400001928E-02 0. -1.
       -1   -1    0    0    0  501  0.00000000000E+00  0.00000000000E+00 -0.14924157209E+04  0.14924157209E+04  0.50400001928E-02 0.  1.
    10030    2    1    2    0    0  0.00000000000E+00  0.00000000000E+00  0.68834552429E+03  0.36731769660E+04  0.36081033055E+04 0.  0.
        1    1    3    3  502    0 -0.19026438005E+03 -0.17676805180E+04  0.65581037823E+03  0.18949887072E+04  0.50400001928E-02 0. -1.
       -1    1    3    3    0  502  0.19026438005E+03  0.17676805180E+04  0.32535146063E+02  0.17781882588E+04  0.50400001928E-02 0.  1.
</event>
<event>
 5   0  0.7347303E-08  0.3822107E+04  0.7818609E-02  0.8041427E-01
       -1   -1    0    0    0  501  0.00000000000E+00  0.00000000000E+00  0.28833746461E+04  0.28833746461E+04  0.50400001928E-02 0. -1.
        1   -1    0    0  501    0  0.00000000000E+00  0.00000000000E+00 -0.12666151145E+04  0.12666151145E+04  0.50400001928E-02 0.  1.
    10030    2    1    2    0    0  0.00000000000E+00  0.00000000000E+00  0.16167595316E+04  0.41499897607E+04  0.38221072239E+04 0.  0.
        2    1    3    3  502    0  0.11643489228E+04 -0.14756330219E+04  0.43394156349E+03  0.19291206571E+04  0.25500000920E-02 0. -1.
       -2    1    3    3    0  502 -0.11643489228E+04  0.14756330219E+04  0.11828179681E+04  0.22208691035E+04  0.25500000920E-02 0.  1.
</event>
<event>
 5   0  0.7236375E-08  0.3601311E+04  0.7818609E-02  0.8090191E-01
        1   -1    0    0  501    0  0.00000000000E+00  0.00000000000E+00  0.18265112234E+04  0.18265112234E+04  0.50400001928E-02 0. -1.
       -1   -1    0    0    0  501  0.00000000000E+00  0.00000000000E+00 -0.17751659334E+04  0.17751659334E+04  0.50400001928E-02 0.  1.
    10030    2    1    2    0    0  0.00000000000E+00  0.00000000000E+00  0.51345290036E+02  0.36016771568E+04  0.36013111505E+04 0.  0.
        1    1    3    3  502    0  0.15248042946E+04 -0.95736390648E+03  0.53723927794E+02  0.18012384758E+04  0.50400001928E-02 0.  1.
       -1    1    3    3    0  502 -0.15248042946E+04  0.95736390648E+03 -0.23786377575E+01  0.18004386810E+04  0.50400001928E-02 0. -1.
</event>
<event>
 5   0  0.2342606E-07  0.3630997E+04  0.7818609E-02  0.8083428E-01
       -2   -1    0    0    0  501  0.00000000000E+00  0.00000000000E+00  0.14200837751E+04  0.14200837751E+04  0.25500000920E-02 0. -1.
        2   -1    0    0  501    0  0.00000000000E+00  0.00000000000E+00 -0.23210141081E+04  0.23210141081E+04  0.25500000920E-02 0.  1.
    10030    2    1    2    0    0  0.00000000000E+00  0.00000000000E+00 -0.90093033302E+03  0.37410978832E+04  0.36309968200E+04 0.  0.
        5    1    3    3  502    0 -0.84956240400E+03 -0.13834004232E+04  0.38686407528E+03  0.16689035059E+04  0.46999998093E+01 0. -1.
       -5    1    3    3    0  502  0.84956240400E+03  0.13834004232E+04 -0.12877944083E+04  0.20721943773E+04  0.46999998093E+01 0.  1.
</event>
<event>
 5   0  0.7236375E-08  0.3603231E+04  0.7818609E-02  0.8089752E-01
        1   -1    0    0  501    0  0.00000000000E+00  0.00000000000E+00  0.13552811710E+04  0.13552811710E+04  0.50400001928E-02 0.  1.
       -1   -1    0    0    0  501  0.00000000000E+00  0.00000000000E+00 -0.23949411369E+04  0.23949411369E+04  0.50400001928E-02 0. -1.
    10030    2    1    2    0    0  0.00000000000E+00  0.00000000000E+00 -0.10396599659E+04  0.37502223079E+04  0.36032311214E+04 0.  0.
        5    1    3    3  502    0 -0.25921604830E+03 -0.13734669194E+04 -0.17029490421E+04  0.22031027821E+04  0.46999998093E+01 0. -1.
       -5    1    3    3    0  502  0.25921604830E+03  0.13734669194E+04  0.66328907619E+03  0.15471195258E+04  0.46999998093E+01 0.  1.
</event>
<event>
 5   0  0.7261233E-08  0.3578937E+04  0.7818609E-02  0.8095334E-01
       -1   -1    0    0    0  501  0.00000000000E+00  0.00000000000E+00  0.22198842339E+04  0.22198842339E+04  0.50400001928E-02 0.  1.
        1   -1    0    0  501    0  0.00000000000E+00  0.00000000000E+00 -0.14425064308E+04  0.14425064308E+04  0.50400001928E-02 0. -1.
    10030    2    1    2    0    0  0.00000000000E+00  0.00000000000E+00  0.77737780302E+03  0.36623906647E+04  0.35789368718E+04 0.  0.
        3    1    3    3  502    0  0.98350638738E+03  0.10001362181E+03  0.19150835277E+04  0.21551873391E+04  0.10100000352E+00 0.  1.
       -3    1    3    3    0  502 -0.98350638738E+03 -0.10001362181E+03 -0.11377057246E+04  0.15072033256E+04  0.10100000352E+00 0. -1.
</event>
<event>
 5   0  0.2199902E-07  0.3650919E+04  0.7818609E-02  0.8078927E-01
        2   -1    0    0  501    0  0.00000000000E+00  0.00000000000E+00  0.24848206094E+04  0.24848206094E+04  0.25500000920E-02 0.  1.
       -2   -1    0    0    0  501  0.00000000000E+00  0.00000000000E+00 -0.13410633798E+04  0.13410633798E+04  0.25500000920E-02 0. -1.
    10030    2    1    2    0    0  0.00000000000E+00  0.00000000000E+00  0.11437572297E+04  0.38258839892E+04  0.36509187472E+04 0.  0.
        1    1    3    3  502    0  0.31340744064E+03 -0.13466640894E+04  0.18208758831E+04  0.22863327350E+04  0.50400001928E-02 0.  1.
       -1    1    3    3    0  502 -0.31340744064E+03  0.13466640894E+04 -0.67711865340E+03  0.15395512542E+04  0.50400001928E-02 0. -1.
</event>
<event>
 5   0  0.7261233E-08  0.3607903E+04  0.7818609E-02  0.8088684E-01
       -1   -1    0    0    0  501  0.00000000000E+00  0.00000000000E+00  0.13298863488E+04  0.13298863488E+04  0.50400001928E-02 0.  1.
        1   -1    0    0  501    0  0.00000000000E+00  0.00000000000E+00 -0.24470067950E+04  0.24470067950E+04  0.50400001928E-02 0. -1.
    10030    2    1    2    0    0  0.00000000000E+00  0.00000000000E+00 -0.11171204462E+04  0.37768931438E+04  0.36079029544E+04 0.  0.
        3    1    3    3  502    0  0.70136945648E+03 -0.14108505651E+04 -0.14782440840E+04  0.21604684709E+04  0.10100000352E+00 0. -1.
       -3    1    3    3    0  502 -0.70136945648E+03  0.14108505651E+04  0.36112363779E+03  0.16164246730E+04  0.10100000352E+00 0.  1.
</event>
<event>
 5   0  0.2238968E-07  0.3590861E+04  0.7818609E-02  0.8092588E-01
        2   -1    0    0  501    0  0.00000000000E+00  0.00000000000E+00  0.26291704340E+04  0.26291704340E+04  0.25500000920E-02 0. -1.
       -2   -1    0    0    0  501  0.00000000000E+00  0.00000000000E+00 -0.12260792080E+04  0.12260792080E+04  0.25500000920E-02 0.  1.
    10030    2    1    2    0    0  0.00000000000E+00  0.00000000000E+00  0.14030912260E+04  0.38552496420E+04  0.35908612913E+04 0.  0.
        3    1    3    3  502    0  0.10182407070E+04 -0.79722735107E+03  0.20387129491E+04  0.24142775494E+04  0.10100000352E+00 0. -1.
       -3    1    3    3    0  502 -0.10182407070E+04  0.79722735107E+03 -0.63562172304E+03  0.14409720926E+04  0.10100000352E+00 0.  1.
</event>
<event>
 5   0  0.7236375E-08  0.3641274E+04  0.7818609E-02  0.8081102E-01
       -1   -1    0    0    0  501  0.00000000000E+00  0.00000000000E+00  0.12184749099E+04  0.12184749099E+04  0.50400001928E-02 0.  1.
        1   -1    0    0  501    0  0.00000000000E+00  0.00000000000E+00 -0.27203829904E+04  0.27203829904E+04  0.50400001928E-02 0. -1.
    10030    2    1    2    0    0  0.00000000000E+00  0.00000000000E+00 -0.15019080805E+04  0.39388579003E+04  0.36412736338E+04 0.  0.
        1    1    3    3  502    0 -0.10177465851E+04 -0.11219266661E+03 -0.23794170978E+04  0.25903708290E+04  0.50400001928E-02 0. -1.
       -1    1    3    3    0  502  0.10177465851E+04  0.11219266661E+03  0.87750901730E+03  0.13484870713E+04  0.50400001928E-02 0.  1.
</event>
<event>
 5   0  0.7236375E-08  0.3594110E+04  0.7818609E-02  0.8091842E-01
        1   -1    0    0  501    0  0.00000000000E+00  0.00000000000E+00  0.23977383183E+04  0.23977383183E+04  0.50400001928E-02 0.  1.
       -1   -1    0    0    0  501  0.00000000000E+00  0.00000000000E+00 -0.13468555696E+04  0.13468555696E+04  0.50400001928E-02 0. -1.
    10030    2    1    2    0    0  0.00000000000E+00  0.00000000000E+00  0.10508827487E+04  0.37445938879E+04  0.35941102979E+04 0.  0.
        1    1    3    3  502    0  0.12499532554E+04  0.55562011835E+03  0.17397045609E+04  0.22130677387E+04  0.50400001928E-02 0.  1.
       -1    1    3    3    0  502 -0.12499532554E+04 -0.55562011835E+03 -0.68882181220E+03  0.15315261492E+04  0.50400001928E-02 0. -1.
</event>
<event>
 5   0  0.2199902E-07  0.3592731E+04  0.7818609E-02  0.8092159E-01
       -2   -1    0    0    0  501  0.00000000000E+00  0.00000000000E+00  0.15586794524E+04  0.15586794524E+04  0.25500000920E-02 0. -1.
        2   -1    0    0  501    0  0.00000000000E+00  0.00000000000E+00 -0.20702963390E+04  0.20702963390E+04  0.25500000920E-02 0.  1.
    10030    2    1    2    0    0  0.00000000000E+00  0.00000000000E+00 -0.51161688662E+03  0.36289757914E+04  0.35927306406E+04 0.  0.
        1    1    3    3  502    0  0.62653204270E+03  0.69879527942E+03 -0.18029498162E+04  0.20326055404E+04  0.50400001928E-02 0.  1.
       -1    1    3    3    0  502 -0.62653204270E+03 -0.69879527942E+03  0.12913329296E+04  0.15963702510E+04  0.50400001928E-02 0. -1.
</event>
<event>
 5   0  0.7261233E-08  0.3601909E+04  0.7818609E-02  0.8090055E-01
        1   -1    0    0  501    0  0.00000000000E+00  0.00000000000E+00  0.13774790320E+04  0.13774790320E+04  0.50400001928E-02 0. -1.
       -1   -1    0    0    0  501  0.00000000000E+00  0.00000000000E+00 -0.23546175885E+04  0.23546175885E+04  0.50400001928E-02 0.  1.
    10030    2    1    2    0    0  0.00000000000E+00  0.00000000000E+00 -0.97713855648E+03  0.37320966204E+04  0.36019085810E+04 0.  0.
        3    1    3    3  502    0 -0.14452230976E+04 -0.59238604581E+03 -0.14175494314E+04  0.21092741476E+04  0.10100000352E+00 0.  1.
       -3    1    3    3    0  502  0.14452230976E+04  0.59238604581E+03  0.44041087494E+03  0.16228224728E+04  0.10100000352E+00 0. -1.
</event>
<event>
 5   0  0.7236375E-08  0.3612552E+04  0.7818609E-02  0.8087622E-01
       -1   -1    0    0    0  501  0.00000000000E+00  0.00000000000E+00  0.12995758594E+04  0.12995758594E+04  0.50400001928E-02 0. -1.
        1   -1    0    0  501    0  0.00000000000E+00  0.00000000000E+00 -0.25105371424E+04  0.25105371424E+04  0.50400001928E-02 0.  1.
    10030    2    1    2    0    0  0.00000000000E+00  0.00000000000E+00 -0.12109612830E+04  0.38101130018E+04  0.36125522637E+04 0.  0.
        1    1    3    3  502    0 -0.91191126512E+02 -0.17174680859E+04 -0.23372532611E+02  0.17200461398E+04  0.50400001928E-02 0. -1.
       -1    1    3    3    0  502  0.91191126512E+02  0.17174680859E+04 -0.11875887504E+04  0.20900668621E+04  0.50400001928E-02 0.  1.
</event>
<event>
 5   0  0.2238968E-07  0.3605437E+04  0.7818609E-02  0.8089247E-01
        2   -1    0    0  501    0  0.00000000000E+00  0.00000000000E+00  0.26046509134E+04  0.26046509134E+04  0.25500000920E-02 0.  1.
       -2   -1    0    0    0  501  0.00000000000E+00  0.00000000000E+00 -0.12476889776E+04  0.12476889776E+04  0.25500000920E-02 0. -1.
    10030    2    1    2    0    0  0.00000000000E+00  0.00000000000E+00  0.13569619357E+04  0.38523398910E+04  0.36054371359E+04 0.  0.
        3    1    3    3  502    0  0.14010263598E+04 -0.10079294177E+04  0.12225733777E+03  0.17302437513E+04  0.10100000352E+00 0. -1.
       -3    1    3    3    0  502 -0.14010263598E+04  0.10079294177E+04  0.12347045980E+04  0.21220961398E+04  0.10100000352E+00 0.  1.
</event>
<event>
 5   0  0.2342606E-07  0.3598446E+04  0.7818609E-02  0.8090848E-01
        2   -1    0    0  501    0  0.00000000000E+00  0.00000000000E+00  0.22447771142E+04  0.22447771142E+04  0.25500000920E-02 0.  1.
       -2   -1    0    0    0  501  0.00000000000E+00  0.00000000000E+00 -0.14421043105E+04  0.14421043105E+04  0.25500000920E-02 0. -1.
    10030    2    1    2    0    0  0.00000000000E+00  0.00000000000E+00  0.80267280367E+03  0.36868814247E+04  0.35984456381E+04 0.  0.
        5    1    3    3  502    0 -0.44062860845E+03 -0.91876555187E+03 -0.11179745305E+04  0.15126707675E+04  0.46999998093E+01 0. -1.
       -5    1    3    3    0  502  0.44062860845E+03  0.91876555187E+03  0.19206473342E+04  0.21742106573E+04  0.46999998093E+01 0.  1.
</event>
<event>
 5   0  0.2198900E-07  0.3589134E+04  0.7818609E-02  0.8092985E-01
        2   -1    0    0  501    0  0.00000000000E+00  0.00000000000E+00  0.29163196601E+04  0.29163196601E+04  0.25500000920E-02 0.  1.
       -2   -1    0    0    0  501  0.00000000000E+00  0.00000000000E+00 -0.11042930417E+04  0.11042930417E+04  0.25500000920E-02 0. -1.
    10030    2    1    2    0    0  0.00000000000E+00  0.00000000000E+00  0.18120266184E+04  0.40206127018E+04  0.35891344406E+04 0.  0.
        2    1    3    3  502    0  0.53277005696E+03  0.12733091198E+04 -0.37873133554E+03  0.14312922387E+04  0.25500000920E-02 0. -1.
       -2    1    3    3    0  502 -0.53277005696E+03 -0.12733091198E+04  0.21907579539E+04  0.25893204631E+04  0.25500000920E-02 0.  1.
</event>
<event>
 5   0  0.2198900E-07  0.3535300E+04  0.7818609E-02  0.8105475E-01
        2   -1    0    0  501    0  0.00000000000E+00  0.00000000000E+00  0.20040714641E+04  0.20040714641E+04  0.25500000920E-02 0. -1.
       -2   -1    0    0    0  501  0.00000000000E+00  0.00000000000E+00 -0.15591195732E+04  0.15591195732E+04  0.25500000920E-02 0.  1.
    10030    2    1    2    0    0  0.00000000000E+00  0.00000000000E+00  0.44495189082E+03  0.35631910373E+04  0.35353002960E+04 0.  0.
        2    1    3    3  502    0 -0.99704894013E+03  0.14515905028E+04  0.68412342995E+02  0.17623568951E+04  0.25500000920E-02 0. -1.
       -2    1    3    3    0  502  0.99704894013E+03 -0.14515905028E+04  0.37653954783E+03  0.18008341423E+04  0.25500000920E-02 0.  1.
</event>
<event>
 5   0  0.2238968E-07  0.3582358E+04  0.7818609E-02  0.8094545E-01
       -2   -1    0    0    0  501  0.00000000000E+00  0.00000000000E+00  0.12142087299E+04  0.12142087299E+04  0.25500000920E-02 0. -1.
        2   -1    0    0  501    0  0.00000000000E+00  0.00000000000E+00 -0.26423148167E+04  0.26423148167E+04  0.25500000920E-02 0.  1.
    10030    2    1    2    0    0  0.00000000000E+00  0.00000000000E+00 -0.14281060869E+04  0.38565235466E+04  0.35823577251E+04 0.  0.
        3    1    3    3  502    0  0.99746295294E+03  0.85016378081E+03  0.60029137153E+03  0.14415479658E+04  0.10100000352E+00 0. -1.
       -3    1    3    3    0  502 -0.99746295294E+03 -0.85016378081E+03 -0.20283974584E+04  0.24149755808E+04  0.10100000352E+00 0.  1.
</event>
<event>
 5   0  0.7347303E-08  0.3604544E+04  0.7818609E-02  0.8089452E-01
       -1   -1    0    0    0  501  0.00000000000E+00  0.00000000000E+00  0.19701573491E+04  0.19701573491E+04  0.50400001928E-02 0. -1.
        1   -1    0    0  501    0  0.00000000000E+00  0.00000000000E+00 -0.16486929045E+04  0.16486929045E+04  0.50400001928E-02 0.  1.
    10030    2    1    2    0    0  0.00000000000E+00  0.00000000000E+00  0.32146444461E+03  0.36188502536E+04  0.36045440445E+04 0.  0.
        2    1    3    3  502    0 -0.58474523583E+02 -0.18003692408E+04  0.21958029686E+03  0.18146526334E+04  0.25500000920E-02 0. -1.
       -2    1    3    3    0  502  0.58474523583E+02  0.18003692408E+04  0.10188414776E+03  0.18041976202E+04  0.25500000920E-02 0.  1.
</event>
<event>
 5   0  0.2199902E-07  0.3611925E+04  0.7818609E-02  0.8087766E-01
       -2   -1    0    0    0  501  0.00000000000E+00  0.00000000000E+00  0.29415762711E+04  0.29415762711E+04  0.25500000920E-02 0.  1.
        2   -1    0    0  501    0  0.00000000000E+00  0.00000000000E+00 -0.11087592500E+04  0.11087592500E+04  0.25500000920E-02 0. -1.
    10030    2    1    2    0    0  0.00000000000E+00  0.00000000000E+00  0.18328170211E+04  0.40503355211E+04  0.36119246394E+04 0.  0.
        1    1    3    3  502    0  0.47198611181E+03  0.20579154114E+03  0.28575209015E+04  0.29035403822E+04  0.50400001928E-02 0.  1.
       -1    1    3    3    0  502 -0.47198611181E+03 -0.20579154114E+03 -0.10247038804E+04  0.11467951389E+04  0.50400001928E-02 0. -1.
</event>
<event>
 5   0  0.7261233E-08  0.3464737E+04  0.7818609E-02  0.8122198E-01
       -1   -1    0    0    0  501  0.00000000000E+00  0.00000000000E+00  0.12373572091E+04  0.12373572091E+04  0.50400001928E-02 0.  1.
        1   -1    0    0  501    0  0.00000000000E+00  0.00000000000E+00 -0.24254111888E+04  0.24254111888E+04  0.50400001928E-02 0. -1.
    10030    2    1    2    0    0  0.00000000000E+00  0.00000000000E+00 -0.11880539797E+04  0.36627683980E+04  0.34647366535E+04 0.  0.
        3    1    3    3  502    0 -0.11099445035E+04  0.10745873898E+04  0.23460096956E+03  0.15626107910E+04  0.10100000352E+00 0.  1.
       -3    1    3    3    0  502  0.11099445035E+04 -0.10745873898E+04 -0.14226549493E+04  0.21001576069E+04  0.10100000352E+00 0. -1.
</event>
<event>
 5   0  0.7261233E-08  0.3635713E+04  0.7818609E-02  0.8082360E-01
       -1   -1    0    0    0  501  0.00000000000E+00  0.00000000000E+00  0.13457056637E+04  0.13457056637E+04  0.50400001928E-02 0.  1.
        1   -1    0    0  501    0  0.00000000000E+00  0.00000000000E+00 -0.24556645699E+04  0.24556645699E+04  0.50400001928E-02 0. -1.
    10030    2    1    2    0    0  0.00000000000E+00  0.00000000000E+00 -0.11099589062E+04  0.38013702335E+04  0.36357127058E+04 0.  0.
        3    1    3    3  502    0  0.15236560434E+04 -0.11177222141E+03  0.47508995972E+03  0.15999160129E+04  0.10100000352E+00 0.  1.
       -3    1    3    3    0  502 -0.15236560434E+04  0.11177222141E+03 -0.15850488659E+04  0.22014542207E+04  0.10100000352E+00 0. -1.
</event>
<event>
 5   0  0.7514289E-08  0.3602493E+04  0.7818609E-02  0.8089921E-01
        1   -1    0    0  501    0  0.00000000000E+00  0.00000000000E+00  0.15126329360E+04  0.15126329360E+04  0.50400001928E-02 0.  1.
       -1   -1    0    0    0  501  0.00000000000E+00  0.00000000000E+00 -0.21449278395E+04  0.21449278395E+04  0.50400001928E-02 0. -1.
    10030    2    1    2    0    0  0.00000000000E+00  0.00000000000E+00 -0.63229490358E+03  0.36575607755E+04  0.36024927455E+04 0.  0.
        4    1    3    3  502    0  0.17822989485E+04  0.92428952640E+02 -0.56349879416E+03  0.18715408510E+04  0.12699999809E+01 0.  1.
       -4    1    3    3    0  502 -0.17822989485E+04 -0.92428952640E+02 -0.68796109422E+02  0.17860199245E+04  0.12699999809E+01 0. -1.
</event>
<event>
 5   0  0.2309391E-07  0.3611465E+04  0.7818609E-02  0.8087870E-01
        2   -1    0    0  501    0  0.00000000000E+00  0.00000000000E+00  0.23643218463E+04  0.23643218463E+04  0.25500000920E-02 0.  1.
       -2   -1    0    0    0  501  0.00000000000E+00  0.00000000000E+00 -0.13791145400E+04  0.13791145401E+04  0.25500000920E-02 0. -1.
    10030    2    1    2    0    0  0.00000000000E+00  0.00000000000E+00  0.98520730627E+03  0.37434363864E+04  0.36114654287E+04 0.  0.
        4    1    3    3  502    0  0.17953140943E+04  0.18583021536E+03  0.43598665404E+03  0.18568175844E+04  0.12699999809E+01 0. -1.
       -4    1    3    3    0  502 -0.17953140943E+04 -0.18583021536E+03  0.54922065224E+03  0.18866188020E+04  0.12699999809E+01 0.  1.
</event>
<event>
 5   0  0.7261233E-08  0.3601559E+04  0.7818609E-02  0.8090135E-01
       -1   -1    0    0    0  501  0.00000000000E+00  0.00000000000E+00  0.18568029024E+04  0.18568029024E+04  0.50400001928E-02 0. -1.
        1   -1    0    0  501    0  0.00000000000E+00  0.00000000000E+00 -0.17464467178E+04  0.17464467178E+04  0.50400001928E-02 0.  1.
    10030    2    1    2    0    0  0.00000000000E+00  0.00000000000E+00  0.11035618466E+03  0.36032496202E+04  0.36015592926E+04 0.  0.
        3    1    3    3  502    0 -0.13865371626E+04  0.53906147743E+03 -0.96005663254E+03  0.17705313688E+04  0.10100000352E+00 0.  1.
       -3    1    3    3    0  502  0.13865371626E+04 -0.53906147743E+03  0.10704128172E+04  0.18327182515E+04  0.10100000352E+00 0. -1.
</event>
<event>
 5   0  0.2342606E-07  0.3598775E+04  0.7818609E-02  0.8090772E-01
       -2   -1    0    0    0  501  0.00000000000E+00  0.00000000000E+00  0.18269372650E+04  0.18269372650E+04  0.25500000920E-02 0. -1.
        2   -1    0    0  501    0  0.00000000000E+00  0.00000000000E+00 -0.17722533503E+04  0.17722533503E+04  0.25500000920E-02 0.  1.
    10030    2    1    2    0    0  0.00000000000E+00  0.00000000000E+00  0.54683914790E+02  0.35991906153E+04  0.35987751742E+04 0.  0.
        5    1    3    3  502    0  0.33491250199E+03  0.16166528639E+04  0.74299477730E+03  0.18104685017E+04  0.46999998093E+01 0. -1.
       -5    1    3    3    0  502 -0.33491250199E+03 -0.16166528639E+04 -0.68831086251E+03  0.17887221136E+04  0.46999998093E+01 0.  1.
</event>
<event>
 5   0  0.7261233E-08  0.3574736E+04  0.7818609E-02  0.8096303E-01
       -1   -1    0    0    0  501  0.00000000000E+00  0.00000000000E+00  0.27204887121E+04  0.27204887121E+04  0.50400001928E-02 0.  1.
        1   -1    0    0  501    0  0.00000000000E+00  0.00000000000E+00 -0.11743050349E+04  0.11743050349E+04  0.50400001928E-02 0. -1.
    10030    2    1    2    0    0  0.00000000000E+00  0.00000000000E+00  0.15461836771E+04  0.38947937470E+04  0.35747355662E+04 0.  0.
        3    1    3    3  502    0 -0.33881617407E+03 -0.14235518234E+04  0.18913307491E+04  0.23913235261E+04  0.10100000352E+00 0.  1.
       -3    1    3    3    0  502  0.33881617407E+03  0.14235518234E+04 -0.34514707195E+03  0.15034702209E+04  0.10100000352E+00 0. -1.
</event>
<event>
 5   0  0.2199902E-07  0.3631086E+04  0.7818609E-02  0.8083408E-01
        2   -1    0    0  501    0  0.00000000000E+00  0.00000000000E+00  0.19358786567E+04  0.19358786567E+04  0.25500000920E-02 0. -1.
       -2   -1    0    0    0  501  0.00000000000E+00  0.00000000000E+00 -0.17026876915E+04  0.17026876915E+04  0.25500000920E-02 0.  1.
    10030    2    1    2    0    0  0.00000000000E+00  0.00000000000E+00  0.23319096519E+03  0.36385663481E+04  0.36310862071E+04 0.  0.
        1    1    3    3  502    0  0.54745364414E+03  0.16927495494E+04  0.47940519412E+03  0.18425351746E+04  0.50400001928E-02 0.  1.
       -1    1    3    3    0  502 -0.54745364414E+03 -0.16927495494E+04 -0.24621422894E+03  0.17960311735E+04  0.50400001928E-02 0. -1.
</event>
<event>
 5   0  0.7261233E-08  0.3601290E+04  0.7818609E-02  0.8090196E-01
       -1   -1    0    0    0  501  0.00000000000E+00  0.00000000000E+00  0.17918556432E+04  0.17918556432E+04  0.50400001928E-02 0. -1.
        1   -1    0    0  501    0  0.00000000000E+00  0.00000000000E+00 -0.18094772406E+04  0.18094772406E+04  0.50400001928E-02 0.  1.
    10030    2    1    2    0    0  0.00000000000E+00  0.00000000000E+00 -0.17621597356E+02  0.36013328838E+04  0.36012897717E+04 0.  0.
        3    1    3    3  502    0  0.15188583313E+04 -0.32666145423E+03  0.90152073409E+03  0.17962121201E+04  0.10100000352E+00 0. -1.
       -3    1    3    3    0  502 -0.15188583313E+04  0.32666145423E+03 -0.91914233144E+03  0.18051207638E+04  0.10100000352E+00 0.  1.
</event>
<event>
 5   0  0.2342606E-07  0.3614615E+04  0.7818609E-02  0.8087152E-01
       -2   -1    0    0    0  501  0.00000000000E+00  0.00000000000E+00  0.20000712952E+04  0.20000712952E+04  0.25500000920E-02 0.  1.
        2   -1    0    0  501    0  0.00000000000E+00  0.00000000000E+00 -0.16331216442E+04  0.16331216442E+04  0.25500000920E-02 0. -1.
    10030    2    1    2    0    0  0.00000000000E+00  0.00000000000E+00  0.36694965106E+03  0.36331929394E+04  0.36146146252E+04 0.  0.
        5    1    3    3  502    0  0.46281680485E+03 -0.89988084508E+03  0.16886201095E+04  0.19686149686E+04  0.46999998093E+01 0.  1.
       -5    1    3    3    0  502 -0.46281680485E+03  0.89988084508E+03 -0.13216704585E+04  0.16645779708E+04  0.46999998093E+01 0. -1.
</event>
<event>
 5   0  0.2238968E-07  0.3600866E+04  0.7818609E-02  0.8090293E-01
       -2   -1    0    0    0  501  0.00000000000E+00  0.00000000000E+00  0.14776094559E+04  0.14776094559E+04  0.25500000920E-02 0. -1.
        2   -1    0    0  501    0  0.00000000000E+00  0.00000000000E+00 -0.21937857602E+04  0.21937857602E+04  0.25500000920E-02 0.  1.
    10030    2    1    2    0    0  0.00000000000E+00  0.00000000000E+00 -0.71617630424E+03  0.36713952161E+04  0.36008657756E+04 0.  0.
        3    1    3    3  502    0  0.24484537200E+03  0.16689275127E+04 -0.99993425959E+03  0.19609020456E+04  0.10100000352E+00 0.  1.
       -3    1    3    3    0  502 -0.24484537200E+03 -0.16689275127E+04  0.28375795535E+03  0.17104931705E+04  0.10100000352E+00 0. -1.
</event>
<event>
 5   0  0.2238968E-07  0.3595699E+04  0.7818609E-02  0.8091478E-01
        2   -1    0    0  501    0  0.00000000000E+00  0.00000000000E+00  0.14261443091E+04  0.14261443091E+04  0.25500000920E-02 0. -1.
       -2   -1    0    0    0  501  0.00000000000E+00  0.00000000000E+00 -0.22664349536E+04  0.22664349536E+04  0.25500000920E-02 0.  1.
    10030    2    1    2    0    0  0.00000000000E+00  0.00000000000E+00 -0.84029064456E+03  0.36925792627E+04  0.35956992705E+04 0.  0.
        3    1    3    3  502    0  0.69152560021E+03  0.16051491485E+04  0.12576774223E+02  0.17478185347E+04  0.10100000352E+00 0.  1.
       -3    1    3    3    0  502 -0.69152560021E+03 -0.16051491485E+04 -0.85286741878E+03  0.19447607280E+04  0.10100000352E+00 0. -1.
</event>
<event>
 5   0  0.7236375E-08  0.3677091E+04  0.7818609E-02  0.8073058E-01
       -1   -1    0    0    0  501  0.00000000000E+00  0.00000000000E+00  0.12547167461E+04  0.12547167461E+04  0.50400001928E-02 0. -1.
        1   -1    0    0  501    0  0.00000000000E+00  0.00000000000E+00 -0.26940338947E+04  0.26940338947E+04  0.50400001928E-02 0.  1.
    10030    2    1    2    0    0  0.00000000000E+00  0.00000000000E+00 -0.14393171485E+04  0.39487506408E+04  0.36770909384E+04 0.  0.
        1    1    3    3  502    0  0.93182493088E+03  0.89804674565E+03  0.68275655876E+03  0.14631958781E+04  0.50400001928E-02 0. -1.
       -1    1    3    3    0  502 -0.93182493088E+03 -0.89804674565E+03 -0.21220737073E+04  0.24855547627E+04  0.50400001928E-02 0.  1.
</event>
<event>
 5   0  0.7514289E-08  0.3600329E+04  0.7818609E-02  0.8090416E-01
       -1   -1    0    0    0  501  0.00000000000E+00  0.00000000000E+00  0.17074990162E+04  0.17074990162E+04  0.50400001928E-02 0.  1.
        1   -1    0    0  501    0  0.00000000000E+00  0.00000000000E+00 -0.18978585736E+04  0.18978585736E+04  0.50400001928E-02 0. -1.
    10030    2    1    2    0    0  0.00000000000E+00  0.00000000000E+00 -0.19035955737E+03  0.36053575899E+04  0.36003286780E+04 0.  0.
        4    1    3    3  502    0  0.16720528799E+04 -0.53463469612E+03  0.30411888052E+03  0.17815961938E+04  0.12699999809E+01 0.  1.
       -4    1    3    3    0  502 -0.16720528799E+04  0.53463469612E+03 -0.49447843788E+03  0.18237613961E+04  0.12699999809E+01 0. -1.
</event>
<event>
 5   0  0.7236375E-08  0.3670111E+04  0.7818609E-02  0.8074618E-01
        1   -1    0    0  501    0  0.00000000000E+00  0.00000000000E+00  0.20275578657E+04  0.20275578657E+04  0.50400001928E-02 0. -1.
       -1   -1    0    0    0  501  0.00000000000E+00  0.00000000000E+00 -0.16608299438E+04  0.16608299438E+04  0.50400001928E-02 0.  1.
    10030    2    1    2    0    0  0.00000000000E+00  0.00000000000E+00  0.36672792195E+03  0.36883878095E+04  0.36701110698E+04 0.  0.
        1    1    3    3  502    0  0.35907586760E+03 -0.17966263997E+04  0.28696426320E+03  0.18544946447E+04  0.50400001928E-02 0. -1.
       -1    1    3    3    0  502 -0.35907586760E+03  0.17966263997E+04  0.79763658741E+02  0.18338931648E+04  0.50400001928E-02 0.  1.
</event>
<event>
 5   0  0.7236375E-08  0.3608953E+04  0.7818609E-02  0.8088444E-01
       -3   -1    0    0    0  501  0.00000000000E+00  0.00000000000E+00  0.19896310111E+04  0.19896310137E+04  0.10100000352E+00 0.  1.
        3   -1    0    0  501    0  0.00000000000E+00  0.00000000000E+00 -0.16365523628E+04  0.16365523660E+04  0.10100000352E+00 0. -1.
    10030    2    1    2    0    0  0.00000000000E+00  0.00000000000E+00  0.35307864830E+03  0.36261833797E+04  0.36089529466E+04 0.  0.
        3    1    3    3  502    0 -0.10227457285E+04  0.43337454175E+03  0.16054093685E+04  0.19522196519E+04  0.10100000352E+00 0.  1.
       -3    1    3    3    0  502  0.10227457285E+04 -0.43337454175E+03 -0.12523307202E+04  0.16739637277E+04  0.10100000352E+00 0. -1.
</event>
<event>
 5   0  0.7236375E-08  0.3600343E+04  0.7818609E-02  0.8090413E-01
        1   -1    0    0  501    0  0.00000000000E+00  0.00000000000E+00  0.16798596541E+04  0.16798596541E+04  0.50400001928E-02 0. -1.
       -1   -1    0    0    0  501  0.00000000000E+00  0.00000000000E+00 -0.19291004114E+04  0.19291004114E+04  0.50400001928E-02 0.  1.
    10030    2    1    2    0    0  0.00000000000E+00  0.00000000000E+00 -0.24924075736E+03  0.36089600655E+04  0.36003432891E+04 0.  0.
        5    1    3    3  502    0  0.53222677191E+03  0.16683641332E+04 -0.54262156918E+03  0.18333478870E+04  0.46999998093E+01 0.  1.
       -5    1    3    3    0  502 -0.53222677191E+03 -0.16683641332E+04  0.29338081182E+03  0.17756121785E+04  0.46999998093E+01 0. -1.
</event>
<event>
 5   0  0.7514289E-08  0.3559912E+04  0.7818609E-02  0.8099736E-01
        1   -1    0    0  501    0  0.00000000000E+00  0.00000000000E+00  0.15124478546E+04  0.15124478547E+04  0.50400001928E-02 0. -1.
       -1   -1    0    0    0  501  0.00000000000E+00  0.00000000000E+00 -0.20947789410E+04  0.20947789410E+04  0.50400001928E-02 0.  1.
    10030    2    1    2    0    0  0.00000000000E+00  0.00000000000E+00 -0.58233108632E+03  0.36072267956E+04  0.35599123109E+04 0.  0.
        4    1    3    3  502    0 -0.90570105028E+03  0.11586458567E+03  0.12570565306E+04  0.15536768418E+04  0.12699999809E+01 0. -1.
       -4    1    3    3    0  502  0.90570105028E+03 -0.11586458567E+03 -0.18393876169E+04  0.20535499538E+04  0.12699999809E+01 0.  1.
</event>
<event>
 5   0  0.7347303E-08  0.3606127E+04  0.7818609E-02  0.8089090E-01
       -1   -1    0    0    0  501  0.00000000000E+00  0.00000000000E+00  0.12639444086E+04  0.12639444086E+04  0.50400001928E-02 0.  1.
        1   -1    0    0  501    0  0.00000000000E+00  0.00000000000E+00 -0.25721364170E+04  0.25721364170E+04  0.50400001928E-02 0. -1.
    10030    2    1    2    0    0  0.00000000000E+00  0.00000000000E+00 -0.13081920083E+04  0.38360808256E+04  0.36061266991E+04 0.  0.
        2    1    3    3  502    0  0.91357829680E+03  0.13336528118E+04 -0.15036343847E+04  0.22077525880E+04  0.25500000920E-02 0. -1.
       -2    1    3    3    0  502 -0.91357829680E+03 -0.13336528118E+04  0.19544237637E+03  0.16283282376E+04  0.25500000920E-02 0.  1.
</event>
<event>
 5   0  0.2198900E-07  0.3572748E+04  0.7818609E-02  0.8096763E-01
       -2   -1    0    0    0  501  0.00000000000E+00  0.00000000000E+00  0.31583077365E+04  0.31583077365E+04  0.25500000920E-02 0.  1.
        2   -1    0    0  501    0  0.00000000000E+00  0.00000000000E+00 -0.10103930134E+04  0.10103930134E+04  0.25500000920E-02 0. -1.
    10030    2    1    2    0    0  0.00000000000E+00  0.00000000000E+00  0.21479147231E+04  0.41687007499E+04  0.35727480018E+04 0.  0.
        2    1    3    3  502    0 -0.32057044421E+03  0.16353640550E+04  0.32324625771E+03  0.16975479802E+04  0.25500000920E-02 0. -1.
       -2    1    3    3    0  502  0.32057044421E+03 -0.16353640550E+04  0.18246684654E+04  0.24711527696E+04  0.25500000920E-02 0.  1.
</event>
<event>
 5   0  0.7236375E-08  0.3487478E+04  0.7818609E-02  0.8116764E-01
        1   -1    0    0  501    0  0.00000000000E+00  0.00000000000E+00  0.27892553928E+04  0.27892553928E+04  0.50400001928E-02 0.  1.
       -1   -1    0    0    0  501  0.00000000000E+00  0.00000000000E+00 -0.10901212430E+04  0.10901212430E+04  0.50400001928E-02 0. -1.
    10030    2    1    2    0    0  0.00000000000E+00  0.00000000000E+00  0.16991341498E+04  0.38793766357E+04  0.34874784907E+04 0.  0.
        5    1    3    3  502    0  0.87867537495E+03 -0.54255194662E+03 -0.71337484674E+03  0.12551329775E+04  0.46999998093E+01 0. -1.
       -5    1    3    3    0  502 -0.87867537495E+03  0.54255194662E+03  0.24125089965E+04  0.26242436582E+04  0.46999998093E+01 0.  1.
</event>
<event>
 5   0  0.7261233E-08  0.3577029E+04  0.7818609E-02  0.8095774E-01
        1   -1    0    0  501    0  0.00000000000E+00  0.00000000000E+00  0.24538923502E+04  0.24538923502E+04  0.50400001928E-02 0.  1.
       -1   -1    0    0    0  501  0.00000000000E+00  0.00000000000E+00 -0.13035555480E+04  0.13035555480E+04  0.50400001928E-02 0. -1.
    10030    2    1    2    0    0  0.00000000000E+00  0.00000000000E+00  0.11503368022E+04  0.37574478982E+04  0.35770294868E+04 0.  0.
        3    1    3    3  502    0  0.96288722180E+03  0.49155639039E+03  0.20718142770E+04  0.23369197452E+04  0.10100000352E+00 0.  1.
       -3    1    3    3    0  502 -0.96288722180E+03 -0.49155639039E+03 -0.92147747477E+03  0.14205281530E+04  0.10100000352E+00 0. -1.
</event>
<event>
 5   0  0.2198900E-07  0.3605174E+04  0.7818609E-02  0.8089308E-01
        2   -1    0    0  501    0  0.00000000000E+00  0.00000000000E+00  0.14416577786E+04  0.14416577786E+04  0.25500000920E-02 0.  1.
       -2   -1    0    0    0  501  0.00000000000E+00  0.00000000000E+00 -0.22538770344E+04  0.22538770344E+04  0.25500000920E-02 0. -1.
    10030    2    1    2    0    0  0.00000000000E+00  0.00000000000E+00 -0.81221925578E+03  0.36955348130E+04  0.36051737038E+04 0.  0.
        2    1    3    3  502    0  0.35136810076E+03 -0.88232061281E+03  0.11644046616E+04  0.15025935651E+04  0.25500000920E-02 0.  1.
       -2    1    3    3    0  502 -0.35136810076E+03  0.88232061281E+03 -0.19766239173E+04  0.21929412479E+04  0.25500000920E-02 0. -1.
</event>
<event>
 5   0  0.7347303E-08  0.3605462E+04  0.7818609E-02  0.8089242E-01
        1   -1    0    0  501    0  0.00000000000E+00  0.00000000000E+00  0.21636175991E+04  0.21636175991E+04  0.50400001928E-02 0. -1.
       -1   -1    0    0    0  501  0.00000000000E+00  0.00000000000E+00 -0.15020394998E+04  0.15020394998E+04  0.50400001928E-02 0.  1.
    10030    2    1    2    0    0  0.00000000000E+00  0.00000000000E+00  0.66157809929E+03  0.36656570990E+04  0.36054620211E+04 0.  0.
        2    1    3    3  502    0 -0.51899102849E+02  0.95364375080E+03 -0.12236945784E+04  0.15522752145E+04  0.25500000920E-02 0.  1.
       -2    1    3    3    0  502  0.51899102849E+02 -0.95364375080E+03  0.18852726777E+04  0.21133818845E+04  0.25500000920E-02 0. -1.
</event>
<event>
 5   0  0.7236375E-08  0.3590702E+04  0.7818609E-02  0.8092625E-01
       -1   -1    0    0    0  501  0.00000000000E+00  0.00000000000E+00  0.12974342793E+04  0.12974342793E+04  0.50400001928E-02 0. -1.
        1   -1    0    0  501    0  0.00000000000E+00  0.00000000000E+00 -0.24843531899E+04  0.24843531899E+04  0.50400001928E-02 0.  1.
    10030    2    1    2    0    0  0.00000000000E+00  0.00000000000E+00 -0.11869189106E+04  0.37817874692E+04  0.35907018759E+04 0.  0.
        5    1    3    3  502    0  0.11540788892E+04  0.25042955063E+03 -0.20176990270E+04  0.23378931746E+04  0.46999998093E+01 0.  1.
       -5    1    3    3    0  502 -0.11540788892E+04 -0.25042955063E+03  0.83078011639E+03  0.14438942946E+04  0.46999998093E+01 0. -1.
</event>
<event>
 5   0  0.2199902E-07  0.3618510E+04  0.7818609E-02  0.8086265E-01
       -2   -1    0    0    0  501  0.00000000000E+00  0.00000000000E+00  0.19413656117E+04  0.19413656117E+04  0.25500000920E-02 0.  1.
        2   -1    0    0  501    0  0.00000000000E+00  0.00000000000E+00 -0.16861345920E+04  0.16861345920E+04  0.25500000920E-02 0. -1.
    10030    2    1    2    0    0  0.00000000000E+00  0.00000000000E+00  0.25523101977E+03  0.36275002037E+04  0.36185100324E+04 0.  0.
        1    1    3    3  502    0 -0.12281603855E+04  0.11595021806E+04  0.77774852003E+03  0.18594934793E+04  0.50400001928E-02 0. -1.
       -1    1    3    3    0  502  0.12281603855E+04 -0.11595021806E+04 -0.52251750027E+03  0.17680067244E+04  0.50400001928E-02 0.  1.
</event>
<event>
 5   0  0.2198900E-07  0.3562407E+04  0.7818609E-02  0.8099157E-01
       -2   -1    0    0    0  501  0.00000000000E+00  0.00000000000E+00  0.13097046587E+04  0.13097046587E+04  0.25500000920E-02 0. -1.
        2   -1    0    0  501    0  0.00000000000E+00  0.00000000000E+00 -0.24224437643E+04  0.24224437643E+04  0.25500000920E-02 0.  1.
    10030    2    1    2    0    0  0.00000000000E+00  0.00000000000E+00 -0.11127391056E+04  0.37321484230E+04  0.35624069861E+04 0.  0.
        2    1    3    3  502    0 -0.12055487522E+04 -0.12012240906E+04 -0.11071562329E+04  0.20302911205E+04  0.25500000920E-02 0.  1.
       -2    1    3    3    0  502  0.12055487522E+04  0.12012240906E+04 -0.55828726354E+01  0.17018573025E+04  0.25500000920E-02 0. -1.
</event>
<event>
 5   0  0.2309391E-07  0.3596232E+04  0.7818609E-02  0.8091355E-01
       -2   -1    0    0    0  501  0.00000000000E+00  0.00000000000E+00  0.20544514832E+04  0.20544514832E+04  0.25500000920E-02 0. -1.
        2   -1    0    0  501    0  0.00000000000E+00  0.00000000000E+00 -0.15737632881E+04  0.15737632881E+04  0.25500000920E-02 0.  1.
    10030    2    1    2    0    0  0.00000000000E+00  0.00000000000E+00  0.48068819506E+03  0.36282147714E+04  0.35962315396E+04 0.  0.
        4    1    3    3  502    0 -0.49014894433E+03 -0.11147060823E+04  0.15751384943E+04  0.19909491522E+04  0.12699999809E+01 0. -1.
       -4    1    3    3    0  502  0.49014894433E+03  0.11147060823E+04 -0.10944502992E+04  0.16372656192E+04  0.12699999809E+01 0.  1.
</event>
<event>
 5   0  0.2342606E-07  0.3598539E+04  0.7818609E-02  0.8090826E-01
       -2   -1    0    0    0  501  0.00000000000E+00  0.00000000000E+00  0.17834159520E+04  0.17834159520E+04  0.25500000920E-02 0.  1.
        2   -1    0    0  501    0  0.00000000000E+00  0.00000000000E+00 -0.18152642821E+04  0.18152642821E+04  0.25500000920E-02 0. -1.
    10030    2    1    2    0    0  0.00000000000E+00  0.00000000000E+00 -0.31848330109E+02  0.35986802340E+04  0.35985393024E+04 0.  0.
        5    1    3    3  502    0  0.15525203260E+04  0.59712129117E+03  0.67001522038E+03  0.17932695515E+04  0.46999998093E+01 0.  1.
       -5    1    3    3    0  502 -0.15525203260E+04 -0.59712129117E+03 -0.70186355049E+03  0.18054106825E+04  0.46999998093E+01 0. -1.
</event>
<event>
 5   0  0.2309391E-07  0.3605179E+04  0.7818609E-02  0.8089306E-01
        2   -1    0    0  501    0  0.00000000000E+00  0.00000000000E+00  0.24101393537E+04  0.24101393537E+04  0.25500000920E-02 0.  1.
       -2   -1    0    0    0  501  0.00000000000E+00  0.00000000000E+00 -0.13481915320E+04  0.13481915320E+04  0.25500000920E-02 0. -1.
    10030    2    1    2    0    0  0.00000000000E+00  0.00000000000E+00  0.10619478218E+04  0.37583308857E+04  0.36051793118E+04 0.  0.
        4    1    3    3  502    0  0.29601317114E+03  0.12289358769E+04  0.18706413458E+04  0.22576996799E+04  0.12699999809E+01 0.  1.
       -4    1    3    3    0  502 -0.29601317114E+03 -0.12289358769E+04 -0.80869352404E+03  0.15006312058E+04  0.12699999809E+01 0. -1.
</event>
<event>
 5   0  0.2199902E-07  0.3588098E+04  0.7818609E-02  0.8093224E-01
        2   -1    0    0  501    0  0.00000000000E+00  0.00000000000E+00  0.18066998882E+04  0.18066998882E+04  0.25500000920E-02 0.  1.
       -2   -1    0    0    0  501  0.00000000000E+00  0.00000000000E+00 -0.17814862799E+04  0.17814862799E+04  0.25500000920E-02 0. -1.
    10030    2    1    2    0    0  0.00000000000E+00  0.00000000000E+00  0.25213608340E+02  0.35881861681E+04  0.35880975810E+04 0.  0.
        1    1    3    3  502    0  0.12512053633E+04 -0.11438757348E+04  0.59968560884E+03  0.17982183926E+04  0.50400001928E-02 0. -1.
       -1    1    3    3    0  502 -0.12512053633E+04  0.11438757348E+04 -0.57447200050E+03  0.17899677755E+04  0.50400001928E-02 0.  1.
</event>
<event>
 5   0  0.7347303E-08  0.3613797E+04  0.7818609E-02  0.8087339E-01
       -1   -1    0    0    0  501  0.00000000000E+00  0.00000000000E+00  0.24600258240E+04  0.24600258240E+04  0.50400001928E-02 0. -1.
        1   -1    0    0  501    0  0.00000000000E+00  0.00000000000E+00 -0.13271739123E+04  0.13271739123E+04  0.50400001928E-02 0.  1.
    10030    2    1    2    0    0  0.00000000000E+00  0.00000000000E+00  0.11328519116E+04  0.37871997363E+04  0.36137969491E+04 0.  0.
        2    1    3    3  502    0  0.17379054738E+04  0.43698531561E+03  0.80907544088E+03  0.19661827664E+04  0.25500000920E-02 0. -1.
       -2    1    3    3    0  502 -0.17379054738E+04 -0.43698531561E+03  0.32377647075E+03  0.18210169699E+04  0.25500000920E-02 0.  1.
</event>
<event>
 5   0  0.2198900E-07  0.3590641E+04  0.7818609E-02  0.8092639E-01
        2   -1    0    0  501    0  0.00000000000E+00  0.00000000000E+00  0.16126303441E+04  0.16126303441E+04  0.25500000920E-02 0. -1.
       -2   -1    0    0    0  501  0.00000000000E+00  0.00000000000E+00 -0.19987075420E+04  0.19987075420E+04  0.25500000920E-02 0.  1.
    10030    2    1    2    0    0  0.00000000000E+00  0.00000000000E+00 -0.38607719799E+03  0.36113378861E+04  0.35906414085E+04 0.  0.
        2    1    3    3  502    0  0.99694424095E+03  0.85209668210E+03  0.10400829760E+04  0.16738396495E+04  0.25500000920E-02 0. -1.
       -2    1    3    3    0  502 -0.99694424095E+03 -0.85209668210E+03 -0.14261601740E+04  0.19374982366E+04  0.25500000920E-02 0.  1.
</event>
<event>
 5   0  0.2238968E-07  0.3613456E+04  0.7818609E-02  0.8087416E-01
       -2   -1    0    0    0  501  0.00000000000E+00  0.00000000000E+00  0.12933120213E+04  0.12933120213E+04  0.25500000920E-02 0. -1.
        2   -1    0    0  501    0  0.00000000000E+00  0.00000000000E+00 -0.25239591711E+04  0.25239591711E+04  0.25500000920E-02 0.  1.
    10030    2    1    2    0    0  0.00000000000E+00  0.00000000000E+00 -0.12306471498E+04  0.38172711923E+04  0.36134563715E+04 0.  0.
        3    1    3    3  502    0  0.10570048536E+03  0.74525272860E+03 -0.23504312148E+04  0.24680156255E+04  0.10100000352E+00 0.  1.
       -3    1    3    3    0  502 -0.10570048536E+03 -0.74525272860E+03  0.11197840650E+04  0.13492555668E+04  0.10100000352E+00 0. -1.
</event>
<event>
 5   0  0.2342606E-07  0.3584633E+04  0.7818609E-02  0.8094021E-01
       -2   -1    0    0    0  501  0.00000000000E+00  0.00000000000E+00  0.11443241926E+04  0.11443241926E+04  0.25500000920E-02 0.  1.
        2   -1    0    0  501    0  0.00000000000E+00  0.00000000000E+00 -0.28072446995E+04  0.28072446995E+04  0.25500000920E-02 0. -1.
    10030    2    1    2    0    0  0.00000000000E+00  0.00000000000E+00 -0.16629205069E+04  0.39515688921E+04  0.35846327701E+04 0.  0.
        5    1    3    3  502    0  0.13018045044E+04 -0.58749008525E+03  0.36222010494E+03  0.14734534477E+04  0.46999998093E+01 0.  1.
       -5    1    3    3    0  502 -0.13018045044E+04  0.58749008525E+03 -0.20251406119E+04  0.24781154444E+04  0.46999998093E+01 0. -1.
</event>
<event>
 5   0  0.2199902E-07  0.3599225E+04  0.7818609E-02  0.8090669E-01
        2   -1    0    0  501    0  0.00000000000E+00  0.00000000000E+00  0.19952112727E+04  0.19952112727E+04  0.25500000920E-02 0. -1.
       -2   -1    0    0    0  501  0.00000000000E+00  0.00000000000E+00 -0.16231890917E+04  0.16231890917E+04  0.25500000920E-02 0.  1.
    10030    2    1    2    0    0  0.00000000000E+00  0.00000000000E+00  0.37202218102E+03  0.36184003644E+04  0.35992250130E+04 0.  0.
        1    1    3    3  502    0 -0.40493932049E+03 -0.12548525212E+04  0.14172704755E+04  0.19357908730E+04  0.50400001928E-02 0. -1.
       -1    1    3    3    0  502  0.40493932049E+03  0.12548525212E+04 -0.10452482945E+04  0.16826094914E+04  0.50400001928E-02 0.  1.
</event>
<event>
 5   0  0.7236375E-08  0.3601196E+04  0.7818609E-02  0.8090218E-01
       -1   -1    0    0    0  501  0.00000000000E+00  0.00000000000E+00  0.28917462013E+04  0.28917462013E+04  0.50400001928E-02 0.  1.
        1   -1    0    0  501    0  0.00000000000E+00  0.00000000000E+00 -0.11211749443E+04  0.11211749443E+04  0.50400001928E-02 0. -1.
    10030    2    1    2    0    0  0.00000000000E+00  0.00000000000E+00  0.17705712570E+04  0.40129211456E+04  0.36011961269E+04 0.  0.
        1    1    3    3  502    0  0.91365947503E+03 -0.14799050984E+04  0.14046885501E+04  0.22356302600E+04  0.50400001928E-02 0.  1.
       -1    1    3    3    0  502 -0.91365947503E+03  0.14799050984E+04  0.36588270687E+03  0.17772908855E+04  0.50400001928E-02 0. -1.
</event>
<event>
 5   0  0.2198900E-07  0.3567375E+04  0.7818609E-02  0.8098006E-01
       -2   -1    0    0    0  501  0.00000000000E+00  0.00000000000E+00  0.15042164577E+04  0.15042164577E+04  0.25500000920E-02 0. -1.
        2   -1    0    0  501    0  0.00000000000E+00  0.00000000000E+00 -0.21150824243E+04  0.21150824243E+04  0.25500000920E-02 0.  1.
    10030    2    1    2    0    0  0.00000000000E+00  0.00000000000E+00 -0.61086596666E+03  0.36192988820E+04  0.35673753892E+04 0.  0.
        2    1    3    3  502    0  0.58514494366E+03 -0.12246011945E+04  0.86877992427E+03  0.16114655589E+04  0.25500000920E-02 0. -1.
       -2    1    3    3    0  502 -0.58514494366E+03  0.12246011945E+04 -0.14796458909E+04  0.20078333231E+04  0.25500000920E-02 0.  1.
</event>
<event>
 5   0  0.7236375E-08  0.3592180E+04  0.7818609E-02  0.8092285E-01
        1   -1    0    0  501    0  0.00000000000E+00  0.00000000000E+00  0.17646089764E+04  0.17646089764E+04  0.50400001928E-02 0.  1.
       -1   -1    0    0    0  501  0.00000000000E+00  0.00000000000E+00 -0.18281328887E+04  0.18281328887E+04  0.50400001928E-02 0. -1.
    10030    2    1    2    0    0  0.00000000000E+00  0.00000000000E+00 -0.63523912287E+02  0.35927418651E+04  0.35921802324E+04 0.  0.
        5    1    3    3  502    0  0.10018535543E+04  0.12008234550E+03 -0.15178567461E+04  0.18226468407E+04  0.46999998093E+01 0. -1.
       -5    1    3    3    0  502 -0.10018535543E+04 -0.12008234550E+03  0.14543328338E+04  0.17700950245E+04  0.46999998093E+01 0.  1.
</event>
<event>
 5   0  0.2342606E-07  0.3601762E+04  0.7818609E-02  0.8090088E-01
        2   -1    0    0  501    0  0.00000000000E+00  0.00000000000E+00  0.31431381781E+04  0.31431381781E+04  0.25500000920E-02 0. -1.
       -2   -1    0    0    0  501  0.00000000000E+00  0.00000000000E+00 -0.10318262596E+04  0.10318262596E+04  0.25500000920E-02 0.  1.
    10030    2    1    2    0    0  0.00000000000E+00  0.00000000000E+00  0.21113119185E+04  0.41749644377E+04  0.36017620742E+04 0.  0.
        5    1    3    3  502    0  0.16970607644E+04 -0.51933937534E+02  0.35974596392E+03  0.17355551332E+04  0.46999998093E+01 0. -1.
       -5    1    3    3    0  502 -0.16970607644E+04  0.51933937534E+02  0.17515659546E+04  0.24394093045E+04  0.46999998093E+01 0.  1.
</event>
<event>
 5   0  0.7514289E-08  0.3584487E+04  0.7818609E-02  0.8094054E-01
       -1   -1    0    0    0  501  0.00000000000E+00  0.00000000000E+00  0.12255911018E+04  0.12255911018E+04  0.50400001928E-02 0. -1.
        1   -1    0    0  501    0  0.00000000000E+00  0.00000000000E+00 -0.26208878865E+04  0.26208878865E+04  0.50400001928E-02 0.  1.
    10030    2    1    2    0    0  0.00000000000E+00  0.00000000000E+00 -0.13952967847E+04  0.38464789884E+04  0.35844870610E+04 0.  0.
        4    1    3    3  502    0  0.42282946179E+03  0.75993181869E+03 -0.23793062145E+04  0.25332549809E+04  0.12699999809E+01 0.  1.
       -4    1    3    3    0  502 -0.42282946179E+03 -0.75993181869E+03  0.98400942987E+03  0.13132240075E+04  0.12699999809E+01 0. -1.
</event>
<event>
 5   0  0.2309391E-07  0.3622879E+04  0.7818609E-02  0.8085271E-01
        2   -1    0    0  501    0  0.00000000000E+00  0.00000000000E+00  0.14361386617E+04  0.14361386617E+04  0.25500000920E-02 0. -1.
       -2   -1    0    0    0  501  0.00000000000E+00  0.00000000000E+00 -0.22848160979E+04  0.22848160979E+04  0.25500000920E-02 0.  1.
    10030    2    1    2    0    0  0.00000000000E+00  0.00000000000E+00 -0.84867743617E+03  0.37209547596E+04  0.36228788183E+04 0.  0.
        4    1    3    3  502    0  0.52078254625E+03  0.23080829460E+02  0.13574342637E+04  0.14540896047E+04  0.12699999809E+01 0. -1.
       -4    1    3    3    0  502 -0.52078254625E+03 -0.23080829460E+02 -0.22061116999E+04  0.22668651549E+04  0.12699999809E+01 0.  1.
</event>
<event>
 5   0  0.7236375E-08  0.3547662E+04  0.7818609E-02  0.8102587E-01
        1   -1    0    0  501    0  0.00000000000E+00  0.00000000000E+00  0.23953922498E+04  0.23953922498E+04  0.50400001928E-02 0.  1.
       -1   -1    0    0    0  501  0.00000000000E+00  0.00000000000E+00 -0.13135533771E+04  0.13135533771E+04  0.50400001928E-02 0. -1.
    10030    2    1    2    0    0  0.00000000000E+00  0.00000000000E+00  0.10818388727E+04  0.37089456269E+04  0.35476615279E+04 0.  0.
        1    1    3    3  502    0 -0.90006442298E+03  0.21663619047E+03  0.21227931844E+04  0.23158795539E+04  0.50400001928E-02 0.  1.
       -1    1    3    3    0  502  0.90006442298E+03 -0.21663619047E+03 -0.10409543117E+04  0.13930660730E+04  0.50400001928E-02 0. -1.
</event>
<event>
 5   0  0.2199902E-07  0.3594332E+04  0.7818609E-02  0.8091791E-01
       -2   -1    0    0    0  501  0.00000000000E+00  0.00000000000E+00  0.13745407533E+04  0.13745407533E+04  0.25500000920E-02 0. -1.
        2   -1    0    0  501    0  0.00000000000E+00  0.00000000000E+00 -0.23497346191E+04  0.23497346191E+04  0.25500000920E-02 0.  1.
    10030    2    1    2    0    0  0.00000000000E+00  0.00000000000E+00 -0.97519386585E+03  0.37242753724E+04  0.35943322013E+04 0.  0.
        1    1    3    3  502    0 -0.12940296950E+04 -0.93160195705E+03  0.37147946951E+03  0.16371902926E+04  0.50400001928E-02 0. -1.
       -1    1    3    3    0  502  0.12940296950E+04  0.93160195705E+03 -0.13466733354E+04  0.20870850797E+04  0.50400001928E-02 0.  1.
</event>
<event>
 5   0  0.7514289E-08  0.3541457E+04  0.7818609E-02  0.8104035E-01
       -1   -1    0    0    0  501  0.00000000000E+00  0.00000000000E+00  0.13916417310E+04  0.13916417310E+04  0.50400001928E-02 0. -1.
        1   -1    0    0  501    0  0.00000000000E+00  0.00000000000E+00 -0.22530792878E+04  0.22530792878E+04  0.50400001928E-02 0.  1.
    10030    2    1    2    0    0  0.00000000000E+00  0.00000000000E+00 -0.86143755677E+03  0.36447210188E+04  0.35414568529E+04 0.  0.
        4    1    3    3  502    0  0.18116377728E+03  0.21318369979E+03  0.13687527024E+04  0.13970516016E+04  0.12699999809E+01 0. -1.
       -4    1    3    3    0  502 -0.18116377728E+03 -0.21318369979E+03 -0.22301902592E+04  0.22476694173E+04  0.12699999809E+01 0.  1.
</event>
<event>
 5   0  0.2238968E-07  0.3600995E+04  0.7818609E-02  0.8090264E-01
        2   -1    0    0  501    0  0.00000000000E+00  0.00000000000E+00  0.21382625566E+04  0.21382625566E+04  0.25500000920E-02 0. -1.
       -2   -1    0    0    0  501  0.00000000000E+00  0.00000000000E+00 -0.15160863854E+04  0.15160863854E+04  0.25500000920E-02 0.  1.
    10030    2    1    2    0    0  0.00000000000E+00  0.00000000000E+00  0.62217617125E+03  0.36543489420E+04  0.36009947240E+04 0.  0.
        3    1    3    3  502    0  0.13994048850E+04  0.46648294046E+02  0.14597961293E+04  0.20227493282E+04  0.10100000352E+00 0. -1.
       -3    1    3    3    0  502 -0.13994048850E+04 -0.46648294046E+02 -0.83761995804E+03  0.16315996138E+04  0.10100000352E+00 0.  1.
</event>
<event>
 5   0  0.7261233E-08  0.3593434E+04  0.7818609E-02  0.8091997E-01
       -1   -1    0    0    0  501  0.00000000000E+00  0.00000000000E+00  0.24248743935E+04  0.24248743935E+04  0.50400001928E-02 0.  1.
        1   -1    0    0  501    0  0.00000000000E+00  0.00000000000E+00 -0.13312824203E+04  0.13312824203E+04  0.50400001928E-02 0. -1.
    10030    2    1    2    0    0  0.00000000000E+00  0.00000000000E+00  0.10935919732E+04  0.37561568138E+04  0.35934343747E+04 0.  0.
        3    1    3    3  502    0 -0.71424273653E+03  0.15777023971E+04  0.10469016035E+04  0.20236824153E+04  0.10100000352E+00 0.  1.
       -3    1    3    3    0  502  0.71424273653E+03 -0.15777023971E+04  0.46690369758E+02  0.17324743985E+04  0.10100000352E+00 0. -1.
</event>
<event>
 5   0  0.2199902E-07  0.3563522E+04  0.7818609E-02  0.8098899E-01
       -2   -1    0    0    0  501  0.00000000000E+00  0.00000000000E+00  0.13446921665E+04  0.13446921665E+04  0.25500000920E-02 0.  1.
        2   -1    0    0  501    0  0.00000000000E+00  0.00000000000E+00 -0.23608908828E+04  0.23608908828E+04  0.25500000920E-02 0. -1.
    10030    2    1    2    0    0  0.00000000000E+00  0.00000000000E+00 -0.10161987163E+04  0.37055830493E+04  0.35635215594E+04 0.  0.
        1    1    3    3  502    0 -0.13808966339E+04 -0.89977545620E+03  0.19579056185E+03  0.16597606241E+04  0.50400001928E-02 0.  1.
       -1    1    3    3    0  502  0.13808966339E+04  0.89977545620E+03 -0.12119892782E+04  0.20458224252E+04  0.50400001928E-02 0. -1.
</event>
<event>
 5   0  0.7514289E-08  0.3598981E+04  0.7818609E-02  0.8090725E-01
       -1   -1    0    0    0  501  0.00000000000E+00  0.00000000000E+00  0.17901705437E+04  0.17901705437E+04  0.50400001928E-02 0.  1.
        1   -1    0    0  501    0  0.00000000000E+00  0.00000000000E+00 -0.18088591303E+04  0.18088591303E+04  0.50400001928E-02 0. -1.
    10030    2    1    2    0    0  0.00000000000E+00  0.00000000000E+00 -0.18688586631E+02  0.35990296740E+04  0.35989811518E+04 0.  0.
        4    1    3    3  502    0  0.56982442476E+03  0.47901861278E+02 -0.17155824815E+04  0.18083747751E+04  0.12699999809E+01 0. -1.
       -4    1    3    3    0  502 -0.56982442476E+03 -0.47901861278E+02  0.16968938949E+04  0.17906548989E+04  0.12699999809E+01 0.  1.
</event>
<event>
 5   0  0.2238968E-07  0.3602297E+04  0.7818609E-02  0.8089966E-01
       -2   -1    0    0    0  501  0.00000000000E+00  0.00000000000E+00  0.19366795298E+04  0.19366795298E+04  0.25500000920E-02 0. -1.
        2   -1    0    0  501    0  0.00000000000E+00  0.00000000000E+00 -0.16751018950E+04  0.16751018950E+04  0.25500000920E-02 0.  1.
    10030    2    1    2    0    0  0.00000000000E+00  0.00000000000E+00  0.26157763485E+03  0.36117814248E+04  0.36022967953E+04 0.  0.
        3    1    3    3  502    0 -0.10947894922E+04  0.58712541932E+03 -0.11768133923E+04  0.17111896624E+04  0.10100000352E+00 0.  1.
       -3    1    3    3    0  502  0.10947894922E+04 -0.58712541932E+03  0.14383910271E+04  0.19005917624E+04  0.10100000352E+00 0. -1.
</event>
<event>
 5   0  0.7514289E-08  0.3606921E+04  0.7818609E-02  0.8088908E-01
       -1   -1    0    0    0  501  0.00000000000E+00  0.00000000000E+00  0.15508252421E+04  0.15508252421E+04  0.50400001928E-02 0.  1.
        1   -1    0    0  501    0  0.00000000000E+00  0.00000000000E+00 -0.20972509078E+04  0.20972509078E+04  0.50400001928E-02 0. -1.
    10030    2    1    2    0    0  0.00000000000E+00  0.00000000000E+00 -0.54642566572E+03  0.36480761499E+04  0.36069209289E+04 0.  0.
        4    1    3    3  502    0  0.84937331305E+03 -0.70724852277E+03  0.11681201658E+04  0.16081485729E+04  0.12699999809E+01 0.  1.
       -4    1    3    3    0  502 -0.84937331305E+03  0.70724852277E+03 -0.17145458315E+04  0.20399275770E+04  0.12699999809E+01 0. -1.
</event>
<event>
 5   0  0.7236375E-08  0.3614123E+04  0.7818609E-02  0.8087264E-01
       -3   -1    0    0    0  501  0.00000000000E+00  0.00000000000E+00  0.12982028848E+04  0.12982028888E+04  0.10100000352E+00 0.  1.
        3   -1    0    0  501    0  0.00000000000E+00  0.00000000000E+00 -0.25153784518E+04  0.25153784538E+04  0.10100000352E+00 0. -1.
    10030    2    1    2    0    0  0.00000000000E+00  0.00000000000E+00 -0.12171755670E+04  0.38135813426E+04  0.36141231711E+04 0.  0.
        3    1    3    3  502    0  0.75753614193E+03  0.29357392101E+03  0.10946267148E+04  0.13631780179E+04  0.10100000352E+00 0.  1.
       -3    1    3    3    0  502 -0.75753614193E+03 -0.29357392101E+03 -0.23118022818E+04  0.24504033247E+04  0.10100000352E+00 0. -1.
</event>
<event>
 5   0  0.7514289E-08  0.3390986E+04  0.7818609E-02  0.8140122E-01
       -1   -1    0    0    0  501  0.00000000000E+00  0.00000000000E+00  0.14546005896E+04  0.14546005896E+04  0.50400001928E-02 0. -1.
        1   -1    0    0  501    0  0.00000000000E+00  0.00000000000E+00 -0.19762788354E+04  0.19762788354E+04  0.50400001928E-02 0.  1.
    10030    2    1    2    0    0  0.00000000000E+00  0.00000000000E+00 -0.52167824575E+03  0.34308794250E+04  0.33909859092E+04 0.  0.
        4    1    3    3  502    0 -0.11750444885E+04  0.10989141133E+04  0.28057591550E+03  0.16331154998E+04  0.12699999809E+01 0.  1.
       -4    1    3    3    0  502  0.11750444885E+04 -0.10989141133E+04 -0.80225416125E+03  0.17977639252E+04  0.12699999809E+01 0. -1.
</event>
<event>
 5   0  0.7236375E-08  0.3585676E+04  0.7818609E-02  0.8093781E-01
       -1   -1    0    0    0  501  0.00000000000E+00  0.00000000000E+00  0.17345154037E+04  0.17345154037E+04  0.50400001928E-02 0. -1.
        1   -1    0    0  501    0  0.00000000000E+00  0.00000000000E+00 -0.18531212540E+04  0.18531212540E+04  0.50400001928E-02 0.  1.
    10030    2    1    2    0    0  0.00000000000E+00  0.00000000000E+00 -0.11860585026E+03  0.35876366578E+04  0.35856755905E+04 0.  0.
        5    1    3    3  502    0  0.12593401984E+04 -0.47539250483E+03 -0.12441420765E+04  0.18329886430E+04  0.46999998093E+01 0.  1.
       -5    1    3    3    0  502 -0.12593401984E+04  0.47539250483E+03  0.11255362262E+04  0.17546480147E+04  0.46999998093E+01 0. -1.
</event>
<event>
 5   0  0.2198900E-07  0.3585839E+04  0.7818609E-02  0.8093743E-01
       -2   -1    0    0    0  501  0.00000000000E+00  0.00000000000E+00  0.28284742424E+04  0.28284742424E+04  0.25500000920E-02 0.  1.
        2   -1    0    0  501    0  0.00000000000E+00  0.00000000000E+00 -0.11364994865E+04  0.11364994865E+04  0.25500000920E-02 0. -1.
    10030    2    1    2    0    0  0.00000000000E+00  0.00000000000E+00  0.16919747559E+04  0.39649737289E+04  0.35858385485E+04 0.  0.
        2    1    3    3  502    0 -0.16217079342E+04 -0.66740789601E+03  0.43345980971E+03  0.18064488175E+04  0.25500000920E-02 0.  1.
       -2    1    3    3    0  502  0.16217079342E+04  0.66740789601E+03  0.12585149462E+04  0.21585249114E+04  0.25500000920E-02 0. -1.
</event>
<event>
 5   0  0.2309391E-07  0.3606503E+04  0.7818609E-02  0.8089004E-01
       -2   -1    0    0    0  501  0.00000000000E+00  0.00000000000E+00  0.14260447285E+04  0.14260447285E+04  0.25500000920E-02 0. -1.
        2   -1    0    0  501    0  0.00000000000E+00  0.00000000000E+00 -0.22802343738E+04  0.22802343738E+04  0.25500000920E-02 0.  1.
    10030    2    1    2    0    0  0.00000000000E+00  0.00000000000E+00 -0.85418964530E+03  0.37062791023E+04  0.36065031310E+04 0.  0.
        4    1    3    3  502    0  0.75264531294E+03  0.14386156693E+04  0.37922954503E+03  0.16673052126E+04  0.12699999809E+01 0. -1.
       -4    1    3    3    0  502 -0.75264531294E+03 -0.14386156693E+04 -0.12334191903E+04  0.20389738898E+04  0.12699999809E+01 0.  1.
</event>
<event>
 5   0  0.2238968E-07  0.3602152E+04  0.7818609E-02  0.8089999E-01
       -2   -1    0    0    0  501  0.00000000000E+00  0.00000000000E+00  0.16293933745E+04  0.16293933745E+04  0.25500000920E-02 0.  1.
        2   -1    0    0  501    0  0.00000000000E+00  0.00000000000E+00 -0.19908484091E+04  0.19908484091E+04  0.25500000920E-02 0. -1.
    10030    2    1    2    0    0  0.00000000000E+00  0.00000000000E+00 -0.36145503451E+03  0.36202417836E+04  0.36021522497E+04 0.  0.
        3    1    3    3  502    0 -0.10202148725E+03 -0.16472518648E+04 -0.90547867953E+03  0.18824820688E+04  0.10100000352E+00 0. -1.
       -3    1    3    3    0  502  0.10202148725E+03  0.16472518648E+04  0.54402364501E+03  0.17377597148E+04  0.10100000352E+00 0.  1.
</event>
<event>
 5   0  0.2342606E-07  0.3596556E+04  0.7818609E-02  0.8091281E-01
       -2   -1    0    0    0  501  0.00000000000E+00  0.00000000000E+00  0.12127133526E+04  0.12127133526E+04  0.25500000920E-02 0.  1.
        2   -1    0    0  501    0  0.00000000000E+00  0.00000000000E+00 -0.26665847572E+04  0.26665847572E+04  0.25500000920E-02 0. -1.
    10030    2    1    2    0    0  0.00000000000E+00  0.00000000000E+00 -0.14538714046E+04  0.38792981099E+04  0.35965555416E+04 0.  0.
        5    1    3    3  502    0 -0.10083282866E+04 -0.56981770542E+03 -0.22107124909E+04  0.24957343525E+04  0.46999998093E+01 0. -1.
       -5    1    3    3    0  502  0.10083282866E+04  0.56981770542E+03  0.75684108624E+03  0.13835637574E+04  0.46999998093E+01 0.  1.
</event>
<event>
 5   0  0.7514289E-08  0.3526285E+04  0.7818609E-02  0.8107589E-01
       -1   -1    0    0    0  501  0.00000000000E+00  0.00000000000E+00  0.96802060469E+03  0.96802060470E+03  0.50400001928E-02 0.  1.
        1   -1    0    0  501    0  0.00000000000E+00  0.00000000000E+00 -0.32113689256E+04  0.32113689256E+04  0.50400001928E-02 0. -1.
    10030    2    1    2    0    0  0.00000000000E+00  0.00000000000E+00 -0.22433483209E+04  0.41793895303E+04  0.35262848945E+04 0.  0.
        4    1    3    3  502    0  0.87011320071E+03 -0.94643118834E+03  0.30837965796E+03  0.13220925091E+04  0.12699999809E+01 0.  1.
       -4    1    3    3    0  502 -0.87011320071E+03  0.94643118834E+03 -0.25517279789E+04  0.28572970212E+04  0.12699999809E+01 0. -1.
</event>
<event>
 5   0  0.7236375E-08  0.3609352E+04  0.7818609E-02  0.8088353E-01
        1   -1    0    0  501    0  0.00000000000E+00  0.00000000000E+00  0.21248842422E+04  0.21248842422E+04  0.50400001928E-02 0. -1.
       -1   -1    0    0    0  501  0.00000000000E+00  0.00000000000E+00 -0.15327210422E+04  0.15327210422E+04  0.50400001928E-02 0.  1.
    10030    2    1    2    0    0  0.00000000000E+00  0.00000000000E+00  0.59216319996E+03  0.36576052844E+04  0.36093516261E+04 0.  0.
        1    1    3    3  502    0 -0.34312089959E+03  0.15521637044E+04  0.11618515340E+04  0.19689700618E+04  0.50400001928E-02 0. -1.
       -1    1    3    3    0  502  0.34312089959E+03 -0.15521637044E+04 -0.56968833409E+03  0.16886352226E+04  0.50400001928E-02 0.  1.
</event>
<event>
 5   0  0.2238968E-07  0.3596970E+04  0.7818609E-02  0.8091186E-01
        2   -1    0    0  501    0  0.00000000000E+00  0.00000000000E+00  0.17686543893E+04  0.17686543893E+04  0.25500000920E-02 0. -1.
       -2   -1    0    0    0  501  0.00000000000E+00  0.00000000000E+00 -0.18288191815E+04  0.18288191815E+04  0.25500000920E-02 0.  1.
    10030    2    1    2    0    0  0.00000000000E+00  0.00000000000E+00 -0.60164792247E+02  0.35974735708E+04  0.35969704322E+04 0.  0.
        3    1    3    3  502    0 -0.99506674644E+03 -0.42079784153E+03  0.14079366568E+04  0.17746870972E+04  0.10100000352E+00 0. -1.
       -3    1    3    3    0  502  0.99506674644E+03  0.42079784153E+03 -0.14681014490E+04  0.18227864736E+04  0.10100000352E+00 0.  1.
</event>
<event>
 5   0  0.2199902E-07  0.3604981E+04  0.7818609E-02  0.8089352E-01
       -2   -1    0    0    0  501  0.00000000000E+00  0.00000000000E+00  0.16239983232E+04  0.16239983232E+04  0.25500000920E-02 0. -1.
        2   -1    0    0  501    0  0.00000000000E+00  0.00000000000E+00 -0.20006004213E+04  0.20006004213E+04  0.25500000920E-02 0.  1.
    10030    2    1    2    0    0  0.00000000000E+00  0.00000000000E+00 -0.37660209811E+03  0.36245987444E+04  0.36049808485E+04 0.  0.
        1    1    3    3  502    0 -0.21179158475E+03  0.22003727321E+02  0.16113084541E+04  0.16253168226E+04  0.50400001928E-02 0. -1.
       -1    1    3    3    0  502  0.21179158475E+03 -0.22003727321E+02 -0.19879105522E+04  0.19992819219E+04  0.50400001928E-02 0.  1.
</event>
<event>
 5   0  0.2238968E-07  0.3587734E+04  0.7818609E-02  0.8093307E-01
       -2   -1    0    0    0  501  0.00000000000E+00  0.00000000000E+00  0.26945069453E+04  0.26945069453E+04  0.25500000920E-02 0.  1.
        2   -1    0    0  501    0  0.00000000000E+00  0.00000000000E+00 -0.11942659984E+04  0.11942659984E+04  0.25500000920E-02 0. -1.
    10030    2    1    2    0    0  0.00000000000E+00  0.00000000000E+00  0.15002409468E+04  0.38887729437E+04  0.35877335616E+04 0.  0.
        3    1    3    3  502    0 -0.42096909465E+03 -0.69565462588E+03 -0.98305060884E+03  0.12757503074E+04  0.10100000352E+00 0. -1.
       -3    1    3    3    0  502  0.42096909465E+03  0.69565462588E+03  0.24832915557E+04  0.26130226363E+04  0.10100000352E+00 0.  1.
</event>
<event>
 5   0  0.7261233E-08  0.3586655E+04  0.7818609E-02  0.8093555E-01
       -1   -1    0    0    0  501  0.00000000000E+00  0.00000000000E+00  0.17090166457E+04  0.17090166457E+04  0.50400001928E-02 0. -1.
        1   -1    0    0  501    0  0.00000000000E+00  0.00000000000E+00 -0.18817973452E+04  0.18817973452E+04  0.50400001928E-02 0.  1.
    10030    2    1    2    0    0  0.00000000000E+00  0.00000000000E+00 -0.17278069949E+03  0.35908139910E+04  0.35866547015E+04 0.  0.
        3    1    3    3  502    0 -0.11320425482E+04  0.13893145386E+04 -0.20680720663E+02  0.17922452178E+04  0.10100000352E+00 0.  1.
       -3    1    3    3    0  502  0.11320425482E+04 -0.13893145386E+04 -0.15209997883E+03  0.17985687732E+04  0.10100000352E+00 0. -1.
</event>
<event>
 5   0  0.2198900E-07  0.3596528E+04  0.7818609E-02  0.8091287E-01
       -2   -1    0    0    0  501  0.00000000000E+00  0.00000000000E+00  0.14996006985E+04  0.14996006985E+04  0.25500000920E-02 0. -1.
        2   -1    0    0  501    0  0.00000000000E+00  0.00000000000E+00 -0.21564102405E+04  0.21564102405E+04  0.25500000920E-02 0.  1.
    10030    2    1    2    0    0  0.00000000000E+00  0.00000000000E+00 -0.65680954197E+03  0.36560109390E+04  0.35965284945E+04 0.  0.
        2    1    3    3  502    0 -0.45469001679E+03  0.15577620876E+04 -0.11160673060E+04  0.19695105901E+04  0.25500000920E-02 0.  1.
       -2    1    3    3    0  502  0.45469001679E+03 -0.15577620876E+04  0.45925776405E+03  0.16865003489E+04  0.25500000920E-02 0. -1.
</event>
<event>
 5   0  0.7236375E-08  0.3613184E+04  0.7818609E-02  0.8087478E-01
       -1   -1    0    0    0  501  0.00000000000E+00  0.00000000000E+00  0.13601529262E+04  0.13601529262E+04  0.50400001928E-02 0.  1.
        1   -1    0    0  501    0  0.00000000000E+00  0.00000000000E+00 -0.23995641623E+04  0.23995641623E+04  0.50400001928E-02 0. -1.
    10030    2    1    2    0    0  0.00000000000E+00  0.00000000000E+00 -0.10394112361E+04  0.37597170885E+04  0.36131837578E+04 0.  0.
        1    1    3    3  502    0 -0.17038111765E+04 -0.56646720652E+03 -0.72759957451E+03  0.19373328991E+04  0.50400001928E-02 0. -1.
       -1    1    3    3    0  502  0.17038111765E+04  0.56646720652E+03 -0.31181166161E+03  0.18223841894E+04  0.50400001928E-02 0.  1.
</event>
<event>
 5   0  0.2238968E-07  0.3595245E+04  0.7818609E-02  0.8091582E-01
        2   -1    0    0  501    0  0.00000000000E+00  0.00000000000E+00  0.22870962850E+04  0.22870962850E+04  0.25500000920E-02 0.  1.
       -2   -1    0    0    0  501  0.00000000000E+00  0.00000000000E+00 -0.14129033254E+04  0.14129033255E+04  0.25500000920E-02 0. -1.
    10030    2    1    2    0    0  0.00000000000E+00  0.00000000000E+00  0.87419295958E+03  0.36999996105E+04  0.35952446074E+04 0.  0.
        3    1    3    3  502    0  0.75707846881E+02  0.38727301840E+03 -0.13677805267E+04  0.14235644166E+04  0.10100000352E+00 0. -1.
       -3    1    3    3    0  502 -0.75707846881E+02 -0.38727301840E+03  0.22419734862E+04  0.22764351939E+04  0.10100000352E+00 0.  1.
</event>
<event>
 5   0  0.2198900E-07  0.3568675E+04  0.7818609E-02  0.8097705E-01
       -2   -1    0    0    0  501  0.00000000000E+00  0.00000000000E+00  0.12352856494E+04  0.12352856494E+04  0.25500000920E-02 0. -1.
        2   -1    0    0  501    0  0.00000000000E+00  0.00000000000E+00 -0.25774278868E+04  0.25774278868E+04  0.25500000920E-02 0.  1.
    10030    2    1    2    0    0  0.00000000000E+00  0.00000000000E+00 -0.13421422374E+04  0.38127135363E+04  0.35686746453E+04 0.  0.
        2    1    3    3  502    0  0.21832573644E+03 -0.17639839408E+04 -0.50365772194E+03  0.18474243074E+04  0.25500000920E-02 0.  1.
       -2    1    3    3    0  502 -0.21832573644E+03  0.17639839408E+04 -0.83848451548E+03  0.19652892289E+04  0.25500000920E-02 0. -1.
</event>
<event>
 5   0  0.7236375E-08  0.3601961E+04  0.7818609E-02  0.8090043E-01
        1   -1    0    0  501    0  0.00000000000E+00  0.00000000000E+00  0.10770506812E+04  0.10770506812E+04  0.50400001928E-02 0.  1.
       -1   -1    0    0    0  501  0.00000000000E+00  0.00000000000E+00 -0.30114937971E+04  0.30114937971E+04  0.50400001928E-02 0. -1.
    10030    2    1    2    0    0  0.00000000000E+00  0.00000000000E+00 -0.19344431160E+04  0.40885444783E+04  0.36019613799E+04 0.  0.
        1    1    3    3  502    0 -0.14423911875E+04  0.10618971347E+04 -0.11808281298E+04  0.21453374873E+04  0.50400001928E-02 0. -1.
       -1    1    3    3    0  502  0.14423911875E+04 -0.10618971347E+04 -0.75361498618E+03  0.19432069910E+04  0.50400001928E-02 0.  1.
</event>
<event>
 5   0  0.2342606E-07  0.3621669E+04  0.7818609E-02  0.8085546E-01
       -2   -1    0    0    0  501  0.00000000000E+00  0.00000000000E+00  0.21129126881E+04  0.21129126881E+04  0.25500000920E-02 0.  1.
        2   -1    0    0  501    0  0.00000000000E+00  0.00000000000E+00 -0.15519434624E+04  0.15519434624E+04  0.25500000920E-02 0. -1.
    10030    2    1    2    0    0  0.00000000000E+00  0.00000000000E+00  0.56096922568E+03  0.36648561506E+04  0.36216686944E+04 0.  0.
        5    1    3    3  502    0 -0.96336587653E+03 -0.11803950108E+04  0.12707721499E+04  0.19840086040E+04  0.46999998093E+01 0.  1.
       -5    1    3    3    0  502  0.96336587653E+03  0.11803950108E+04 -0.70980292425E+03  0.16808475466E+04  0.46999998093E+01 0. -1.
</event>
<event>
 5   0  0.2198900E-07  0.3603421E+04  0.7818609E-02  0.8089709E-01
        2   -1    0    0  501    0  0.00000000000E+00  0.00000000000E+00  0.21930621724E+04  0.21930621724E+04  0.25500000920E-02 0.  1.
       -2   -1    0    0    0  501  0.00000000000E+00  0.00000000000E+00 -0.14801950807E+04  0.14801950807E+04  0.25500000920E-02 0. -1.
    10030    2    1    2    0    0  0.00000000000E+00  0.00000000000E+00  0.71286709172E+03  0.36732572530E+04  0.36034205079E+04 0.  0.
        2    1    3    3  502    0 -0.44102930929E+03  0.14413429105E+04 -0.64970272717E+03  0.16413682923E+04  0.25500000920E-02 0. -1.
       -2    1    3    3    0  502  0.44102930929E+03 -0.14413429105E+04  0.13625698189E+04  0.20318889607E+04  0.25500000920E-02 0.  1.
</event>
<event>
 5   0  0.2342606E-07  0.3457640E+04  0.7818609E-02  0.8123903E-01
       -2   -1    0    0    0  501  0.00000000000E+00  0.00000000000E+00  0.12171104858E+04  0.12171104858E+04  0.25500000920E-02 0.  1.
        2   -1    0    0  501    0  0.00000000000E+00  0.00000000000E+00 -0.24556670787E+04  0.24556670787E+04  0.25500000920E-02 0. -1.
    10030    2    1    2    0    0  0.00000000000E+00  0.00000000000E+00 -0.12385565929E+04  0.36727775645E+04  0.34576397448E+04 0.  0.
        5    1    3    3  502    0  0.92738973037E+03  0.40891855864E+03  0.86841141062E+03  0.13347009282E+04  0.46999998093E+01 0.  1.
       -5    1    3    3    0  502 -0.92738973037E+03 -0.40891855864E+03 -0.21069680035E+04  0.23380766363E+04  0.46999998093E+01 0. -1.
</event>
<event>
 5   0  0.7236375E-08  0.3597745E+04  0.7818609E-02  0.8091008E-01
        1   -1    0    0  501    0  0.00000000000E+00  0.00000000000E+00  0.25387050785E+04  0.25387050785E+04  0.50400001928E-02 0. -1.
       -1   -1    0    0    0  501  0.00000000000E+00  0.00000000000E+00 -0.12746427057E+04  0.12746427057E+04  0.50400001928E-02 0.  1.
    10030    2    1    2    0    0  0.00000000000E+00  0.00000000000E+00  0.12640623728E+04  0.38133477842E+04  0.35977447993E+04 0.  0.
        1    1    3    3  502    0  0.85516346854E+03  0.14318764608E+04  0.13464938291E+04  0.21435065637E+04  0.50400001928E-02 0. -1.
       -1    1    3    3    0  502 -0.85516346854E+03 -0.14318764608E+04 -0.82431456220E+02  0.16698412205E+04  0.50400001928E-02 0.  1.
</event>
<event>
 5   0  0.2309391E-07  0.3596803E+04  0.7818609E-02  0.8091224E-01
       -2   -1    0    0    0  501  0.00000000000E+00  0.00000000000E+00  0.17287180044E+04  0.17287180044E+04  0.25500000920E-02 0. -1.
        2   -1    0    0  501    0  0.00000000000E+00  0.00000000000E+00 -0.18708942566E+04  0.18708942566E+04  0.25500000920E-02 0.  1.
    10030    2    1    2    0    0  0.00000000000E+00  0.00000000000E+00 -0.14217625218E+03  0.35996122610E+04  0.35968033506E+04 0.  0.
        4    1    3    3  502    0  0.24899803800E+03 -0.37649175915E+03 -0.18132810174E+04  0.18686186686E+04  0.12699999809E+01 0.  1.
       -4    1    3    3    0  502 -0.24899803800E+03  0.37649175915E+03  0.16711047652E+04  0.17309935924E+04  0.12699999809E+01 0. -1.
</event>
<event>
 5   0  0.2238968E-07  0.3588911E+04  0.7818609E-02  0.8093036E-01
       -2   -1    0    0    0  501  0.00000000000E+00  0.00000000000E+00  0.15413974614E+04  0.15413974614E+04  0.25500000920E-02 0. -1.
        2   -1    0    0  501    0  0.00000000000E+00  0.00000000000E+00 -0.20890593737E+04  0.20890593737E+04  0.25500000920E-02 0.  1.
    10030    2    1    2    0    0  0.00000000000E+00  0.00000000000E+00 -0.54766191225E+03  0.36304568351E+04  0.35889111526E+04 0.  0.
        3    1    3    3  502    0 -0.23035329305E+03  0.72708598700E+03 -0.19169351896E+04  0.20630940850E+04  0.10100000352E+00 0.  1.
       -3    1    3    3    0  502  0.23035329305E+03 -0.72708598700E+03  0.13692732774E+04  0.15673627501E+04  0.10100000352E+00 0. -1.
</event>
<event>
 5   0  0.2342606E-07  0.3543938E+04  0.7818609E-02  0.8103455E-01
        2   -1    0    0  501    0  0.00000000000E+00  0.00000000000E+00  0.22030290969E+04  0.22030290969E+04  0.25500000920E-02 0. -1.
       -2   -1    0    0    0  501  0.00000000000E+00  0.00000000000E+00 -0.14252533559E+04  0.14252533559E+04  0.25500000920E-02 0.  1.
    10030    2    1    2    0    0  0.00000000000E+00  0.00000000000E+00  0.77777574097E+03  0.36282824528E+04  0.35439382689E+04 0.  0.
        5    1    3    3  502    0  0.17488781458E+04  0.27489294972E+03  0.46626179515E+03  0.18307274658E+04  0.46999998093E+01 0.  1.
       -5    1    3    3    0  502 -0.17488781458E+04 -0.27489294972E+03  0.31151394582E+03  0.17975549869E+04  0.46999998093E+01 0. -1.
</event>
<event>
 5   0  0.2238968E-07  0.3620240E+04  0.7818609E-02  0.8085871E-01
       -2   -1    0    0    0  501  0.00000000000E+00  0.00000000000E+00  0.17052137879E+04  0.17052137879E+04  0.25500000920E-02 0. -1.
        2   -1    0    0  501    0  0.00000000000E+00  0.00000000000E+00 -0.19214797387E+04  0.19214797387E+04  0.25500000920E-02 0.  1.
    10030    2    1    2    0    0  0.00000000000E+00  0.00000000000E+00 -0.21626595077E+03  0.36266935266E+04  0.36202396294E+04 0.  0.
        3    1    3    3  502    0  0.62025393187E+03 -0.49268444151E+03 -0.17386342562E+04  0.19105763492E+04  0.10100000352E+00 0.  1.
       -3    1    3    3    0  502 -0.62025393187E+03  0.49268444151E+03  0.15223683054E+04  0.17161171774E+04  0.10100000352E+00 0. -1.
</event>
<event>
 5   0  0.7261233E-08  0.3586206E+04  0.7818609E-02  0.8093659E-01
        1   -1    0    0  501    0  0.00000000000E+00  0.00000000000E+00  0.14618958659E+04  0.14618958659E+04  0.50400001928E-02 0.  1.
       -1   -1    0    0    0  501  0.00000000000E+00  0.00000000000E+00 -0.21993488949E+04  0.21993488949E+04  0.50400001928E-02 0. -1.
    10030    2    1    2    0    0  0.00000000000E+00  0.00000000000E+00 -0.73745302894E+03  0.36612447608E+04  0.35862063840E+04 0.  0.
        3    1    3    3  502    0  0.12685477230E+04  0.59449134274E+03 -0.15113344075E+04  0.20607680567E+04  0.10100000352E+00 0. -1.
       -3    1    3    3    0  502 -0.12685477230E+04 -0.59449134274E+03  0.77388137854E+03  0.16004767041E+04  0.10100000352E+00 0.  1.
</event>
<event>
 5   0  0.7261233E-08  0.3598357E+04  0.7818609E-02  0.8090868E-01
       -1   -1    0    0    0  501  0.00000000000E+00  0.00000000000E+00  0.24628999958E+04  0.24628999959E+04  0.50400001928E-02 0.  1.
        1   -1    0    0  501    0  0.00000000000E+00  0.00000000000E+00 -0.13143221308E+04  0.13143221309E+04  0.50400001928E-02 0. -1.
    10030    2    1    2    0    0  0.00000000000E+00  0.00000000000E+00  0.11485778650E+04  0.37772221267E+04  0.35983573867E+04 0.  0.
        3    1    3    3  502    0 -0.43593677807E+03 -0.16799131614E+04  0.10720924844E+04  0.20399831886E+04  0.10100000352E+00 0. -1.
       -3    1    3    3    0  502  0.43593677807E+03  0.16799131614E+04  0.76485380557E+02  0.17372389381E+04  0.10100000352E+00 0.  1.
</event>
<event>
 5   0  0.2309391E-07  0.3588577E+04  0.7818609E-02  0.8093113E-01
        2   -1    0    0  501    0  0.00000000000E+00  0.00000000000E+00  0.12990720505E+04  0.12990720505E+04  0.25500000920E-02 0. -1.
       -2   -1    0    0    0  501  0.00000000000E+00  0.00000000000E+00 -0.24782847289E+04  0.24782847289E+04  0.25500000920E-02 0.  1.
    10030    2    1    2    0    0  0.00000000000E+00  0.00000000000E+00 -0.11792126784E+04  0.37773567794E+04  0.35885765560E+04 0.  0.
        4    1    3    3  502    0 -0.88142913400E+03  0.48579738705E+03 -0.21531964432E+04  0.23767988883E+04  0.12699999809E+01 0.  1.
       -4    1    3    3    0  502  0.88142913400E+03 -0.48579738705E+03  0.97398376475E+03  0.14005578911E+04  0.12699999809E+01 0. -1.
</event>
<event>
 5   0  0.7236375E-08  0.3597235E+04  0.7818609E-02  0.8091125E-01
       -1   -1    0    0    0  501  0.00000000000E+00  0.00000000000E+00  0.32915360145E+04  0.32915360145E+04  0.50400001928E-02 0. -1.
        1   -1    0    0  501    0  0.00000000000E+00  0.00000000000E+00 -0.98283118335E+03  0.98283118336E+03  0.50400001928E-02 0.  1.
    10030    2    1    2    0    0  0.00000000000E+00  0.00000000000E+00  0.23087048311E+04  0.42743671979E+04  0.35972346246E+04 0.  0.
        5    1    3    3  502    0 -0.12445375485E+04  0.12001562506E+04  0.56530149310E+03  0.18190207815E+04  0.46999998093E+01 0.  1.
       -5    1    3    3    0  502  0.12445375485E+04 -0.12001562506E+04  0.17434033380E+04  0.24553464164E+04  0.46999998093E+01 0. -1.
</event>
<event>
 5   0  0.7236375E-08  0.3591654E+04  0.7818609E-02  0.8092406E-01
        1   -1    0    0  501    0  0.00000000000E+00  0.00000000000E+00  0.17568633193E+04  0.17568633193E+04  0.50400001928E-02 0.  1.
       -1   -1    0    0    0  501  0.00000000000E+00  0.00000000000E+00 -0.18356549180E+04  0.18356549180E+04  0.50400001928E-02 0. -1.
    10030    2    1    2    0    0  0.00000000000E+00  0.00000000000E+00 -0.78791598689E+02  0.35925182373E+04  0.35916540994E+04 0.  0.
        5    1    3    3  502    0 -0.13194667921E+03  0.15954695076E+04  0.77445826205E+03  0.17784095607E+04  0.46999998093E+01 0.  1.
       -5    1    3    3    0  502  0.13194667921E+03 -0.15954695076E+04 -0.85324986074E+03  0.18141086767E+04  0.46999998093E+01 0. -1.
</event>
<event>
 5   0  0.7236375E-08  0.3599423E+04  0.7818609E-02  0.8090624E-01
       -3   -1    0    0    0  501  0.00000000000E+00  0.00000000000E+00  0.17570648863E+04  0.17570648892E+04  0.10100000352E+00 0. -1.
        3   -1    0    0  501    0  0.00000000000E+00  0.00000000000E+00 -0.18433935153E+04  0.18433935181E+04  0.10100000352E+00 0.  1.
    10030    2    1    2    0    0  0.00000000000E+00  0.00000000000E+00 -0.86328629034E+02  0.36004584073E+04  0.35994233025E+04 0.  0.
        5    1    3    3  502    0  0.14515871324E+04  0.10392009185E+04  0.18470854078E+03  0.17947654685E+04  0.46999998093E+01 0. -1.
       -5    1    3    3    0  502 -0.14515871324E+04 -0.10392009185E+04 -0.27103716982E+03  0.18056929388E+04  0.46999998093E+01 0.  1.
</event>
<event>
 5   0  0.7261233E-08  0.3589416E+04  0.7818609E-02  0.8092920E-01
        1   -1    0    0  501    0  0.00000000000E+00  0.00000000000E+00  0.19299878848E+04  0.19299878848E+04  0.50400001928E-02 0.  1.
       -1   -1    0    0    0  501  0.00000000000E+00  0.00000000000E+00 -0.16689099373E+04  0.16689099373E+04  0.50400001928E-02 0. -1.
    10030    2    1    2    0    0  0.00000000000E+00  0.00000000000E+00  0.26107794747E+03  0.35988978221E+04  0.35894155290E+04 0.  0.
        3    1    3    3  502    0 -0.72650739458E+03  0.51570093640E+03 -0.14315290691E+04  0.16861304623E+04  0.10100000352E+00 0. -1.
       -3    1    3    3    0  502  0.72650739458E+03 -0.51570093640E+03  0.16926070165E+04  0.19127673598E+04  0.10100000352E+00 0.  1.
</event>
<event>
 5   0  0.2199902E-07  0.3600540E+04  0.7818609E-02  0.8090368E-01
       -2   -1    0    0    0  501  0.00000000000E+00  0.00000000000E+00  0.14258177960E+04  0.14258177960E+04  0.25500000920E-02 0. -1.
        2   -1    0    0  501    0  0.00000000000E+00  0.00000000000E+00 -0.22730618140E+04  0.22730618140E+04  0.25500000920E-02 0.  1.
    10030    2    1    2    0    0  0.00000000000E+00  0.00000000000E+00 -0.84724401793E+03  0.36988796100E+04  0.36005399516E+04 0.  0.
        1    1    3    3  502    0 -0.71502609733E+03  0.87172128246E+03  0.10182108384E+04  0.15191818935E+04  0.50400001928E-02 0. -1.
       -1    1    3    3    0  502  0.71502609733E+03 -0.87172128246E+03 -0.18654548563E+04  0.21796977165E+04  0.50400001928E-02 0.  1.
</event>
<event>
 5   0  0.7347303E-08  0.3635480E+04  0.7818609E-02  0.8082413E-01
        1   -1    0    0  501    0  0.00000000000E+00  0.00000000000E+00  0.26036989117E+04  0.26036989117E+04  0.50400001928E-02 0.  1.
       -1   -1    0    0    0  501  0.00000000000E+00  0.00000000000E+00 -0.12690325569E+04  0.12690325569E+04  0.50400001928E-02 0. -1.
    10030    2    1    2    0    0  0.00000000000E+00  0.00000000000E+00  0.13346663548E+04  0.38727314686E+04  0.36354799888E+04 0.  0.
        2    1    3    3  502    0  0.61455316717E+03 -0.12252773879E+04  0.19390584188E+04  0.23746426729E+04  0.25500000920E-02 0.  1.
       -2    1    3    3    0  502 -0.61455316717E+03  0.12252773879E+04 -0.60439206403E+03  0.14980887957E+04  0.25500000920E-02 0. -1.
</event>
<event>
 5   0  0.7261233E-08  0.3584750E+04  0.7818609E-02  0.8093994E-01
       -1   -1    0    0    0  501  0.00000000000E+00  0.00000000000E+00  0.18982552278E+04  0.18982552278E+04  0.50400001928E-02 0. -1.
        1   -1    0    0  501    0  0.00000000000E+00  0.00000000000E+00 -0.16924001195E+04  0.16924001195E+04  0.50400001928E-02 0.  1.
    10030    2    1    2    0    0  0.00000000000E+00  0.00000000000E+00  0.20585510833E+03  0.35906553473E+04  0.35847495725E+04 0.  0.
        3    1    3    3  502    0 -0.82762576438E+02 -0.43225733385E+03  0.18432914976E+04  0.18951041137E+04  0.10100000352E+00 0. -1.
       -3    1    3    3    0  502  0.82762576438E+02  0.43225733385E+03 -0.16374363892E+04  0.16955512336E+04  0.10100000352E+00 0.  1.
</event>
<event>
 5   0  0.7347303E-08  0.3592667E+04  0.7818609E-02  0.8092174E-01
       -1   -1    0    0    0  501  0.00000000000E+00  0.00000000000E+00  0.14020863458E+04  0.14020863458E+04  0.50400001928E-02 0. -1.
        1   -1    0    0  501    0  0.00000000000E+00  0.00000000000E+00 -0.23014368979E+04  0.23014368979E+04  0.50400001928E-02 0.  1.
    10030    2    1    2    0    0  0.00000000000E+00  0.00000000000E+00 -0.89935055209E+03  0.37035232436E+04  0.35926665585E+04 0.  0.
        2    1    3    3  502    0 -0.75091374273E+03  0.81640856497E+03  0.10068700193E+04  0.14980592878E+04  0.25500000920E-02 0. -1.
       -2    1    3    3    0  502  0.75091374273E+03 -0.81640856497E+03 -0.19062205714E+04  0.22054639559E+04  0.25500000920E-02 0.  1.
</event>
<event>
 5   0  0.7261233E-08  0.3578922E+04  0.7818609E-02  0.8095337E-01
        1   -1    0    0  501    0  0.00000000000E+00  0.00000000000E+00  0.17198037182E+04  0.17198037182E+04  0.50400001928E-02 0.  1.
       -1   -1    0    0    0  501  0.00000000000E+00  0.00000000000E+00 -0.18619398275E+04  0.18619398275E+04  0.50400001928E-02 0. -1.
    10030    2    1    2    0    0  0.00000000000E+00  0.00000000000E+00 -0.14213610936E+03  0.35817435457E+04  0.35789222056E+04 0.  0.
        3    1    3    3  502    0  0.12690073752E+04  0.10559863503E+04  0.61989937900E+03  0.17634517687E+04  0.10100000352E+00 0.  1.
       -3    1    3    3    0  502 -0.12690073752E+04 -0.10559863503E+04 -0.76203548837E+03  0.18182917769E+04  0.10100000352E+00 0. -1.
</event>
<event>
 5   0  0.2342606E-07  0.3617636E+04  0.7818609E-02  0.8086464E-01
       -2   -1    0    0    0  501  0.00000000000E+00  0.00000000000E+00  0.14014256455E+04  0.14014256455E+04  0.25500000920E-02 0. -1.
        2   -1    0    0  501    0  0.00000000000E+00  0.00000000000E+00 -0.23346389316E+04  0.23346389316E+04  0.25500000920E-02 0.  1.
    10030    2    1    2    0    0  0.00000000000E+00  0.00000000000E+00 -0.93321328609E+03  0.37360645771E+04  0.36176361739E+04 0.  0.
        5    1    3    3  502    0 -0.18013669858E+04 -0.76420269564E+02 -0.61639866479E+03  0.19054481046E+04  0.46999998093E+01 0.  1.
       -5    1    3    3    0  502  0.18013669858E+04  0.76420269564E+02 -0.31681462130E+03  0.18306164725E+04  0.46999998093E+01 0. -1.
</event>
<event>
 5   0  0.2199902E-07  0.3590491E+04  0.7818609E-02  0.8092673E-01
        2   -1    0    0  501    0  0.00000000000E+00  0.00000000000E+00  0.24016781545E+04  0.24016781545E+04  0.25500000920E-02 0.  1.
       -2   -1    0    0    0  501  0.00000000000E+00  0.00000000000E+00 -0.13419395973E+04  0.13419395973E+04  0.25500000920E-02 0. -1.
    10030    2    1    2    0    0  0.00000000000E+00  0.00000000000E+00  0.10597385571E+04  0.37436177518E+04  0.35904913399E+04 0.  0.
        1    1    3    3  502    0 -0.18453142530E+03  0.97007025734E+03 -0.10333441251E+04  0.14292964116E+04  0.50400001928E-02 0. -1.
       -1    1    3    3    0  502  0.18453142530E+03 -0.97007025734E+03  0.20930826823E+04  0.23143213402E+04  0.50400001928E-02 0.  1.
</event>
<event>
 5   0  0.7236375E-08  0.3597351E+04  0.7818609E-02  0.8091099E-01
       -1   -1    0    0    0  501  0.00000000000E+00  0.00000000000E+00  0.17678671495E+04  0.17678671495E+04  0.50400001928E-02 0.  1.
        1   -1    0    0  501    0  0.00000000000E+00  0.00000000000E+00 -0.18300209353E+04  0.18300209353E+04  0.50400001928E-02 0. -1.
    10030    2    1    2    0    0  0.00000000000E+00  0.00000000000E+00 -0.62153785787E+02  0.35978880849E+04  0.35973511892E+04 0.  0.
        1    1    3    3  502    0  0.18698884947E+03 -0.86575571983E+03 -0.15967932418E+04  0.18259919095E+04  0.50400001928E-02 0. -1.
       -1    1    3    3    0  502 -0.18698884947E+03  0.86575571983E+03  0.15346394561E+04  0.17718961754E+04  0.50400001928E-02 0.  1.
</event>
<event>
 5   0  0.2198900E-07  0.3616527E+04  0.7818609E-02  0.8086717E-01
       -2   -1    0    0    0  501  0.00000000000E+00  0.00000000000E+00  0.16293810188E+04  0.16293810188E+04  0.25500000920E-02 0. -1.
        2   -1    0    0  501    0  0.00000000000E+00  0.00000000000E+00 -0.20067844039E+04  0.20067844039E+04  0.25500000920E-02 0.  1.
    10030    2    1    2    0    0  0.00000000000E+00  0.00000000000E+00 -0.37740338506E+03  0.36361654227E+04  0.36165267407E+04 0.  0.
        2    1    3    3  502    0  0.79289773215E+00 -0.15127499655E+04 -0.11847392523E+04  0.19214630318E+04  0.25500000920E-02 0.  1.
       -2    1    3    3    0  502 -0.79289773215E+00  0.15127499655E+04  0.80733586724E+03  0.17147023909E+04  0.25500000920E-02 0. -1.
</event>
<event>
 5   0  0.2342606E-07  0.3594286E+04  0.7818609E-02  0.8091802E-01
        2   -1    0    0  501    0  0.00000000000E+00  0.00000000000E+00  0.24269093061E+04  0.24269093061E+04  0.25500000920E-02 0. -1.
       -2   -1    0    0    0  501  0.00000000000E+00  0.00000000000E+00 -0.13307967955E+04  0.13307967955E+04  0.25500000920E-02 0.  1.
    10030    2    1    2    0    0  0.00000000000E+00  0.00000000000E+00  0.10961125105E+04  0.37577061016E+04  0.35942860919E+04 0.  0.
        5    1    3    3  502    0  0.17652834833E+03 -0.39089042298E+03  0.23726107013E+04  0.24110705527E+04  0.46999998093E+01 0. -1.
       -5    1    3    3    0  502 -0.17652834833E+03  0.39089042298E+03 -0.12764981907E+04  0.13466355489E+04  0.46999998093E+01 0.  1.
</event>
<event>
 5   0  0.7347303E-08  0.3788748E+04  0.7818609E-02  0.8048574E-01
       -1   -1    0    0    0  501  0.00000000000E+00  0.00000000000E+00  0.27996822710E+04  0.27996822710E+04  0.50400001928E-02 0. -1.
        1   -1    0    0  501    0  0.00000000000E+00  0.00000000000E+00 -0.12818072707E+04  0.12818072707E+04  0.50400001928E-02 0.  1.
    10030    2    1    2    0    0  0.00000000000E+00  0.00000000000E+00  0.15178750003E+04  0.40814895417E+04  0.37887481260E+04 0.  0.
        2    1    3    3  502    0 -0.12588951391E+03  0.11877546565E+04  0.23429375725E+04  0.26298223823E+04  0.25500000920E-02 0. -1.
       -2    1    3    3    0  502  0.12588951391E+03 -0.11877546565E+04 -0.82506257219E+03  0.14516671594E+04  0.25500000920E-02 0.  1.
</event>
<event>
 5   0  0.2198900E-07  0.3595798E+04  0.7818609E-02  0.8091455E-01
        2   -1    0    0  501    0  0.00000000000E+00  0.00000000000E+00  0.13917507861E+04  0.13917507861E+04  0.25500000920E-02 0.  1.
       -2   -1    0    0    0  501  0.00000000000E+00  0.00000000000E+00 -0.23225713778E+04  0.23225713778E+04  0.25500000920E-02 0. -1.
    10030    2    1    2    0    0  0.00000000000E+00  0.00000000000E+00 -0.93082059167E+03  0.37143221639E+04  0.35957978479E+04 0.  0.
        2    1    3    3  502    0  0.77353225338E+03  0.14476881677E+04  0.29245390665E+03  0.16672379751E+04  0.25500000920E-02 0.  1.
       -2    1    3    3    0  502 -0.77353225338E+03 -0.14476881677E+04 -0.12232744983E+04  0.20470841888E+04  0.25500000920E-02 0. -1.
</event>
<event>
 5   0  0.2238968E-07  0.3607800E+04  0.7818609E-02  0.8088707E-01
        2   -1    0    0  501    0  0.00000000000E+00  0.00000000000E+00  0.17541855881E+04  0.17541855881E+04  0.25500000920E-02 0.  1.
       -2   -1    0    0    0  501  0.00000000000E+00  0.00000000000E+00 -0.18550236952E+04  0.18550236952E+04  0.25500000920E-02 0. -1.
    10030    2    1    2    0    0  0.00000000000E+00  0.00000000000E+00 -0.10083810706E+03  0.36092092833E+04  0.36078003446E+04 0.  0.
        3    1    3    3  502    0 -0.17448900796E+04 -0.22663470441E+03  0.34729266692E+03  0.17934929288E+04  0.10100000352E+00 0.  1.
       -3    1    3    3    0  502  0.17448900796E+04  0.22663470441E+03 -0.44813077397E+03  0.18157163544E+04  0.10100000352E+00 0. -1.
</event>
<event>
 5   0  0.7236375E-08  0.3603543E+04  0.7818609E-02  0.8089681E-01
        3   -1    0    0  501    0  0.00000000000E+00  0.00000000000E+00  0.99120364617E+03  0.99120365132E+03  0.10100000352E+00 0.  1.
       -3   -1    0    0    0  501  0.00000000000E+00  0.00000000000E+00 -0.32751907557E+04  0.32751907573E+04  0.10100000352E+00 0. -1.
    10030    2    1    2    0    0  0.00000000000E+00  0.00000000000E+00 -0.22839871096E+04  0.42663944086E+04  0.36035432748E+04 0.  0.
        1    1    3    3  502    0  0.99454380154E+03 -0.85145645839E+03 -0.26075451551E+04  0.29177709317E+04  0.50400001928E-02 0. -1.
       -1    1    3    3    0  502 -0.99454380154E+03  0.85145645839E+03  0.32355804554E+03  0.13486234769E+04  0.50400001928E-02 0.  1.
</event>
<event>
 5   0  0.7236375E-08  0.3602652E+04  0.7818609E-02  0.8089885E-01
        1   -1    0    0  501    0  0.00000000000E+00  0.00000000000E+00  0.20584279923E+04  0.20584279923E+04  0.50400001928E-02 0.  1.
       -1   -1    0    0    0  501  0.00000000000E+00  0.00000000000E+00 -0.15763361877E+04  0.15763361877E+04  0.50400001928E-02 0. -1.
    10030    2    1    2    0    0  0.00000000000E+00  0.00000000000E+00  0.48209180466E+03  0.36347641800E+04  0.36026515424E+04 0.  0.
        5    1    3    3  502    0 -0.12353336975E+04  0.47876757780E+03  0.14723689415E+04  0.19806968793E+04  0.46999998093E+01 0.  1.
       -5    1    3    3    0  502  0.12353336975E+04 -0.47876757780E+03 -0.99027713683E+03  0.16540673007E+04  0.46999998093E+01 0. -1.
</event>
<event>
 5   0  0.2199902E-07  0.3580255E+04  0.7818609E-02  0.8095030E-01
       -2   -1    0    0    0  501  0.00000000000E+00  0.00000000000E+00  0.16456424379E+04  0.16456424379E+04  0.25500000920E-02 0. -1.
        2   -1    0    0  501    0  0.00000000000E+00  0.00000000000E+00 -0.19472982129E+04  0.19472982129E+04  0.25500000920E-02 0.  1.
    10030    2    1    2    0    0  0.00000000000E+00  0.00000000000E+00 -0.30165577502E+03  0.35929406508E+04  0.35802550626E+04 0.  0.
        1    1    3    3  502    0 -0.40950826822E+03  0.14738967690E+04  0.78224490958E+03  0.17181314868E+04  0.50400001928E-02 0. -1.
       -1    1    3    3    0  502  0.40950826822E+03 -0.14738967690E+04 -0.10839006846E+04  0.18748091640E+04  0.50400001928E-02 0.  1.
</event>
<event>
 5   0  0.7514289E-08  0.3606678E+04  0.7818609E-02  0.8088964E-01
        1   -1    0    0  501    0  0.00000000000E+00  0.00000000000E+00  0.20217293887E+04  0.20217293888E+04  0.50400001928E-02 0.  1.
       -1   -1    0    0    0  501  0.00000000000E+00  0.00000000000E+00 -0.16085392835E+04  0.16085392835E+04  0.50400001928E-02 0. -1.
    10030    2    1    2    0    0  0.00000000000E+00  0.00000000000E+00  0.41319010527E+03  0.36302686722E+04  0.36066777746E+04 0.  0.
        4    1    3    3  502    0  0.61909008627E+03  0.98251949890E+03 -0.11820711786E+04  0.16570790520E+04  0.12699999809E+01 0. -1.
       -4    1    3    3    0  502 -0.61909008627E+03 -0.98251949890E+03  0.15952612838E+04  0.19731896202E+04  0.12699999809E+01 0.  1.
</event>
<event>
 5   0  0.7347303E-08  0.3599201E+04  0.7818609E-02  0.8090675E-01
        1   -1    0    0  501    0  0.00000000000E+00  0.00000000000E+00  0.13171258746E+04  0.13171258746E+04  0.50400001928E-02 0.  1.
       -1   -1    0    0    0  501  0.00000000000E+00  0.00000000000E+00 -0.24588098120E+04  0.24588098120E+04  0.50400001928E-02 0. -1.
    10030    2    1    2    0    0  0.00000000000E+00  0.00000000000E+00 -0.11416839373E+04  0.37759356866E+04  0.35992010358E+04 0.  0.
        2    1    3    3  502    0 -0.95684854473E+03  0.93099631435E+03  0.69516549522E+03  0.15051805010E+04  0.25500000920E-02 0.  1.
       -2    1    3    3    0  502  0.95684854473E+03 -0.93099631435E+03 -0.18368494326E+04  0.22707551856E+04  0.25500000920E-02 0. -1.
</event>
<event>
 5   0  0.2309391E-07  0.3599677E+04  0.7818609E-02  0.8090566E-01
        2   -1    0    0  501    0  0.00000000000E+00  0.00000000000E+00  0.20782182963E+04  0.20782182963E+04  0.25500000920E-02 0.  1.
       -2   -1    0    0    0  501  0.00000000000E+00  0.00000000000E+00 -0.15587477383E+04  0.15587477383E+04  0.25500000920E-02 0. -1.
    10030    2    1    2    0    0  0.00000000000E+00  0.00000000000E+00  0.51947055798E+03  0.36369660346E+04  0.35996766905E+04 0.  0.
        4    1    3    3  502    0 -0.15204236675E+04 -0.74923189729E+03  0.87129878868E+03  0.19058330873E+04  0.12699999809E+01 0.  1.
       -4    1    3    3    0  502  0.15204236675E+04  0.74923189729E+03 -0.35182823069E+03  0.17311329473E+04  0.12699999809E+01 0. -1.
</event>
<event>
 5   0  0.2198900E-07  0.3600287E+04  0.7818609E-02  0.8090426E-01
       -2   -1    0    0    0  501  0.00000000000E+00  0.00000000000E+00  0.15657970923E+04  0.15657970923E+04  0.25500000920E-02 0. -1.
        2   -1    0    0  501    0  0.00000000000E+00  0.00000000000E+00 -0.20695638289E+04  0.20695638289E+04  0.25500000920E-02 0.  1.
    10030    2    1    2    0    0  0.00000000000E+00  0.00000000000E+00 -0.50376673667E+03  0.36353609212E+04  0.36002872250E+04 0.  0.
        2    1    3    3  502    0 -0.13422789924E+04 -0.64924896038E+03 -0.12703120481E+04  0.19588082616E+04  0.25500000920E-02 0.  1.
       -2    1    3    3    0  502  0.13422789924E+04  0.64924896038E+03  0.76654531142E+03  0.16765526596E+04  0.25500000920E-02 0. -1.
</event>
<event>
 5   0  0.2238968E-07  0.3599576E+04  0.7818609E-02  0.8090589E-01
        2   -1    0    0  501    0  0.00000000000E+00  0.00000000000E+00  0.26650800495E+04  0.26650800495E+04  0.25500000920E-02 0.  1.
       -2   -1    0    0    0  501  0.00000000000E+00  0.00000000000E+00 -0.12154368281E+04  0.12154368281E+04  0.25500000920E-02 0. -1.
    10030    2    1    2    0    0  0.00000000000E+00  0.00000000000E+00  0.14496432215E+04  0.38805168776E+04  0.35995757761E+04 0.  0.
        3    1    3    3  502    0  0.14995452122E+04  0.78239794299E+01  0.17977583779E+04  0.23410750209E+04  0.10100000352E+00 0.  1.
       -3    1    3    3    0  502 -0.14995452122E+04 -0.78239794299E+01 -0.34811515639E+03  0.15394418568E+04  0.10100000352E+00 0. -1.
</event>
<event>
 5   0  0.7347303E-08  0.3601846E+04  0.7818609E-02  0.8090069E-01
       -1   -1    0    0    0  501  0.00000000000E+00  0.00000000000E+00  0.25253178956E+04  0.25253178956E+04  0.50400001928E-02 0. -1.
        1   -1    0    0  501    0  0.00000000000E+00  0.00000000000E+00 -0.12843230508E+04  0.12843230508E+04  0.50400001928E-02 0.  1.
    10030    2    1    2    0    0  0.00000000000E+00  0.00000000000E+00  0.12409948448E+04  0.38096409464E+04  0.36018461843E+04 0.  0.
        2    1    3    3  502    0 -0.49603081948E+03  0.26951220062E+02  0.24514189172E+04  0.25012452198E+04  0.25500000920E-02 0. -1.
       -2    1    3    3    0  502  0.49603081948E+03 -0.26951220062E+02 -0.12104240724E+04  0.13083957265E+04  0.25500000920E-02 0.  1.
</event>
<event>
 5   0  0.2309391E-07  0.3595246E+04  0.7818609E-02  0.8091582E-01
       -2   -1    0    0    0  501  0.00000000000E+00  0.00000000000E+00  0.16192762288E+04  0.16192762288E+04  0.25500000920E-02 0.  1.
        2   -1    0    0  501    0  0.00000000000E+00  0.00000000000E+00 -0.19956124361E+04  0.19956124361E+04  0.25500000920E-02 0. -1.
    10030    2    1    2    0    0  0.00000000000E+00  0.00000000000E+00 -0.37633620727E+03  0.36148886649E+04  0.35952456271E+04 0.  0.
        4    1    3    3  502    0 -0.17089973534E+04 -0.38052981512E+03 -0.59778967703E+03  0.18500889181E+04  0.12699999809E+01 0. -1.
       -4    1    3    3    0  502  0.17089973534E+04  0.38052981512E+03  0.22145346976E+03  0.17647997468E+04  0.12699999809E+01 0.  1.
</event>
<event>
 5   0  0.2238968E-07  0.3592238E+04  0.7818609E-02  0.8092272E-01
        2   -1    0    0  501    0  0.00000000000E+00  0.00000000000E+00  0.17873708251E+04  0.17873708251E+04  0.25500000920E-02 0. -1.
       -2   -1    0    0    0  501  0.00000000000E+00  0.00000000000E+00 -0.18049097214E+04  0.18049097214E+04  0.25500000920E-02 0.  1.
    10030    2    1    2    0    0  0.00000000000E+00  0.00000000000E+00 -0.17538896284E+02  0.35922805465E+04  0.35922377304E+04 0.  0.
        3    1    3    3  502    0  0.14361773672E+04 -0.10645827458E+04 -0.18226824533E+03  0.17969873611E+04  0.10100000352E+00 0.  1.
       -3    1    3    3    0  502 -0.14361773672E+04  0.10645827458E+04  0.16472934904E+03  0.17952931853E+04  0.10100000352E+00 0. -1.
</event>
<event>
 5   0  0.7261233E-08  0.3592108E+04  0.7818609E-02  0.8092302E-01
       -1   -1    0    0    0  501  0.00000000000E+00  0.00000000000E+00  0.22082032971E+04  0.22082032971E+04  0.50400001928E-02 0. -1.
        1   -1    0    0  501    0  0.00000000000E+00  0.00000000000E+00 -0.14608304457E+04  0.14608304458E+04  0.50400001928E-02 0.  1.
    10030    2    1    2    0    0  0.00000000000E+00  0.00000000000E+00  0.74737285138E+03  0.36690337429E+04  0.35921083541E+04 0.  0.
        3    1    3    3  502    0 -0.87980185549E+03 -0.14683568717E+04  0.92910279931E+03  0.19476537756E+04  0.10100000352E+00 0.  1.
       -3    1    3    3    0  502  0.87980185549E+03  0.14683568717E+04 -0.18172994793E+03  0.17213799673E+04  0.10100000352E+00 0. -1.
</event>
<event>
 5   0  0.2199902E-07  0.3592319E+04  0.7818609E-02  0.8092253E-01
        2   -1    0    0  501    0  0.00000000000E+00  0.00000000000E+00  0.13274444077E+04  0.13274444077E+04  0.25500000920E-02 0.  1.
       -2   -1    0    0    0  501  0.00000000000E+00  0.00000000000E+00 -0.24303755573E+04  0.24303755573E+04  0.25500000920E-02 0. -1.
    10030    2    1    2    0    0  0.00000000000E+00  0.00000000000E+00 -0.11029311497E+04  0.37578199650E+04  0.35923187175E+04 0.  0.
        1    1    3    3  502    0 -0.66626986467E+03 -0.85800445952E+03  0.94485507487E+03  0.14397354957E+04  0.50400001928E-02 0.  1.
       -1    1    3    3    0  502  0.66626986467E+03  0.85800445952E+03 -0.20477862245E+04  0.23180844693E+04  0.50400001928E-02 0. -1.
</event>
<event>
 5   0  0.7347303E-08  0.3591346E+04  0.7818609E-02  0.8092477E-01
       -1   -1    0    0    0  501  0.00000000000E+00  0.00000000000E+00  0.13887835894E+04  0.13887835894E+04  0.50400001928E-02 0.  1.
        1   -1    0    0  501    0  0.00000000000E+00  0.00000000000E+00 -0.23217743728E+04  0.23217743728E+04  0.50400001928E-02 0. -1.
    10030    2    1    2    0    0  0.00000000000E+00  0.00000000000E+00 -0.93299078333E+03  0.37105579622E+04  0.35913463477E+04 0.  0.
        2    1    3    3  502    0 -0.44927437561E+03  0.15015847475E+04  0.43885503435E+03  0.16276356962E+04  0.25500000920E-02 0.  1.
       -2    1    3    3    0  502  0.44927437561E+03 -0.15015847475E+04 -0.13718458177E+04  0.20829222659E+04  0.25500000920E-02 0. -1.
</event>
<event>
 5   0  0.7236375E-08  0.3598240E+04  0.7818609E-02  0.8090895E-01
       -1   -1    0    0    0  501  0.00000000000E+00  0.00000000000E+00  0.14446034426E+04  0.14446034426E+04  0.50400001928E-02 0.  1.
        1   -1    0    0  501    0  0.00000000000E+00  0.00000000000E+00 -0.22406374582E+04  0.22406374582E+04  0.50400001928E-02 0. -1.
    10030    2    1    2    0    0  0.00000000000E+00  0.00000000000E+00 -0.79603401566E+03  0.36852409008E+04  0.35982398951E+04 0.  0.
        1    1    3    3  502    0  0.98960478146E+03 -0.86904410143E+03  0.85729251182E+03  0.15714661067E+04  0.50400001928E-02 0.  1.
       -1    1    3    3    0  502 -0.98960478146E+03  0.86904410143E+03 -0.16533265275E+04  0.21137747941E+04  0.50400001928E-02 0. -1.
</event>
<event>
 5   0  0.2309391E-07  0.3491139E+04  0.7818609E-02  0.8115893E-01
       -2   -1    0    0    0  501  0.00000000000E+00  0.00000000000E+00  0.16113705485E+04  0.16113705485E+04  0.25500000920E-02 0.  1.
        2   -1    0    0  501    0  0.00000000000E+00  0.00000000000E+00 -0.18909447548E+04  0.18909447548E+04  0.25500000920E-02 0. -1.
    10030    2    1    2    0    0  0.00000000000E+00  0.00000000000E+00 -0.27957420625E+03  0.35023153033E+04  0.34911388897E+04 0.  0.
        4    1    3    3  502    0 -0.82753133083E+03  0.41687499626E+03 -0.16238533052E+04  0.18696240359E+04  0.12699999809E+01 0. -1.
       -4    1    3    3    0  502  0.82753133083E+03 -0.41687499626E+03  0.13442790989E+04  0.16326912674E+04  0.12699999809E+01 0.  1.
</event>
<event>
 5   0  0.2309391E-07  0.3596537E+04  0.7818609E-02  0.8091285E-01
        2   -1    0    0  501    0  0.00000000000E+00  0.00000000000E+00  0.17673333987E+04  0.17673333987E+04  0.25500000920E-02 0.  1.
       -2   -1    0    0    0  501  0.00000000000E+00  0.00000000000E+00 -0.18297447028E+04  0.18297447028E+04  0.25500000920E-02 0. -1.
    10030    2    1    2    0    0  0.00000000000E+00  0.00000000000E+00 -0.62411304100E+02  0.35970781015E+04  0.35965366254E+04 0.  0.
        4    1    3    3  502    0 -0.16988452234E+03  0.10435908369E+03 -0.18186556693E+04  0.18295523019E+04  0.12699999809E+01 0. -1.
       -4    1    3    3    0  502  0.16988452234E+03 -0.10435908369E+03  0.17562443652E+04  0.17675257996E+04  0.12699999809E+01 0.  1.
</event>
<event>
 5   0  0.2309391E-07  0.3702761E+04  0.7818609E-02  0.8067350E-01
       -2   -1    0    0    0  501  0.00000000000E+00  0.00000000000E+00  0.30481005378E+04  0.30481005378E+04  0.25500000920E-02 0. -1.
        2   -1    0    0  501    0  0.00000000000E+00  0.00000000000E+00 -0.11245067127E+04  0.11245067127E+04  0.25500000920E-02 0.  1.
    10030    2    1    2    0    0  0.00000000000E+00  0.00000000000E+00  0.19235938251E+04  0.41726072505E+04  0.37027608704E+04 0.  0.
        4    1    3    3  502    0  0.16724731476E+04  0.36395524865E+03  0.16657755545E+03  0.17197033312E+04  0.12699999809E+01 0.  1.
       -4    1    3    3    0  502 -0.16724731476E+04 -0.36395524865E+03  0.17570162697E+04  0.24529039193E+04  0.12699999809E+01 0. -1.
</event>
<event>
 5   0  0.7236375E-08  0.3594738E+04  0.7818609E-02  0.8091698E-01
        1   -1    0    0  501    0  0.00000000000E+00  0.00000000000E+00  0.17388782864E+04  0.17388782865E+04  0.50400001928E-02 0. -1.
       -1   -1    0    0    0  501  0.00000000000E+00  0.00000000000E+00 -0.18578276131E+04  0.18578276131E+04  0.50400001928E-02 0.  1.
    10030    2    1    2    0    0  0.00000000000E+00  0.00000000000E+00 -0.11894932666E+03  0.35967058996E+04  0.35947384308E+04 0.  0.
        1    1    3    3  502    0 -0.46992403824E+03 -0.11638452372E+04 -0.13467135954E+04  0.18409241826E+04  0.50400001928E-02 0.  1.
       -1    1    3    3    0  502  0.46992403824E+03  0.11638452372E+04  0.12277642688E+04  0.17557817170E+04  0.50400001928E-02 0. -1.
</event>
<event>
 5   0  0.2238968E-07  0.3612680E+04  0.7818609E-02  0.8087593E-01
       -2   -1    0    0    0  501  0.00000000000E+00  0.00000000000E+00  0.20938989866E+04  0.20938989866E+04  0.25500000920E-02 0.  1.
        2   -1    0    0  501    0  0.00000000000E+00  0.00000000000E+00 -0.15582720031E+04  0.15582720031E+04  0.25500000920E-02 0. -1.
    10030    2    1    2    0    0  0.00000000000E+00  0.00000000000E+00  0.53562698346E+03  0.36521709897E+04  0.36126799848E+04 0.  0.
        3    1    3    3  502    0  0.92472686484E+03 -0.12687213716E+04  0.11709380883E+04  0.19585376458E+04  0.10100000352E+00 0.  1.
       -3    1    3    3    0  502 -0.92472686484E+03  0.12687213716E+04 -0.63531110481E+03  0.16936333439E+04  0.10100000352E+00 0. -1.
</event>
<event>
 5   0  0.2199902E-07  0.3606121E+04  0.7818609E-02  0.8089091E-01
        2   -1    0    0  501    0  0.00000000000E+00  0.00000000000E+00  0.19257180360E+04  0.19257180360E+04  0.25500000920E-02 0. -1.
       -2   -1    0    0    0  501  0.00000000000E+00  0.00000000000E+00 -0.16882155999E+04  0.16882155999E+04  0.25500000920E-02 0.  1.
    10030    2    1    2    0    0  0.00000000000E+00  0.00000000000E+00  0.23750243612E+03  0.36139336359E+04  0.36061210348E+04 0.  0.
        1    1    3    3  502    0 -0.13544200482E+04 -0.98251752470E+02  0.13074576147E+04  0.18850868648E+04  0.50400001928E-02 0. -1.
       -1    1    3    3    0  502  0.13544200482E+04  0.98251752470E+02 -0.10699551786E+04  0.17288467711E+04  0.50400001928E-02 0.  1.
</event>
<event>
 5   0  0.7347303E-08  0.3566652E+04  0.7818609E-02  0.8098173E-01
       -1   -1    0    0    0  501  0.00000000000E+00  0.00000000000E+00  0.13614567053E+04  0.13614567053E+04  0.50400001928E-02 0. -1.
        1   -1    0    0  501    0  0.00000000000E+00  0.00000000000E+00 -0.23359183428E+04  0.23359183429E+04  0.50400001928E-02 0.  1.
    10030    2    1    2    0    0  0.00000000000E+00  0.00000000000E+00 -0.97446163758E+03  0.36973750481E+04  0.35666520385E+04 0.  0.
        2    1    3    3  502    0 -0.41728205072E+03  0.26037545471E+03 -0.22642135076E+04  0.23170201758E+04  0.25500000920E-02 0.  1.
       -2    1    3    3    0  502  0.41728205072E+03 -0.26037545471E+03  0.12897518700E+04  0.13803548723E+04  0.25500000920E-02 0. -1.
</event>
<event>
 5   0  0.7236375E-08  0.3610216E+04  0.7818609E-02  0.8088155E-01
        1   -1    0    0  501    0  0.00000000000E+00  0.00000000000E+00  0.20884840733E+04  0.20884840733E+04  0.50400001928E-02 0.  1.
       -1   -1    0    0    0  501  0.00000000000E+00  0.00000000000E+00 -0.15601822084E+04  0.15601822085E+04  0.50400001928E-02 0. -1.
    10030    2    1    2    0    0  0.00000000000E+00  0.00000000000E+00  0.52830186487E+03  0.36486662818E+04  0.36102164444E+04 0.  0.
        1    1    3    3  502    0  0.10626596605E+04  0.56499738864E+03  0.16238223339E+04  0.20212042388E+04  0.50400001928E-02 0.  1.
       -1    1    3    3    0  502 -0.10626596605E+04 -0.56499738864E+03 -0.10955204690E+04  0.16274620429E+04  0.50400001928E-02 0. -1.
</event>
<event>
 5   0  0.7347303E-08  0.3596327E+04  0.7818609E-02  0.8091333E-01
       -1   -1    0    0    0  501  0.00000000000E+00  0.00000000000E+00  0.33612170982E+04  0.33612170982E+04  0.50400001928E-02 0. -1.
        1   -1    0    0  501    0  0.00000000000E+00  0.00000000000E+00 -0.96197080907E+03  0.96197080909E+03  0.50400001928E-02 0.  1.
    10030    2    1    2    0    0  0.00000000000E+00  0.00000000000E+00  0.23992462891E+04  0.43231879073E+04  0.35963274219E+04 0.  0.
        2    1    3    3  502    0 -0.10611987427E+04 -0.62778007624E+03  0.27730319868E+04  0.30347910959E+04  0.25500000920E-02 0. -1.
       -2    1    3    3    0  502  0.10611987427E+04  0.62778007624E+03 -0.37378569776E+03  0.12883968114E+04  0.25500000920E-02 0.  1.
</event>
<event>
 5   0  0.2238968E-07  0.3598193E+04  0.7818609E-02  0.8090906E-01
        2   -1    0    0  501    0  0.00000000000E+00  0.00000000000E+00  0.18445331412E+04  0.18445331412E+04  0.25500000920E-02 0.  1.
       -2   -1    0    0    0  501  0.00000000000E+00  0.00000000000E+00 -0.17547793689E+04  0.17547793689E+04  0.25500000920E-02 0. -1.
    10030    2    1    2    0    0  0.00000000000E+00  0.00000000000E+00  0.89753772290E+02  0.35993125102E+04  0.35981932697E+04 0.  0.
        3    1    3    3  502    0  0.11614769234E+04  0.28855536002E+03  0.13885950862E+04  0.18331637032E+04  0.10100000352E+00 0.  1.
       -3    1    3    3    0  502 -0.11614769234E+04 -0.28855536002E+03 -0.12988413139E+04  0.17661488069E+04  0.10100000352E+00 0. -1.
</event>
<event>
 5   0  0.7347303E-08  0.3377458E+04  0.7818609E-02  0.8143461E-01
        1   -1    0    0  501    0  0.00000000000E+00  0.00000000000E+00  0.19095847408E+04  0.19095847408E+04  0.50400001928E-02 0.  1.
       -1   -1    0    0    0  501  0.00000000000E+00  0.00000000000E+00 -0.14934162505E+04  0.14934162505E+04  0.50400001928E-02 0. -1.
    10030    2    1    2    0    0  0.00000000000E+00  0.00000000000E+00  0.41616849031E+03  0.34030009913E+04  0.33774575548E+04 0.  0.
        2    1    3    3  502    0  0.14345614710E+04  0.83956514645E+03 -0.92447696749E+02  0.16647470757E+04  0.25500000920E-02 0. -1.
       -2    1    3    3    0  502 -0.14345614710E+04 -0.83956514645E+03  0.50861618706E+03  0.17382539156E+04  0.25500000920E-02 0.  1.
</event>
<event>
 5   0  0.2198900E-07  0.3629487E+04  0.7818609E-02  0.8083771E-01
        2   -1    0    0  501    0  0.00000000000E+00  0.00000000000E+00  0.12467193230E+04  0.12467193230E+04  0.25500000920E-02 0.  1.
       -2   -1    0    0    0  501  0.00000000000E+00  0.00000000000E+00 -0.26415678993E+04  0.26415678993E+04  0.25500000920E-02 0. -1.
    10030    2    1    2    0    0  0.00000000000E+00  0.00000000000E+00 -0.13948485763E+04  0.38882872223E+04  0.36294868745E+04 0.  0.
        2    1    3    3  502    0  0.32004739802E+03  0.98726996345E+03  0.89740353464E+03  0.13720296723E+04  0.25500000920E-02 0.  1.
       -2    1    3    3    0  502 -0.32004739802E+03 -0.98726996345E+03 -0.22922521109E+04  0.25162575500E+04  0.25500000920E-02 0. -1.
</event>
<event>
 5   0  0.7261233E-08  0.3616839E+04  0.7818609E-02  0.8086645E-01
       -1   -1    0    0    0  501  0.00000000000E+00  0.00000000000E+00  0.19258842208E+04  0.19258842208E+04  0.50400001928E-02 0.  1.
        1   -1    0    0  501    0  0.00000000000E+00  0.00000000000E+00 -0.16981194742E+04  0.16981194742E+04  0.50400001928E-02 0. -1.
    10030    2    1    2    0    0  0.00000000000E+00  0.00000000000E+00  0.22776474654E+03  0.36240036950E+04  0.36168392281E+04 0.  0.
        3    1    3    3  502    0  0.15468976300E+03  0.14578338711E+04 -0.94706963021E+03  0.17453221517E+04  0.10100000352E+00 0. -1.
       -3    1    3    3    0  502 -0.15468976300E+03 -0.14578338711E+04  0.11748343767E+04  0.18786815434E+04  0.10100000352E+00 0.  1.
</event>
<event>
 5   0  0.7236375E-08  0.3593622E+04  0.7818609E-02  0.8091954E-01
       -1   -1    0    0    0  501  0.00000000000E+00  0.00000000000E+00  0.18005488911E+04  0.18005488911E+04  0.50400001928E-02 0. -1.
        1   -1    0    0  501    0  0.00000000000E+00  0.00000000000E+00 -0.17930808316E+04  0.17930808316E+04  0.50400001928E-02 0.  1.
    10030    2    1    2    0    0  0.00000000000E+00  0.00000000000E+00  0.74680595454E+01  0.35936297227E+04  0.35936219628E+04 0.  0.
        1    1    3    3  502    0  0.13801422457E+04  0.56814947983E+03  0.10042077055E+04  0.17988939840E+04  0.50400001928E-02 0. -1.
       -1    1    3    3    0  502 -0.13801422457E+04 -0.56814947983E+03 -0.99673964591E+03  0.17947357387E+04  0.50400001928E-02 0.  1.
</event>
<event>
 5   0  0.2309391E-07  0.3597345E+04  0.7818609E-02  0.8091100E-01
        2   -1    0    0  501    0  0.00000000000E+00  0.00000000000E+00  0.19136778893E+04  0.19136778893E+04  0.25500000920E-02 0.  1.
       -2   -1    0    0    0  501  0.00000000000E+00  0.00000000000E+00 -0.16905788772E+04  0.16905788772E+04  0.25500000920E-02 0. -1.
    10030    2    1    2    0    0  0.00000000000E+00  0.00000000000E+00  0.22309901210E+03  0.36042567665E+04  0.35973453643E+04 0.  0.
        4    1    3    3  502    0 -0.92434082672E+02 -0.17897743890E+04  0.26476610417E+03  0.18116123002E+04  0.12699999809E+01 0.  1.
       -4    1    3    3    0  502  0.92434082672E+02  0.17897743890E+04 -0.41667092071E+02  0.17926444664E+04  0.12699999809E+01 0. -1.
</event>
<event>
 5   0  0.2342606E-07  0.3590939E+04  0.7818609E-02  0.8092570E-01
       -2   -1    0    0    0  501  0.00000000000E+00  0.00000000000E+00  0.22222306507E+04  0.22222306507E+04  0.25500000920E-02 0.  1.
        2   -1    0    0  501    0  0.00000000000E+00  0.00000000000E+00 -0.14506642272E+04  0.14506642272E+04  0.25500000920E-02 0. -1.
    10030    2    1    2    0    0  0.00000000000E+00  0.00000000000E+00  0.77156642341E+03  0.36728948779E+04  0.35909388798E+04 0.  0.
        5    1    3    3  502    0 -0.91000164330E+03 -0.83021421008E+03  0.17218617023E+04  0.21171179554E+04  0.46999998093E+01 0.  1.
       -5    1    3    3    0  502  0.91000164330E+03  0.83021421008E+03 -0.95029527887E+03  0.15557769225E+04  0.46999998093E+01 0. -1.
</event>
<event>
 5   0  0.7347303E-08  0.3596997E+04  0.7818609E-02  0.8091180E-01
       -1   -1    0    0    0  501  0.00000000000E+00  0.00000000000E+00  0.13533346452E+04  0.13533346452E+04  0.50400001928E-02 0.  1.
        1   -1    0    0  501    0  0.00000000000E+00  0.00000000000E+00 -0.23900933714E+04  0.23900933714E+04  0.50400001928E-02 0. -1.
    10030    2    1    2    0    0  0.00000000000E+00  0.00000000000E+00 -0.10367587261E+04  0.37434280166E+04  0.35969966165E+04 0.  0.
        2    1    3    3  502    0  0.91424306929E+03  0.15445786095E+04 -0.39957112405E+03  0.18388095480E+04  0.25500000920E-02 0.  1.
       -2    1    3    3    0  502 -0.91424306929E+03 -0.15445786095E+04 -0.63718760209E+03  0.19046184686E+04  0.25500000920E-02 0. -1.
</event>
<event>
 5   0  0.7347303E-08  0.3601397E+04  0.7818609E-02  0.8090172E-01
        1   -1    0    0  501    0  0.00000000000E+00  0.00000000000E+00  0.17347341794E+04  0.17347341794E+04  0.50400001928E-02 0. -1.
       -1   -1    0    0    0  501  0.00000000000E+00  0.00000000000E+00 -0.18691711108E+04  0.18691711108E+04  0.50400001928E-02 0.  1.
    10030    2    1    2    0    0  0.00000000000E+00  0.00000000000E+00 -0.13443693142E+03  0.36039052902E+04  0.36013969584E+04 0.  0.
        2    1    3    3  502    0  0.13413663621E+04 -0.11754545246E+04 -0.31550002946E+03  0.18112143234E+04  0.25500000920E-02 0.  1.
       -2    1    3    3    0  502 -0.13413663621E+04  0.11754545246E+04  0.18106309804E+03  0.17926909667E+04  0.25500000920E-02 0. -1.
</event>
<event>
 5   0  0.7236375E-08  0.3561027E+04  0.7818609E-02  0.8099478E-01
       -1   -1    0    0    0  501  0.00000000000E+00  0.00000000000E+00  0.11212566457E+04  0.11212566457E+04  0.50400001928E-02 0.  1.
        1   -1    0    0  501    0  0.00000000000E+00  0.00000000000E+00 -0.28273888947E+04  0.28273888947E+04  0.50400001928E-02 0. -1.
    10030    2    1    2    0    0  0.00000000000E+00  0.00000000000E+00 -0.17061322490E+04  0.39486455404E+04  0.35610271485E+04 0.  0.
        1    1    3    3  502    0  0.63608716733E+03  0.10959671656E+03  0.98696047487E+03  0.11792833857E+04  0.50400001928E-02 0.  1.
       -1    1    3    3    0  502 -0.63608716733E+03 -0.10959671656E+03 -0.26930927238E+04  0.27693621547E+04  0.50400001928E-02 0. -1.
</event>
<event>
 5   0  0.7236375E-08  0.3581431E+04  0.7818609E-02  0.8094758E-01
       -1   -1    0    0    0  501  0.00000000000E+00  0.00000000000E+00  0.13241306409E+04  0.13241306409E+04  0.50400001928E-02 0. -1.
        1   -1    0    0  501    0  0.00000000000E+00  0.00000000000E+00 -0.24217115894E+04  0.24217115894E+04  0.50400001928E-02 0.  1.
    10030    2    1    2    0    0  0.00000000000E+00  0.00000000000E+00 -0.10975809486E+04  0.37458422303E+04  0.35814312887E+04 0.  0.
        5    1    3    3  502    0  0.89181950984E+03  0.14886418750E+04 -0.10109388574E+04  0.20083366584E+04  0.46999998093E+01 0.  1.
       -5    1    3    3    0  502 -0.89181950984E+03 -0.14886418750E+04 -0.86642091156E+02  0.17375055718E+04  0.46999998093E+01 0. -1.
</event>
<event>
 5   0  0.7261233E-08  0.3592054E+04  0.7818609E-02  0.8092314E-01
        1   -1    0    0  501    0  0.00000000000E+00  0.00000000000E+00  0.31126952573E+04  0.31126952573E+04  0.50400001928E-02 0.  1.
       -1   -1    0    0    0  501  0.00000000000E+00  0.00000000000E+00 -0.10363086618E+04  0.10363086619E+04  0.50400001928E-02 0. -1.
    10030    2    1    2    0    0  0.00000000000E+00  0.00000000000E+00  0.20763865955E+04  0.41490039192E+04  0.35920540402E+04 0.  0.
        3    1    3    3  502    0  0.20504683211E+03  0.92685026152E+03 -0.72287714799E+03  0.11931667913E+04  0.10100000352E+00 0. -1.
       -3    1    3    3    0  502 -0.20504683211E+03 -0.92685026152E+03  0.27992637435E+04  0.29558371278E+04  0.10100000352E+00 0.  1.
</event>
<event>
 5   0  0.2199902E-07  0.3601461E+04  0.7818609E-02  0.8090157E-01
        2   -1    0    0  501    0  0.00000000000E+00  0.00000000000E+00  0.25343146894E+04  0.25343146894E+04  0.25500000920E-02 0. -1.
       -2   -1    0    0    0  501  0.00000000000E+00  0.00000000000E+00 -0.12794902004E+04  0.12794902004E+04  0.25500000920E-02 0.  1.
    10030    2    1    2    0    0  0.00000000000E+00  0.00000000000E+00  0.12548244890E+04  0.38138048898E+04  0.36014612645E+04 0.  0.
        1    1    3    3  502    0  0.10410053313E+04  0.12584916945E+04 -0.17568015322E+03  0.16426676357E+04  0.50400001928E-02 0.  1.
       -1    1    3    3    0  502 -0.10410053313E+04 -0.12584916945E+04  0.14305046422E+04  0.21711372541E+04  0.50400001928E-02 0. -1.
</event>
<event>
 5   0  0.7236375E-08  0.3635842E+04  0.7818609E-02  0.8082331E-01
        1   -1    0    0  501    0  0.00000000000E+00  0.00000000000E+00  0.15716955493E+04  0.15716955493E+04  0.50400001928E-02 0. -1.
       -1   -1    0    0    0  501  0.00000000000E+00  0.00000000000E+00 -0.21027205921E+04  0.21027205921E+04  0.50400001928E-02 0.  1.
    10030    2    1    2    0    0  0.00000000000E+00  0.00000000000E+00 -0.53102504277E+03  0.36744161415E+04  0.36358419086E+04 0.  0.
        5    1    3    3  502    0  0.87268544341E+03  0.10648139505E+04 -0.14652918845E+04  0.20105996690E+04  0.46999998093E+01 0.  1.
       -5    1    3    3    0  502 -0.87268544341E+03 -0.10648139505E+04  0.93426684172E+03  0.16638164724E+04  0.46999998093E+01 0. -1.
</event>
<event>
 5   0  0.7236375E-08  0.3609046E+04  0.7818609E-02  0.8088423E-01
       -1   -1    0    0    0  501  0.00000000000E+00  0.00000000000E+00  0.13132799737E+04  0.13132799737E+04  0.50400001928E-02 0.  1.
        1   -1    0    0  501    0  0.00000000000E+00  0.00000000000E+00 -0.24795190227E+04  0.24795190227E+04  0.50400001928E-02 0. -1.
    10030    2    1    2    0    0  0.00000000000E+00  0.00000000000E+00 -0.11662390490E+04  0.37927989963E+04  0.36090456782E+04 0.  0.
        1    1    3    3  502    0  0.62825562113E+03  0.15029012926E+04  0.23287036958E+03  0.16454926405E+04  0.50400001928E-02 0.  1.
       -1    1    3    3    0  502 -0.62825562113E+03 -0.15029012926E+04 -0.13991094186E+04  0.21473063559E+04  0.50400001928E-02 0. -1.
</event>
<event>
 5   0  0.7261233E-08  0.3481814E+04  0.7818609E-02  0.8118113E-01
       -1   -1    0    0    0  501  0.00000000000E+00  0.00000000000E+00  0.11786610329E+04  0.11786610329E+04  0.50400001928E-02 0.  1.
        1   -1    0    0  501    0  0.00000000000E+00  0.00000000000E+00 -0.25713555240E+04  0.25713555240E+04  0.50400001928E-02 0. -1.
    10030    2    1    2    0    0  0.00000000000E+00  0.00000000000E+00 -0.13926944911E+04  0.37500165569E+04  0.34818136411E+04 0.  0.
        3    1    3    3  502    0 -0.14504902386E+04  0.12583857137E+03  0.33163751649E+03  0.14932316400E+04  0.10100000352E+00 0.  1.
       -3    1    3    3    0  502  0.14504902386E+04 -0.12583857137E+03 -0.17243320076E+04  0.22567849168E+04  0.10100000352E+00 0. -1.
</event>
<event>
 5   0  0.7514289E-08  0.3590044E+04  0.7818609E-02  0.8092776E-01
        1   -1    0    0  501    0  0.00000000000E+00  0.00000000000E+00  0.22273693299E+04  0.22273693299E+04  0.50400001928E-02 0. -1.
       -1   -1    0    0    0  501  0.00000000000E+00  0.00000000000E+00 -0.14465960763E+04  0.14465960763E+04  0.50400001928E-02 0.  1.
    10030    2    1    2    0    0  0.00000000000E+00  0.00000000000E+00  0.78077325358E+03  0.36739654062E+04  0.35900438622E+04 0.  0.
        4    1    3    3  502    0  0.60731468858E+03  0.54342350304E+03 -0.12463633466E+04  0.14891485619E+04  0.12699999809E+01 0.  1.
       -4    1    3    3    0  502 -0.60731468858E+03 -0.54342350304E+03  0.20271366002E+04  0.21848168444E+04  0.12699999809E+01 0. -1.
</event>
<event>
 5   0  0.7261233E-08  0.3589069E+04  0.7818609E-02  0.8093000E-01
        1   -1    0    0  501    0  0.00000000000E+00  0.00000000000E+00  0.20484527934E+04  0.20484527934E+04  0.50400001928E-02 0. -1.
       -1   -1    0    0    0  501  0.00000000000E+00  0.00000000000E+00 -0.15720907736E+04  0.15720907736E+04  0.50400001928E-02 0.  1.
    10030    2    1    2    0    0  0.00000000000E+00  0.00000000000E+00  0.47636201975E+03  0.36205435670E+04  0.35890688133E+04 0.  0.
        3    1    3    3  502    0  0.25091910851E+03  0.17455972335E+04  0.57318309525E+03  0.18543486651E+04  0.10100000352E+00 0. -1.
       -3    1    3    3    0  502 -0.25091910851E+03 -0.17455972335E+04 -0.96821075494E+02  0.17661949019E+04  0.10100000352E+00 0.  1.
</event>
<event>
 5   0  0.2199902E-07  0.3584967E+04  0.7818609E-02  0.8093944E-01
       -2   -1    0    0    0  501  0.00000000000E+00  0.00000000000E+00  0.15545318127E+04  0.15545318127E+04  0.25500000920E-02 0. -1.
        2   -1    0    0  501    0  0.00000000000E+00  0.00000000000E+00 -0.20668584691E+04  0.20668584691E+04  0.25500000920E-02 0.  1.
    10030    2    1    2    0    0  0.00000000000E+00  0.00000000000E+00 -0.51232665640E+03  0.36213902819E+04  0.35849670808E+04 0.  0.
        1    1    3    3  502    0 -0.15440145860E+04 -0.65966432138E+03  0.37779490763E+03  0.17210075685E+04  0.50400001928E-02 0. -1.
       -1    1    3    3    0  502  0.15440145860E+04  0.65966432138E+03 -0.89012156403E+03  0.19003827134E+04  0.50400001928E-02 0.  1.
</event>
<event>
 5   0  0.2238968E-07  0.3592234E+04  0.7818609E-02  0.8092273E-01
       -2   -1    0    0    0  501  0.00000000000E+00  0.00000000000E+00  0.13260587231E+04  0.13260587231E+04  0.25500000920E-02 0.  1.
        2   -1    0    0  501    0  0.00000000000E+00  0.00000000000E+00 -0.24328005139E+04  0.24328005139E+04  0.25500000920E-02 0. -1.
    10030    2    1    2    0    0  0.00000000000E+00  0.00000000000E+00 -0.11067417907E+04  0.37588592370E+04  0.35922340364E+04 0.  0.
        3    1    3    3  502    0 -0.52287326632E+03 -0.37490827545E+03 -0.23080817304E+04  0.23960788701E+04  0.10100000352E+00 0. -1.
       -3    1    3    3    0  502  0.52287326632E+03  0.37490827545E+03  0.12013399396E+04  0.13627803669E+04  0.10100000352E+00 0.  1.
</event>
<event>
 5   0  0.7261233E-08  0.3604091E+04  0.7818609E-02  0.8089555E-01
       -1   -1    0    0    0  501  0.00000000000E+00  0.00000000000E+00  0.12365766521E+04  0.12365766521E+04  0.50400001928E-02 0. -1.
        1   -1    0    0  501    0  0.00000000000E+00  0.00000000000E+00 -0.26260950086E+04  0.26260950086E+04  0.50400001928E-02 0.  1.
    10030    2    1    2    0    0  0.00000000000E+00  0.00000000000E+00 -0.13895183564E+04  0.38626716607E+04  0.36040908833E+04 0.  0.
        3    1    3    3  502    0 -0.94589966896E+03  0.22352071184E+03  0.93157152315E+03  0.13462961061E+04  0.10100000352E+00 0. -1.
       -3    1    3    3    0  502  0.94589966896E+03 -0.22352071184E+03 -0.23210898796E+04  0.25163755546E+04  0.10100000352E+00 0.  1.
</event>
<event>
 5   0  0.2342606E-07  0.3661669E+04  0.7818609E-02  0.8076510E-01
       -2   -1    0    0    0  501  0.00000000000E+00  0.00000000000E+00  0.18113743486E+04  0.18113743486E+04  0.25500000920E-02 0. -1.
        2   -1    0    0  501    0  0.00000000000E+00  0.00000000000E+00 -0.18505038142E+04  0.18505038142E+04  0.25500000920E-02 0.  1.
    10030    2    1    2    0    0  0.00000000000E+00  0.00000000000E+00 -0.39129465679E+02  0.36618781628E+04  0.36616690954E+04 0.  0.
        5    1    3    3  502    0  0.58841391268E+03 -0.14613018979E+04 -0.95251610661E+03  0.18409082522E+04  0.46999998093E+01 0.  1.
       -5    1    3    3    0  502 -0.58841391268E+03  0.14613018979E+04  0.91338664093E+03  0.18209699106E+04  0.46999998093E+01 0. -1.
</event>
<event>
 5   0  0.7514289E-08  0.3589478E+04  0.7818609E-02  0.8092906E-01
       -1   -1    0    0    0  501  0.00000000000E+00  0.00000000000E+00  0.20261431516E+04  0.20261431516E+04  0.50400001928E-02 0. -1.
        1   -1    0    0  501    0  0.00000000000E+00  0.00000000000E+00 -0.15897632433E+04  0.15897632433E+04  0.50400001928E-02 0.  1.
    10030    2    1    2    0    0  0.00000000000E+00  0.00000000000E+00  0.43637990830E+03  0.36159063948E+04  0.35894779052E+04 0.  0.
        4    1    3    3  502    0 -0.91321743709E+03  0.85973057417E+01 -0.13381924629E+04  0.16201236625E+04  0.12699999809E+01 0.  1.
       -4    1    3    3    0  502  0.91321743709E+03 -0.85973057417E+01  0.17745723712E+04  0.19957827323E+04  0.12699999809E+01 0. -1.
</event>
<event>
 5   0  0.7347303E-08  0.3602539E+04  0.7818609E-02  0.8089910E-01
        1   -1    0    0  501    0  0.00000000000E+00  0.00000000000E+00  0.16327862037E+04  0.16327862037E+04  0.50400001928E-02 0.  1.
       -1   -1    0    0    0  501  0.00000000000E+00  0.00000000000E+00 -0.19871384224E+04  0.19871384224E+04  0.50400001928E-02 0. -1.
    10030    2    1    2    0    0  0.00000000000E+00  0.00000000000E+00 -0.35435221871E+03  0.36199246261E+04  0.36025392162E+04 0.  0.
        2    1    3    3  502    0  0.15281906989E+04 -0.39148713007E+03 -0.10508219177E+04  0.18954829696E+04  0.25500000920E-02 0. -1.
       -2    1    3    3    0  502 -0.15281906989E+04  0.39148713007E+03  0.69646969900E+03  0.17244416565E+04  0.25500000920E-02 0.  1.
</event>
<event>
 5   0  0.7236375E-08  0.3607991E+04  0.7818609E-02  0.8088664E-01
       -1   -1    0    0    0  501  0.00000000000E+00  0.00000000000E+00  0.13468879776E+04  0.13468879776E+04  0.50400001928E-02 0.  1.
        1   -1    0    0  501    0  0.00000000000E+00  0.00000000000E+00 -0.24162364111E+04  0.24162364111E+04  0.50400001928E-02 0. -1.
    10030    2    1    2    0    0  0.00000000000E+00  0.00000000000E+00 -0.10693484334E+04  0.37631243887E+04  0.36079910051E+04 0.  0.
        1    1    3    3  502    0 -0.87696427884E+03  0.11101960285E+04 -0.17020849693E+04  0.22132995303E+04  0.50400001928E-02 0. -1.
       -1    1    3    3    0  502  0.87696427884E+03 -0.11101960285E+04  0.63273653586E+03  0.15498248584E+04  0.50400001928E-02 0.  1.
</event>
<event>
 5   0  0.7236375E-08  0.3595064E+04  0.7818609E-02  0.8091623E-01
       -1   -1    0    0    0  501  0.00000000000E+00  0.00000000000E+00  0.17675031452E+04  0.17675031452E+04  0.50400001928E-02 0.  1.
        1   -1    0    0  501    0  0.00000000000E+00  0.00000000000E+00 -0.18280710208E+04  0.18280710208E+04  0.50400001928E-02 0. -1.
    10030    2    1    2    0    0  0.00000000000E+00  0.00000000000E+00 -0.60567875592E+02  0.35955741660E+04  0.35950639933E+04 0.  0.
        5    1    3    3  502    0 -0.55500517365E+03 -0.38762380816E+03  0.16351299032E+04  0.17697329883E+04  0.46999998093E+01 0.  1.
       -5    1    3    3    0  502  0.55500517365E+03  0.38762380816E+03 -0.16956977788E+04  0.18258411778E+04  0.46999998093E+01 0. -1.
</event>
<event>
 5   0  0.2342606E-07  0.3610880E+04  0.7818609E-02  0.8088004E-01
        2   -1    0    0  501    0  0.00000000000E+00  0.00000000000E+00  0.28309402971E+04  0.28309402971E+04  0.25500000920E-02 0. -1.
       -2   -1    0    0    0  501  0.00000000000E+00  0.00000000000E+00 -0.11514245162E+04  0.11514245162E+04  0.25500000920E-02 0.  1.
    10030    2    1    2    0    0  0.00000000000E+00  0.00000000000E+00  0.16795157808E+04  0.39823648133E+04  0.36108802595E+04 0.  0.
        5    1    3    3  502    0 -0.14504070814E+04  0.13659774557E+03 -0.33637493709E+03  0.14951621431E+04  0.46999998093E+01 0.  1.
       -5    1    3    3    0  502  0.14504070814E+04 -0.13659774557E+03  0.20158907179E+04  0.24872026702E+04  0.46999998093E+01 0. -1.
</event>
<event>
 5   0  0.2309391E-07  0.3623417E+04  0.7818609E-02  0.8085149E-01
       -2   -1    0    0    0  501  0.00000000000E+00  0.00000000000E+00  0.21023431324E+04  0.21023431324E+04  0.25500000920E-02 0.  1.
        2   -1    0    0  501    0  0.00000000000E+00  0.00000000000E+00 -0.15612520431E+04  0.15612520431E+04  0.25500000920E-02 0. -1.
    10030    2    1    2    0    0  0.00000000000E+00  0.00000000000E+00  0.54109108928E+03  0.36635951755E+04  0.36234169017E+04 0.  0.
        4    1    3    3  502    0  0.12324071366E+04  0.36641371089E+03  0.15610999334E+04  0.20224047500E+04  0.12699999809E+01 0.  1.
       -4    1    3    3    0  502 -0.12324071366E+04 -0.36641371089E+03 -0.10200088441E+04  0.16411904255E+04  0.12699999809E+01 0. -1.
</event>
<event>
 5   0  0.7236375E-08  0.3599554E+04  0.7818609E-02  0.8090594E-01
        1   -1    0    0  501    0  0.00000000000E+00  0.00000000000E+00  0.19923012426E+04  0.19923012426E+04  0.50400001928E-02 0. -1.
       -1   -1    0    0    0  501  0.00000000000E+00  0.00000000000E+00 -0.16258573146E+04  0.16258573146E+04  0.50400001928E-02 0.  1.
    10030    2    1    2    0    0  0.00000000000E+00  0.00000000000E+00  0.36644392803E+03  0.36181585573E+04  0.35995541659E+04 0.  0.
        5    1    3    3  502    0  0.47988289153E+03  0.59548115371E+03 -0.14543978049E+04  0.16432225835E+04  0.46999998093E+01 0.  1.
       -5    1    3    3    0  502 -0.47988289153E+03 -0.59548115371E+03  0.18208417329E+04  0.19749359738E+04  0.46999998093E+01 0. -1.
</event>
<event>
 5   0  0.7236375E-08  0.3608590E+04  0.7818609E-02  0.8088527E-01
       -3   -1    0    0    0  501  0.00000000000E+00  0.00000000000E+00  0.12812855398E+04  0.12812855438E+04  0.10100000352E+00 0. -1.
        3   -1    0    0  501    0  0.00000000000E+00  0.00000000000E+00 -0.25407929692E+04  0.25407929712E+04  0.10100000352E+00 0.  1.
    10030    2    1    2    0    0  0.00000000000E+00  0.00000000000E+00 -0.12595074294E+04  0.38220785149E+04  0.36085904741E+04 0.  0.
        5    1    3    3  502    0 -0.10026099146E+04 -0.44900750419E+03 -0.21457328440E+04  0.24106069583E+04  0.46999998093E+01 0.  1.
       -5    1    3    3    0  502  0.10026099146E+04  0.44900750419E+03  0.88622541461E+03  0.14114715566E+04  0.46999998093E+01 0. -1.
</event>
<event>
 5   0  0.2199902E-07  0.3617286E+04  0.7818609E-02  0.8086544E-01
       -2   -1    0    0    0  501  0.00000000000E+00  0.00000000000E+00  0.29981344678E+04  0.29981344678E+04  0.25500000920E-02 0. -1.
        2   -1    0    0  501    0  0.00000000000E+00  0.00000000000E+00 -0.10910751643E+04  0.10910751643E+04  0.25500000920E-02 0.  1.
    10030    2    1    2    0    0  0.00000000000E+00  0.00000000000E+00  0.19070593035E+04  0.40892096321E+04  0.36172863072E+04 0.  0.
        1    1    3    3  502    0 -0.13344533224E+04 -0.11201302319E+04  0.15023956920E+04  0.23005760630E+04  0.50400001928E-02 0.  1.
       -1    1    3    3    0  502  0.13344533224E+04  0.11201302319E+04  0.40466361146E+03  0.17886335691E+04  0.50400001928E-02 0. -1.
</event>
<event>
 5   0  0.2309391E-07  0.3592695E+04  0.7818609E-02  0.8092167E-01
        2   -1    0    0  501    0  0.00000000000E+00  0.00000000000E+00  0.20936845797E+04  0.20936845797E+04  0.25500000920E-02 0.  1.
       -2   -1    0    0    0  501  0.00000000000E+00  0.00000000000E+00 -0.15412372309E+04  0.15412372309E+04  0.25500000920E-02 0. -1.
    10030    2    1    2    0    0  0.00000000000E+00  0.00000000000E+00  0.55244734880E+03  0.36349218106E+04  0.35926951577E+04 0.  0.
        4    1    3    3  502    0 -0.11329501782E+04  0.76312575911E+03 -0.90407510297E+03  0.16380752227E+04  0.12699999809E+01 0. -1.
       -4    1    3    3    0  502  0.11329501782E+04 -0.76312575911E+03  0.14565224518E+04  0.19968465879E+04  0.12699999809E+01 0.  1.
</event>
<event>
 5   0  0.2309391E-07  0.3611455E+04  0.7818609E-02  0.8087873E-01
       -2   -1    0    0    0  501  0.00000000000E+00  0.00000000000E+00  0.18590849911E+04  0.18590849911E+04  0.25500000920E-02 0. -1.
        2   -1    0    0  501    0  0.00000000000E+00  0.00000000000E+00 -0.17539011555E+04  0.17539011555E+04  0.25500000920E-02 0.  1.
    10030    2    1    2    0    0  0.00000000000E+00  0.00000000000E+00  0.10518383568E+03  0.36129861466E+04  0.36114547285E+04 0.  0.
        4    1    3    3  502    0 -0.88589388322E+03  0.14344413855E+04  0.69956518094E+03  0.18253282215E+04  0.12699999809E+01 0. -1.
       -4    1    3    3    0  502  0.88589388322E+03 -0.14344413855E+04 -0.59438134526E+03  0.17876579251E+04  0.12699999809E+01 0.  1.
</event>
<event>
 5   0  0.7236375E-08  0.3608395E+04  0.7818609E-02  0.8088571E-01
       -1   -1    0    0    0  501  0.00000000000E+00  0.00000000000E+00  0.11167493343E+04  0.11167493343E+04  0.50400001928E-02 0. -1.
        1   -1    0    0  501    0  0.00000000000E+00  0.00000000000E+00 -0.29148254949E+04  0.29148254949E+04  0.50400001928E-02 0.  1.
    10030    2    1    2    0    0  0.00000000000E+00  0.00000000000E+00 -0.17980761606E+04  0.40315748292E+04  0.36083954500E+04 0.  0.
        1    1    3    3  502    0  0.97550446050E+02  0.36067737855E+03 -0.28711258087E+04  0.28953355022E+04  0.50400001928E-02 0.  1.
       -1    1    3    3    0  502 -0.97550446050E+02 -0.36067737855E+03  0.10730496481E+04  0.11362393270E+04  0.50400001928E-02 0. -1.
</event>
<event>
 5   0  0.7261233E-08  0.3601481E+04  0.7818609E-02  0.8090152E-01
       -1   -1    0    0    0  501  0.00000000000E+00  0.00000000000E+00  0.11086729949E+04  0.11086729949E+04  0.50400001928E-02 0.  1.
        1   -1    0    0  501    0  0.00000000000E+00  0.00000000000E+00 -0.29248182889E+04  0.29248182889E+04  0.50400001928E-02 0. -1.
    10030    2    1    2    0    0  0.00000000000E+00  0.00000000000E+00 -0.18161452940E+04  0.40334912839E+04  0.36014813908E+04 0.  0.
        3    1    3    3  502    0  0.14780415935E+04  0.10248638332E+04 -0.10064388162E+04  0.20610366154E+04  0.10100000352E+00 0.  1.
       -3    1    3    3    0  502 -0.14780415935E+04 -0.10248638332E+04 -0.80970647779E+03  0.19724546685E+04  0.10100000352E+00 0. -1.
</event>
<event>
 5   0  0.7261233E-08  0.3614125E+04  0.7818609E-02  0.8087264E-01
        1   -1    0    0  501    0  0.00000000000E+00  0.00000000000E+00  0.26207130102E+04  0.26207130103E+04  0.50400001928E-02 0. -1.
       -1   -1    0    0    0  501  0.00000000000E+00  0.00000000000E+00 -0.12460250290E+04  0.12460250290E+04  0.50400001928E-02 0.  1.
    10030    2    1    2    0    0  0.00000000000E+00  0.00000000000E+00  0.13746879812E+04  0.38667380393E+04  0.36141245162E+04 0.  0.
        3    1    3    3  502    0  0.10510482600E+04 -0.53502917118E+02  0.22590025485E+04  0.24921190845E+04  0.10100000352E+00 0. -1.
       -3    1    3    3    0  502 -0.10510482600E+04  0.53502917118E+02 -0.88431456722E+03  0.13746189548E+04  0.10100000352E+00 0.  1.
</event>
<event>
 5   0  0.2309391E-07  0.3661026E+04  0.7818609E-02  0.8076654E-01
        2   -1    0    0  501    0  0.00000000000E+00  0.00000000000E+00  0.20870487167E+04  0.20870487167E+04  0.25500000920E-02 0.  1.
       -2   -1    0    0    0  501  0.00000000000E+00  0.00000000000E+00 -0.16055102733E+04  0.16055102733E+04  0.25500000920E-02 0. -1.
    10030    2    1    2    0    0  0.00000000000E+00  0.00000000000E+00  0.48153844341E+03  0.36925589901E+04  0.36610261707E+04 0.  0.
        4    1    3    3  502    0  0.23122616220E+03  0.10264134278E+04  0.17515984291E+04  0.20433033873E+04  0.12699999809E+01 0.  1.
       -4    1    3    3    0  502 -0.23122616220E+03 -0.10264134278E+04 -0.12700599857E+04  0.16492556027E+04  0.12699999809E+01 0. -1.
</event>
<event>
 5   0  0.7514289E-08  0.3601235E+04  0.7818609E-02  0.8090209E-01
        1   -1    0    0  501    0  0.00000000000E+00  0.00000000000E+00  0.22628627238E+04  0.22628627239E+04  0.50400001928E-02 0. -1.
       -1   -1    0    0    0  501  0.00000000000E+00  0.00000000000E+00 -0.14327969365E+04  0.14327969365E+04  0.50400001928E-02 0.  1.
    10030    2    1    2    0    0  0.00000000000E+00  0.00000000000E+00  0.83006578733E+03  0.36956596604E+04  0.36012346652E+04 0.  0.
        4    1    3    3  502    0  0.70695300104E+03 -0.14666058431E+03  0.21078076564E+04  0.22280364902E+04  0.12699999809E+01 0. -1.
       -4    1    3    3    0  502 -0.70695300104E+03  0.14666058431E+03 -0.12777418690E+04  0.14676231701E+04  0.12699999809E+01 0.  1.
</event>
<event>
 5   0  0.2199902E-07  0.3590597E+04  0.7818609E-02  0.8092649E-01
        2   -1    0    0  501    0  0.00000000000E+00  0.00000000000E+00  0.20035836046E+04  0.20035836046E+04  0.25500000920E-02 0. -1.
       -2   -1    0    0    0  501  0.00000000000E+00  0.00000000000E+00 -0.16086662644E+04  0.16086662644E+04  0.25500000920E-02 0.  1.
    10030    2    1    2    0    0  0.00000000000E+00  0.00000000000E+00  0.39491734021E+03  0.36122498690E+04  0.35905973612E+04 0.  0.
        1    1    3    3  502    0  0.75338832174E+03  0.53390208262E+03  0.17463703523E+04  0.19754631874E+04  0.50400001928E-02 0. -1.
       -1    1    3    3    0  502 -0.75338832174E+03 -0.53390208262E+03 -0.13514530121E+04  0.16367866816E+04  0.50400001928E-02 0.  1.
</event>
<event>
 5   0  0.7236375E-08  0.3599767E+04  0.7818609E-02  0.8090545E-01
        1   -1    0    0  501    0  0.00000000000E+00  0.00000000000E+00  0.19396510654E+04  0.19396510654E+04  0.50400001928E-02 0.  1.
       -1   -1    0    0    0  501  0.00000000000E+00  0.00000000000E+00 -0.16701871938E+04  0.16701871938E+04  0.50400001928E-02 0. -1.
    10030    2    1    2    0    0  0.00000000000E+00  0.00000000000E+00  0.26946387162E+03  0.36098382592E+04  0.35997668646E+04 0.  0.
        5    1    3    3  502    0  0.62183266639E+03 -0.13281050815E+04 -0.91174860789E+03  0.17268024167E+04  0.46999998093E+01 0. -1.
       -5    1    3    3    0  502 -0.62183266639E+03  0.13281050815E+04  0.11812124795E+04  0.18830358425E+04  0.46999998093E+01 0.  1.
</event>
<event>
 5   0  0.2238968E-07  0.3597789E+04  0.7818609E-02  0.8090998E-01
       -2   -1    0    0    0  501  0.00000000000E+00  0.00000000000E+00  0.14739334618E+04  0.14739334618E+04  0.25500000920E-02 0. -1.
        2   -1    0    0  501    0  0.00000000000E+00  0.00000000000E+00 -0.21955000057E+04  0.21955000057E+04  0.25500000920E-02 0.  1.
    10030    2    1    2    0    0  0.00000000000E+00  0.00000000000E+00 -0.72156654393E+03  0.36694334675E+04  0.35977887230E+04 0.  0.
        3    1    3    3  502    0  0.10777594654E+04 -0.13715569199E+04 -0.80918239675E+03  0.19228910554E+04  0.10100000352E+00 0.  1.
       -3    1    3    3    0  502 -0.10777594654E+04  0.13715569199E+04  0.87615852817E+02  0.17465424121E+04  0.10100000352E+00 0. -1.
</event>
<event>
 5   0  0.2199902E-07  0.3590149E+04  0.7818609E-02  0.8092752E-01
        2   -1    0    0  501    0  0.00000000000E+00  0.00000000000E+00  0.17645336420E+04  0.17645336420E+04  0.25500000920E-02 0. -1.
       -2   -1    0    0    0  501  0.00000000000E+00  0.00000000000E+00 -0.18261437940E+04  0.18261437940E+04  0.25500000920E-02 0.  1.
    10030    2    1    2    0    0  0.00000000000E+00  0.00000000000E+00 -0.61610151998E+02  0.35906774360E+04  0.35901488323E+04 0.  0.
        1    1    3    3  502    0 -0.14278120824E+03 -0.61239796276E+03  0.16507736242E+04  0.17664855778E+04  0.50400001928E-02 0. -1.
       -1    1    3    3    0  502  0.14278120824E+03  0.61239796276E+03 -0.17123837762E+04  0.18241918581E+04  0.50400001928E-02 0.  1.
</event>
<event>
 5   0  0.7236375E-08  0.3599526E+04  0.7818609E-02  0.8090600E-01
        1   -1    0    0  501    0  0.00000000000E+00  0.00000000000E+00  0.16239099183E+04  0.16239099183E+04  0.50400001928E-02 0.  1.
       -1   -1    0    0    0  501  0.00000000000E+00  0.00000000000E+00 -0.19946594885E+04  0.19946594885E+04  0.50400001928E-02 0. -1.
    10030    2    1    2    0    0  0.00000000000E+00  0.00000000000E+00 -0.37074957025E+03  0.36185694068E+04  0.35995262616E+04 0.  0.
        5    1    3    3  502    0 -0.92611465479E+02  0.13614595905E+04 -0.13650291193E+04  0.19301491358E+04  0.46999998093E+01 0. -1.
       -5    1    3    3    0  502  0.92611465479E+02 -0.13614595905E+04  0.99427954901E+03  0.16884202710E+04  0.46999998093E+01 0.  1.
</event>
<event>
 5   0  0.7347303E-08  0.3590786E+04  0.7818609E-02  0.8092606E-01
       -1   -1    0    0    0  501  0.00000000000E+00  0.00000000000E+00  0.33819981704E+04  0.33819981704E+04  0.50400001928E-02 0.  1.
        1   -1    0    0  501    0  0.00000000000E+00  0.00000000000E+00 -0.95311584035E+03  0.95311584036E+03  0.50400001928E-02 0. -1.
    10030    2    1    2    0    0  0.00000000000E+00  0.00000000000E+00  0.24288823301E+04  0.43351140108E+04  0.35907860021E+04 0.  0.
        2    1    3    3  502    0 -0.13360079145E+04 -0.55548743089E+03  0.24977793363E+04  0.28865870932E+04  0.25500000920E-02 0.  1.
       -2    1    3    3    0  502  0.13360079145E+04  0.55548743089E+03 -0.68897006236E+02  0.14485269176E+04  0.25500000920E-02 0. -1.
</event>
<event>
 5   0  0.2198900E-07  0.3601417E+04  0.7818609E-02  0.8090167E-01
        2   -1    0    0  501    0  0.00000000000E+00  0.00000000000E+00  0.16471846759E+04  0.16471846759E+04  0.25500000920E-02 0.  1.
       -2   -1    0    0    0  501  0.00000000000E+00  0.00000000000E+00 -0.19685417792E+04  0.19685417792E+04  0.25500000920E-02 0. -1.
    10030    2    1    2    0    0  0.00000000000E+00  0.00000000000E+00 -0.32135710326E+03  0.36157264551E+04  0.36014174169E+04 0.  0.
        2    1    3    3  502    0 -0.89985478517E+03 -0.47901886297E+03  0.13295890499E+04  0.16754118141E+04  0.25500000920E-02 0.  1.
       -2    1    3    3    0  502  0.89985478517E+03  0.47901886297E+03 -0.16509461531E+04  0.19403146410E+04  0.25500000920E-02 0. -1.
</event>
<event>
 5   0  0.2198900E-07  0.3596586E+04  0.7818609E-02  0.8091274E-01
       -2   -1    0    0    0  501  0.00000000000E+00  0.00000000000E+00  0.12919198183E+04  0.12919198183E+04  0.25500000920E-02 0.  1.
        2   -1    0    0  501    0  0.00000000000E+00  0.00000000000E+00 -0.25031417658E+04  0.25031417658E+04  0.25500000920E-02 0. -1.
    10030    2    1    2    0    0  0.00000000000E+00  0.00000000000E+00 -0.12112219475E+04  0.37950615842E+04  0.35965864124E+04 0.  0.
        2    1    3    3  502    0 -0.41300264446E+03  0.97854690626E+03  0.92558226668E+03  0.14088391549E+04  0.25500000920E-02 0.  1.
       -2    1    3    3    0  502  0.41300264446E+03 -0.97854690626E+03 -0.21368042142E+04  0.23862224292E+04  0.25500000920E-02 0. -1.
</event>
<event>
 5   0  0.7261233E-08  0.3582526E+04  0.7818609E-02  0.8094506E-01
        1   -1    0    0  501    0  0.00000000000E+00  0.00000000000E+00  0.16885837874E+04  0.16885837874E+04  0.50400001928E-02 0. -1.
       -1   -1    0    0    0  501  0.00000000000E+00  0.00000000000E+00 -0.19001855322E+04  0.19001855323E+04  0.50400001928E-02 0.  1.
    10030    2    1    2    0    0  0.00000000000E+00  0.00000000000E+00 -0.21160174485E+03  0.35887693197E+04  0.35825256358E+04 0.  0.
        3    1    3    3  502    0 -0.87886378648E+03  0.12871484553E+04  0.77861367077E+03  0.17422376301E+04  0.10100000352E+00 0. -1.
       -3    1    3    3    0  502  0.87886378648E+03 -0.12871484553E+04 -0.99021541562E+03  0.18465316896E+04  0.10100000352E+00 0.  1.
</event>
<event>
 5   0  0.7347303E-08  0.3649788E+04  0.7818609E-02  0.8079181E-01
        1   -1    0    0  501    0  0.00000000000E+00  0.00000000000E+00  0.22036667717E+04  0.22036667717E+04  0.50400001928E-02 0.  1.
       -1   -1    0    0    0  501  0.00000000000E+00  0.00000000000E+00 -0.15112258787E+04  0.15112258787E+04  0.50400001928E-02 0. -1.
    10030    2    1    2    0    0  0.00000000000E+00  0.00000000000E+00  0.69244089301E+03  0.37148926505E+04  0.36497880780E+04 0.  0.
        2    1    3    3  502    0 -0.34830994902E+03  0.28219084344E+03 -0.14543134494E+04  0.15218341243E+04  0.25500000920E-02 0. -1.
       -2    1    3    3    0  502  0.34830994902E+03 -0.28219084344E+03  0.21467543424E+04  0.21930585262E+04  0.25500000920E-02 0.  1.
</event>
<event>
 5   0  0.2199902E-07  0.3608809E+04  0.7818609E-02  0.8088477E-01
        2   -1    0    0  501    0  0.00000000000E+00  0.00000000000E+00  0.12024377102E+04  0.12024377102E+04  0.25500000920E-02 0.  1.
       -2   -1    0    0    0  501  0.00000000000E+00  0.00000000000E+00 -0.27077288890E+04  0.27077288890E+04  0.25500000920E-02 0. -1.
    10030    2    1    2    0    0  0.00000000000E+00  0.00000000000E+00 -0.15052911788E+04  0.39101665993E+04  0.36088088480E+04 0.  0.
        1    1    3    3  502    0 -0.12386082317E+04 -0.12491048465E+04 -0.31726744715E+03  0.17874764061E+04  0.50400001928E-02 0.  1.
       -1    1    3    3    0  502  0.12386082317E+04  0.12491048465E+04 -0.11880237316E+04  0.21226901932E+04  0.50400001928E-02 0. -1.
</event>
<event>
 5   0  0.7514289E-08  0.3609646E+04  0.7818609E-02  0.8088286E-01
       -1   -1    0    0    0  501  0.00000000000E+00  0.00000000000E+00  0.13132649877E+04  0.13132649877E+04  0.50400001928E-02 0. -1.
        1   -1    0    0  501    0  0.00000000000E+00  0.00000000000E+00 -0.24803722654E+04  0.24803722654E+04  0.50400001928E-02 0.  1.
    10030    2    1    2    0    0  0.00000000000E+00  0.00000000000E+00 -0.11671072777E+04  0.37936372532E+04  0.36096459952E+04 0.  0.
        4    1    3    3  502    0  0.93039162435E+03  0.12774857706E+04  0.33253358152E+03  0.16149856545E+04  0.12699999809E+01 0. -1.
       -4    1    3    3    0  502 -0.93039162435E+03 -0.12774857706E+04 -0.14996408592E+04  0.21786515986E+04  0.12699999809E+01 0.  1.
</event>
<event>
 5   0  0.2199902E-07  0.3608939E+04  0.7818609E-02  0.8088447E-01
        2   -1    0    0  501    0  0.00000000000E+00  0.00000000000E+00  0.26309829801E+04  0.26309829801E+04  0.25500000920E-02 0.  1.
       -2   -1    0    0    0  501  0.00000000000E+00  0.00000000000E+00 -0.12376019895E+04  0.12376019895E+04  0.25500000920E-02 0. -1.
    10030    2    1    2    0    0  0.00000000000E+00  0.00000000000E+00  0.13933809906E+04  0.38685849697E+04  0.36089387751E+04 0.  0.
        1    1    3    3  502    0  0.17485079105E+04  0.44575115278E+03  0.70918071709E+03  0.19387911937E+04  0.50400001928E-02 0.  1.
       -1    1    3    3    0  502 -0.17485079105E+04 -0.44575115278E+03  0.68420027351E+03  0.19297937759E+04  0.50400001928E-02 0. -1.
</event>
<event>
 5   0  0.7236375E-08  0.3596835E+04  0.7818609E-02  0.8091217E-01
        1   -1    0    0  501    0  0.00000000000E+00  0.00000000000E+00  0.27454140283E+04  0.27454140283E+04  0.50400001928E-02 0. -1.
       -1   -1    0    0    0  501  0.00000000000E+00  0.00000000000E+00 -0.11780753851E+04  0.11780753852E+04  0.50400001928E-02 0.  1.
    10030    2    1    2    0    0  0.00000000000E+00  0.00000000000E+00  0.15673386431E+04  0.39234894134E+04  0.35968345465E+04 0.  0.
        1    1    3    3  502    0 -0.14331666887E+04 -0.29563732186E+01 -0.40142685845E+03  0.14883275917E+04  0.50400001928E-02 0.  1.
       -1    1    3    3    0  502  0.14331666887E+04  0.29563732186E+01  0.19687655016E+04  0.24351618217E+04  0.50400001928E-02 0. -1.
</event>
<event>
 5   0  0.2309391E-07  0.3561847E+04  0.7818609E-02  0.8099287E-01
       -2   -1    0    0    0  501  0.00000000000E+00  0.00000000000E+00  0.15438515186E+04  0.15438515186E+04  0.25500000920E-02 0. -1.
        2   -1    0    0  501    0  0.00000000000E+00  0.00000000000E+00 -0.20543999658E+04  0.20543999658E+04  0.25500000920E-02 0.  1.
    10030    2    1    2    0    0  0.00000000000E+00  0.00000000000E+00 -0.51054844723E+03  0.35982514844E+04  0.35618469967E+04 0.  0.
        4    1    3    3  502    0 -0.12832945475E+04  0.49718286336E+03 -0.13971593254E+04  0.19611454532E+04  0.12699999809E+01 0.  1.
       -4    1    3    3    0  502  0.12832945475E+04 -0.49718286336E+03  0.88661087814E+03  0.16371060312E+04  0.12699999809E+01 0. -1.
</event>
<event>
 5   0  0.7236375E-08  0.3614698E+04  0.7818609E-02  0.8087133E-01
       -3   -1    0    0    0  501  0.00000000000E+00  0.00000000000E+00  0.11524826540E+04  0.11524826585E+04  0.10100000352E+00 0. -1.
        3   -1    0    0  501    0  0.00000000000E+00  0.00000000000E+00 -0.28343257608E+04  0.28343257626E+04  0.10100000352E+00 0.  1.
    10030    2    1    2    0    0  0.00000000000E+00  0.00000000000E+00 -0.16818431068E+04  0.39868084211E+04  0.36146984868E+04 0.  0.
        3    1    3    3  502    0 -0.15768071566E+04  0.41948124808E+02  0.13219150787E+03  0.15828945193E+04  0.10100000352E+00 0.  1.
       -3    1    3    3    0  502  0.15768071566E+04 -0.41948124808E+02 -0.18140346147E+04  0.24039139018E+04  0.10100000352E+00 0. -1.
</event>
<event>
 5   0  0.2238968E-07  0.3565443E+04  0.7818609E-02  0.8098453E-01
       -2   -1    0    0    0  501  0.00000000000E+00  0.00000000000E+00  0.18363065533E+04  0.18363065533E+04  0.25500000920E-02 0. -1.
        2   -1    0    0  501    0  0.00000000000E+00  0.00000000000E+00 -0.17307003433E+04  0.17307003433E+04  0.25500000920E-02 0.  1.
    10030    2    1    2    0    0  0.00000000000E+00  0.00000000000E+00  0.10560621000E+03  0.35670068966E+04  0.35654432443E+04 0.  0.
        3    1    3    3  502    0 -0.16626077543E+04  0.46686076916E+03  0.49557244716E+03  0.17966122517E+04  0.10100000352E+00 0. -1.
       -3    1    3    3    0  502  0.16626077543E+04 -0.46686076916E+03 -0.38996623716E+03  0.17703946449E+04  0.10100000352E+00 0.  1.
</event>
<event>
 5   0  0.2198900E-07  0.3521694E+04  0.7818609E-02  0.8108668E-01
        2   -1    0    0  501    0  0.00000000000E+00  0.00000000000E+00  0.21487643096E+04  0.21487643096E+04  0.25500000920E-02 0.  1.
       -2   -1    0    0    0  501  0.00000000000E+00  0.00000000000E+00 -0.14429602535E+04  0.14429602535E+04  0.25500000920E-02 0. -1.
    10030    2    1    2    0    0  0.00000000000E+00  0.00000000000E+00  0.70580405612E+03  0.35917245631E+04  0.35216936226E+04 0.  0.
        2    1    3    3  502    0  0.13543424754E+03  0.91336941639E+03  0.18820487559E+04  0.20963524622E+04  0.25500000920E-02 0.  1.
       -2    1    3    3    0  502 -0.13543424754E+03 -0.91336941639E+03 -0.11762446998E+04  0.14953721009E+04  0.25500000920E-02 0. -1.
</event>
<event>
 5   0  0.2199902E-07  0.3604633E+04  0.7818609E-02  0.8089431E-01
       -2   -1    0    0    0  501  0.00000000000E+00  0.00000000000E+00  0.11908362711E+04  0.11908362711E+04  0.25500000920E-02 0.  1.
        2   -1    0    0  501    0  0.00000000000E+00  0.00000000000E+00 -0.27277851733E+04  0.27277851733E+04  0.25500000920E-02 0. -1.
    10030    2    1    2    0    0  0.00000000000E+00  0.00000000000E+00 -0.15369489022E+04  0.39186214444E+04  0.36046334205E+04 0.  0.
        1    1    3    3  502    0  0.13987042354E+03  0.38209295964E+02 -0.27214344328E+04  0.27252943066E+04  0.50400001928E-02 0. -1.
       -1    1    3    3    0  502 -0.13987042354E+03 -0.38209295964E+02  0.11844855305E+04  0.11933271378E+04  0.50400001928E-02 0.  1.
</event>
<event>
 5   0  0.7514289E-08  0.3607743E+04  0.7818609E-02  0.8088720E-01
       -1   -1    0    0    0  501  0.00000000000E+00  0.00000000000E+00  0.13200394731E+04  0.13200394731E+04  0.50400001928E-02 0. -1.
        1   -1    0    0  501    0  0.00000000000E+00  0.00000000000E+00 -0.24650419100E+04  0.24650419100E+04  0.50400001928E-02 0.  1.
    10030    2    1    2    0    0  0.00000000000E+00  0.00000000000E+00 -0.11450024370E+04  0.37850813831E+04  0.36077431305E+04 0.  0.
        4    1    3    3  502    0  0.17094054273E+04 -0.53834726510E+03 -0.35731875965E+03  0.18274471269E+04  0.12699999809E+01 0.  1.
       -4    1    3    3    0  502 -0.17094054273E+04  0.53834726510E+03 -0.78768367733E+03  0.19576342562E+04  0.12699999809E+01 0. -1.
</event>
<event>
 5   0  0.2198900E-07  0.3550394E+04  0.7818609E-02  0.8101950E-01
        2   -1    0    0  501    0  0.00000000000E+00  0.00000000000E+00  0.26116509273E+04  0.26116509273E+04  0.25500000920E-02 0.  1.
       -2   -1    0    0    0  501  0.00000000000E+00  0.00000000000E+00 -0.12066407025E+04  0.12066407025E+04  0.25500000920E-02 0. -1.
    10030    2    1    2    0    0  0.00000000000E+00  0.00000000000E+00  0.14050102247E+04  0.38182916298E+04  0.35503939554E+04 0.  0.
        2    1    3    3  502    0 -0.43452948415E+03 -0.16177584954E+03 -0.11403682796E+04  0.12310268524E+04  0.25500000920E-02 0. -1.
       -2    1    3    3    0  502  0.43452948415E+03  0.16177584954E+03  0.25453785044E+04  0.25872647774E+04  0.25500000920E-02 0.  1.
</event>
<event>
 5   0  0.7236375E-08  0.3616691E+04  0.7818609E-02  0.8086679E-01
        1   -1    0    0  501    0  0.00000000000E+00  0.00000000000E+00  0.22357890475E+04  0.22357890475E+04  0.50400001928E-02 0.  1.
       -1   -1    0    0    0  501  0.00000000000E+00  0.00000000000E+00 -0.14626215149E+04  0.14626215149E+04  0.50400001928E-02 0. -1.
    10030    2    1    2    0    0  0.00000000000E+00  0.00000000000E+00  0.77316753259E+03  0.36984105625E+04  0.36166908432E+04 0.  0.
        5    1    3    3  502    0 -0.64139500955E+03  0.21239350392E+03 -0.13286935098E+04  0.14906197005E+04  0.46999998093E+01 0. -1.
       -5    1    3    3    0  502  0.64139500955E+03 -0.21239350392E+03  0.21018610423E+04  0.22077908619E+04  0.46999998093E+01 0.  1.
</event>
<event>
 5   0  0.7514289E-08  0.3591226E+04  0.7818609E-02  0.8092504E-01
        1   -1    0    0  501    0  0.00000000000E+00  0.00000000000E+00  0.16194905369E+04  0.16194905369E+04  0.50400001928E-02 0. -1.
       -1   -1    0    0    0  501  0.00000000000E+00  0.00000000000E+00 -0.19908889969E+04  0.19908889969E+04  0.50400001928E-02 0.  1.
    10030    2    1    2    0    0  0.00000000000E+00  0.00000000000E+00 -0.37139846000E+03  0.36103795338E+04  0.35912259136E+04 0.  0.
        4    1    3    3  502    0  0.10992956668E+04 -0.80783021380E+03 -0.13594808869E+04  0.19259362690E+04  0.12699999809E+01 0.  1.
       -4    1    3    3    0  502 -0.10992956668E+04  0.80783021380E+03  0.98808242687E+03  0.16844432649E+04  0.12699999809E+01 0. -1.
</event>
<event>
 5   0  0.7347303E-08  0.3598226E+04  0.7818609E-02  0.8090898E-01
       -1   -1    0    0    0  501  0.00000000000E+00  0.00000000000E+00  0.13940009111E+04  0.13940009111E+04  0.50400001928E-02 0. -1.
        1   -1    0    0  501    0  0.00000000000E+00  0.00000000000E+00 -0.23219555226E+04  0.23219555226E+04  0.50400001928E-02 0.  1.
    10030    2    1    2    0    0  0.00000000000E+00  0.00000000000E+00 -0.92795461153E+03  0.37159564338E+04  0.35982262931E+04 0.  0.
        2    1    3    3  502    0 -0.57689227104E+03 -0.10873932399E+04 -0.18189971797E+04  0.21963559571E+04  0.25500000920E-02 0.  1.
       -2    1    3    3    0  502  0.57689227104E+03  0.10873932399E+04  0.89104256813E+03  0.15196004767E+04  0.25500000920E-02 0. -1.
</event>
<event>
 5   0  0.7236375E-08  0.3593956E+04  0.7818609E-02  0.8091877E-01
        1   -1    0    0  501    0  0.00000000000E+00  0.00000000000E+00  0.27304585700E+04  0.27304585700E+04  0.50400001928E-02 0. -1.
       -1   -1    0    0    0  501  0.00000000000E+00  0.00000000000E+00 -0.11826331355E+04  0.11826331355E+04  0.50400001928E-02 0.  1.
    10030    2    1    2    0    0  0.00000000000E+00  0.00000000000E+00  0.15478254345E+04  0.39130917055E+04  0.35939564717E+04 0.  0.
        5    1    3    3  502    0  0.45089381470E+03 -0.49698766020E+03 -0.10410862558E+04  0.12386220765E+04  0.46999998093E+01 0.  1.
       -5    1    3    3    0  502 -0.45089381470E+03  0.49698766020E+03  0.25889116903E+04  0.26744696290E+04  0.46999998093E+01 0. -1.
</event>
<event>
 5   0  0.2199902E-07  0.3603460E+04  0.7818609E-02  0.8089700E-01
        2   -1    0    0  501    0  0.00000000000E+00  0.00000000000E+00  0.16641209900E+04  0.16641209900E+04  0.25500000920E-02 0.  1.
       -2   -1    0    0    0  501  0.00000000000E+00  0.00000000000E+00 -0.19507180701E+04  0.19507180701E+04  0.25500000920E-02 0. -1.
    10030    2    1    2    0    0  0.00000000000E+00  0.00000000000E+00 -0.28659708007E+03  0.36148390601E+04  0.36034599407E+04 0.  0.
        1    1    3    3  502    0 -0.37518174996E+03  0.58509561713E+03 -0.18108150251E+04  0.19396260675E+04  0.50400001928E-02 0. -1.
       -1    1    3    3    0  502  0.37518174996E+03 -0.58509561713E+03  0.15242179450E+04  0.16752129926E+04  0.50400001928E-02 0.  1.
</event>
<event>
 5   0  0.2309391E-07  0.3590028E+04  0.7818609E-02  0.8092780E-01
       -2   -1    0    0    0  501  0.00000000000E+00  0.00000000000E+00  0.17319898125E+04  0.17319898125E+04  0.25500000920E-02 0.  1.
        2   -1    0    0  501    0  0.00000000000E+00  0.00000000000E+00 -0.18603317764E+04  0.18603317764E+04  0.25500000920E-02 0. -1.
    10030    2    1    2    0    0  0.00000000000E+00  0.00000000000E+00 -0.12834196392E+03  0.35923215889E+04  0.35900282364E+04 0.  0.
        4    1    3    3  502    0 -0.95417686616E+03  0.16336226707E+03  0.14483942453E+04  0.17421217595E+04  0.12699999809E+01 0.  1.
       -4    1    3    3    0  502  0.95417686616E+03 -0.16336226707E+03 -0.15767362092E+04  0.18501998294E+04  0.12699999809E+01 0. -1.
</event>
<event>
 5   0  0.2238968E-07  0.3600033E+04  0.7818609E-02  0.8090484E-01
       -2   -1    0    0    0  501  0.00000000000E+00  0.00000000000E+00  0.12601457673E+04  0.12601457673E+04  0.25500000920E-02 0. -1.
        2   -1    0    0  501    0  0.00000000000E+00  0.00000000000E+00 -0.25711777375E+04  0.25711777375E+04  0.25500000920E-02 0.  1.
    10030    2    1    2    0    0  0.00000000000E+00  0.00000000000E+00 -0.13110319702E+04  0.38313235048E+04  0.36000326348E+04 0.  0.
        3    1    3    3  502    0 -0.27386667373E+03 -0.25552046564E+03 -0.25292449754E+04  0.25568288600E+04  0.10100000352E+00 0.  1.
       -3    1    3    3    0  502  0.27386667373E+03  0.25552046564E+03  0.12182130052E+04  0.12744946448E+04  0.10100000352E+00 0. -1.
</event>
<event>
 5   0  0.7347303E-08  0.3634382E+04  0.7818609E-02  0.8082661E-01
        1   -1    0    0  501    0  0.00000000000E+00  0.00000000000E+00  0.20706507334E+04  0.20706507335E+04  0.50400001928E-02 0. -1.
       -1   -1    0    0    0  501  0.00000000000E+00  0.00000000000E+00 -0.15947561382E+04  0.15947561382E+04  0.50400001928E-02 0.  1.
    10030    2    1    2    0    0  0.00000000000E+00  0.00000000000E+00  0.47589459526E+03  0.36654068716E+04  0.36343819102E+04 0.  0.
        2    1    3    3  502    0  0.12198829051E+04 -0.70584636494E+03 -0.91894984834E+03  0.16824988014E+04  0.25500000920E-02 0.  1.
       -2    1    3    3    0  502 -0.12198829051E+04  0.70584636494E+03  0.13948444436E+04  0.19829080702E+04  0.25500000920E-02 0. -1.
</event>
<event>
 5   0  0.7347303E-08  0.3625790E+04  0.7818609E-02  0.8084610E-01
       -1   -1    0    0    0  501  0.00000000000E+00  0.00000000000E+00  0.11113257710E+04  0.11113257710E+04  0.50400001928E-02 0. -1.
        1   -1    0    0  501    0  0.00000000000E+00  0.00000000000E+00 -0.29573582202E+04  0.29573582203E+04  0.50400001928E-02 0.  1.
    10030    2    1    2    0    0  0.00000000000E+00  0.00000000000E+00 -0.18460324492E+04  0.40686839913E+04  0.36257900680E+04 0.  0.
        2    1    3    3  502    0  0.93175894170E+03  0.15188857693E+02  0.82198559838E+03  0.12426044225E+04  0.25500000920E-02 0. -1.
       -2    1    3    3    0  502 -0.93175894170E+03 -0.15188857693E+02 -0.26680180476E+04  0.28260795688E+04  0.25500000920E-02 0.  1.
</event>
<event>
 5   0  0.7236375E-08  0.3580283E+04  0.7818609E-02  0.8095023E-01
       -3   -1    0    0    0  501  0.00000000000E+00  0.00000000000E+00  0.11335411927E+04  0.11335411972E+04  0.10100000352E+00 0.  1.
        3   -1    0    0  501    0  0.00000000000E+00  0.00000000000E+00 -0.28270754518E+04  0.28270754536E+04  0.10100000352E+00 0. -1.
    10030    2    1    2    0    0  0.00000000000E+00  0.00000000000E+00 -0.16935342591E+04  0.39606166507E+04  0.35802829451E+04 0.  0.
        5    1    3    3  502    0  0.12936286845E+04  0.99829852145E+03 -0.16555335073E+04  0.23261316375E+04  0.46999998093E+01 0. -1.
       -5    1    3    3    0  502 -0.12936286845E+04 -0.99829852145E+03 -0.38000751791E+02  0.16344850132E+04  0.46999998093E+01 0.  1.
</event>
<event>
 5   0  0.7514289E-08  0.3643581E+04  0.7818609E-02  0.8080581E-01
       -1   -1    0    0    0  501  0.00000000000E+00  0.00000000000E+00  0.12383459985E+04  0.12383459985E+04  0.50400001928E-02 0.  1.
        1   -1    0    0  501    0  0.00000000000E+00  0.00000000000E+00 -0.26801238475E+04  0.26801238475E+04  0.50400001928E-02 0. -1.
    10030    2    1    2    0    0  0.00000000000E+00  0.00000000000E+00 -0.14417778490E+04  0.39184698459E+04  0.36435810088E+04 0.  0.
        4    1    3    3  502    0 -0.14121182171E+04  0.75000794284E+03 -0.16598754772E+04  0.23047294822E+04  0.12699999809E+01 0. -1.
       -4    1    3    3    0  502  0.14121182171E+04 -0.75000794284E+03  0.21809762817E+03  0.16137403638E+04  0.12699999809E+01 0.  1.
</event>
<event>
 5   0  0.7261233E-08  0.3608970E+04  0.7818609E-02  0.8088440E-01
        1   -1    0    0  501    0  0.00000000000E+00  0.00000000000E+00  0.21689767617E+04  0.21689767617E+04  0.50400001928E-02 0. -1.
       -1   -1    0    0    0  501  0.00000000000E+00  0.00000000000E+00 -0.15012453781E+04  0.15012453781E+04  0.50400001928E-02 0.  1.
    10030    2    1    2    0    0  0.00000000000E+00  0.00000000000E+00  0.66773138360E+03  0.36702221397E+04  0.36089701238E+04 0.  0.
        3    1    3    3  502    0  0.14821142267E+04 -0.11019114138E+03 -0.70691062168E+03  0.16457604035E+04  0.10100000352E+00 0.  1.
       -3    1    3    3    0  502 -0.14821142267E+04  0.11019114138E+03  0.13746420053E+04  0.20244617362E+04  0.10100000352E+00 0. -1.
</event>
<event>
 5   0  0.2309391E-07  0.3577595E+04  0.7818609E-02  0.8095643E-01
        2   -1    0    0  501    0  0.00000000000E+00  0.00000000000E+00  0.17104565712E+04  0.17104565712E+04  0.25500000920E-02 0. -1.
       -2   -1    0    0    0  501  0.00000000000E+00  0.00000000000E+00 -0.18707266896E+04  0.18707266896E+04  0.25500000920E-02 0.  1.
    10030    2    1    2    0    0  0.00000000000E+00  0.00000000000E+00 -0.16027011836E+03  0.35811832608E+04  0.35775951471E+04 0.  0.
        4    1    3    3  502    0 -0.12654006796E+04  0.12517734260E+04  0.97862168923E+02  0.17826256497E+04  0.12699999809E+01 0. -1.
       -4    1    3    3    0  502  0.12654006796E+04 -0.12517734260E+04 -0.25813228728E+03  0.17985576111E+04  0.12699999809E+01 0.  1.
</event>
<event>
 5   0  0.2342606E-07  0.3600146E+04  0.7818609E-02  0.8090458E-01
        2   -1    0    0  501    0  0.00000000000E+00  0.00000000000E+00  0.22104713976E+04  0.22104713976E+04  0.25500000920E-02 0. -1.
       -2   -1    0    0    0  501  0.00000000000E+00  0.00000000000E+00 -0.14658699717E+04  0.14658699717E+04  0.25500000920E-02 0.  1.
    10030    2    1    2    0    0  0.00000000000E+00  0.00000000000E+00  0.74460142591E+03  0.36763413694E+04  0.36001464665E+04 0.  0.
        5    1    3    3  502    0  0.14938188881E+04 -0.39070422027E+03 -0.57253678968E+03  0.16468045190E+04  0.46999998093E+01 0.  1.
       -5    1    3    3    0  502 -0.14938188881E+04  0.39070422027E+03  0.13171382156E+04  0.20295368504E+04  0.46999998093E+01 0. -1.
</event>
<event>
 5   0  0.7236375E-08  0.3616547E+04  0.7818609E-02  0.8086712E-01
       -1   -1    0    0    0  501  0.00000000000E+00  0.00000000000E+00  0.26268846606E+04  0.26268846607E+04  0.50400001928E-02 0. -1.
        1   -1    0    0  501    0  0.00000000000E+00  0.00000000000E+00 -0.12447647756E+04  0.12447647757E+04  0.50400001928E-02 0.  1.
    10030    2    1    2    0    0  0.00000000000E+00  0.00000000000E+00  0.13821198850E+04  0.38716494363E+04  0.36165472458E+04 0.  0.
        5    1    3    3  502    0 -0.44455521775E+03  0.15894597825E+04  0.14819688602E+04  0.22181671565E+04  0.46999998093E+01 0. -1.
       -5    1    3    3    0  502  0.44455521775E+03 -0.15894597825E+04 -0.99848975149E+02  0.16534822798E+04  0.46999998093E+01 0.  1.
</event>
<event>
 5   0  0.2199902E-07  0.3605896E+04  0.7818609E-02  0.8089142E-01
       -2   -1    0    0    0  501  0.00000000000E+00  0.00000000000E+00  0.14705048052E+04  0.14705048052E+04  0.25500000920E-02 0.  1.
        2   -1    0    0  501    0  0.00000000000E+00  0.00000000000E+00 -0.22105482305E+04  0.22105482305E+04  0.25500000920E-02 0. -1.
    10030    2    1    2    0    0  0.00000000000E+00  0.00000000000E+00 -0.74004342531E+03  0.36810530358E+04  0.36058961689E+04 0.  0.
        1    1    3    3  502    0 -0.14639563607E+04 -0.47556915280E+03 -0.13283574307E+04  0.20331915082E+04  0.50400001928E-02 0. -1.
       -1    1    3    3    0  502  0.14639563607E+04  0.47556915280E+03  0.58831400535E+03  0.16478615276E+04  0.50400001928E-02 0.  1.
</event>
<event>
 5   0  0.2198900E-07  0.3593111E+04  0.7818609E-02  0.8092072E-01
       -2   -1    0    0    0  501  0.00000000000E+00  0.00000000000E+00  0.16763347873E+04  0.16763347873E+04  0.25500000920E-02 0. -1.
        2   -1    0    0  501    0  0.00000000000E+00  0.00000000000E+00 -0.19253977872E+04  0.19253977872E+04  0.25500000920E-02 0.  1.
    10030    2    1    2    0    0  0.00000000000E+00  0.00000000000E+00 -0.24906299989E+03  0.36017325746E+04  0.35931107916E+04 0.  0.
        2    1    3    3  502    0 -0.12019313285E+04  0.54714927643E+03 -0.13454854195E+04  0.18852963330E+04  0.25500000920E-02 0.  1.
       -2    1    3    3    0  502  0.12019313285E+04 -0.54714927643E+03  0.10964224196E+04  0.17164362416E+04  0.25500000920E-02 0. -1.
</event>
<event>
 5   0  0.2198900E-07  0.3598530E+04  0.7818609E-02  0.8090829E-01
       -2   -1    0    0    0  501  0.00000000000E+00  0.00000000000E+00  0.23205811231E+04  0.23205811231E+04  0.25500000920E-02 0. -1.
        2   -1    0    0  501    0  0.00000000000E+00  0.00000000000E+00 -0.13950619298E+04  0.13950619298E+04  0.25500000920E-02 0.  1.
    10030    2    1    2    0    0  0.00000000000E+00  0.00000000000E+00  0.92551919324E+03  0.37156430529E+04  0.35985299109E+04 0.  0.
        2    1    3    3  502    0  0.29279497710E+03 -0.90423111672E+03  0.20402201610E+04  0.22507467909E+04  0.25500000920E-02 0. -1.
       -2    1    3    3    0  502 -0.29279497710E+03  0.90423111672E+03 -0.11147009678E+04  0.14648962621E+04  0.25500000920E-02 0.  1.
</event>
<event>
 5   0  0.7514289E-08  0.3344358E+04  0.7818609E-02  0.8151699E-01
        1   -1    0    0  501    0  0.00000000000E+00  0.00000000000E+00  0.25204206445E+04  0.25204206445E+04  0.50400001928E-02 0. -1.
       -1   -1    0    0    0  501  0.00000000000E+00  0.00000000000E+00 -0.11094114176E+04  0.11094114176E+04  0.50400001928E-02 0.  1.
    10030    2    1    2    0    0  0.00000000000E+00  0.00000000000E+00  0.14110092269E+04  0.36298320621E+04  0.33443584977E+04 0.  0.
        4    1    3    3  502    0 -0.94226954241E+00 -0.22100529091E+03  0.25044986434E+04  0.25142313525E+04  0.12699999809E+01 0. -1.
       -4    1    3    3    0  502  0.94226954241E+00  0.22100529091E+03 -0.10934894165E+04  0.11156007096E+04  0.12699999809E+01 0.  1.
</event>
<event>
 5   0  0.7236375E-08  0.3621499E+04  0.7818609E-02  0.8085585E-01
        1   -1    0    0  501    0  0.00000000000E+00  0.00000000000E+00  0.21491167651E+04  0.21491167652E+04  0.50400001928E-02 0. -1.
       -1   -1    0    0    0  501  0.00000000000E+00  0.00000000000E+00 -0.15256560549E+04  0.15256560549E+04  0.50400001928E-02 0.  1.
    10030    2    1    2    0    0  0.00000000000E+00  0.00000000000E+00  0.62346071028E+03  0.36747728200E+04  0.36214985878E+04 0.  0.
        1    1    3    3  502    0  0.17637608166E+04  0.26903115340E+03 -0.19826786017E+01  0.17841619631E+04  0.50400001928E-02 0.  1.
       -1    1    3    3    0  502 -0.17637608166E+04 -0.26903115340E+03  0.62544338888E+03  0.18906108569E+04  0.50400001928E-02 0. -1.
</event>
<event>
 5   0  0.2342606E-07  0.3625823E+04  0.7818609E-02  0.8084602E-01
       -2   -1    0    0    0  501  0.00000000000E+00  0.00000000000E+00  0.16064633235E+04  0.16064633235E+04  0.25500000920E-02 0.  1.
        2   -1    0    0  501    0  0.00000000000E+00  0.00000000000E+00 -0.20458906328E+04  0.20458906328E+04  0.25500000920E-02 0. -1.
    10030    2    1    2    0    0  0.00000000000E+00  0.00000000000E+00 -0.43942730924E+03  0.36523539563E+04  0.36258230875E+04 0.  0.
        5    1    3    3  502    0  0.55023412682E+01  0.10870261426E+04 -0.16811813202E+04  0.20020111967E+04  0.46999998093E+01 0. -1.
       -5    1    3    3    0  502 -0.55023412682E+01 -0.10870261426E+04  0.12417540109E+04  0.16503427596E+04  0.46999998093E+01 0.  1.
</event>
<event>
 5   0  0.7236375E-08  0.3596001E+04  0.7818609E-02  0.8091408E-01
        1   -1    0    0  501    0  0.00000000000E+00  0.00000000000E+00  0.19905524093E+04  0.19905524093E+04  0.50400001928E-02 0. -1.
       -1   -1    0    0    0  501  0.00000000000E+00  0.00000000000E+00 -0.16240751341E+04  0.16240751341E+04  0.50400001928E-02 0.  1.
    10030    2    1    2    0    0  0.00000000000E+00  0.00000000000E+00  0.36647727517E+03  0.36146275434E+04  0.35960014856E+04 0.  0.
        5    1    3    3  502    0 -0.66216848390E+03  0.15641583916E+04  0.77597596443E+03  0.18674098003E+04  0.46999998093E+01 0. -1.
       -5    1    3    3    0  502  0.66216848390E+03 -0.15641583916E+04 -0.40949868926E+03  0.17472177430E+04  0.46999998093E+01 0.  1.
</event>
<event>
 5   0  0.2198900E-07  0.3718499E+04  0.7818609E-02  0.8063875E-01
        2   -1    0    0  501    0  0.00000000000E+00  0.00000000000E+00  0.24444574558E+04  0.24444574558E+04  0.25500000920E-02 0. -1.
       -2   -1    0    0    0  501  0.00000000000E+00  0.00000000000E+00 -0.14141412328E+04  0.14141412328E+04  0.25500000920E-02 0.  1.
    10030    2    1    2    0    0  0.00000000000E+00  0.00000000000E+00  0.10303162230E+04  0.38585986887E+04  0.37184986649E+04 0.  0.
        2    1    3    3  502    0  0.83625688306E+03  0.58425197699E+03 -0.10977971558E+04  0.14986108709E+04  0.25500000920E-02 0.  1.
       -2    1    3    3    0  502 -0.83625688306E+03 -0.58425197699E+03  0.21281133788E+04  0.23599878178E+04  0.25500000920E-02 0. -1.
</event>
<event>
 5   0  0.2309391E-07  0.3593613E+04  0.7818609E-02  0.8091956E-01
       -2   -1    0    0    0  501  0.00000000000E+00  0.00000000000E+00  0.11093487584E+04  0.11093487584E+04  0.25500000920E-02 0.  1.
        2   -1    0    0  501    0  0.00000000000E+00  0.00000000000E+00 -0.29102778123E+04  0.29102778123E+04  0.25500000920E-02 0. -1.
    10030    2    1    2    0    0  0.00000000000E+00  0.00000000000E+00 -0.18009290539E+04  0.40196265706E+04  0.35936127101E+04 0.  0.
        4    1    3    3  502    0  0.15787908594E+04  0.85400111261E+03 -0.99142511401E+03  0.20505667138E+04  0.12699999809E+01 0. -1.
       -4    1    3    3    0  502 -0.15787908594E+04 -0.85400111261E+03 -0.80950393987E+03  0.19690598568E+04  0.12699999809E+01 0.  1.
</event>
<event>
 5   0  0.7514289E-08  0.3358170E+04  0.7818609E-02  0.8148250E-01
        1   -1    0    0  501    0  0.00000000000E+00  0.00000000000E+00  0.22452156916E+04  0.22452156916E+04  0.50400001928E-02 0.  1.
       -1   -1    0    0    0  501  0.00000000000E+00  0.00000000000E+00 -0.12557040719E+04  0.12557040719E+04  0.50400001928E-02 0. -1.
    10030    2    1    2    0    0  0.00000000000E+00  0.00000000000E+00  0.98951161963E+03  0.35009197635E+04  0.33581700292E+04 0.  0.
        4    1    3    3  502    0  0.93958311416E+02 -0.70445962421E+03  0.20806822868E+04  0.21987114222E+04  0.12699999809E+01 0.  1.
       -4    1    3    3    0  502 -0.93958311416E+02  0.70445962421E+03 -0.10911706672E+04  0.13022083413E+04  0.12699999809E+01 0. -1.
</event>
<event>
 5   0  0.2342606E-07  0.3577560E+04  0.7818609E-02  0.8095651E-01
        2   -1    0    0  501    0  0.00000000000E+00  0.00000000000E+00  0.15294799003E+04  0.15294799003E+04  0.25500000920E-02 0. -1.
       -2   -1    0    0    0  501  0.00000000000E+00  0.00000000000E+00 -0.20920404097E+04  0.20920404097E+04  0.25500000920E-02 0.  1.
    10030    2    1    2    0    0  0.00000000000E+00  0.00000000000E+00 -0.56256050938E+03  0.36215203099E+04  0.35775599266E+04 0.  0.
        5    1    3    3  502    0  0.33520433007E+03  0.16074968380E+04 -0.99943666858E+03  0.19223172921E+04  0.46999998093E+01 0.  1.
       -5    1    3    3    0  502 -0.33520433007E+03 -0.16074968380E+04  0.43687615920E+03  0.16992030178E+04  0.46999998093E+01 0. -1.
</event>
<event>
 5   0  0.2238968E-07  0.3605779E+04  0.7818609E-02  0.8089169E-01
        2   -1    0    0  501    0  0.00000000000E+00  0.00000000000E+00  0.20350281857E+04  0.20350281857E+04  0.25500000920E-02 0. -1.
       -2   -1    0    0    0  501  0.00000000000E+00  0.00000000000E+00 -0.15972315972E+04  0.15972315972E+04  0.25500000920E-02 0.  1.
    10030    2    1    2    0    0  0.00000000000E+00  0.00000000000E+00  0.43779658845E+03  0.36322597829E+04  0.36057794272E+04 0.  0.
        3    1    3    3  502    0 -0.35261503011E+02 -0.11483567303E+04 -0.11807097647E+04  0.16474350100E+04  0.10100000352E+00 0.  1.
       -3    1    3    3    0  502  0.35261503011E+02  0.11483567303E+04  0.16185063532E+04  0.19848247729E+04  0.10100000352E+00 0. -1.
</event>
<event>
 5   0  0.2309391E-07  0.3557212E+04  0.7818609E-02  0.8100364E-01
       -2   -1    0    0    0  501  0.00000000000E+00  0.00000000000E+00  0.13185807847E+04  0.13185807848E+04  0.25500000920E-02 0.  1.
        2   -1    0    0  501    0  0.00000000000E+00  0.00000000000E+00 -0.23991245876E+04  0.23991245876E+04  0.25500000920E-02 0. -1.
    10030    2    1    2    0    0  0.00000000000E+00  0.00000000000E+00 -0.10805438029E+04  0.37177053724E+04  0.35572121564E+04 0.  0.
        4    1    3    3  502    0  0.13359152621E+04 -0.22605833466E+03 -0.17445023936E+04  0.22088599259E+04  0.12699999809E+01 0. -1.
       -4    1    3    3    0  502 -0.13359152621E+04  0.22605833466E+03  0.66395859078E+03  0.15088454464E+04  0.12699999809E+01 0.  1.
</event>
<event>
 5   0  0.7347303E-08  0.3595052E+04  0.7818609E-02  0.8091626E-01
       -1   -1    0    0    0  501  0.00000000000E+00  0.00000000000E+00  0.30160558333E+04  0.30160558333E+04  0.50400001928E-02 0.  1.
        1   -1    0    0  501    0  0.00000000000E+00  0.00000000000E+00 -0.10712995546E+04  0.10712995546E+04  0.50400001928E-02 0. -1.
    10030    2    1    2    0    0  0.00000000000E+00  0.00000000000E+00  0.19447562787E+04  0.40873553879E+04  0.35950517498E+04 0.  0.
        2    1    3    3  502    0 -0.90919313659E+03  0.62594069978E+02  0.27339183052E+04  0.28818153092E+04  0.25500000920E-02 0.  1.
       -2    1    3    3    0  502  0.90919313659E+03 -0.62594069978E+02 -0.78916202649E+03  0.12055400787E+04  0.25500000920E-02 0. -1.
</event>
<event>
 5   0  0.2238968E-07  0.3564587E+04  0.7818609E-02  0.8098652E-01
        2   -1    0    0  501    0  0.00000000000E+00  0.00000000000E+00  0.14705119477E+04  0.14705119477E+04  0.25500000920E-02 0.  1.
       -2   -1    0    0    0  501  0.00000000000E+00  0.00000000000E+00 -0.21601796797E+04  0.21601796797E+04  0.25500000920E-02 0. -1.
    10030    2    1    2    0    0  0.00000000000E+00  0.00000000000E+00 -0.68966773197E+03  0.36306916274E+04  0.35645869485E+04 0.  0.
        3    1    3    3  502    0 -0.28077237060E+03  0.17178335881E+04  0.45395980399E+02  0.17412197351E+04  0.10100000352E+00 0.  1.
       -3    1    3    3    0  502  0.28077237060E+03 -0.17178335881E+04 -0.73506371237E+03  0.18894718924E+04  0.10100000352E+00 0. -1.
</event>
<event>
 5   0  0.7236375E-08  0.3606187E+04  0.7818609E-02  0.8089076E-01
        1   -1    0    0  501    0  0.00000000000E+00  0.00000000000E+00  0.15966941463E+04  0.15966941463E+04  0.50400001928E-02 0. -1.
       -1   -1    0    0    0  501  0.00000000000E+00  0.00000000000E+00 -0.20361732235E+04  0.20361732235E+04  0.50400001928E-02 0.  1.
    10030    2    1    2    0    0  0.00000000000E+00  0.00000000000E+00 -0.43947907726E+03  0.36328673698E+04  0.36061868320E+04 0.  0.
        5    1    3    3  502    0 -0.27163978410E+03 -0.82477055032E+03  0.13721698453E+04  0.16238555377E+04  0.46999998093E+01 0. -1.
       -5    1    3    3    0  502  0.27163978410E+03  0.82477055032E+03 -0.18116489225E+04  0.20090118321E+04  0.46999998093E+01 0.  1.
</event>
<event>
 5   0  0.2309391E-07  0.3562762E+04  0.7818609E-02  0.8099075E-01
        2   -1    0    0  501    0  0.00000000000E+00  0.00000000000E+00  0.20033235350E+04  0.20033235350E+04  0.25500000920E-02 0. -1.
       -2   -1    0    0    0  501  0.00000000000E+00  0.00000000000E+00 -0.15840267658E+04  0.15840267658E+04  0.25500000920E-02 0.  1.
    10030    2    1    2    0    0  0.00000000000E+00  0.00000000000E+00  0.41929676917E+03  0.35873503008E+04  0.35627619061E+04 0.  0.
        4    1    3    3  502    0 -0.16636435391E+04  0.26829514274E+03  0.79123697211E+03  0.18616524025E+04  0.12699999809E+01 0. -1.
       -4    1    3    3    0  502  0.16636435391E+04 -0.26829514274E+03 -0.37194020294E+03  0.17256978983E+04  0.12699999809E+01 0.  1.
</event>
<event>
 5   0  0.7236375E-08  0.3588262E+04  0.7818609E-02  0.8093186E-01
       -1   -1    0    0    0  501  0.00000000000E+00  0.00000000000E+00  0.11549024364E+04  0.11549024364E+04  0.50400001928E-02 0.  1.
        1   -1    0    0  501    0  0.00000000000E+00  0.00000000000E+00 -0.27871674407E+04  0.27871674407E+04  0.50400001928E-02 0. -1.
    10030    2    1    2    0    0  0.00000000000E+00  0.00000000000E+00 -0.16322650043E+04  0.39420698771E+04  0.35882622356E+04 0.  0.
        1    1    3    3  502    0 -0.48095978326E+03  0.62078463253E+03  0.95606191569E+03  0.12372349251E+04  0.50400001928E-02 0.  1.
       -1    1    3    3    0  502  0.48095978326E+03 -0.62078463253E+03 -0.25883269200E+04  0.27048349520E+04  0.50400001928E-02 0. -1.
</event>
<event>
 5   0  0.2342606E-07  0.3599204E+04  0.7818609E-02  0.8090674E-01
        2   -1    0    0  501    0  0.00000000000E+00  0.00000000000E+00  0.21902144589E+04  0.21902144589E+04  0.25500000920E-02 0. -1.
       -2   -1    0    0    0  501  0.00000000000E+00  0.00000000000E+00 -0.14786532336E+04  0.14786532336E+04  0.25500000920E-02 0.  1.
    10030    2    1    2    0    0  0.00000000000E+00  0.00000000000E+00  0.71156122528E+03  0.36688676925E+04  0.35992041854E+04 0.  0.
        5    1    3    3  502    0  0.29230803696E+03  0.13234862555E+04 -0.85097661225E+03  0.16003884346E+04  0.46999998093E+01 0.  1.
       -5    1    3    3    0  502 -0.29230803696E+03 -0.13234862555E+04  0.15625378375E+04  0.20684792580E+04  0.46999998093E+01 0. -1.
</event>
<event>
 5   0  0.7236375E-08  0.3655375E+04  0.7818609E-02  0.8077924E-01
        1   -1    0    0  501    0  0.00000000000E+00  0.00000000000E+00  0.16509478564E+04  0.16509478564E+04  0.50400001928E-02 0. -1.
       -1   -1    0    0    0  501  0.00000000000E+00  0.00000000000E+00 -0.20233472223E+04  0.20233472223E+04  0.50400001928E-02 0.  1.
    10030    2    1    2    0    0  0.00000000000E+00  0.00000000000E+00 -0.37239936598E+03  0.36742950787E+04  0.36553745414E+04 0.  0.
        5    1    3    3  502    0  0.15449719861E+04 -0.50577207254E+03 -0.10257924330E+04  0.19222424490E+04  0.46999998093E+01 0.  1.
       -5    1    3    3    0  502 -0.15449719861E+04  0.50577207254E+03  0.65339306698E+03  0.17520526297E+04  0.46999998093E+01 0. -1.
</event>
<event>
 5   0  0.7236375E-08  0.3608386E+04  0.7818609E-02  0.8088574E-01
       -1   -1    0    0    0  501  0.00000000000E+00  0.00000000000E+00  0.17254415554E+04  0.17254415554E+04  0.50400001928E-02 0.  1.
        1   -1    0    0  501    0  0.00000000000E+00  0.00000000000E+00 -0.18865385620E+04  0.18865385621E+04  0.50400001928E-02 0. -1.
    10030    2    1    2    0    0  0.00000000000E+00  0.00000000000E+00 -0.16109700668E+03  0.36119801174E+04  0.36083858058E+04 0.  0.
        5    1    3    3  502    0  0.22424784617E+03 -0.78519656654E+03 -0.16909609077E+04  0.18778156528E+04  0.46999998093E+01 0. -1.
       -5    1    3    3    0  502 -0.22424784617E+03  0.78519656654E+03  0.15298639010E+04  0.17341644646E+04  0.46999998093E+01 0.  1.
</event>
<event>
 5   0  0.2342606E-07  0.3582796E+04  0.7818609E-02  0.8094444E-01
        2   -1    0    0  501    0  0.00000000000E+00  0.00000000000E+00  0.16238094403E+04  0.16238094403E+04  0.25500000920E-02 0. -1.
       -2   -1    0    0    0  501  0.00000000000E+00  0.00000000000E+00 -0.19762830665E+04  0.19762830665E+04  0.25500000920E-02 0.  1.
    10030    2    1    2    0    0  0.00000000000E+00  0.00000000000E+00 -0.35247362624E+03  0.36000925068E+04  0.35827961707E+04 0.  0.
        5    1    3    3  502    0 -0.11481421931E+03 -0.58751831694E+03 -0.18727967846E+04  0.19661510533E+04  0.46999998093E+01 0.  1.
       -5    1    3    3    0  502  0.11481421931E+03  0.58751831694E+03  0.15203231584E+04  0.16339414536E+04  0.46999998093E+01 0. -1.
</event>
<event>
 5   0  0.7514289E-08  0.3609604E+04  0.7818609E-02  0.8088295E-01
        1   -1    0    0  501    0  0.00000000000E+00  0.00000000000E+00  0.13003227067E+04  0.13003227067E+04  0.50400001928E-02 0. -1.
       -1   -1    0    0    0  501  0.00000000000E+00  0.00000000000E+00 -0.25050013201E+04  0.25050013201E+04  0.50400001928E-02 0.  1.
    10030    2    1    2    0    0  0.00000000000E+00  0.00000000000E+00 -0.12046786134E+04  0.38053240268E+04  0.36096039100E+04 0.  0.
        4    1    3    3  502    0 -0.15744978245E+04 -0.76868578933E+03 -0.14598505162E+03  0.17581906865E+04  0.12699999809E+01 0. -1.
       -4    1    3    3    0  502  0.15744978245E+04  0.76868578933E+03 -0.10586935618E+04  0.20471333402E+04  0.12699999809E+01 0.  1.
</event>
<event>
 5   0  0.7514289E-08  0.3608483E+04  0.7818609E-02  0.8088551E-01
        1   -1    0    0  501    0  0.00000000000E+00  0.00000000000E+00  0.20958322814E+04  0.20958322814E+04  0.50400001928E-02 0.  1.
       -1   -1    0    0    0  501  0.00000000000E+00  0.00000000000E+00 -0.15532194833E+04  0.15532194833E+04  0.50400001928E-02 0. -1.
    10030    2    1    2    0    0  0.00000000000E+00  0.00000000000E+00  0.54261279816E+03  0.36490517647E+04  0.36084830792E+04 0.  0.
        4    1    3    3  502    0 -0.53718897377E+02  0.67654200657E+03 -0.14192211717E+04  0.15731449882E+04  0.12699999809E+01 0. -1.
       -4    1    3    3    0  502  0.53718897377E+02 -0.67654200657E+03  0.19618339699E+04  0.20759067766E+04  0.12699999809E+01 0.  1.
</event>
<event>
 5   0  0.7236375E-08  0.3574773E+04  0.7818609E-02  0.8096295E-01
        1   -1    0    0  501    0  0.00000000000E+00  0.00000000000E+00  0.11049461764E+04  0.11049461764E+04  0.50400001928E-02 0.  1.
       -1   -1    0    0    0  501  0.00000000000E+00  0.00000000000E+00 -0.28913183423E+04  0.28913183423E+04  0.50400001928E-02 0. -1.
    10030    2    1    2    0    0  0.00000000000E+00  0.00000000000E+00 -0.17863721660E+04  0.39962645187E+04  0.35747733618E+04 0.  0.
        5    1    3    3  502    0 -0.16359645304E+04  0.36105081538E+03 -0.19685340649E+03  0.16868642475E+04  0.46999998093E+01 0.  1.
       -5    1    3    3    0  502  0.16359645304E+04 -0.36105081538E+03 -0.15895187595E+04  0.23094002712E+04  0.46999998093E+01 0. -1.
</event>
<event>
 5   0  0.7514289E-08  0.3578379E+04  0.7818609E-02  0.8095462E-01
       -1   -1    0    0    0  501  0.00000000000E+00  0.00000000000E+00  0.19406876476E+04  0.19406876476E+04  0.50400001928E-02 0. -1.
        1   -1    0    0  501    0  0.00000000000E+00  0.00000000000E+00 -0.16495176428E+04  0.16495176428E+04  0.50400001928E-02 0.  1.
    10030    2    1    2    0    0  0.00000000000E+00  0.00000000000E+00  0.29117000477E+03  0.35902052904E+04  0.35783786909E+04 0.  0.
        4    1    3    3  502    0  0.59870837855E+03 -0.36288855502E+02  0.18368097857E+04  0.19322630269E+04  0.12699999809E+01 0. -1.
       -4    1    3    3    0  502 -0.59870837855E+03  0.36288855502E+02 -0.15456397809E+04  0.16579422634E+04  0.12699999809E+01 0.  1.
</event>
<event>
 5   0  0.7514289E-08  0.3603974E+04  0.7818609E-02  0.8089582E-01
        1   -1    0    0  501    0  0.00000000000E+00  0.00000000000E+00  0.19799786402E+04  0.19799786402E+04  0.50400001928E-02 0.  1.
       -1   -1    0    0    0  501  0.00000000000E+00  0.00000000000E+00 -0.16399962567E+04  0.16399962567E+04  0.50400001928E-02 0. -1.
    10030    2    1    2    0    0  0.00000000000E+00  0.00000000000E+00  0.33998238348E+03  0.36199748969E+04  0.36039742276E+04 0.  0.
        4    1    3    3  502    0 -0.54276774990E+03  0.10106996080E+04  0.15657813328E+04  0.19410778765E+04  0.12699999809E+01 0.  1.
       -4    1    3    3    0  502  0.54276774990E+03 -0.10106996080E+04 -0.12257989493E+04  0.16788970203E+04  0.12699999809E+01 0. -1.
</event>
<event>
 5   0  0.7514289E-08  0.3589825E+04  0.7818609E-02  0.8092826E-01
       -1   -1    0    0    0  501  0.00000000000E+00  0.00000000000E+00  0.23712976507E+04  0.23712976507E+04  0.50400001928E-02 0.  1.
        1   -1    0    0  501    0  0.00000000000E+00  0.00000000000E+00 -0.13586279883E+04  0.13586279884E+04  0.50400001928E-02 0. -1.
    10030    2    1    2    0    0  0.00000000000E+00  0.00000000000E+00  0.10126696623E+04  0.37299256390E+04  0.35898252642E+04 0.  0.
        4    1    3    3  502    0  0.76559000320E+03 -0.15013487289E+04 -0.13545570347E+03  0.16907175753E+04  0.12699999809E+01 0.  1.
       -4    1    3    3    0  502 -0.76559000320E+03  0.15013487289E+04  0.11481253658E+04  0.20392080637E+04  0.12699999809E+01 0. -1.
</event>
<event>
 5   0  0.7236375E-08  0.3561272E+04  0.7818609E-02  0.8099421E-01
       -1   -1    0    0    0  501  0.00000000000E+00  0.00000000000E+00  0.12626333205E+04  0.12626333205E+04  0.50400001928E-02 0.  1.
        1   -1    0    0  501    0  0.00000000000E+00  0.00000000000E+00 -0.25111528049E+04  0.25111528049E+04  0.50400001928E-02 0. -1.
    10030    2    1    2    0    0  0.00000000000E+00  0.00000000000E+00 -0.12485194843E+04  0.37737861254E+04  0.35612723593E+04 0.  0.
        1    1    3    3  502    0 -0.75756141680E+03 -0.87868129385E+03 -0.20556763636E+04  0.23604629691E+04  0.50400001928E-02 0. -1.
       -1    1    3    3    0  502  0.75756141680E+03  0.87868129385E+03  0.80715687927E+03  0.14133231563E+04  0.50400001928E-02 0.  1.
</event>
<event>
 5   0  0.2198900E-07  0.3582052E+04  0.7818609E-02  0.8094615E-01
       -2   -1    0    0    0  501  0.00000000000E+00  0.00000000000E+00  0.16149256329E+04  0.16149256329E+04  0.25500000920E-02 0. -1.
        2   -1    0    0  501    0  0.00000000000E+00  0.00000000000E+00 -0.19863293021E+04  0.19863293021E+04  0.25500000920E-02 0.  1.
    10030    2    1    2    0    0  0.00000000000E+00  0.00000000000E+00 -0.37140366922E+03  0.36012549351E+04  0.35820519848E+04 0.  0.
        2    1    3    3  502    0  0.96397191524E+02  0.10759119534E+04 -0.16219594007E+04  0.19487512021E+04  0.25500000920E-02 0.  1.
       -2    1    3    3    0  502 -0.96397191524E+02 -0.10759119534E+04  0.12505557315E+04  0.16525037330E+04  0.25500000920E-02 0. -1.
</event>
<event>
 5   0  0.7236375E-08  0.3608609E+04  0.7818609E-02  0.8088523E-01
        1   -1    0    0  501    0  0.00000000000E+00  0.00000000000E+00  0.16245834013E+04  0.16245834013E+04  0.50400001928E-02 0. -1.
       -1   -1    0    0    0  501  0.00000000000E+00  0.00000000000E+00 -0.20039074002E+04  0.20039074002E+04  0.50400001928E-02 0.  1.
    10030    2    1    2    0    0  0.00000000000E+00  0.00000000000E+00 -0.37932399897E+03  0.36284908015E+04  0.36086089841E+04 0.  0.
        1    1    3    3  502    0 -0.77289353770E+02 -0.17846319057E+04  0.65963006719E+02  0.17875222520E+04  0.50400001928E-02 0. -1.
       -1    1    3    3    0  502  0.77289353770E+02  0.17846319057E+04 -0.44528700569E+03  0.18409685495E+04  0.50400001928E-02 0.  1.
</event>
<event>
 5   0  0.7236375E-08  0.3593295E+04  0.7818609E-02  0.8092029E-01
        1   -1    0    0  501    0  0.00000000000E+00  0.00000000000E+00  0.14045024495E+04  0.14045024495E+04  0.50400001928E-02 0. -1.
       -1   -1    0    0    0  501  0.00000000000E+00  0.00000000000E+00 -0.22982811095E+04  0.22982811095E+04  0.50400001928E-02 0.  1.
    10030    2    1    2    0    0  0.00000000000E+00  0.00000000000E+00 -0.89377865995E+03  0.37027835590E+04  0.35932945596E+04 0.  0.
        1    1    3    3  502    0 -0.96222579486E+03 -0.13510137895E+04  0.26467616909E+03  0.16796339524E+04  0.50400001928E-02 0. -1.
       -1    1    3    3    0  502  0.96222579486E+03  0.13510137895E+04 -0.11584548290E+04  0.20231496066E+04  0.50400001928E-02 0.  1.
</event>
<event>
 5   0  0.2342606E-07  0.3597162E+04  0.7818609E-02  0.8091142E-01
       -2   -1    0    0    0  501  0.00000000000E+00  0.00000000000E+00  0.15460023055E+04  0.15460023055E+04  0.25500000920E-02 0.  1.
        2   -1    0    0  501    0  0.00000000000E+00  0.00000000000E+00 -0.20924252244E+04  0.20924252244E+04  0.25500000920E-02 0. -1.
    10030    2    1    2    0    0  0.00000000000E+00  0.00000000000E+00 -0.54642291886E+03  0.36384275299E+04  0.35971623377E+04 0.  0.
        5    1    3    3  502    0  0.69915533370E+03  0.15440826190E+04  0.33523962674E+03  0.17278359332E+04  0.46999998093E+01 0.  1.
       -5    1    3    3    0  502 -0.69915533370E+03 -0.15440826190E+04 -0.88166254560E+03  0.19105915966E+04  0.46999998093E+01 0. -1.
</event>
<event>
 5   0  0.2342606E-07  0.3565091E+04  0.7818609E-02  0.8098535E-01
       -2   -1    0    0    0  501  0.00000000000E+00  0.00000000000E+00  0.11960882326E+04  0.11960882326E+04  0.25500000920E-02 0.  1.
        2   -1    0    0  501    0  0.00000000000E+00  0.00000000000E+00 -0.26565506816E+04  0.26565506816E+04  0.25500000920E-02 0. -1.
    10030    2    1    2    0    0  0.00000000000E+00  0.00000000000E+00 -0.14604624491E+04  0.38526389142E+04  0.35650913085E+04 0.  0.
        5    1    3    3  502    0 -0.19130142272E+03  0.15751451892E+04  0.14754412024E+03  0.15935714477E+04  0.46999998093E+01 0.  1.
       -5    1    3    3    0  502  0.19130142272E+03 -0.15751451892E+04 -0.16080065693E+04  0.22590674665E+04  0.46999998093E+01 0. -1.
</event>
<event>
 5   0  0.7261233E-08  0.3602438E+04  0.7818609E-02  0.8089933E-01
       -1   -1    0    0    0  501  0.00000000000E+00  0.00000000000E+00  0.19354085648E+04  0.19354085648E+04  0.50400001928E-02 0.  1.
        1   -1    0    0  501    0  0.00000000000E+00  0.00000000000E+00 -0.16763337339E+04  0.16763337339E+04  0.50400001928E-02 0. -1.
    10030    2    1    2    0    0  0.00000000000E+00  0.00000000000E+00  0.25907483098E+03  0.36117422987E+04  0.36024384331E+04 0.  0.
        3    1    3    3  502    0 -0.17334568650E+04  0.36428367418E+03  0.45720768459E+03  0.18293753511E+04  0.10100000352E+00 0.  1.
       -3    1    3    3    0  502  0.17334568650E+04 -0.36428367418E+03 -0.19813285361E+03  0.17823669476E+04  0.10100000352E+00 0. -1.
</event>
<event>
 5   0  0.7514289E-08  0.3617380E+04  0.7818609E-02  0.8086522E-01
        1   -1    0    0  501    0  0.00000000000E+00  0.00000000000E+00  0.10678370829E+04  0.10678370829E+04  0.50400001928E-02 0. -1.
       -1   -1    0    0    0  501  0.00000000000E+00  0.00000000000E+00 -0.30635376099E+04  0.30635376099E+04  0.50400001928E-02 0.  1.
    10030    2    1    2    0    0  0.00000000000E+00  0.00000000000E+00 -0.19957005270E+04  0.41313746928E+04  0.36173797504E+04 0.  0.
        4    1    3    3  502    0  0.37682447268E+02 -0.66370018611E+03 -0.29189534461E+04  0.29936948304E+04  0.12699999809E+01 0.  1.
       -4    1    3    3    0  502 -0.37682447268E+02  0.66370018611E+03  0.92325291907E+03  0.11376798624E+04  0.12699999809E+01 0. -1.
</event>
<event>
 5   0  0.7514289E-08  0.3591998E+04  0.7818609E-02  0.8092327E-01
       -1   -1    0    0    0  501  0.00000000000E+00  0.00000000000E+00  0.21722882315E+04  0.21722882315E+04  0.50400001928E-02 0.  1.
        1   -1    0    0  501    0  0.00000000000E+00  0.00000000000E+00 -0.14848914703E+04  0.14848914704E+04  0.50400001928E-02 0. -1.
    10030    2    1    2    0    0  0.00000000000E+00  0.00000000000E+00  0.68739676111E+03  0.36571797018E+04  0.35919979210E+04 0.  0.
        4    1    3    3  502    0  0.11946988066E+04  0.87786797377E+03  0.13758262880E+04  0.20225867115E+04  0.12699999809E+01 0.  1.
       -4    1    3    3    0  502 -0.11946988066E+04 -0.87786797377E+03 -0.68842952684E+03  0.16345929904E+04  0.12699999809E+01 0. -1.
</event>
<event>
 5   0  0.2309391E-07  0.3585291E+04  0.7818609E-02  0.8093869E-01
        2   -1    0    0  501    0  0.00000000000E+00  0.00000000000E+00  0.22754394322E+04  0.22754394322E+04  0.25500000920E-02 0. -1.
       -2   -1    0    0    0  501  0.00000000000E+00  0.00000000000E+00 -0.14122885841E+04  0.14122885841E+04  0.25500000920E-02 0.  1.
    10030    2    1    2    0    0  0.00000000000E+00  0.00000000000E+00  0.86315084817E+03  0.36877280163E+04  0.35852905789E+04 0.  0.
        4    1    3    3  502    0  0.48266762783E+03  0.21272508968E+03  0.21938147033E+04  0.22563343210E+04  0.12699999809E+01 0. -1.
       -4    1    3    3    0  502 -0.48266762783E+03 -0.21272508968E+03 -0.13306638551E+04  0.14313936953E+04  0.12699999809E+01 0.  1.
</event>
<event>
 5   0  0.7261233E-08  0.3580692E+04  0.7818609E-02  0.8094929E-01
        1   -1    0    0  501    0  0.00000000000E+00  0.00000000000E+00  0.12131733319E+04  0.12131733319E+04  0.50400001928E-02 0. -1.
       -1   -1    0    0    0  501  0.00000000000E+00  0.00000000000E+00 -0.26421104713E+04  0.26421104713E+04  0.50400001928E-02 0.  1.
    10030    2    1    2    0    0  0.00000000000E+00  0.00000000000E+00 -0.14289371394E+04  0.38552838033E+04  0.35806915331E+04 0.  0.
        3    1    3    3  502    0  0.15106926278E+04 -0.74230243819E+03 -0.57660566149E+02  0.16842000702E+04  0.10100000352E+00 0. -1.
       -3    1    3    3    0  502 -0.15106926278E+04  0.74230243819E+03 -0.13712765733E+04  0.21710837331E+04  0.10100000352E+00 0.  1.
</event>
<event>
 5   0  0.2198900E-07  0.3559549E+04  0.7818609E-02  0.8099821E-01
       -2   -1    0    0    0  501  0.00000000000E+00  0.00000000000E+00  0.31054070397E+04  0.31054070397E+04  0.25500000920E-02 0.  1.
        2   -1    0    0  501    0  0.00000000000E+00  0.00000000000E+00 -0.10200266514E+04  0.10200266514E+04  0.25500000920E-02 0. -1.
    10030    2    1    2    0    0  0.00000000000E+00  0.00000000000E+00  0.20853803883E+04  0.41254336911E+04  0.35595493782E+04 0.  0.
        2    1    3    3  502    0 -0.48793491079E+03  0.80234327236E+02  0.30241941053E+04  0.30643544200E+04  0.25500000920E-02 0.  1.
       -2    1    3    3    0  502  0.48793491079E+03 -0.80234327236E+02 -0.93881371698E+03  0.10610792711E+04  0.25500000920E-02 0. -1.
</event>
<event>
 5   0  0.2342606E-07  0.3585562E+04  0.7818609E-02  0.8093807E-01
       -2   -1    0    0    0  501  0.00000000000E+00  0.00000000000E+00  0.18293753564E+04  0.18293753564E+04  0.25500000920E-02 0. -1.
        2   -1    0    0  501    0  0.00000000000E+00  0.00000000000E+00 -0.17569185559E+04  0.17569185559E+04  0.25500000920E-02 0.  1.
    10030    2    1    2    0    0  0.00000000000E+00  0.00000000000E+00  0.72456800522E+02  0.35862939122E+04  0.35855618858E+04 0.  0.
        5    1    3    3  502    0 -0.89606049109E+03 -0.29332585803E+03  0.15613600098E+04  0.18239604253E+04  0.46999998093E+01 0. -1.
       -5    1    3    3    0  502  0.89606049109E+03  0.29332585803E+03 -0.14889032093E+04  0.17623334870E+04  0.46999998093E+01 0.  1.
</event>
<event>
 5   0  0.2238968E-07  0.3592971E+04  0.7818609E-02  0.8092104E-01
        2   -1    0    0  501    0  0.00000000000E+00  0.00000000000E+00  0.19289493408E+04  0.19289493408E+04  0.25500000920E-02 0. -1.
       -2   -1    0    0    0  501  0.00000000000E+00  0.00000000000E+00 -0.16731177390E+04  0.16731177390E+04  0.25500000920E-02 0.  1.
    10030    2    1    2    0    0  0.00000000000E+00  0.00000000000E+00  0.25583160185E+03  0.36020670798E+04  0.35929705592E+04 0.  0.
        3    1    3    3  502    0  0.53743068429E+03 -0.32864120574E+03 -0.15587593571E+04  0.16812398776E+04  0.10100000352E+00 0.  1.
       -3    1    3    3    0  502 -0.53743068429E+03  0.32864120574E+03  0.18145909589E+04  0.19208272022E+04  0.10100000352E+00 0. -1.
</event>
<event>
 5   0  0.7347303E-08  0.3590940E+04  0.7818609E-02  0.8092570E-01
        1   -1    0    0  501    0  0.00000000000E+00  0.00000000000E+00  0.34838312813E+04  0.34838312813E+04  0.50400001928E-02 0.  1.
       -1   -1    0    0    0  501  0.00000000000E+00  0.00000000000E+00 -0.92533534935E+03  0.92533534936E+03  0.50400001928E-02 0. -1.
    10030    2    1    2    0    0  0.00000000000E+00  0.00000000000E+00  0.25584959320E+04  0.44091666307E+04  0.35909398412E+04 0.  0.
        2    1    3    3  502    0  0.13279057619E+04  0.94474005400E+03  0.35398923624E+03  0.16676857802E+04  0.25500000920E-02 0. -1.
       -2    1    3    3    0  502 -0.13279057619E+04 -0.94474005400E+03  0.22045066958E+04  0.27414808505E+04  0.25500000920E-02 0.  1.
</event>
<event>
 5   0  0.2238968E-07  0.3602692E+04  0.7818609E-02  0.8089875E-01
        2   -1    0    0  501    0  0.00000000000E+00  0.00000000000E+00  0.31889908501E+04  0.31889908501E+04  0.25500000920E-02 0.  1.
       -2   -1    0    0    0  501  0.00000000000E+00  0.00000000000E+00 -0.10175151843E+04  0.10175151843E+04  0.25500000920E-02 0. -1.
    10030    2    1    2    0    0  0.00000000000E+00  0.00000000000E+00  0.21714756658E+04  0.42065060343E+04  0.36026915563E+04 0.  0.
        3    1    3    3  502    0 -0.15701870474E+04  0.87563795064E+03  0.95458439619E+03  0.20355492046E+04  0.10100000352E+00 0.  1.
       -3    1    3    3    0  502  0.15701870474E+04 -0.87563795064E+03  0.12168912696E+04  0.21709568298E+04  0.10100000352E+00 0. -1.
</event>
<event>
 5   0  0.7236375E-08  0.3594804E+04  0.7818609E-02  0.8091683E-01
        1   -1    0    0  501    0  0.00000000000E+00  0.00000000000E+00  0.21296468547E+04  0.21296468547E+04  0.50400001928E-02 0. -1.
       -1   -1    0    0    0  501  0.00000000000E+00  0.00000000000E+00 -0.15169903866E+04  0.15169903866E+04  0.50400001928E-02 0.  1.
    10030    2    1    2    0    0  0.00000000000E+00  0.00000000000E+00  0.61265646805E+03  0.36466372413E+04  0.35948039198E+04 0.  0.
        5    1    3    3  502    0 -0.27306405242E+03  0.13313305555E+04 -0.88690906915E+03  0.16228477475E+04  0.46999998093E+01 0.  1.
       -5    1    3    3    0  502  0.27306405242E+03 -0.13313305555E+04  0.14995655372E+04  0.20237894938E+04  0.46999998093E+01 0. -1.
</event>
<event>
 5   0  0.7261233E-08  0.3595398E+04  0.7818609E-02  0.8091547E-01
        1   -1    0    0  501    0  0.00000000000E+00  0.00000000000E+00  0.20836693264E+04  0.20836693264E+04  0.50400001928E-02 0.  1.
       -1   -1    0    0    0  501  0.00000000000E+00  0.00000000000E+00 -0.15509759928E+04  0.15509759928E+04  0.50400001928E-02 0. -1.
    10030    2    1    2    0    0  0.00000000000E+00  0.00000000000E+00  0.53269333361E+03  0.36346453193E+04  0.35953976705E+04 0.  0.
        3    1    3    3  502    0  0.10850568814E+03  0.74517098217E+03  0.19165468951E+04  0.20591758760E+04  0.10100000352E+00 0.  1.
       -3    1    3    3    0  502 -0.10850568814E+03 -0.74517098217E+03 -0.13838535614E+04  0.15754694433E+04  0.10100000352E+00 0. -1.
</event>
<event>
 5   0  0.7236375E-08  0.3610329E+04  0.7818609E-02  0.8088130E-01
       -1   -1    0    0    0  501  0.00000000000E+00  0.00000000000E+00  0.20062517890E+04  0.20062517890E+04  0.50400001928E-02 0. -1.
        1   -1    0    0  501    0  0.00000000000E+00  0.00000000000E+00 -0.16242322699E+04  0.16242322699E+04  0.50400001928E-02 0.  1.
    10030    2    1    2    0    0  0.00000000000E+00  0.00000000000E+00  0.38201951905E+03  0.36304840589E+04  0.36103290140E+04 0.  0.
        1    1    3    3  502    0  0.21815652731E+03 -0.14129808373E+03 -0.16053169948E+04  0.16262226393E+04  0.50400001928E-02 0.  1.
       -1    1    3    3    0  502 -0.21815652731E+03  0.14129808373E+03  0.19873365138E+04  0.20042614196E+04  0.50400001928E-02 0. -1.
</event>
<event>
 5   0  0.2309391E-07  0.3600176E+04  0.7818609E-02  0.8090451E-01
       -2   -1    0    0    0  501  0.00000000000E+00  0.00000000000E+00  0.17904079827E+04  0.17904079827E+04  0.25500000920E-02 0. -1.
        2   -1    0    0  501    0  0.00000000000E+00  0.00000000000E+00 -0.18098208282E+04  0.18098208282E+04  0.25500000920E-02 0.  1.
    10030    2    1    2    0    0  0.00000000000E+00  0.00000000000E+00 -0.19412845477E+02  0.36002288110E+04  0.36001764724E+04 0.  0.
        4    1    3    3  502    0  0.15745770242E+04 -0.44748626531E+03  0.73915644035E+03  0.17960764513E+04  0.12699999809E+01 0. -1.
       -4    1    3    3    0  502 -0.15745770242E+04  0.44748626531E+03 -0.75856928583E+03  0.18041523597E+04  0.12699999809E+01 0.  1.
</event>
<event>
 5   0  0.7514289E-08  0.3581492E+04  0.7818609E-02  0.8094744E-01
        1   -1    0    0  501    0  0.00000000000E+00  0.00000000000E+00  0.19907039036E+04  0.19907039037E+04  0.50400001928E-02 0.  1.
       -1   -1    0    0    0  501  0.00000000000E+00  0.00000000000E+00 -0.16108732976E+04  0.16108732976E+04  0.50400001928E-02 0. -1.
    10030    2    1    2    0    0  0.00000000000E+00  0.00000000000E+00  0.37983060605E+03  0.36015772013E+04  0.35814922934E+04 0.  0.
        4    1    3    3  502    0  0.96604334046E+03 -0.69272403189E+03  0.15367032859E+04  0.19428239555E+04  0.12699999809E+01 0.  1.
       -4    1    3    3    0  502 -0.96604334046E+03  0.69272403189E+03 -0.11568726799E+04  0.16587532458E+04  0.12699999809E+01 0. -1.
</event>
<event>
 5   0  0.2342606E-07  0.3678937E+04  0.7818609E-02  0.8072646E-01
       -2   -1    0    0    0  501  0.00000000000E+00  0.00000000000E+00  0.14751104529E+04  0.14751104529E+04  0.25500000920E-02 0. -1.
        2   -1    0    0  501    0  0.00000000000E+00  0.00000000000E+00 -0.22938247007E+04  0.22938247007E+04  0.25500000920E-02 0.  1.
    10030    2    1    2    0    0  0.00000000000E+00  0.00000000000E+00 -0.81871424778E+03  0.37689351537E+04  0.36789372342E+04 0.  0.
        5    1    3    3  502    0 -0.10247738960E+04  0.14880078808E+04 -0.76319560555E+03  0.19613308272E+04  0.46999998093E+01 0.  1.
       -5    1    3    3    0  502  0.10247738960E+04 -0.14880078808E+04 -0.55518642231E+02  0.18076043265E+04  0.46999998093E+01 0. -1.
</event>
<event>
 5   0  0.7261233E-08  0.3723242E+04  0.7818609E-02  0.8062831E-01
        1   -1    0    0  501    0  0.00000000000E+00  0.00000000000E+00  0.15798056386E+04  0.15798056387E+04  0.50400001928E-02 0.  1.
       -1   -1    0    0    0  501  0.00000000000E+00  0.00000000000E+00 -0.21937081743E+04  0.21937081743E+04  0.50400001928E-02 0. -1.
    10030    2    1    2    0    0  0.00000000000E+00  0.00000000000E+00 -0.61390253566E+03  0.37735138130E+04  0.37232418902E+04 0.  0.
        3    1    3    3  502    0 -0.17476207414E+04  0.60820540377E+03 -0.10038454233E+03  0.18531511367E+04  0.10100000352E+00 0. -1.
       -3    1    3    3    0  502  0.17476207414E+04 -0.60820540377E+03 -0.51351799333E+03  0.19203626763E+04  0.10100000352E+00 0.  1.
</event>
<event>
 5   0  0.2198900E-07  0.3562968E+04  0.7818609E-02  0.8099027E-01
        2   -1    0    0  501    0  0.00000000000E+00  0.00000000000E+00  0.24070729930E+04  0.24070729930E+04  0.25500000920E-02 0. -1.
       -2   -1    0    0    0  501  0.00000000000E+00  0.00000000000E+00 -0.13184835261E+04  0.13184835261E+04  0.25500000920E-02 0.  1.
    10030    2    1    2    0    0  0.00000000000E+00  0.00000000000E+00  0.10885894669E+04  0.37255565192E+04  0.35629684745E+04 0.  0.
        2    1    3    3  502    0 -0.17020784492E+04  0.63063738965E+02  0.10902692523E+04  0.20223093544E+04  0.25500000920E-02 0. -1.
       -2    1    3    3    0  502  0.17020784492E+04 -0.63063738965E+02 -0.16797853756E+01  0.17032471647E+04  0.25500000920E-02 0.  1.
</event>
<event>
 5   0  0.2309391E-07  0.3598625E+04  0.7818609E-02  0.8090807E-01
        2   -1    0    0  501    0  0.00000000000E+00  0.00000000000E+00  0.22023278588E+04  0.22023278588E+04  0.25500000920E-02 0. -1.
       -2   -1    0    0    0  501  0.00000000000E+00  0.00000000000E+00 -0.14700468217E+04  0.14700468217E+04  0.25500000920E-02 0.  1.
    10030    2    1    2    0    0  0.00000000000E+00  0.00000000000E+00  0.73228103702E+03  0.36723746805E+04  0.35986247758E+04 0.  0.
        4    1    3    3  502    0 -0.26154828875E+03 -0.12612220959E+04 -0.91596490947E+03  0.15805321923E+04  0.12699999809E+01 0.  1.
       -4    1    3    3    0  502  0.26154828875E+03  0.12612220959E+04  0.16482459465E+04  0.20918424882E+04  0.12699999809E+01 0. -1.
</event>
<event>
 5   0  0.2198900E-07  0.3598201E+04  0.7818609E-02  0.8090904E-01
       -2   -1    0    0    0  501  0.00000000000E+00  0.00000000000E+00  0.16951386632E+04  0.16951386632E+04  0.25500000920E-02 0.  1.
        2   -1    0    0  501    0  0.00000000000E+00  0.00000000000E+00 -0.19094382660E+04  0.19094382660E+04  0.25500000920E-02 0. -1.
    10030    2    1    2    0    0  0.00000000000E+00  0.00000000000E+00 -0.21429960274E+03  0.36045769292E+04  0.35982010114E+04 0.  0.
        2    1    3    3  502    0 -0.15828743988E+03 -0.17774060092E+04 -0.33676239434E+03  0.18159394113E+04  0.25500000920E-02 0. -1.
       -2    1    3    3    0  502  0.15828743988E+03  0.17774060092E+04  0.12246279160E+03  0.17886375179E+04  0.25500000920E-02 0.  1.
</event>
<event>
 5   0  0.7514289E-08  0.3571666E+04  0.7818609E-02  0.8097013E-01
       -1   -1    0    0    0  501  0.00000000000E+00  0.00000000000E+00  0.16205039749E+04  0.16205039750E+04  0.50400001928E-02 0.  1.
        1   -1    0    0  501    0  0.00000000000E+00  0.00000000000E+00 -0.19680290183E+04  0.19680290183E+04  0.50400001928E-02 0. -1.
    10030    2    1    2    0    0  0.00000000000E+00  0.00000000000E+00 -0.34752504333E+03  0.35885329932E+04  0.35716656321E+04 0.  0.
        4    1    3    3  502    0  0.40539316376E+03  0.45923277699E+03 -0.18591704074E+04  0.19574868013E+04  0.12699999809E+01 0. -1.
       -4    1    3    3    0  502 -0.40539316376E+03 -0.45923277699E+03  0.15116453640E+04  0.16310461919E+04  0.12699999809E+01 0.  1.
</event>
<event>
 5   0  0.2342606E-07  0.3602905E+04  0.7818609E-02  0.8089826E-01
       -2   -1    0    0    0  501  0.00000000000E+00  0.00000000000E+00  0.16432969777E+04  0.16432969777E+04  0.25500000920E-02 0.  1.
        2   -1    0    0  501    0  0.00000000000E+00  0.00000000000E+00 -0.19748298018E+04  0.19748298018E+04  0.25500000920E-02 0. -1.
    10030    2    1    2    0    0  0.00000000000E+00  0.00000000000E+00 -0.33153282408E+03  0.36181267795E+04  0.36029054080E+04 0.  0.
        5    1    3    3  502    0 -0.47783987792E+03  0.17126366192E+04 -0.45639296927E+03  0.18356938118E+04  0.46999998093E+01 0. -1.
       -5    1    3    3    0  502  0.47783987792E+03 -0.17126366192E+04  0.12486014519E+03  0.17824329677E+04  0.46999998093E+01 0.  1.
</event>
<event>
 5   0  0.7347303E-08  0.3579474E+04  0.7818609E-02  0.8095210E-01
        1   -1    0    0  501    0  0.00000000000E+00  0.00000000000E+00  0.10982542280E+04  0.10982542280E+04  0.50400001928E-02 0. -1.
       -1   -1    0    0    0  501  0.00000000000E+00  0.00000000000E+00 -0.29165916809E+04  0.29165916809E+04  0.50400001928E-02 0.  1.
    10030    2    1    2    0    0  0.00000000000E+00  0.00000000000E+00 -0.18183374530E+04  0.40148459089E+04  0.35794743440E+04 0.  0.
        2    1    3    3  502    0 -0.15844834813E+04  0.72502010806E+03 -0.45092131152E+03  0.17998811319E+04  0.25500000920E-02 0. -1.
       -2    1    3    3    0  502  0.15844834813E+04 -0.72502010806E+03 -0.13674161414E+04  0.22149647771E+04  0.25500000920E-02 0.  1.
</event>
<event>
 5   0  0.7236375E-08  0.3577296E+04  0.7818609E-02  0.8095712E-01
       -1   -1    0    0    0  501  0.00000000000E+00  0.00000000000E+00  0.21910373988E+04  0.21910373988E+04  0.50400001928E-02 0.  1.
        1   -1    0    0  501    0  0.00000000000E+00  0.00000000000E+00 -0.14601586975E+04  0.14601586975E+04  0.50400001928E-02 0. -1.
    10030    2    1    2    0    0  0.00000000000E+00  0.00000000000E+00  0.73087870133E+03  0.36511960963E+04  0.35772963615E+04 0.  0.
        1    1    3    3  502    0  0.42268627316E+03 -0.16788029526E+04  0.82441697338E+03  0.19174739595E+04  0.50400001928E-02 0.  1.
       -1    1    3    3    0  502 -0.42268627316E+03  0.16788029526E+04 -0.93538272049E+02  0.17337221368E+04  0.50400001928E-02 0. -1.
</event>
<event>
 5   0  0.7236375E-08  0.3598464E+04  0.7818609E-02  0.8090844E-01
       -1   -1    0    0    0  501  0.00000000000E+00  0.00000000000E+00  0.17138911102E+04  0.17138911102E+04  0.50400001928E-02 0. -1.
        1   -1    0    0  501    0  0.00000000000E+00  0.00000000000E+00 -0.18888218188E+04  0.18888218188E+04  0.50400001928E-02 0.  1.
    10030    2    1    2    0    0  0.00000000000E+00  0.00000000000E+00 -0.17493070860E+03  0.36027129289E+04  0.35984635187E+04 0.  0.
        5    1    3    3  502    0 -0.57906326403E+03  0.22321385166E+03  0.16033374515E+04  0.17192590732E+04  0.46999998093E+01 0. -1.
       -5    1    3    3    0  502  0.57906326403E+03 -0.22321385166E+03 -0.17782681601E+04  0.18834538557E+04  0.46999998093E+01 0.  1.
</event>
<event>
 5   0  0.7514289E-08  0.3501540E+04  0.7818609E-02  0.8113425E-01
        1   -1    0    0  501    0  0.00000000000E+00  0.00000000000E+00  0.20340231630E+04  0.20340231631E+04  0.50400001928E-02 0. -1.
       -1   -1    0    0    0  501  0.00000000000E+00  0.00000000000E+00 -0.15069615821E+04  0.15069615821E+04  0.50400001928E-02 0.  1.
    10030    2    1    2    0    0  0.00000000000E+00  0.00000000000E+00  0.52706158095E+03  0.35409847452E+04  0.35015395265E+04 0.  0.
        4    1    3    3  502    0 -0.11460064321E+04  0.12958028380E+04 -0.92436344278E+01  0.17298909778E+04  0.12699999809E+01 0. -1.
       -4    1    3    3    0  502  0.11460064321E+04 -0.12958028380E+04  0.53630521538E+03  0.18110937674E+04  0.12699999809E+01 0.  1.
</event>
<event>
 5   0  0.2199902E-07  0.3423600E+04  0.7818609E-02  0.8132138E-01
       -2   -1    0    0    0  501  0.00000000000E+00  0.00000000000E+00  0.16494642259E+04  0.16494642259E+04  0.25500000920E-02 0. -1.
        2   -1    0    0  501    0  0.00000000000E+00  0.00000000000E+00 -0.17764914429E+04  0.17764914429E+04  0.25500000920E-02 0.  1.
    10030    2    1    2    0    0  0.00000000000E+00  0.00000000000E+00 -0.12702721700E+03  0.34259556689E+04  0.34235999082E+04 0.  0.
        1    1    3    3  502    0 -0.84179061443E+03  0.11542199373E+04 -0.10072553197E+04  0.17479697884E+04  0.50400001928E-02 0.  1.
       -1    1    3    3    0  502  0.84179061443E+03 -0.11542199373E+04  0.88022810270E+03  0.16779858805E+04  0.50400001928E-02 0. -1.
</event>
<event>
 5   0  0.7236375E-08  0.3627141E+04  0.7818609E-02  0.8084303E-01
       -1   -1    0    0    0  501  0.00000000000E+00  0.00000000000E+00  0.12553099055E+04  0.12553099055E+04  0.50400001928E-02 0.  1.
        1   -1    0    0  501    0  0.00000000000E+00  0.00000000000E+00 -0.26201005901E+04  0.26201005902E+04  0.50400001928E-02 0. -1.
    10030    2    1    2    0    0  0.00000000000E+00  0.00000000000E+00 -0.13647906847E+04  0.38754104957E+04  0.36271411465E+04 0.  0.
        1    1    3    3  502    0 -0.72532637659E+03  0.16025795375E+04 -0.21097049260E+03  0.17716850948E+04  0.50400001928E-02 0.  1.
       -1    1    3    3    0  502  0.72532637659E+03 -0.16025795375E+04 -0.11538201921E+04  0.21037254008E+04  0.50400001928E-02 0. -1.
</event>
<event>
 5   0  0.2238968E-07  0.3590814E+04  0.7818609E-02  0.8092599E-01
       -2   -1    0    0    0  501  0.00000000000E+00  0.00000000000E+00  0.16028879665E+04  0.16028879665E+04  0.25500000920E-02 0. -1.
        2   -1    0    0  501    0  0.00000000000E+00  0.00000000000E+00 -0.20110484765E+04  0.20110484765E+04  0.25500000920E-02 0.  1.
    10030    2    1    2    0    0  0.00000000000E+00  0.00000000000E+00 -0.40816051001E+03  0.36139364429E+04  0.35908135027E+04 0.  0.
        3    1    3    3  502    0  0.13114125415E+04 -0.88664884855E+03  0.64844963977E+03  0.17106828988E+04  0.10100000352E+00 0. -1.
       -3    1    3    3    0  502 -0.13114125415E+04  0.88664884855E+03 -0.10566101498E+04  0.19032535442E+04  0.10100000352E+00 0.  1.
</event>
<event>
 5   0  0.2199902E-07  0.3604921E+04  0.7818609E-02  0.8089365E-01
        2   -1    0    0  501    0  0.00000000000E+00  0.00000000000E+00  0.19769313615E+04  0.19769313615E+04  0.25500000920E-02 0. -1.
       -2   -1    0    0    0  501  0.00000000000E+00  0.00000000000E+00 -0.16433873087E+04  0.16433873087E+04  0.25500000920E-02 0.  1.
    10030    2    1    2    0    0  0.00000000000E+00  0.00000000000E+00  0.33354405275E+03  0.36203186702E+04  0.36049210308E+04 0.  0.
        1    1    3    3  502    0 -0.22329964235E+03 -0.14214743396E+04  0.12569555165E+04  0.19105991727E+04  0.50400001928E-02 0. -1.
       -1    1    3    3    0  502  0.22329964235E+03  0.14214743396E+04 -0.92341146375E+03  0.17097194974E+04  0.50400001928E-02 0.  1.
</event>
<event>
 5   0  0.2199902E-07  0.3603090E+04  0.7818609E-02  0.8089784E-01
       -2   -1    0    0    0  501  0.00000000000E+00  0.00000000000E+00  0.20139513057E+04  0.20139513057E+04  0.25500000920E-02 0.  1.
        2   -1    0    0  501    0  0.00000000000E+00  0.00000000000E+00 -0.16115403958E+04  0.16115403958E+04  0.25500000920E-02 0. -1.
    10030    2    1    2    0    0  0.00000000000E+00  0.00000000000E+00  0.40241090988E+03  0.36254917015E+04  0.36030897209E+04 0.  0.
        1    1    3    3  502    0  0.88111685489E+03 -0.13647379753E+04 -0.58253861148E+03  0.17257542951E+04  0.50400001928E-02 0. -1.
       -1    1    3    3    0  502 -0.88111685489E+03  0.13647379753E+04  0.98494952136E+03  0.18997374063E+04  0.50400001928E-02 0.  1.
</event>
<event>
 5   0  0.2342606E-07  0.3602463E+04  0.7818609E-02  0.8089928E-01
        2   -1    0    0  501    0  0.00000000000E+00  0.00000000000E+00  0.28769852032E+04  0.28769852032E+04  0.25500000920E-02 0. -1.
       -2   -1    0    0    0  501  0.00000000000E+00  0.00000000000E+00 -0.11277203758E+04  0.11277203758E+04  0.25500000920E-02 0.  1.
    10030    2    1    2    0    0  0.00000000000E+00  0.00000000000E+00  0.17492648273E+04  0.40047055790E+04  0.36024629545E+04 0.  0.
        5    1    3    3  502    0 -0.12080153356E+04  0.12237309522E+04  0.27847469850E+03  0.17419496957E+04  0.46999998093E+01 0. -1.
       -5    1    3    3    0  502  0.12080153356E+04 -0.12237309522E+04  0.14707901288E+04  0.22627558833E+04  0.46999998093E+01 0.  1.
</event>
<event>
 5   0  0.7236375E-08  0.3623893E+04  0.7818609E-02  0.8085040E-01
        1   -1    0    0  501    0  0.00000000000E+00  0.00000000000E+00  0.23595998008E+04  0.23595998008E+04  0.50400001928E-02 0. -1.
       -1   -1    0    0    0  501  0.00000000000E+00  0.00000000000E+00 -0.13914016127E+04  0.13914016127E+04  0.50400001928E-02 0.  1.
    10030    2    1    2    0    0  0.00000000000E+00  0.00000000000E+00  0.96819818812E+03  0.37510014135E+04  0.36238934687E+04 0.  0.
        5    1    3    3  502    0  0.15048973990E+04 -0.28080200002E+03  0.14874081752E+04  0.21344720926E+04  0.46999998093E+01 0. -1.
       -5    1    3    3    0  502 -0.15048973990E+04  0.28080200002E+03 -0.51920998706E+03  0.16165293209E+04  0.46999998093E+01 0.  1.
</event>
<event>
 5   0  0.2238968E-07  0.3519673E+04  0.7818609E-02  0.8109143E-01
        2   -1    0    0  501    0  0.00000000000E+00  0.00000000000E+00  0.18443534097E+04  0.18443534097E+04  0.25500000920E-02 0.  1.
       -2   -1    0    0    0  501  0.00000000000E+00  0.00000000000E+00 -0.16791925287E+04  0.16791925287E+04  0.25500000920E-02 0. -1.
    10030    2    1    2    0    0  0.00000000000E+00  0.00000000000E+00  0.16516088100E+03  0.35235459384E+04  0.35196729768E+04 0.  0.
        3    1    3    3  502    0  0.74055050138E+03 -0.13259614515E+04 -0.80746233867E+03  0.17200535615E+04  0.10100000352E+00 0. -1.
       -3    1    3    3    0  502 -0.74055050138E+03  0.13259614515E+04  0.97262321967E+03  0.18034923769E+04  0.10100000352E+00 0.  1.
</event>
<event>
 5   0  0.7347303E-08  0.3587109E+04  0.7818609E-02  0.8093451E-01
        1   -1    0    0  501    0  0.00000000000E+00  0.00000000000E+00  0.19671326629E+04  0.19671326629E+04  0.50400001928E-02 0.  1.
       -1   -1    0    0    0  501  0.00000000000E+00  0.00000000000E+00 -0.16352931856E+04  0.16352931856E+04  0.50400001928E-02 0. -1.
    10030    2    1    2    0    0  0.00000000000E+00  0.00000000000E+00  0.33183947728E+03  0.36024258486E+04  0.35871094987E+04 0.  0.
        2    1    3    3  502    0 -0.12299533361E+03  0.97456764285E+03 -0.13411305128E+04  0.16623901452E+04  0.25500000920E-02 0. -1.
       -2    1    3    3    0  502  0.12299533361E+03 -0.97456764285E+03  0.16729699901E+04  0.19400357033E+04  0.25500000920E-02 0.  1.
</event>
<event>
 5   0  0.7236375E-08  0.3597690E+04  0.7818609E-02  0.8091021E-01
        1   -1    0    0  501    0  0.00000000000E+00  0.00000000000E+00  0.23629202968E+04  0.23629202968E+04  0.50400001928E-02 0. -1.
       -1   -1    0    0    0  501  0.00000000000E+00  0.00000000000E+00 -0.13694254132E+04  0.13694254133E+04  0.50400001928E-02 0.  1.
    10030    2    1    2    0    0  0.00000000000E+00  0.00000000000E+00  0.99349488355E+03  0.37323457101E+04  0.35976898721E+04 0.  0.
        1    1    3    3  502    0 -0.32387730377E+03 -0.16018555720E+04  0.12765495581E+04  0.20737445734E+04  0.50400001928E-02 0. -1.
       -1    1    3    3    0  502  0.32387730377E+03  0.16018555720E+04 -0.28305467453E+03  0.16586011366E+04  0.50400001928E-02 0.  1.
</event>
<event>
 5   0  0.7261233E-08  0.3607944E+04  0.7818609E-02  0.8088674E-01
        1   -1    0    0  501    0  0.00000000000E+00  0.00000000000E+00  0.19390148864E+04  0.19390148864E+04  0.50400001928E-02 0. -1.
       -1   -1    0    0    0  501  0.00000000000E+00  0.00000000000E+00 -0.16783343639E+04  0.16783343639E+04  0.50400001928E-02 0.  1.
    10030    2    1    2    0    0  0.00000000000E+00  0.00000000000E+00  0.26068052256E+03  0.36173492503E+04  0.36079441880E+04 0.  0.
        3    1    3    3  502    0  0.75709780581E+03 -0.45854293067E+03 -0.14456531631E+04  0.16951022933E+04  0.10100000352E+00 0.  1.
       -3    1    3    3    0  502 -0.75709780581E+03  0.45854293067E+03  0.17063336856E+04  0.19222469570E+04  0.10100000352E+00 0. -1.
</event>
<event>
 5   0  0.7261233E-08  0.3699701E+04  0.7818609E-02  0.8068028E-01
        1   -1    0    0  501    0  0.00000000000E+00  0.00000000000E+00  0.28627617946E+04  0.28627617946E+04  0.50400001928E-02 0.  1.
       -1   -1    0    0    0  501  0.00000000000E+00  0.00000000000E+00 -0.11953303894E+04  0.11953303894E+04  0.50400001928E-02 0. -1.
    10030    2    1    2    0    0  0.00000000000E+00  0.00000000000E+00  0.16674314052E+04  0.40580921840E+04  0.36997006207E+04 0.  0.
        3    1    3    3  502    0  0.16872075113E+04  0.80434346117E+02  0.64635557603E+01  0.16891360685E+04  0.10100000352E+00 0. -1.
       -3    1    3    3    0  502 -0.16872075113E+04 -0.80434346117E+02  0.16609678494E+04  0.23689561155E+04  0.10100000352E+00 0.  1.
</event>
<event>
 5   0  0.2198900E-07  0.3600629E+04  0.7818609E-02  0.8090348E-01
        2   -1    0    0  501    0  0.00000000000E+00  0.00000000000E+00  0.10728466275E+04  0.10728466275E+04  0.25500000920E-02 0. -1.
       -2   -1    0    0    0  501  0.00000000000E+00  0.00000000000E+00 -0.30210581771E+04  0.30210581771E+04  0.25500000920E-02 0.  1.
    10030    2    1    2    0    0  0.00000000000E+00  0.00000000000E+00 -0.19482115496E+04  0.40939048046E+04  0.36006288766E+04 0.  0.
        2    1    3    3  502    0  0.11288151139E+04  0.11630348007E+04 -0.18652233128E+04  0.24710183155E+04  0.25500000920E-02 0.  1.
       -2    1    3    3    0  502 -0.11288151139E+04 -0.11630348007E+04 -0.82988236774E+02  0.16228864891E+04  0.25500000920E-02 0. -1.
</event>
<event>
 5   0  0.7236375E-08  0.3589330E+04  0.7818609E-02  0.8092940E-01
        1   -1    0    0  501    0  0.00000000000E+00  0.00000000000E+00  0.19457162432E+04  0.19457162432E+04  0.50400001928E-02 0. -1.
       -1   -1    0    0    0  501  0.00000000000E+00  0.00000000000E+00 -0.16553402651E+04  0.16553402651E+04  0.50400001928E-02 0.  1.
    10030    2    1    2    0    0  0.00000000000E+00  0.00000000000E+00  0.29037597807E+03  0.36010565083E+04  0.35893299887E+04 0.  0.
        5    1    3    3  502    0  0.45100677299E+03 -0.11361722429E+04 -0.11730705085E+04  0.16942287280E+04  0.46999998093E+01 0.  1.
       -5    1    3    3    0  502 -0.45100677299E+03  0.11361722429E+04  0.14634464865E+04  0.19068277803E+04  0.46999998093E+01 0. -1.
</event>
<event>
 5   0  0.2342606E-07  0.3613734E+04  0.7818609E-02  0.8087353E-01
        2   -1    0    0  501    0  0.00000000000E+00  0.00000000000E+00  0.23248641167E+04  0.23248641167E+04  0.25500000920E-02 0.  1.
       -2   -1    0    0    0  501  0.00000000000E+00  0.00000000000E+00 -0.14042837884E+04  0.14042837884E+04  0.25500000920E-02 0. -1.
    10030    2    1    2    0    0  0.00000000000E+00  0.00000000000E+00  0.92058032831E+03  0.37291479050E+04  0.36137343506E+04 0.  0.
        5    1    3    3  502    0 -0.75850596695E+03  0.78802862296E+03 -0.10238449138E+04  0.14981992224E+04  0.46999998093E+01 0. -1.
       -5    1    3    3    0  502  0.75850596695E+03 -0.78802862296E+03  0.19444252421E+04  0.22309486826E+04  0.46999998093E+01 0.  1.
</event>
<event>
 5   0  0.7347303E-08  0.3594890E+04  0.7818609E-02  0.8091663E-01
        1   -1    0    0  501    0  0.00000000000E+00  0.00000000000E+00  0.20069723501E+04  0.20069723501E+04  0.50400001928E-02 0.  1.
       -1   -1    0    0    0  501  0.00000000000E+00  0.00000000000E+00 -0.16097920554E+04  0.16097920554E+04  0.50400001928E-02 0. -1.
    10030    2    1    2    0    0  0.00000000000E+00  0.00000000000E+00  0.39718029470E+03  0.36167644054E+04  0.35948897866E+04 0.  0.
        2    1    3    3  502    0  0.10842483166E+04 -0.86832664921E+03 -0.94906241943E+03  0.16823510507E+04  0.25500000920E-02 0. -1.
       -2    1    3    3    0  502 -0.10842483166E+04  0.86832664921E+03  0.13462427141E+04  0.19344133548E+04  0.25500000920E-02 0.  1.
</event>
<event>
 5   0  0.7236375E-08  0.3619801E+04  0.7818609E-02  0.8085971E-01
        4   -1    0    0  501    0  0.00000000000E+00  0.00000000000E+00  0.16055375004E+04  0.16055380027E+04  0.12699999809E+01 0. -1.
       -4   -1    0    0    0  501  0.00000000000E+00  0.00000000000E+00 -0.20402751686E+04  0.20402755638E+04  0.12699999809E+01 0.  1.
    10030    2    1    2    0    0  0.00000000000E+00  0.00000000000E+00 -0.43473766814E+03  0.36458135666E+04  0.36198010611E+04 0.  0.
        2    1    3    3  502    0  0.46558711566E+03  0.16426340784E+04 -0.82228609922E+03  0.18950389196E+04  0.25500000920E-02 0.  1.
       -2    1    3    3    0  502 -0.46558711566E+03 -0.16426340784E+04  0.38754843108E+03  0.17507746469E+04  0.25500000920E-02 0. -1.
</event>
<event>
 5   0  0.7236375E-08  0.3600780E+04  0.7818609E-02  0.8090313E-01
        1   -1    0    0  501    0  0.00000000000E+00  0.00000000000E+00  0.16567741212E+04  0.16567741212E+04  0.50400001928E-02 0.  1.
       -1   -1    0    0    0  501  0.00000000000E+00  0.00000000000E+00 -0.19564550345E+04  0.19564550345E+04  0.50400001928E-02 0. -1.
    10030    2    1    2    0    0  0.00000000000E+00  0.00000000000E+00 -0.29968091335E+03  0.36132291557E+04  0.36007799546E+04 0.  0.
        1    1    3    3  502    0  0.43594657493E+03  0.68616839139E+03 -0.17617964352E+04  0.19403100671E+04  0.50400001928E-02 0. -1.
       -1    1    3    3    0  502 -0.43594657493E+03 -0.68616839139E+03  0.14621155218E+04  0.16729190885E+04  0.50400001928E-02 0.  1.
</event>
<event>
 5   0  0.7347303E-08  0.3536388E+04  0.7818609E-02  0.8105220E-01
        1   -1    0    0  501    0  0.00000000000E+00  0.00000000000E+00  0.24962666639E+04  0.24962666639E+04  0.50400001928E-02 0.  1.
       -1   -1    0    0    0  501  0.00000000000E+00  0.00000000000E+00 -0.12524743199E+04  0.12524743200E+04  0.50400001928E-02 0. -1.
    10030    2    1    2    0    0  0.00000000000E+00  0.00000000000E+00  0.12437923440E+04  0.37487409839E+04  0.35363879269E+04 0.  0.
        2    1    3    3  502    0  0.92655266194E+03 -0.12180490480E+04 -0.31692975301E+03  0.15628780461E+04  0.25500000920E-02 0. -1.
       -2    1    3    3    0  502 -0.92655266194E+03  0.12180490480E+04  0.15607220970E+04  0.21858629378E+04  0.25500000920E-02 0.  1.
</event>
<event>
 5   0  0.2199902E-07  0.3630519E+04  0.7818609E-02  0.8083537E-01
       -2   -1    0    0    0  501  0.00000000000E+00  0.00000000000E+00  0.12769886353E+04  0.12769886353E+04  0.25500000920E-02 0.  1.
        2   -1    0    0  501    0  0.00000000000E+00  0.00000000000E+00 -0.25804197076E+04  0.25804197076E+04  0.25500000920E-02 0. -1.
    10030    2    1    2    0    0  0.00000000000E+00  0.00000000000E+00 -0.13034310723E+04  0.38574083429E+04  0.36305187733E+04 0.  0.
        1    1    3    3  502    0 -0.12172803154E+04 -0.13456151437E+04 -0.70707917184E+03  0.19474117275E+04  0.50400001928E-02 0.  1.
       -1    1    3    3    0  502  0.12172803154E+04  0.13456151437E+04 -0.59635190049E+03  0.19099966153E+04  0.50400001928E-02 0. -1.
</event>
<event>
 5   0  0.2199902E-07  0.3593291E+04  0.7818609E-02  0.8092030E-01
       -2   -1    0    0    0  501  0.00000000000E+00  0.00000000000E+00  0.18574084167E+04  0.18574084167E+04  0.25500000920E-02 0. -1.
        2   -1    0    0  501    0  0.00000000000E+00  0.00000000000E+00 -0.17378700101E+04  0.17378700101E+04  0.25500000920E-02 0.  1.
    10030    2    1    2    0    0  0.00000000000E+00  0.00000000000E+00  0.11953840656E+03  0.35952784268E+04  0.35932906278E+04 0.  0.
        1    1    3    3  502    0  0.86133511153E+03 -0.65802628606E+03  0.14934043434E+04  0.18453057471E+04  0.50400001928E-02 0. -1.
       -1    1    3    3    0  502 -0.86133511153E+03  0.65802628606E+03 -0.13738659368E+04  0.17499726797E+04  0.50400001928E-02 0.  1.
</event>
<event>
 5   0  0.7514289E-08  0.3587544E+04  0.7818609E-02  0.8093351E-01
       -1   -1    0    0    0  501  0.00000000000E+00  0.00000000000E+00  0.16570227866E+04  0.16570227867E+04  0.50400001928E-02 0. -1.
        1   -1    0    0  501    0  0.00000000000E+00  0.00000000000E+00 -0.19418063879E+04  0.19418063880E+04  0.50400001928E-02 0.  1.
    10030    2    1    2    0    0  0.00000000000E+00  0.00000000000E+00 -0.28478360130E+03  0.35988291746E+04  0.35875436901E+04 0.  0.
        4    1    3    3  502    0 -0.34551475499E+03  0.17462656805E+04 -0.36397474344E+03  0.18169489534E+04  0.12699999809E+01 0.  1.
       -4    1    3    3    0  502  0.34551475499E+03 -0.17462656805E+04  0.79191142144E+02  0.17818802212E+04  0.12699999809E+01 0. -1.
</event>
<event>
 5   0  0.2342606E-07  0.3602208E+04  0.7818609E-02  0.8089986E-01
       -2   -1    0    0    0  501  0.00000000000E+00  0.00000000000E+00  0.19589055676E+04  0.19589055676E+04  0.25500000920E-02 0.  1.
        2   -1    0    0  501    0  0.00000000000E+00  0.00000000000E+00 -0.16560142755E+04  0.16560142755E+04  0.25500000920E-02 0. -1.
    10030    2    1    2    0    0  0.00000000000E+00  0.00000000000E+00  0.30289129208E+03  0.36149198431E+04  0.36022079809E+04 0.  0.
        5    1    3    3  502    0  0.80251655377E+03  0.28776546093E+02 -0.14664137027E+04  0.16719007585E+04  0.46999998093E+01 0. -1.
       -5    1    3    3    0  502 -0.80251655377E+03 -0.28776546093E+02  0.17693049948E+04  0.19430190847E+04  0.46999998093E+01 0.  1.
</event>
<event>
 5   0  0.7236375E-08  0.3598932E+04  0.7818609E-02  0.8090736E-01
        1   -1    0    0  501    0  0.00000000000E+00  0.00000000000E+00  0.26018726112E+04  0.26018726112E+04  0.50400001928E-02 0.  1.
       -1   -1    0    0    0  501  0.00000000000E+00  0.00000000000E+00 -0.12445181138E+04  0.12445181138E+04  0.50400001928E-02 0. -1.
    10030    2    1    2    0    0  0.00000000000E+00  0.00000000000E+00  0.13573544974E+04  0.38463907250E+04  0.35989318385E+04 0.  0.
        5    1    3    3  502    0  0.93919960611E+03 -0.13223811898E+04 -0.15417858117E+03  0.16292885062E+04  0.46999998093E+01 0.  1.
       -5    1    3    3    0  502 -0.93919960611E+03  0.13223811898E+04  0.15115330785E+04  0.22171022189E+04  0.46999998093E+01 0. -1.
</event>
<event>
 5   0  0.7347303E-08  0.3526794E+04  0.7818609E-02  0.8107469E-01
       -1   -1    0    0    0  501  0.00000000000E+00  0.00000000000E+00  0.16376109732E+04  0.16376109732E+04  0.50400001928E-02 0. -1.
        1   -1    0    0  501    0  0.00000000000E+00  0.00000000000E+00 -0.18988450987E+04  0.18988450988E+04  0.50400001928E-02 0.  1.
    10030    2    1    2    0    0  0.00000000000E+00  0.00000000000E+00 -0.26123412556E+03  0.35364560719E+04  0.35267943349E+04 0.  0.
        2    1    3    3  502    0  0.82064801757E+03 -0.54083126194E+03  0.13375004275E+04  0.16597798096E+04  0.25500000920E-02 0. -1.
       -2    1    3    3    0  502 -0.82064801757E+03  0.54083126194E+03 -0.15987345531E+04  0.18766762624E+04  0.25500000920E-02 0.  1.
</event>
<event>
 5   0  0.2342606E-07  0.3567840E+04  0.7818609E-02  0.8097898E-01
       -2   -1    0    0    0  501  0.00000000000E+00  0.00000000000E+00  0.16352383714E+04  0.16352383714E+04  0.25500000920E-02 0. -1.
        2   -1    0    0  501    0  0.00000000000E+00  0.00000000000E+00 -0.19461199760E+04  0.19461199760E+04  0.25500000920E-02 0.  1.
    10030    2    1    2    0    0  0.00000000000E+00  0.00000000000E+00 -0.31088160463E+03  0.35813583475E+04  0.35678397162E+04 0.  0.
        5    1    3    3  502    0 -0.74723409414E+03 -0.50012657810E+02 -0.17806765733E+04  0.19317585786E+04  0.46999998093E+01 0.  1.
       -5    1    3    3    0  502  0.74723409414E+03  0.50012657810E+02  0.14697949687E+04  0.16495997688E+04  0.46999998093E+01 0. -1.
</event>
<event>
 5   0  0.2199902E-07  0.3595747E+04  0.7818609E-02  0.8091467E-01
        2   -1    0    0  501    0  0.00000000000E+00  0.00000000000E+00  0.18407111683E+04  0.18407111683E+04  0.25500000920E-02 0.  1.
       -2   -1    0    0    0  501  0.00000000000E+00  0.00000000000E+00 -0.17560326058E+04  0.17560326058E+04  0.25500000920E-02 0. -1.
    10030    2    1    2    0    0  0.00000000000E+00  0.00000000000E+00  0.84678562493E+02  0.35967437741E+04  0.35957468372E+04 0.  0.
        1    1    3    3  502    0 -0.40169774376E+03  0.35337368904E+03 -0.16745616073E+04  0.17579506871E+04  0.50400001928E-02 0. -1.
       -1    1    3    3    0  502  0.40169774376E+03 -0.35337368904E+03  0.17592401698E+04  0.18387930870E+04  0.50400001928E-02 0.  1.
</event>
<event>
 5   0  0.7347303E-08  0.3606438E+04  0.7818609E-02  0.8089019E-01
        1   -1    0    0  501    0  0.00000000000E+00  0.00000000000E+00  0.20824440300E+04  0.20824440300E+04  0.50400001928E-02 0. -1.
       -1   -1    0    0    0  501  0.00000000000E+00  0.00000000000E+00 -0.15614339063E+04  0.15614339063E+04  0.50400001928E-02 0.  1.
    10030    2    1    2    0    0  0.00000000000E+00  0.00000000000E+00  0.52101012375E+03  0.36438779363E+04  0.36064379747E+04 0.  0.
        2    1    3    3  502    0 -0.76799862578E+03 -0.16266213100E+04  0.13318120264E+03  0.18037339073E+04  0.25500000920E-02 0. -1.
       -2    1    3    3    0  502  0.76799862578E+03  0.16266213100E+04  0.38782892111E+03  0.18401440290E+04  0.25500000920E-02 0.  1.
</event>
<event>
 5   0  0.7236375E-08  0.3588668E+04  0.7818609E-02  0.8093092E-01
       -3   -1    0    0    0  501  0.00000000000E+00  0.00000000000E+00  0.13806537636E+04  0.13806537673E+04  0.10100000352E+00 0.  1.
        3   -1    0    0  501    0  0.00000000000E+00  0.00000000000E+00 -0.23319635914E+04  0.23319635936E+04  0.10100000352E+00 0. -1.
    10030    2    1    2    0    0  0.00000000000E+00  0.00000000000E+00 -0.95130982777E+03  0.37126173609E+04  0.35886678977E+04 0.  0.
        2    1    3    3  502    0  0.15128617841E+04  0.90682870996E+01 -0.14737580357E+04  0.21120596013E+04  0.25500000920E-02 0. -1.
       -2    1    3    3    0  502 -0.15128617841E+04 -0.90682870996E+01  0.52244820798E+03  0.16005577595E+04  0.25500000920E-02 0.  1.
</event>
<event>
 5   0  0.7261233E-08  0.3604540E+04  0.7818609E-02  0.8089452E-01
        1   -1    0    0  501    0  0.00000000000E+00  0.00000000000E+00  0.15124105489E+04  0.15124105489E+04  0.50400001928E-02 0. -1.
       -1   -1    0    0    0  501  0.00000000000E+00  0.00000000000E+00 -0.21476824765E+04  0.21476824765E+04  0.50400001928E-02 0.  1.
    10030    2    1    2    0    0  0.00000000000E+00  0.00000000000E+00 -0.63527192763E+03  0.36600930254E+04  0.36045402665E+04 0.  0.
        3    1    3    3  502    0  0.14975162690E+04 -0.96426353563E+03 -0.59723120907E+03  0.18785750635E+04  0.10100000352E+00 0.  1.
       -3    1    3    3    0  502 -0.14975162690E+04  0.96426353563E+03 -0.38040718559E+02  0.17815179619E+04  0.10100000352E+00 0. -1.
</event>
<event>
 5   0  0.7261233E-08  0.3629191E+04  0.7818609E-02  0.8083838E-01
        1   -1    0    0  501    0  0.00000000000E+00  0.00000000000E+00  0.23205544777E+04  0.23205544777E+04  0.50400001928E-02 0. -1.
       -1   -1    0    0    0  501  0.00000000000E+00  0.00000000000E+00 -0.14189528300E+04  0.14189528300E+04  0.50400001928E-02 0.  1.
    10030    2    1    2    0    0  0.00000000000E+00  0.00000000000E+00  0.90160164773E+03  0.37395073078E+04  0.36291912837E+04 0.  0.
        3    1    3    3  502    0  0.62867415552E+03  0.16806384006E+04  0.17243971597E+03  0.18026403117E+04  0.10100000352E+00 0.  1.
       -3    1    3    3    0  502 -0.62867415552E+03 -0.16806384006E+04  0.72916193176E+03  0.19368669961E+04  0.10100000352E+00 0. -1.
</event>
<event>
 5   0  0.7236375E-08  0.3616163E+04  0.7818609E-02  0.8086799E-01
       -1   -1    0    0    0  501  0.00000000000E+00  0.00000000000E+00  0.17566137393E+04  0.17566137394E+04  0.50400001928E-02 0.  1.
        1   -1    0    0  501    0  0.00000000000E+00  0.00000000000E+00 -0.18610570789E+04  0.18610570790E+04  0.50400001928E-02 0. -1.
    10030    2    1    2    0    0  0.00000000000E+00  0.00000000000E+00 -0.10444333960E+03  0.36176708183E+04  0.36161628473E+04 0.  0.
        5    1    3    3  502    0  0.14011872354E+04 -0.76832804782E+03 -0.89843649846E+03  0.18332659080E+04  0.46999998093E+01 0. -1.
       -5    1    3    3    0  502 -0.14011872354E+04  0.76832804782E+03  0.79399315886E+03  0.17844049103E+04  0.46999998093E+01 0.  1.
</event>
<event>
 5   0  0.7514289E-08  0.3587837E+04  0.7818609E-02  0.8093283E-01
       -1   -1    0    0    0  501  0.00000000000E+00  0.00000000000E+00  0.15998194126E+04  0.15998194126E+04  0.50400001928E-02 0.  1.
        1   -1    0    0  501    0  0.00000000000E+00  0.00000000000E+00 -0.20115673375E+04  0.20115673376E+04  0.50400001928E-02 0. -1.
    10030    2    1    2    0    0  0.00000000000E+00  0.00000000000E+00 -0.41174792500E+03  0.36113867501E+04  0.35878374970E+04 0.  0.
        4    1    3    3  502    0  0.89120600464E+03 -0.33031719693E+03  0.13255540645E+04  0.16310894470E+04  0.12699999809E+01 0.  1.
       -4    1    3    3    0  502 -0.89120600464E+03  0.33031719693E+03 -0.17373019895E+04  0.19802973031E+04  0.12699999809E+01 0. -1.
</event>
<event>
 5   0  0.7236375E-08  0.3595935E+04  0.7818609E-02  0.8091423E-01
        1   -1    0    0  501    0  0.00000000000E+00  0.00000000000E+00  0.29193168266E+04  0.29193168266E+04  0.50400001928E-02 0.  1.
       -1   -1    0    0    0  501  0.00000000000E+00  0.00000000000E+00 -0.11073438474E+04  0.11073438474E+04  0.50400001928E-02 0. -1.
    10030    2    1    2    0    0  0.00000000000E+00  0.00000000000E+00  0.18119729792E+04  0.40266606740E+04  0.35959352200E+04 0.  0.
        5    1    3    3  502    0  0.15605627035E+04  0.40126165609E+03  0.12755778008E+02  0.16113819126E+04  0.46999998093E+01 0.  1.
       -5    1    3    3    0  502 -0.15605627035E+04 -0.40126165609E+03  0.17992172012E+04  0.24152787614E+04  0.46999998093E+01 0. -1.
</event>
<event>
 5   0  0.2309391E-07  0.3602144E+04  0.7818609E-02  0.8090001E-01
       -2   -1    0    0    0  501  0.00000000000E+00  0.00000000000E+00  0.27075159868E+04  0.27075159868E+04  0.25500000920E-02 0.  1.
        2   -1    0    0  501    0  0.00000000000E+00  0.00000000000E+00 -0.11980944445E+04  0.11980944445E+04  0.25500000920E-02 0. -1.
    10030    2    1    2    0    0  0.00000000000E+00  0.00000000000E+00  0.15094215424E+04  0.39056104313E+04  0.36021437296E+04 0.  0.
        4    1    3    3  502    0 -0.31254835245E+03  0.12355227569E+04 -0.62516243498E+03  0.14195184530E+04  0.12699999809E+01 0. -1.
       -4    1    3    3    0  502  0.31254835245E+03 -0.12355227569E+04  0.21345839773E+04  0.24860919783E+04  0.12699999809E+01 0.  1.
</event>
<event>
 5   0  0.7236375E-08  0.3576067E+04  0.7818609E-02  0.8095996E-01
        1   -1    0    0  501    0  0.00000000000E+00  0.00000000000E+00  0.22261893247E+04  0.22261893247E+04  0.50400001928E-02 0.  1.
       -1   -1    0    0    0  501  0.00000000000E+00  0.00000000000E+00 -0.14361149579E+04  0.14361149579E+04  0.50400001928E-02 0. -1.
    10030    2    1    2    0    0  0.00000000000E+00  0.00000000000E+00  0.79007436677E+03  0.36623042827E+04  0.35760669951E+04 0.  0.
        5    1    3    3  502    0  0.22620141611E+03 -0.99304442195E+03 -0.11100070092E+04  0.15064667123E+04  0.46999998093E+01 0. -1.
       -5    1    3    3    0  502 -0.22620141611E+03  0.99304442195E+03  0.19000813760E+04  0.21558375704E+04  0.46999998093E+01 0.  1.
</event>
<event>
 5   0  0.2238968E-07  0.3633432E+04  0.7818609E-02  0.8082876E-01
       -2   -1    0    0    0  501  0.00000000000E+00  0.00000000000E+00  0.13280810556E+04  0.13280810556E+04  0.25500000920E-02 0. -1.
        2   -1    0    0  501    0  0.00000000000E+00  0.00000000000E+00 -0.24851317432E+04  0.24851317432E+04  0.25500000920E-02 0.  1.
    10030    2    1    2    0    0  0.00000000000E+00  0.00000000000E+00 -0.11570506876E+04  0.38132127989E+04  0.36334316501E+04 0.  0.
        3    1    3    3  502    0  0.10263256331E+03 -0.12137819914E+04 -0.19930496724E+04  0.23358183090E+04  0.10100000352E+00 0.  1.
       -3    1    3    3    0  502 -0.10263256331E+03  0.12137819914E+04  0.83599898483E+03  0.14773944898E+04  0.10100000352E+00 0. -1.
</event>
<event>
 5   0  0.2238968E-07  0.3614330E+04  0.7818609E-02  0.8087217E-01
        2   -1    0    0  501    0  0.00000000000E+00  0.00000000000E+00  0.27327993656E+04  0.27327993656E+04  0.25500000920E-02 0. -1.
       -2   -1    0    0    0  501  0.00000000000E+00  0.00000000000E+00 -0.11950551456E+04  0.11950551456E+04  0.25500000920E-02 0.  1.
    10030    2    1    2    0    0  0.00000000000E+00  0.00000000000E+00  0.15377442200E+04  0.39278545112E+04  0.36143303356E+04 0.  0.
        3    1    3    3  502    0 -0.49815164215E+03  0.77415836631E+03 -0.92113641952E+03  0.13022935722E+04  0.10100000352E+00 0.  1.
       -3    1    3    3    0  502  0.49815164215E+03 -0.77415836631E+03  0.24588806395E+04  0.26255609389E+04  0.10100000352E+00 0. -1.
</event>
<event>
 5   0  0.7236375E-08  0.3588547E+04  0.7818609E-02  0.8093120E-01
       -4   -1    0    0    0  501  0.00000000000E+00  0.00000000000E+00  0.23661779475E+04  0.23661782884E+04  0.12699999809E+01 0. -1.
        4   -1    0    0  501    0  0.00000000000E+00  0.00000000000E+00 -0.13605978114E+04  0.13605984041E+04  0.12699999809E+01 0.  1.
    10030    2    1    2    0    0  0.00000000000E+00  0.00000000000E+00  0.10055801361E+04  0.37267766925E+04  0.35885474924E+04 0.  0.
        5    1    3    3  502    0  0.12886789767E+04  0.10669092064E+04  0.11761540188E+04  0.20450792467E+04  0.46999998093E+01 0. -1.
       -5    1    3    3    0  502 -0.12886789767E+04 -0.10669092064E+04 -0.17057388264E+03  0.16816974457E+04  0.46999998093E+01 0.  1.
</event>
<event>
 5   0  0.2342606E-07  0.3566398E+04  0.7818609E-02  0.8098232E-01
        2   -1    0    0  501    0  0.00000000000E+00  0.00000000000E+00  0.22713888291E+04  0.22713888291E+04  0.25500000920E-02 0. -1.
       -2   -1    0    0    0  501  0.00000000000E+00  0.00000000000E+00 -0.13999361718E+04  0.13999361718E+04  0.25500000920E-02 0.  1.
    10030    2    1    2    0    0  0.00000000000E+00  0.00000000000E+00  0.87145265729E+03  0.36713250010E+04  0.35663983974E+04 0.  0.
        5    1    3    3  502    0  0.95273723936E+03  0.75092006372E+03  0.17811554456E+04  0.21550234339E+04  0.46999998093E+01 0. -1.
       -5    1    3    3    0  502 -0.95273723936E+03 -0.75092006372E+03 -0.90970278826E+03  0.15163015671E+04  0.46999998093E+01 0.  1.
</event>
<event>
 5   0  0.7236375E-08  0.3600223E+04  0.7818609E-02  0.8090441E-01
        1   -1    0    0  501    0  0.00000000000E+00  0.00000000000E+00  0.10753529180E+04  0.10753529180E+04  0.50400001928E-02 0.  1.
       -1   -1    0    0    0  501  0.00000000000E+00  0.00000000000E+00 -0.30133380052E+04  0.30133380052E+04  0.50400001928E-02 0. -1.
    10030    2    1    2    0    0  0.00000000000E+00  0.00000000000E+00 -0.19379850872E+04  0.40886909232E+04  0.36002232247E+04 0.  0.
        5    1    3    3  502    0  0.83884976644E+03 -0.49559153789E+03  0.75001134427E+03  0.12295604945E+04  0.46999998093E+01 0.  1.
       -5    1    3    3    0  502 -0.83884976644E+03  0.49559153789E+03 -0.26879964315E+04  0.28591304288E+04  0.46999998093E+01 0. -1.
</event>
<event>
 5   0  0.7347303E-08  0.3553973E+04  0.7818609E-02  0.8101117E-01
       -1   -1    0    0    0  501  0.00000000000E+00  0.00000000000E+00  0.11269777307E+04  0.11269777307E+04  0.50400001928E-02 0.  1.
        1   -1    0    0  501    0  0.00000000000E+00  0.00000000000E+00 -0.28019020964E+04  0.28019020964E+04  0.50400001928E-02 0. -1.
    10030    2    1    2    0    0  0.00000000000E+00  0.00000000000E+00 -0.16749243657E+04  0.39288798271E+04  0.35539731379E+04 0.  0.
        2    1    3    3  502    0 -0.16340112417E+02  0.17635925581E+04 -0.10775228670E+04  0.20667804042E+04  0.25500000920E-02 0. -1.
       -2    1    3    3    0  502  0.16340112417E+02 -0.17635925581E+04 -0.59740149869E+03  0.18620994229E+04  0.25500000920E-02 0.  1.
</event>
<event>
 5   0  0.2342606E-07  0.3608295E+04  0.7818609E-02  0.8088594E-01
       -2   -1    0    0    0  501  0.00000000000E+00  0.00000000000E+00  0.14825767005E+04  0.14825767005E+04  0.25500000920E-02 0. -1.
        2   -1    0    0  501    0  0.00000000000E+00  0.00000000000E+00 -0.21954666960E+04  0.21954666960E+04  0.25500000920E-02 0.  1.
    10030    2    1    2    0    0  0.00000000000E+00  0.00000000000E+00 -0.71288999558E+03  0.36780433965E+04  0.36082947608E+04 0.  0.
        5    1    3    3  502    0 -0.11970248158E+04 -0.11710846913E+04 -0.10407017141E+04  0.19716464976E+04  0.46999998093E+01 0.  1.
       -5    1    3    3    0  502  0.11970248158E+04  0.11710846913E+04  0.32781171850E+03  0.17063968989E+04  0.46999998093E+01 0. -1.
</event>
<event>
 5   0  0.2199902E-07  0.3599876E+04  0.7818609E-02  0.8090520E-01
       -2   -1    0    0    0  501  0.00000000000E+00  0.00000000000E+00  0.16429510784E+04  0.16429510784E+04  0.25500000920E-02 0. -1.
        2   -1    0    0  501    0  0.00000000000E+00  0.00000000000E+00 -0.19719250421E+04  0.19719250421E+04  0.25500000920E-02 0.  1.
    10030    2    1    2    0    0  0.00000000000E+00  0.00000000000E+00 -0.32897396370E+03  0.36148761205E+04  0.35998757614E+04 0.  0.
        1    1    3    3  502    0 -0.84156180347E+03  0.11880237024E+04  0.89829444650E+03  0.17107190006E+04  0.50400001928E-02 0. -1.
       -1    1    3    3    0  502  0.84156180347E+03 -0.11880237024E+04 -0.12272684102E+04  0.19041571199E+04  0.50400001928E-02 0.  1.
</event>
<event>
 5   0  0.7347303E-08  0.3627411E+04  0.7818609E-02  0.8084242E-01
       -1   -1    0    0    0  501  0.00000000000E+00  0.00000000000E+00  0.13103608354E+04  0.13103608354E+04  0.50400001928E-02 0. -1.
        1   -1    0    0  501    0  0.00000000000E+00  0.00000000000E+00 -0.25103977691E+04  0.25103977691E+04  0.50400001928E-02 0.  1.
    10030    2    1    2    0    0  0.00000000000E+00  0.00000000000E+00 -0.12000369337E+04  0.38207586044E+04  0.36274106014E+04 0.  0.
        2    1    3    3  502    0  0.10929889363E+04 -0.82854351124E+01 -0.21245191818E+04  0.23891997023E+04  0.25500000920E-02 0.  1.
       -2    1    3    3    0  502 -0.10929889363E+04  0.82854351124E+01  0.92448224813E+03  0.14315589022E+04  0.25500000920E-02 0. -1.
</event>
<event>
 5   0  0.2199902E-07  0.3606789E+04  0.7818609E-02  0.8088938E-01
        2   -1    0    0  501    0  0.00000000000E+00  0.00000000000E+00  0.11370003917E+04  0.11370003917E+04  0.25500000920E-02 0. -1.
       -2   -1    0    0    0  501  0.00000000000E+00  0.00000000000E+00 -0.28603612818E+04  0.28603612818E+04  0.25500000920E-02 0.  1.
    10030    2    1    2    0    0  0.00000000000E+00  0.00000000000E+00 -0.17233608901E+04  0.39973616736E+04  0.36067890972E+04 0.  0.
        1    1    3    3  502    0 -0.13653266475E+04 -0.39629104596E+03 -0.20913652221E+04  0.25288281752E+04  0.50400001928E-02 0.  1.
       -1    1    3    3    0  502  0.13653266475E+04  0.39629104596E+03  0.36800433198E+03  0.14685334984E+04  0.50400001928E-02 0. -1.
</event>
<event>
 5   0  0.7514289E-08  0.3600563E+04  0.7818609E-02  0.8090363E-01
       -1   -1    0    0    0  501  0.00000000000E+00  0.00000000000E+00  0.14249509228E+04  0.14249509228E+04  0.50400001928E-02 0.  1.
        1   -1    0    0  501    0  0.00000000000E+00  0.00000000000E+00 -0.22744739223E+04  0.22744739223E+04  0.50400001928E-02 0. -1.
    10030    2    1    2    0    0  0.00000000000E+00  0.00000000000E+00 -0.84952299954E+03  0.36994248451E+04  0.36005631307E+04 0.  0.
        4    1    3    3  502    0  0.52034719743E+03  0.11221707536E+04 -0.17687226487E+04  0.21583349664E+04  0.12699999809E+01 0. -1.
       -4    1    3    3    0  502 -0.52034719743E+03 -0.11221707536E+04  0.91919964919E+03  0.15410898787E+04  0.12699999809E+01 0.  1.
</event>
<event>
 5   0  0.2238968E-07  0.3608075E+04  0.7818609E-02  0.8088645E-01
        2   -1    0    0  501    0  0.00000000000E+00  0.00000000000E+00  0.26611704632E+04  0.26611704632E+04  0.25500000920E-02 0. -1.
       -2   -1    0    0    0  501  0.00000000000E+00  0.00000000000E+00 -0.12229773786E+04  0.12229773786E+04  0.25500000920E-02 0.  1.
    10030    2    1    2    0    0  0.00000000000E+00  0.00000000000E+00  0.14381930846E+04  0.38841478418E+04  0.36080749865E+04 0.  0.
        3    1    3    3  502    0  0.27267956892E+03  0.45448476452E+03  0.25754661289E+04  0.26294365061E+04  0.10100000352E+00 0. -1.
       -3    1    3    3    0  502 -0.27267956892E+03 -0.45448476452E+03 -0.11372730443E+04  0.12547113357E+04  0.10100000352E+00 0.  1.
</event>
<event>
 5   0  0.7514289E-08  0.3374672E+04  0.7818609E-02  0.8144151E-01
        1   -1    0    0  501    0  0.00000000000E+00  0.00000000000E+00  0.32080890553E+04  0.32080890553E+04  0.50400001928E-02 0.  1.
       -1   -1    0    0    0  501  0.00000000000E+00  0.00000000000E+00 -0.88747622595E+03  0.88747622596E+03  0.50400001928E-02 0. -1.
    10030    2    1    2    0    0  0.00000000000E+00  0.00000000000E+00  0.23206128294E+04  0.40955652813E+04  0.33746719944E+04 0.  0.
        4    1    3    3  502    0  0.23402984963E+03  0.92411460409E+03 -0.52934705049E+03  0.10903979479E+04  0.12699999809E+01 0. -1.
       -4    1    3    3    0  502 -0.23402984963E+03 -0.92411460409E+03  0.28499598799E+04  0.30051673334E+04  0.12699999809E+01 0.  1.
</event>
<event>
 5   0  0.2238968E-07  0.3623239E+04  0.7818609E-02  0.8085189E-01
        2   -1    0    0  501    0  0.00000000000E+00  0.00000000000E+00  0.18783283172E+04  0.18783283172E+04  0.25500000920E-02 0. -1.
       -2   -1    0    0    0  501  0.00000000000E+00  0.00000000000E+00 -0.17472793910E+04  0.17472793910E+04  0.25500000920E-02 0.  1.
    10030    2    1    2    0    0  0.00000000000E+00  0.00000000000E+00  0.13104892615E+03  0.36256077082E+04  0.36232385283E+04 0.  0.
        3    1    3    3  502    0 -0.14595224953E+04 -0.14772616429E+03  0.11292037343E+04  0.18512509332E+04  0.10100000352E+00 0. -1.
       -3    1    3    3    0  502  0.14595224953E+04  0.14772616429E+03 -0.99815480811E+03  0.17743567750E+04  0.10100000352E+00 0.  1.
</event>
<event>
 5   0  0.2309391E-07  0.3598133E+04  0.7818609E-02  0.8090919E-01
       -2   -1    0    0    0  501  0.00000000000E+00  0.00000000000E+00  0.23421265938E+04  0.23421265939E+04  0.25500000920E-02 0. -1.
        2   -1    0    0  501    0  0.00000000000E+00  0.00000000000E+00 -0.13819240160E+04  0.13819240160E+04  0.25500000920E-02 0.  1.
    10030    2    1    2    0    0  0.00000000000E+00  0.00000000000E+00  0.96020257786E+03  0.37240506098E+04  0.35981333986E+04 0.  0.
        4    1    3    3  502    0 -0.12007186440E+04  0.10230131932E+04  0.13754517293E+04  0.20928808681E+04  0.12699999809E+01 0. -1.
       -4    1    3    3    0  502  0.12007186440E+04 -0.10230131932E+04 -0.41524915147E+03  0.16311697417E+04  0.12699999809E+01 0.  1.
</event>
<event>
 5   0  0.2198900E-07  0.3610862E+04  0.7818609E-02  0.8088008E-01
       -2   -1    0    0    0  501  0.00000000000E+00  0.00000000000E+00  0.10588218319E+04  0.10588218319E+04  0.25500000920E-02 0. -1.
        2   -1    0    0  501    0  0.00000000000E+00  0.00000000000E+00 -0.30784984321E+04  0.30784984321E+04  0.25500000920E-02 0.  1.
    10030    2    1    2    0    0  0.00000000000E+00  0.00000000000E+00 -0.20196766002E+04  0.41373202641E+04  0.36108621406E+04 0.  0.
        2    1    3    3  502    0  0.92900476857E+02 -0.17871860156E+04 -0.73648191620E+03  0.19352183251E+04  0.25500000920E-02 0. -1.
       -2    1    3    3    0  502 -0.92900476857E+02  0.17871860156E+04 -0.12831946840E+04  0.22021019390E+04  0.25500000920E-02 0.  1.
</event>
<event>
 5   0  0.2198900E-07  0.3597125E+04  0.7818609E-02  0.8091151E-01
       -2   -1    0    0    0  501  0.00000000000E+00  0.00000000000E+00  0.11829481946E+04  0.11829481946E+04  0.25500000920E-02 0. -1.
        2   -1    0    0  501    0  0.00000000000E+00  0.00000000000E+00 -0.27345467781E+04  0.27345467782E+04  0.25500000920E-02 0.  1.
    10030    2    1    2    0    0  0.00000000000E+00  0.00000000000E+00 -0.15515985836E+04  0.39174949727E+04  0.35971250599E+04 0.  0.
        2    1    3    3  502    0  0.79385932022E+03 -0.22961143425E+02 -0.25332400079E+04  0.26548153932E+04  0.25500000920E-02 0.  1.
       -2    1    3    3    0  502 -0.79385932022E+03  0.22961143425E+02  0.98164142434E+03  0.12626795795E+04  0.25500000920E-02 0. -1.
</event>
<event>
 5   0  0.7514289E-08  0.3603504E+04  0.7818609E-02  0.8089690E-01
       -1   -1    0    0    0  501  0.00000000000E+00  0.00000000000E+00  0.11560848920E+04  0.11560848920E+04  0.50400001928E-02 0.  1.
        1   -1    0    0  501    0  0.00000000000E+00  0.00000000000E+00 -0.28080205256E+04  0.28080205256E+04  0.50400001928E-02 0. -1.
    10030    2    1    2    0    0  0.00000000000E+00  0.00000000000E+00 -0.16519356336E+04  0.39641054177E+04  0.36035039093E+04 0.  0.
        4    1    3    3  502    0  0.31326813232E+03  0.16328433541E+04 -0.62235651159E+02  0.16637876159E+04  0.12699999809E+01 0.  1.
       -4    1    3    3    0  502 -0.31326813232E+03 -0.16328433541E+04 -0.15896999825E+04  0.23003178017E+04  0.12699999809E+01 0. -1.
</event>
<event>
 5   0  0.2198900E-07  0.3609618E+04  0.7818609E-02  0.8088292E-01
       -2   -1    0    0    0  501  0.00000000000E+00  0.00000000000E+00  0.17425782438E+04  0.17425782438E+04  0.25500000920E-02 0.  1.
        2   -1    0    0  501    0  0.00000000000E+00  0.00000000000E+00 -0.18692618045E+04  0.18692618045E+04  0.25500000920E-02 0. -1.
    10030    2    1    2    0    0  0.00000000000E+00  0.00000000000E+00 -0.12668356070E+03  0.36118400483E+04  0.36096176819E+04 0.  0.
        2    1    3    3  502    0 -0.50825614875E+03  0.12481957156E+04 -0.12645049879E+04  0.18480502486E+04  0.25500000920E-02 0. -1.
       -2    1    3    3    0  502  0.50825614875E+03 -0.12481957156E+04  0.11378214272E+04  0.17637897996E+04  0.25500000920E-02 0.  1.
</event>
<event>
 5   0  0.2342606E-07  0.3598042E+04  0.7818609E-02  0.8090940E-01
       -2   -1    0    0    0  501  0.00000000000E+00  0.00000000000E+00  0.18973951253E+04  0.18973951253E+04  0.25500000920E-02 0.  1.
        2   -1    0    0  501    0  0.00000000000E+00  0.00000000000E+00 -0.17057472127E+04  0.17057472127E+04  0.25500000920E-02 0. -1.
    10030    2    1    2    0    0  0.00000000000E+00  0.00000000000E+00  0.19164791255E+03  0.36031423380E+04  0.35980419377E+04 0.  0.
        5    1    3    3  502    0  0.17818723642E+04  0.23875702972E+03  0.29546189476E+02  0.17980459140E+04  0.46999998093E+01 0.  1.
       -5    1    3    3    0  502 -0.17818723642E+04 -0.23875702972E+03  0.16210172307E+03  0.18050964240E+04  0.46999998093E+01 0. -1.
</event>
<event>
 5   0  0.2342606E-07  0.3604127E+04  0.7818609E-02  0.8089547E-01
        2   -1    0    0  501    0  0.00000000000E+00  0.00000000000E+00  0.17756682354E+04  0.17756682354E+04  0.25500000920E-02 0. -1.
       -2   -1    0    0    0  501  0.00000000000E+00  0.00000000000E+00 -0.18288513688E+04  0.18288513688E+04  0.25500000920E-02 0.  1.
    10030    2    1    2    0    0  0.00000000000E+00  0.00000000000E+00 -0.53183133423E+02  0.36045196043E+04  0.36041272358E+04 0.  0.
        5    1    3    3  502    0 -0.49393922441E+03  0.12620525452E+04 -0.12144323692E+04  0.18197858813E+04  0.46999998093E+01 0.  1.
       -5    1    3    3    0  502  0.49393922441E+03 -0.12620525452E+04  0.11612492358E+04  0.17847337230E+04  0.46999998093E+01 0. -1.
</event>
<event>
 5   0  0.2238968E-07  0.3566454E+04  0.7818609E-02  0.8098219E-01
        2   -1    0    0  501    0  0.00000000000E+00  0.00000000000E+00  0.24407144611E+04  0.24407144611E+04  0.25500000920E-02 0.  1.
       -2   -1    0    0    0  501  0.00000000000E+00  0.00000000000E+00 -0.13028558284E+04  0.13028558284E+04  0.25500000920E-02 0. -1.
    10030    2    1    2    0    0  0.00000000000E+00  0.00000000000E+00  0.11378586327E+04  0.37435702895E+04  0.35664542958E+04 0.  0.
        3    1    3    3  502    0 -0.74714018854E+03  0.12494639222E+04  0.16498874215E+04  0.22003424888E+04  0.10100000352E+00 0.  1.
       -3    1    3    3    0  502  0.74714018854E+03 -0.12494639222E+04 -0.51202878873E+03  0.15432278007E+04  0.10100000352E+00 0. -1.
</event>
<event>
 5   0  0.7236375E-08  0.3607356E+04  0.7818609E-02  0.8088809E-01
       -1   -1    0    0    0  501  0.00000000000E+00  0.00000000000E+00  0.22371078895E+04  0.22371078895E+04  0.50400001928E-02 0. -1.
        1   -1    0    0  501    0  0.00000000000E+00  0.00000000000E+00 -0.14542236292E+04  0.14542236292E+04  0.50400001928E-02 0.  1.
    10030    2    1    2    0    0  0.00000000000E+00  0.00000000000E+00  0.78288426032E+03  0.36913315187E+04  0.36073564581E+04 0.  0.
        5    1    3    3  502    0  0.16284344319E+04  0.77505994871E+03  0.36405262788E+03  0.18398567958E+04  0.46999998093E+01 0. -1.
       -5    1    3    3    0  502 -0.16284344319E+04 -0.77505994871E+03  0.41883163244E+03  0.18514747229E+04  0.46999998093E+01 0.  1.
</event>
<event>
 5   0  0.7236375E-08  0.3645570E+04  0.7818609E-02  0.8080132E-01
        1   -1    0    0  501    0  0.00000000000E+00  0.00000000000E+00  0.26877712068E+04  0.26877712069E+04  0.50400001928E-02 0. -1.
       -1   -1    0    0    0  501  0.00000000000E+00  0.00000000000E+00 -0.12361712926E+04  0.12361712926E+04  0.50400001928E-02 0.  1.
    10030    2    1    2    0    0  0.00000000000E+00  0.00000000000E+00  0.14515999142E+04  0.39239424995E+04  0.36455702473E+04 0.  0.
        1    1    3    3  502    0  0.13513396499E+04 -0.11953479535E+04  0.44600865314E+03  0.18584669214E+04  0.50400001928E-02 0.  1.
       -1    1    3    3    0  502 -0.13513396499E+04  0.11953479535E+04  0.10055912611E+04  0.20654755781E+04  0.50400001928E-02 0. -1.
</event>
<event>
 5   0  0.2238968E-07  0.3601870E+04  0.7818609E-02  0.8090063E-01
        2   -1    0    0  501    0  0.00000000000E+00  0.00000000000E+00  0.30604295177E+04  0.30604295177E+04  0.25500000920E-02 0. -1.
       -2   -1    0    0    0  501  0.00000000000E+00  0.00000000000E+00 -0.10597752017E+04  0.10597752017E+04  0.25500000920E-02 0.  1.
    10030    2    1    2    0    0  0.00000000000E+00  0.00000000000E+00  0.20006543160E+04  0.41202047194E+04  0.36018702417E+04 0.  0.
        3    1    3    3  502    0  0.12112864765E+04 -0.16549741883E+03 -0.51238468500E+03  0.13255724799E+04  0.10100000352E+00 0.  1.
       -3    1    3    3    0  502 -0.12112864765E+04  0.16549741883E+03  0.25130390010E+04  0.27946322395E+04  0.10100000352E+00 0. -1.
</event>
<event>
 5   0  0.7347303E-08  0.3598188E+04  0.7818609E-02  0.8090907E-01
       -1   -1    0    0    0  501  0.00000000000E+00  0.00000000000E+00  0.14431645185E+04  0.14431645185E+04  0.50400001928E-02 0.  1.
        1   -1    0    0  501    0  0.00000000000E+00  0.00000000000E+00 -0.22428071014E+04  0.22428071014E+04  0.50400001928E-02 0. -1.
    10030    2    1    2    0    0  0.00000000000E+00  0.00000000000E+00 -0.79964258283E+03  0.36859716199E+04  0.35981882278E+04 0.  0.
        2    1    3    3  502    0  0.40875878118E+03  0.20577484253E+03  0.13825441099E+04  0.14563156399E+04  0.25500000920E-02 0.  1.
       -2    1    3    3    0  502 -0.40875878118E+03 -0.20577484253E+03 -0.21821866928E+04  0.22296559800E+04  0.25500000920E-02 0. -1.
</event>
<event>
 5   0  0.2309391E-07  0.3636240E+04  0.7818609E-02  0.8082241E-01
        2   -1    0    0  501    0  0.00000000000E+00  0.00000000000E+00  0.15573118317E+04  0.15573118317E+04  0.25500000920E-02 0.  1.
       -2   -1    0    0    0  501  0.00000000000E+00  0.00000000000E+00 -0.21226065026E+04  0.21226065027E+04  0.25500000920E-02 0. -1.
    10030    2    1    2    0    0  0.00000000000E+00  0.00000000000E+00 -0.56529467094E+03  0.36799183344E+04  0.36362399374E+04 0.  0.
        4    1    3    3  502    0  0.14841965506E+04 -0.55974822309E+03 -0.11818022478E+04  0.19780838303E+04  0.12699999809E+01 0. -1.
       -4    1    3    3    0  502 -0.14841965506E+04  0.55974822309E+03  0.61650757686E+03  0.17018345041E+04  0.12699999809E+01 0.  1.
</event>
<event>
 5   0  0.7514289E-08  0.3600845E+04  0.7818609E-02  0.8090298E-01
       -1   -1    0    0    0  501  0.00000000000E+00  0.00000000000E+00  0.18642006008E+04  0.18642006008E+04  0.50400001928E-02 0. -1.
        1   -1    0    0  501    0  0.00000000000E+00  0.00000000000E+00 -0.17388268234E+04  0.17388268234E+04  0.50400001928E-02 0.  1.
    10030    2    1    2    0    0  0.00000000000E+00  0.00000000000E+00  0.12537377738E+03  0.36030274242E+04  0.36008454612E+04 0.  0.
        4    1    3    3  502    0  0.15011291730E+04 -0.25978652098E+03  0.10227695131E+04  0.18349215025E+04  0.12699999809E+01 0. -1.
       -4    1    3    3    0  502 -0.15011291730E+04  0.25978652098E+03 -0.89739573573E+03  0.17681059216E+04  0.12699999809E+01 0.  1.
</event>
<event>
 5   0  0.2309391E-07  0.3484729E+04  0.7818609E-02  0.8117419E-01
        2   -1    0    0  501    0  0.00000000000E+00  0.00000000000E+00  0.13875103942E+04  0.13875103942E+04  0.25500000920E-02 0. -1.
       -2   -1    0    0    0  501  0.00000000000E+00  0.00000000000E+00 -0.21879714953E+04  0.21879714953E+04  0.25500000920E-02 0.  1.
    10030    2    1    2    0    0  0.00000000000E+00  0.00000000000E+00 -0.80046110112E+03  0.35754818896E+04  0.34847285071E+04 0.  0.
        4    1    3    3  502    0 -0.16246201112E+04  0.62318052549E+03 -0.49250090887E+03  0.18083979737E+04  0.12699999809E+01 0.  1.
       -4    1    3    3    0  502  0.16246201112E+04 -0.62318052549E+03 -0.30796019226E+03  0.17670839159E+04  0.12699999809E+01 0. -1.
</event>
<event>
 5   0  0.2199902E-07  0.3609464E+04  0.7818609E-02  0.8088327E-01
       -2   -1    0    0    0  501  0.00000000000E+00  0.00000000000E+00  0.31939404075E+04  0.31939404075E+04  0.25500000920E-02 0. -1.
        2   -1    0    0  501    0  0.00000000000E+00  0.00000000000E+00 -0.10197612875E+04  0.10197612875E+04  0.25500000920E-02 0.  1.
    10030    2    1    2    0    0  0.00000000000E+00  0.00000000000E+00  0.21741791200E+04  0.42137016951E+04  0.36094635514E+04 0.  0.
        1    1    3    3  502    0 -0.98361985663E+02 -0.60874058732E+03  0.30671443795E+04  0.31285163940E+04  0.50400001928E-02 0. -1.
       -1    1    3    3    0  502  0.98361985663E+02  0.60874058732E+03 -0.89296525950E+03  0.10851853010E+04  0.50400001928E-02 0.  1.
</event>
<event>
 5   0  0.2198900E-07  0.3601806E+04  0.7818609E-02  0.8090078E-01
       -2   -1    0    0    0  501  0.00000000000E+00  0.00000000000E+00  0.13414156914E+04  0.13414156914E+04  0.25500000920E-02 0.  1.
        2   -1    0    0  501    0  0.00000000000E+00  0.00000000000E+00 -0.24177832817E+04  0.24177832817E+04  0.25500000920E-02 0. -1.
    10030    2    1    2    0    0  0.00000000000E+00  0.00000000000E+00 -0.10763675904E+04  0.37591989731E+04  0.36018064537E+04 0.  0.
        2    1    3    3  502    0  0.33969603405E+03 -0.16791562450E+04  0.41320973526E+02  0.17136704799E+04  0.25500000920E-02 0. -1.
       -2    1    3    3    0  502 -0.33969603405E+03  0.16791562450E+04 -0.11176885639E+04  0.20455284932E+04  0.25500000920E-02 0.  1.
</event>
<event>
 5   0  0.7261233E-08  0.3630619E+04  0.7818609E-02  0.8083514E-01
       -1   -1    0    0    0  501  0.00000000000E+00  0.00000000000E+00  0.17588542010E+04  0.17588542010E+04  0.50400001928E-02 0.  1.
        1   -1    0    0  501    0  0.00000000000E+00  0.00000000000E+00 -0.18735766558E+04  0.18735766558E+04  0.50400001928E-02 0. -1.
    10030    2    1    2    0    0  0.00000000000E+00  0.00000000000E+00 -0.11472245487E+03  0.36324308568E+04  0.36306187748E+04 0.  0.
        3    1    3    3  502    0  0.47528067735E+03 -0.16955156146E+04  0.38408823257E+03  0.18022732041E+04  0.10100000352E+00 0. -1.
       -3    1    3    3    0  502 -0.47528067735E+03  0.16955156146E+04 -0.49881068744E+03  0.18301576527E+04  0.10100000352E+00 0.  1.
</event>
<event>
 5   0  0.7236375E-08  0.3591369E+04  0.7818609E-02  0.8092472E-01
        1   -1    0    0  501    0  0.00000000000E+00  0.00000000000E+00  0.17630226723E+04  0.17630226723E+04  0.50400001928E-02 0. -1.
       -1   -1    0    0    0  501  0.00000000000E+00  0.00000000000E+00 -0.18289517037E+04  0.18289517037E+04  0.50400001928E-02 0.  1.
    10030    2    1    2    0    0  0.00000000000E+00  0.00000000000E+00 -0.65929031354E+02  0.35919743760E+04  0.35913692766E+04 0.  0.
        1    1    3    3  502    0 -0.63840665489E+03  0.13225240734E+03  0.16404669825E+04  0.17652721255E+04  0.50400001928E-02 0. -1.
       -1    1    3    3    0  502  0.63840665489E+03 -0.13225240734E+03 -0.17063960138E+04  0.18267022506E+04  0.50400001928E-02 0.  1.
</event>
<event>
 5   0  0.7347303E-08  0.3600137E+04  0.7818609E-02  0.8090460E-01
       -1   -1    0    0    0  501  0.00000000000E+00  0.00000000000E+00  0.15150037634E+04  0.15150037634E+04  0.50400001928E-02 0.  1.
        1   -1    0    0  501    0  0.00000000000E+00  0.00000000000E+00 -0.21387710903E+04  0.21387710903E+04  0.50400001928E-02 0. -1.
    10030    2    1    2    0    0  0.00000000000E+00  0.00000000000E+00 -0.62376732687E+03  0.36537748537E+04  0.36001368034E+04 0.  0.
        2    1    3    3  502    0  0.13940896831E+04  0.58466004240E+03  0.67988228534E+03  0.16575745328E+04  0.25500000920E-02 0.  1.
       -2    1    3    3    0  502 -0.13940896831E+04 -0.58466004240E+03 -0.13036496122E+04  0.19962003209E+04  0.25500000920E-02 0. -1.
</event>
<event>
 5   0  0.2198900E-07  0.3608255E+04  0.7818609E-02  0.8088603E-01
       -2   -1    0    0    0  501  0.00000000000E+00  0.00000000000E+00  0.12329549185E+04  0.12329549185E+04  0.25500000920E-02 0.  1.
        2   -1    0    0  501    0  0.00000000000E+00  0.00000000000E+00 -0.26398991371E+04  0.26398991371E+04  0.25500000920E-02 0. -1.
    10030    2    1    2    0    0  0.00000000000E+00  0.00000000000E+00 -0.14069442186E+04  0.38728540557E+04  0.36082553267E+04 0.  0.
        2    1    3    3  502    0  0.14276894797E+04  0.17789338375E+03  0.46489904374E+03  0.15119769930E+04  0.25500000920E-02 0.  1.
       -2    1    3    3    0  502 -0.14276894797E+04 -0.17789338375E+03 -0.18718432623E+04  0.23608770627E+04  0.25500000920E-02 0. -1.
</event>
<event>
 5   0  0.2342606E-07  0.3533227E+04  0.7818609E-02  0.8105960E-01
        2   -1    0    0  501    0  0.00000000000E+00  0.00000000000E+00  0.25319327582E+04  0.25319327582E+04  0.25500000920E-02 0.  1.
       -2   -1    0    0    0  501  0.00000000000E+00  0.00000000000E+00 -0.12326247322E+04  0.12326247322E+04  0.25500000920E-02 0. -1.
    10030    2    1    2    0    0  0.00000000000E+00  0.00000000000E+00  0.12993080259E+04  0.37645574904E+04  0.35332268187E+04 0.  0.
        5    1    3    3  502    0  0.33638440897E+03  0.49295424296E+03 -0.11219626617E+04  0.12708188937E+04  0.46999998093E+01 0. -1.
       -5    1    3    3    0  502 -0.33638440897E+03 -0.49295424296E+03  0.24212706876E+04  0.24937385967E+04  0.46999998093E+01 0.  1.
</event>
<event>
 5   0  0.7236375E-08  0.3619276E+04  0.7818609E-02  0.8086091E-01
        1   -1    0    0  501    0  0.00000000000E+00  0.00000000000E+00  0.19580612872E+04  0.19580612872E+04  0.50400001928E-02 0.  1.
       -1   -1    0    0    0  501  0.00000000000E+00  0.00000000000E+00 -0.16724652515E+04  0.16724652515E+04  0.50400001928E-02 0. -1.
    10030    2    1    2    0    0  0.00000000000E+00  0.00000000000E+00  0.28559603574E+03  0.36305265387E+04  0.36192758740E+04 0.  0.
        1    1    3    3  502    0 -0.70756351783E+01 -0.14691979535E+04  0.12025843373E+04  0.18986315544E+04  0.50400001928E-02 0.  1.
       -1    1    3    3    0  502  0.70756351783E+01  0.14691979535E+04 -0.91698830153E+03  0.17318949842E+04  0.50400001928E-02 0. -1.
</event>
<event>
 5   0  0.2199902E-07  0.3619914E+04  0.7818609E-02  0.8085945E-01
        2   -1    0    0  501    0  0.00000000000E+00  0.00000000000E+00  0.10201627275E+04  0.10201627275E+04  0.25500000920E-02 0. -1.
       -2   -1    0    0    0  501  0.00000000000E+00  0.00000000000E+00 -0.32111971914E+04  0.32111971914E+04  0.25500000920E-02 0.  1.
    10030    2    1    2    0    0  0.00000000000E+00  0.00000000000E+00 -0.21910344639E+04  0.42313599189E+04  0.36199136373E+04 0.  0.
        1    1    3    3  502    0 -0.26135386078E+03  0.10777016206E+04 -0.27675912051E+04  0.29814942063E+04  0.50400001928E-02 0.  1.
       -1    1    3    3    0  502  0.26135386078E+03 -0.10777016206E+04  0.57655674125E+03  0.12498657126E+04  0.50400001928E-02 0. -1.
</event>
<event>
 5   0  0.7236375E-08  0.3575899E+04  0.7818609E-02  0.8096035E-01
       -1   -1    0    0    0  501  0.00000000000E+00  0.00000000000E+00  0.17627316785E+04  0.17627316785E+04  0.50400001928E-02 0.  1.
        1   -1    0    0  501    0  0.00000000000E+00  0.00000000000E+00 -0.18135276790E+04  0.18135276790E+04  0.50400001928E-02 0. -1.
    10030    2    1    2    0    0  0.00000000000E+00  0.00000000000E+00 -0.50796000563E+02  0.35762593575E+04  0.35758985946E+04 0.  0.
        1    1    3    3  502    0  0.30500807484E+03 -0.81928357532E+03  0.15344090488E+04  0.17659746973E+04  0.50400001928E-02 0.  1.
       -1    1    3    3    0  502 -0.30500807484E+03  0.81928357532E+03 -0.15852050493E+04  0.18102846602E+04  0.50400001928E-02 0. -1.
</event>
<event>
 5   0  0.2342606E-07  0.3602255E+04  0.7818609E-02  0.8089975E-01
       -2   -1    0    0    0  501  0.00000000000E+00  0.00000000000E+00  0.12813673959E+04  0.12813673959E+04  0.25500000920E-02 0.  1.
        2   -1    0    0  501    0  0.00000000000E+00  0.00000000000E+00 -0.25317170138E+04  0.25317170138E+04  0.25500000920E-02 0. -1.
    10030    2    1    2    0    0  0.00000000000E+00  0.00000000000E+00 -0.12503496179E+04  0.38130844097E+04  0.36022546479E+04 0.  0.
        5    1    3    3  502    0 -0.16352936827E+04  0.38129905564E+03  0.64464494373E+02  0.16804023803E+04  0.46999998093E+01 0.  1.
       -5    1    3    3    0  502  0.16352936827E+04 -0.38129905564E+03 -0.13148141123E+04  0.21326820294E+04  0.46999998093E+01 0. -1.
</event>
<event>
 5   0  0.2309391E-07  0.3604681E+04  0.7818609E-02  0.8089420E-01
        2   -1    0    0  501    0  0.00000000000E+00  0.00000000000E+00  0.15473778124E+04  0.15473778124E+04  0.25500000920E-02 0.  1.
       -2   -1    0    0    0  501  0.00000000000E+00  0.00000000000E+00 -0.20993134066E+04  0.20993134066E+04  0.25500000920E-02 0. -1.
    10030    2    1    2    0    0  0.00000000000E+00  0.00000000000E+00 -0.55193559423E+03  0.36466912190E+04  0.36046808384E+04 0.  0.
        4    1    3    3  502    0  0.11625705386E+04  0.57319236502E+02 -0.16680768923E+04  0.20340447103E+04  0.12699999809E+01 0. -1.
       -4    1    3    3    0  502 -0.11625705386E+04 -0.57319236502E+02  0.11161412981E+04  0.16126465087E+04  0.12699999809E+01 0.  1.
</event>
<event>
 5   0  0.2342606E-07  0.3600760E+04  0.7818609E-02  0.8090318E-01
       -2   -1    0    0    0  501  0.00000000000E+00  0.00000000000E+00  0.15535251442E+04  0.15535251442E+04  0.25500000920E-02 0. -1.
        2   -1    0    0  501    0  0.00000000000E+00  0.00000000000E+00 -0.20864603927E+04  0.20864603927E+04  0.25500000920E-02 0.  1.
    10030    2    1    2    0    0  0.00000000000E+00  0.00000000000E+00 -0.53293524848E+03  0.36399855369E+04  0.36007602988E+04 0.  0.
        5    1    3    3  502    0 -0.12943347242E+04 -0.23981038698E+03  0.97513656605E+03  0.16382078050E+04  0.46999998093E+01 0. -1.
       -5    1    3    3    0  502  0.12943347242E+04  0.23981038698E+03 -0.15080718145E+04  0.20017777319E+04  0.46999998093E+01 0.  1.
</event>
<event>
 5   0  0.2342606E-07  0.3608816E+04  0.7818609E-02  0.8088475E-01
       -2   -1    0    0    0  501  0.00000000000E+00  0.00000000000E+00  0.19363581025E+04  0.19363581025E+04  0.25500000920E-02 0. -1.
        2   -1    0    0  501    0  0.00000000000E+00  0.00000000000E+00 -0.16814495747E+04  0.16814495747E+04  0.25500000920E-02 0.  1.
    10030    2    1    2    0    0  0.00000000000E+00  0.00000000000E+00  0.25490852780E+03  0.36178076772E+04  0.36088161538E+04 0.  0.
        5    1    3    3  502    0  0.14179142855E+04  0.29589161548E+03  0.12061620200E+04  0.18849089308E+04  0.46999998093E+01 0. -1.
       -5    1    3    3    0  502 -0.14179142855E+04 -0.29589161548E+03 -0.95125349215E+03  0.17328987464E+04  0.46999998093E+01 0.  1.
</event>
<event>
 5   0  0.7236375E-08  0.3600271E+04  0.7818609E-02  0.8090430E-01
       -4   -1    0    0    0  501  0.00000000000E+00  0.00000000000E+00  0.24863721854E+04  0.24863725098E+04  0.12699999809E+01 0. -1.
        4   -1    0    0  501    0  0.00000000000E+00  0.00000000000E+00 -0.13032991335E+04  0.13032997523E+04  0.12699999809E+01 0.  1.
    10030    2    1    2    0    0  0.00000000000E+00  0.00000000000E+00  0.11830730519E+04  0.37896722621E+04  0.36002713798E+04 0.  0.
        5    1    3    3  502    0 -0.11214845814E+04 -0.13633704017E+04  0.96213788879E+03  0.20105317520E+04  0.46999998093E+01 0. -1.
       -5    1    3    3    0  502  0.11214845814E+04  0.13633704017E+04  0.22093516312E+03  0.17791405102E+04  0.46999998093E+01 0.  1.
</event>
<event>
 5   0  0.2199902E-07  0.3598394E+04  0.7818609E-02  0.8090860E-01
       -2   -1    0    0    0  501  0.00000000000E+00  0.00000000000E+00  0.16728944606E+04  0.16728944606E+04  0.25500000920E-02 0.  1.
        2   -1    0    0  501    0  0.00000000000E+00  0.00000000000E+00 -0.19350352430E+04  0.19350352430E+04  0.25500000920E-02 0. -1.
    10030    2    1    2    0    0  0.00000000000E+00  0.00000000000E+00 -0.26214078238E+03  0.36079297035E+04  0.35983939412E+04 0.  0.
        1    1    3    3  502    0 -0.45274506344E+03  0.30997288937E+03 -0.18491012872E+04  0.19287915530E+04  0.50400001928E-02 0. -1.
       -1    1    3    3    0  502  0.45274506344E+03 -0.30997288937E+03  0.15869605048E+04  0.16791381505E+04  0.50400001928E-02 0.  1.
</event>
<event>
 5   0  0.7347303E-08  0.3596862E+04  0.7818609E-02  0.8091211E-01
       -1   -1    0    0    0  501  0.00000000000E+00  0.00000000000E+00  0.18065386293E+04  0.18065386293E+04  0.50400001928E-02 0. -1.
        1   -1    0    0  501    0  0.00000000000E+00  0.00000000000E+00 -0.17903600811E+04  0.17903600811E+04  0.50400001928E-02 0.  1.
    10030    2    1    2    0    0  0.00000000000E+00  0.00000000000E+00  0.16178548185E+02  0.35968987105E+04  0.35968623254E+04 0.  0.
        2    1    3    3  502    0 -0.14800743700E+04 -0.23437645232E+03 -0.98630611501E+03  0.17939766483E+04  0.25500000920E-02 0.  1.
       -2    1    3    3    0  502  0.14800743700E+04  0.23437645232E+03  0.10024846632E+04  0.18029220621E+04  0.25500000920E-02 0. -1.
</event>
<event>
 5   0  0.2309391E-07  0.3592370E+04  0.7818609E-02  0.8092242E-01
        2   -1    0    0  501    0  0.00000000000E+00  0.00000000000E+00  0.12300677257E+04  0.12300677257E+04  0.25500000920E-02 0. -1.
       -2   -1    0    0    0  501  0.00000000000E+00  0.00000000000E+00 -0.26228479929E+04  0.26228479929E+04  0.25500000920E-02 0.  1.
    10030    2    1    2    0    0  0.00000000000E+00  0.00000000000E+00 -0.13927802672E+04  0.38529157186E+04  0.35923700620E+04 0.  0.
        4    1    3    3  502    0  0.37074138459E+03  0.14615197527E+02 -0.25812992650E+04  0.26078286537E+04  0.12699999809E+01 0.  1.
       -4    1    3    3    0  502 -0.37074138459E+03 -0.14615197527E+02  0.11885189978E+04  0.12450870650E+04  0.12699999809E+01 0. -1.
</event>
<event>
 5   0  0.7261233E-08  0.3605687E+04  0.7818609E-02  0.8089190E-01
        1   -1    0    0  501    0  0.00000000000E+00  0.00000000000E+00  0.21246569466E+04  0.21246569466E+04  0.50400001928E-02 0.  1.
       -1   -1    0    0    0  501  0.00000000000E+00  0.00000000000E+00 -0.15297742390E+04  0.15297742390E+04  0.50400001928E-02 0. -1.
    10030    2    1    2    0    0  0.00000000000E+00  0.00000000000E+00  0.59488270761E+03  0.36544311857E+04  0.36056874317E+04 0.  0.
        3    1    3    3  502    0 -0.84618587278E+03 -0.12854646063E+03  0.19056148586E+04  0.20890004125E+04  0.10100000352E+00 0.  1.
       -3    1    3    3    0  502  0.84618587278E+03  0.12854646063E+03 -0.13107321510E+04  0.15654307732E+04  0.10100000352E+00 0. -1.
</event>
<event>
 5   0  0.2238968E-07  0.3602578E+04  0.7818609E-02  0.8089901E-01
        2   -1    0    0  501    0  0.00000000000E+00  0.00000000000E+00  0.23437508798E+04  0.23437508798E+04  0.25500000920E-02 0.  1.
       -2   -1    0    0    0  501  0.00000000000E+00  0.00000000000E+00 -0.13843804517E+04  0.13843804517E+04  0.25500000920E-02 0. -1.
    10030    2    1    2    0    0  0.00000000000E+00  0.00000000000E+00  0.95937042811E+03  0.37281313315E+04  0.36025784664E+04 0.  0.
        3    1    3    3  502    0  0.21163990560E+03  0.14453033257E+04 -0.61106412786E+03  0.15833800970E+04  0.10100000352E+00 0. -1.
       -3    1    3    3    0  502 -0.21163990560E+03 -0.14453033257E+04  0.15704345560E+04  0.21447512345E+04  0.10100000352E+00 0.  1.
</event>
<event>
 5   0  0.7514289E-08  0.3597357E+04  0.7818609E-02  0.8091097E-01
        1   -1    0    0  501    0  0.00000000000E+00  0.00000000000E+00  0.17242915943E+04  0.17242915943E+04  0.50400001928E-02 0.  1.
       -1   -1    0    0    0  501  0.00000000000E+00  0.00000000000E+00 -0.18762746269E+04  0.18762746269E+04  0.50400001928E-02 0. -1.
    10030    2    1    2    0    0  0.00000000000E+00  0.00000000000E+00 -0.15198303253E+03  0.36005662212E+04  0.35973571231E+04 0.  0.
        4    1    3    3  502    0  0.15197182449E+04 -0.80901494142E+03 -0.59721920199E+03  0.18222845847E+04  0.12699999809E+01 0. -1.
       -4    1    3    3    0  502 -0.15197182449E+04  0.80901494142E+03  0.44523616946E+03  0.17782816365E+04  0.12699999809E+01 0.  1.
</event>
<event>
 5   0  0.2199902E-07  0.3664905E+04  0.7818609E-02  0.8075784E-01
        2   -1    0    0  501    0  0.00000000000E+00  0.00000000000E+00  0.26950169842E+04  0.26950169842E+04  0.25500000920E-02 0. -1.
       -2   -1    0    0    0  501  0.00000000000E+00  0.00000000000E+00 -0.12459593261E+04  0.12459593261E+04  0.25500000920E-02 0.  1.
    10030    2    1    2    0    0  0.00000000000E+00  0.00000000000E+00  0.14490576581E+04  0.39409763103E+04  0.36649046620E+04 0.  0.
        1    1    3    3  502    0 -0.11715409148E+04 -0.42231159276E+03 -0.72098877620E+03  0.14389857580E+04  0.50400001928E-02 0.  1.
       -1    1    3    3    0  502  0.11715409148E+04  0.42231159276E+03  0.21700464343E+04  0.25019905522E+04  0.50400001928E-02 0. -1.
</event>
<event>
 5   0  0.7236375E-08  0.3602160E+04  0.7818609E-02  0.8089997E-01
        1   -1    0    0  501    0  0.00000000000E+00  0.00000000000E+00  0.20531517129E+04  0.20531517129E+04  0.50400001928E-02 0.  1.
       -1   -1    0    0    0  501  0.00000000000E+00  0.00000000000E+00 -0.15799555063E+04  0.15799555063E+04  0.50400001928E-02 0. -1.
    10030    2    1    2    0    0  0.00000000000E+00  0.00000000000E+00  0.47319620653E+03  0.36331072192E+04  0.36021595490E+04 0.  0.
        5    1    3    3  502    0 -0.10899376893E+04 -0.13026253668E+04 -0.36777395557E+03  0.17378368120E+04  0.46999998093E+01 0.  1.
       -5    1    3    3    0  502  0.10899376893E+04  0.13026253668E+04  0.84097016210E+03  0.18952704072E+04  0.46999998093E+01 0. -1.
</event>
<event>
 5   0  0.7514289E-08  0.3586247E+04  0.7818609E-02  0.8093649E-01
        1   -1    0    0  501    0  0.00000000000E+00  0.00000000000E+00  0.15213455973E+04  0.15213455973E+04  0.50400001928E-02 0.  1.
       -1   -1    0    0    0  501  0.00000000000E+00  0.00000000000E+00 -0.21134526446E+04  0.21134526446E+04  0.50400001928E-02 0. -1.
    10030    2    1    2    0    0  0.00000000000E+00  0.00000000000E+00 -0.59210704729E+03  0.36347982419E+04  0.35862469943E+04 0.  0.
        4    1    3    3  502    0  0.59616617098E+03 -0.78945638034E+01  0.14179392774E+04  0.15381904417E+04  0.12699999809E+01 0.  1.
       -4    1    3    3    0  502 -0.59616617098E+03  0.78945638034E+01 -0.20100463247E+04  0.20966078002E+04  0.12699999809E+01 0. -1.
</event>
<event>
 5   0  0.2238968E-07  0.3607906E+04  0.7818609E-02  0.8088683E-01
        2   -1    0    0  501    0  0.00000000000E+00  0.00000000000E+00  0.24519272580E+04  0.24519272580E+04  0.25500000920E-02 0.  1.
       -2   -1    0    0    0  501  0.00000000000E+00  0.00000000000E+00 -0.13272196210E+04  0.13272196210E+04  0.25500000920E-02 0. -1.
    10030    2    1    2    0    0  0.00000000000E+00  0.00000000000E+00  0.11247076370E+04  0.37791468791E+04  0.36079057450E+04 0.  0.
        3    1    3    3  502    0 -0.10690123938E+04 -0.10554544856E+04  0.16084929385E+04  0.22009137222E+04  0.10100000352E+00 0.  1.
       -3    1    3    3    0  502  0.10690123938E+04  0.10554544856E+04 -0.48378530151E+03  0.15782331569E+04  0.10100000352E+00 0. -1.
</event>
<event>
 5   0  0.7236375E-08  0.3601915E+04  0.7818609E-02  0.8090053E-01
        1   -1    0    0  501    0  0.00000000000E+00  0.00000000000E+00  0.98629165937E+03  0.98629165938E+03  0.50400001928E-02 0.  1.
       -1   -1    0    0    0  501  0.00000000000E+00  0.00000000000E+00 -0.32885276381E+04  0.32885276381E+04  0.50400001928E-02 0. -1.
    10030    2    1    2    0    0  0.00000000000E+00  0.00000000000E+00 -0.23022359788E+04  0.42748192975E+04  0.36019147025E+04 0.  0.
        5    1    3    3  502    0  0.15062760586E+03 -0.73862050889E+03 -0.30922744699E+04  0.31828340232E+04  0.46999998093E+01 0. -1.
       -5    1    3    3    0  502 -0.15062760586E+03  0.73862050889E+03  0.79003849117E+03  0.10919852743E+04  0.46999998093E+01 0.  1.
</event>
<event>
 5   0  0.7261233E-08  0.3603064E+04  0.7818609E-02  0.8089790E-01
        1   -1    0    0  501    0  0.00000000000E+00  0.00000000000E+00  0.22878181029E+04  0.22878181029E+04  0.50400001928E-02 0.  1.
       -1   -1    0    0    0  501  0.00000000000E+00  0.00000000000E+00 -0.14186085899E+04  0.14186085900E+04  0.50400001928E-02 0. -1.
    10030    2    1    2    0    0  0.00000000000E+00  0.00000000000E+00  0.86920951293E+03  0.37064266928E+04  0.36030644807E+04 0.  0.
        3    1    3    3  502    0 -0.79103336357E+03 -0.56206169743E+03  0.19959986801E+04  0.22193823184E+04  0.10100000352E+00 0.  1.
       -3    1    3    3    0  502  0.79103336357E+03  0.56206169743E+03 -0.11267891672E+04  0.14870443744E+04  0.10100000352E+00 0. -1.
</event>
<event>
 5   0  0.7347303E-08  0.3594919E+04  0.7818609E-02  0.8091657E-01
        1   -1    0    0  501    0  0.00000000000E+00  0.00000000000E+00  0.18499717069E+04  0.18499717069E+04  0.50400001928E-02 0.  1.
       -1   -1    0    0    0  501  0.00000000000E+00  0.00000000000E+00 -0.17464374107E+04  0.17464374107E+04  0.50400001928E-02 0. -1.
    10030    2    1    2    0    0  0.00000000000E+00  0.00000000000E+00  0.10353429613E+03  0.35964091176E+04  0.35949185235E+04 0.  0.
        2    1    3    3  502    0  0.22709890669E+03  0.12370387189E+03 -0.17277292985E+04  0.17469759844E+04  0.25500000920E-02 0. -1.
       -2    1    3    3    0  502 -0.22709890669E+03 -0.12370387189E+03  0.18312635946E+04  0.18494331332E+04  0.25500000920E-02 0.  1.
</event>
<event>
 5   0  0.2198900E-07  0.3606036E+04  0.7818609E-02  0.8089111E-01
        2   -1    0    0  501    0  0.00000000000E+00  0.00000000000E+00  0.12570174251E+04  0.12570174251E+04  0.25500000920E-02 0.  1.
       -2   -1    0    0    0  501  0.00000000000E+00  0.00000000000E+00 -0.25861800460E+04  0.25861800460E+04  0.25500000920E-02 0. -1.
    10030    2    1    2    0    0  0.00000000000E+00  0.00000000000E+00 -0.13291626209E+04  0.38431974712E+04  0.36060357083E+04 0.  0.
        2    1    3    3  502    0 -0.15154794862E+03  0.12306618191E+04 -0.20596297297E+04  0.24040736089E+04  0.25500000920E-02 0. -1.
       -2    1    3    3    0  502  0.15154794862E+03 -0.12306618191E+04  0.73046710876E+03  0.14391238622E+04  0.25500000920E-02 0.  1.
</event>
<event>
 5   0  0.7347303E-08  0.3577657E+04  0.7818609E-02  0.8095629E-01
        1   -1    0    0  501    0  0.00000000000E+00  0.00000000000E+00  0.10696998348E+04  0.10696998348E+04  0.50400001928E-02 0.  1.
       -1   -1    0    0    0  501  0.00000000000E+00  0.00000000000E+00 -0.29914075530E+04  0.29914075530E+04  0.50400001928E-02 0. -1.
    10030    2    1    2    0    0  0.00000000000E+00  0.00000000000E+00 -0.19217077183E+04  0.40611073878E+04  0.35776574265E+04 0.  0.
        2    1    3    3  502    0 -0.12204560546E+04 -0.55838817340E+03 -0.23032853956E+04  0.26657895541E+04  0.25500000920E-02 0. -1.
       -2    1    3    3    0  502  0.12204560546E+04  0.55838817340E+03  0.38157767729E+03  0.13953178337E+04  0.25500000920E-02 0.  1.
</event>
<event>
 5   0  0.7347303E-08  0.3539503E+04  0.7818609E-02  0.8104492E-01
        1   -1    0    0  501    0  0.00000000000E+00  0.00000000000E+00  0.15185012631E+04  0.15185012632E+04  0.50400001928E-02 0. -1.
       -1   -1    0    0    0  501  0.00000000000E+00  0.00000000000E+00 -0.20625735562E+04  0.20625735562E+04  0.50400001928E-02 0.  1.
    10030    2    1    2    0    0  0.00000000000E+00  0.00000000000E+00 -0.54407229306E+03  0.35810748194E+04  0.35395031010E+04 0.  0.
        2    1    3    3  502    0 -0.10102114879E+04  0.14323010750E+04 -0.24195915854E+02  0.17528830714E+04  0.25500000920E-02 0. -1.
       -2    1    3    3    0  502  0.10102114879E+04 -0.14323010750E+04 -0.51987637720E+03  0.18281917479E+04  0.25500000920E-02 0.  1.
</event>
<event>
 5   0  0.7261233E-08  0.3596724E+04  0.7818609E-02  0.8091243E-01
       -1   -1    0    0    0  501  0.00000000000E+00  0.00000000000E+00  0.19350285757E+04  0.19350285758E+04  0.50400001928E-02 0. -1.
        1   -1    0    0  501    0  0.00000000000E+00  0.00000000000E+00 -0.16713478824E+04  0.16713478824E+04  0.50400001928E-02 0.  1.
    10030    2    1    2    0    0  0.00000000000E+00  0.00000000000E+00  0.26368069332E+03  0.36063764582E+04  0.35967240164E+04 0.  0.
        3    1    3    3  502    0 -0.77707726470E+03  0.73874383615E+02  0.17563115002E+04  0.19219616531E+04  0.10100000352E+00 0. -1.
       -3    1    3    3    0  502  0.77707726470E+03 -0.73874383615E+02 -0.14926308069E+04  0.16844148051E+04  0.10100000352E+00 0.  1.
</event>
<event>
 5   0  0.2199902E-07  0.3596638E+04  0.7818609E-02  0.8091262E-01
       -2   -1    0    0    0  501  0.00000000000E+00  0.00000000000E+00  0.13872944271E+04  0.13872944271E+04  0.25500000920E-02 0. -1.
        2   -1    0    0  501    0  0.00000000000E+00  0.00000000000E+00 -0.23311205058E+04  0.23311205058E+04  0.25500000920E-02 0.  1.
    10030    2    1    2    0    0  0.00000000000E+00  0.00000000000E+00 -0.94382607871E+03  0.37184149330E+04  0.35966375890E+04 0.  0.
        1    1    3    3  502    0 -0.10131723443E+04  0.23149391866E+03  0.10453755032E+04  0.14740819436E+04  0.50400001928E-02 0. -1.
       -1    1    3    3    0  502  0.10131723443E+04 -0.23149391866E+03 -0.19892015819E+04  0.22443329894E+04  0.50400001928E-02 0.  1.
</event>
<event>
 5   0  0.2309391E-07  0.3631159E+04  0.7818609E-02  0.8083392E-01
       -2   -1    0    0    0  501  0.00000000000E+00  0.00000000000E+00  0.11616127806E+04  0.11616127806E+04  0.25500000920E-02 0.  1.
        2   -1    0    0  501    0  0.00000000000E+00  0.00000000000E+00 -0.28377167639E+04  0.28377167639E+04  0.25500000920E-02 0. -1.
    10030    2    1    2    0    0  0.00000000000E+00  0.00000000000E+00 -0.16761039833E+04  0.39993295445E+04  0.36311585262E+04 0.  0.
        4    1    3    3  502    0 -0.20633878512E+03 -0.94148411107E+03 -0.25326784779E+04  0.27098763645E+04  0.12699999809E+01 0. -1.
       -4    1    3    3    0  502  0.20633878512E+03  0.94148411107E+03  0.85657449462E+03  0.12894531800E+04  0.12699999809E+01 0.  1.
</event>
<event>
 5   0  0.7236375E-08  0.3564512E+04  0.7818609E-02  0.8098669E-01
       -1   -1    0    0    0  501  0.00000000000E+00  0.00000000000E+00  0.25320945930E+04  0.25320945930E+04  0.50400001928E-02 0. -1.
        1   -1    0    0  501    0  0.00000000000E+00  0.00000000000E+00 -0.12544696806E+04  0.12544696806E+04  0.50400001928E-02 0.  1.
    10030    2    1    2    0    0  0.00000000000E+00  0.00000000000E+00  0.12776249125E+04  0.37865642736E+04  0.35645116891E+04 0.  0.
        1    1    3    3  502    0  0.13307758781E+04 -0.46480701650E+03 -0.51973541725E+03  0.15023764190E+04  0.50400001928E-02 0. -1.
       -1    1    3    3    0  502 -0.13307758781E+04  0.46480701650E+03  0.17973603297E+04  0.22841878546E+04  0.50400001928E-02 0.  1.
</event>
<event>
 5   0  0.2199902E-07  0.3602496E+04  0.7818609E-02  0.8089920E-01
       -2   -1    0    0    0  501  0.00000000000E+00  0.00000000000E+00  0.13502559145E+04  0.13502559145E+04  0.25500000920E-02 0.  1.
        2   -1    0    0  501    0  0.00000000000E+00  0.00000000000E+00 -0.24028729972E+04  0.24028729972E+04  0.25500000920E-02 0. -1.
    10030    2    1    2    0    0  0.00000000000E+00  0.00000000000E+00 -0.10526170827E+04  0.37531289117E+04  0.36024955107E+04 0.  0.
        1    1    3    3  502    0 -0.61531966187E+03  0.77770522515E+03 -0.20928615490E+04  0.23159259847E+04  0.50400001928E-02 0. -1.
       -1    1    3    3    0  502  0.61531966187E+03 -0.77770522515E+03  0.10402444663E+04  0.14372029269E+04  0.50400001928E-02 0.  1.
</event>
<event>
 5   0  0.2309391E-07  0.3651213E+04  0.7818609E-02  0.8078860E-01
       -2   -1    0    0    0  501  0.00000000000E+00  0.00000000000E+00  0.16722549032E+04  0.16722549032E+04  0.25500000920E-02 0. -1.
        2   -1    0    0  501    0  0.00000000000E+00  0.00000000000E+00 -0.19930212257E+04  0.19930212257E+04  0.25500000920E-02 0.  1.
    10030    2    1    2    0    0  0.00000000000E+00  0.00000000000E+00 -0.32076632247E+03  0.36652761289E+04  0.36512132323E+04 0.  0.
        4    1    3    3  502    0  0.46705050373E+03 -0.17260640762E+04  0.20900766696E+03  0.18003108582E+04  0.12699999809E+01 0. -1.
       -4    1    3    3    0  502 -0.46705050373E+03  0.17260640762E+04 -0.52977398943E+03  0.18649652707E+04  0.12699999809E+01 0.  1.
</event>
<event>
 5   0  0.2342606E-07  0.3596184E+04  0.7818609E-02  0.8091366E-01
       -2   -1    0    0    0  501  0.00000000000E+00  0.00000000000E+00  0.28768047454E+04  0.28768047454E+04  0.25500000920E-02 0.  1.
        2   -1    0    0  501    0  0.00000000000E+00  0.00000000000E+00 -0.11238629971E+04  0.11238629971E+04  0.25500000920E-02 0. -1.
    10030    2    1    2    0    0  0.00000000000E+00  0.00000000000E+00  0.17529417483E+04  0.40006677425E+04  0.35961837568E+04 0.  0.
        5    1    3    3  502    0 -0.12935892245E+04  0.44572651110E+03 -0.42139669025E+03  0.14316572443E+04  0.46999998093E+01 0. -1.
       -5    1    3    3    0  502  0.12935892245E+04 -0.44572651110E+03  0.21743384385E+04  0.25690104982E+04  0.46999998093E+01 0.  1.
</event>
<event>
 5   0  0.2199902E-07  0.3420750E+04  0.7818609E-02  0.8132832E-01
        2   -1    0    0  501    0  0.00000000000E+00  0.00000000000E+00  0.21298534638E+04  0.21298534638E+04  0.25500000920E-02 0. -1.
       -2   -1    0    0    0  501  0.00000000000E+00  0.00000000000E+00 -0.13735133442E+04  0.13735133442E+04  0.25500000920E-02 0.  1.
    10030    2    1    2    0    0  0.00000000000E+00  0.00000000000E+00  0.75634011959E+03  0.35033668079E+04  0.34207497153E+04 0.  0.
        1    1    3    3  502    0  0.11945507471E+02 -0.22022311614E+03 -0.13588895053E+04  0.13766704775E+04  0.50400001928E-02 0.  1.
       -1    1    3    3    0  502 -0.11945507471E+02  0.22022311614E+03  0.21152296249E+04  0.21266963305E+04  0.50400001928E-02 0. -1.
</event>
<event>
 5   0  0.2342606E-07  0.3617633E+04  0.7818609E-02  0.8086464E-01
        2   -1    0    0  501    0  0.00000000000E+00  0.00000000000E+00  0.14448290358E+04  0.14448290358E+04  0.25500000920E-02 0.  1.
       -2   -1    0    0    0  501  0.00000000000E+00  0.00000000000E+00 -0.22645016293E+04  0.22645016293E+04  0.25500000920E-02 0. -1.
    10030    2    1    2    0    0  0.00000000000E+00  0.00000000000E+00 -0.81967259351E+03  0.37093306651E+04  0.36176333179E+04 0.  0.
        5    1    3    3  502    0  0.89271610620E+03 -0.15484465854E+04 -0.69466653067E+03  0.19176059430E+04  0.46999998093E+01 0. -1.
       -5    1    3    3    0  502 -0.89271610620E+03  0.15484465854E+04 -0.12500606284E+03  0.17917247221E+04  0.46999998093E+01 0.  1.
</event>
<event>
 5   0  0.2199902E-07  0.3595890E+04  0.7818609E-02  0.8091434E-01
       -2   -1    0    0    0  501  0.00000000000E+00  0.00000000000E+00  0.17465986389E+04  0.17465986389E+04  0.25500000920E-02 0.  1.
        2   -1    0    0  501    0  0.00000000000E+00  0.00000000000E+00 -0.18508012981E+04  0.18508012981E+04  0.25500000920E-02 0. -1.
    10030    2    1    2    0    0  0.00000000000E+00  0.00000000000E+00 -0.10420265919E+03  0.35973999370E+04  0.35958904478E+04 0.  0.
        1    1    3    3  502    0  0.59192104384E+03  0.13363309145E+02 -0.17504764668E+04  0.18478952787E+04  0.50400001928E-02 0. -1.
       -1    1    3    3    0  502 -0.59192104384E+03 -0.13363309145E+02  0.16462738076E+04  0.17495046584E+04  0.50400001928E-02 0.  1.
</event>
<event>
 5   0  0.7514289E-08  0.3602798E+04  0.7818609E-02  0.8089851E-01
        1   -1    0    0  501    0  0.00000000000E+00  0.00000000000E+00  0.17540115878E+04  0.17540115878E+04  0.50400001928E-02 0.  1.
       -1   -1    0    0    0  501  0.00000000000E+00  0.00000000000E+00 -0.18500663793E+04  0.18500663793E+04  0.50400001928E-02 0. -1.
    10030    2    1    2    0    0  0.00000000000E+00  0.00000000000E+00 -0.96054791507E+02  0.36040779672E+04  0.36027977282E+04 0.  0.
        4    1    3    3  502    0 -0.97519003976E+03 -0.16749474081E+03  0.14578267991E+04  0.17619054149E+04  0.12699999809E+01 0.  1.
       -4    1    3    3    0  502  0.97519003976E+03  0.16749474081E+03 -0.15538815906E+04  0.18421725523E+04  0.12699999809E+01 0. -1.
</event>
<event>
 5   0  0.7261233E-08  0.3586491E+04  0.7818609E-02  0.8093593E-01
       -1   -1    0    0    0  501  0.00000000000E+00  0.00000000000E+00  0.16616504429E+04  0.16616504429E+04  0.50400001928E-02 0. -1.
        1   -1    0    0  501    0  0.00000000000E+00  0.00000000000E+00 -0.19352624581E+04  0.19352624581E+04  0.50400001928E-02 0.  1.
    10030    2    1    2    0    0  0.00000000000E+00  0.00000000000E+00 -0.27361201522E+03  0.35969129010E+04  0.35864911658E+04 0.  0.
        3    1    3    3  502    0  0.32828572777E+03  0.33417915612E+02 -0.19045513447E+04  0.19329263077E+04  0.10100000352E+00 0.  1.
       -3    1    3    3    0  502 -0.32828572777E+03 -0.33417915612E+02  0.16309393295E+04  0.16639865933E+04  0.10100000352E+00 0. -1.
</event>
<event>
 5   0  0.2199902E-07  0.3613681E+04  0.7818609E-02  0.8087365E-01
        2   -1    0    0  501    0  0.00000000000E+00  0.00000000000E+00  0.19106784497E+04  0.19106784497E+04  0.25500000920E-02 0.  1.
       -2   -1    0    0    0  501  0.00000000000E+00  0.00000000000E+00 -0.17086456528E+04  0.17086456528E+04  0.25500000920E-02 0. -1.
    10030    2    1    2    0    0  0.00000000000E+00  0.00000000000E+00  0.20203279684E+03  0.36193241025E+04  0.36136809084E+04 0.  0.
        1    1    3    3  502    0  0.11553959049E+04  0.57758727274E+03  0.13663679883E+04  0.18802947201E+04  0.50400001928E-02 0.  1.
       -1    1    3    3    0  502 -0.11553959049E+04 -0.57758727274E+03 -0.11643351915E+04  0.17390293824E+04  0.50400001928E-02 0. -1.
</event>
<event>
 5   0  0.7347303E-08  0.3607449E+04  0.7818609E-02  0.8088787E-01
       -1   -1    0    0    0  501  0.00000000000E+00  0.00000000000E+00  0.19289705405E+04  0.19289705405E+04  0.50400001928E-02 0.  1.
        1   -1    0    0  501    0  0.00000000000E+00  0.00000000000E+00 -0.16866107854E+04  0.16866107854E+04  0.50400001928E-02 0. -1.
    10030    2    1    2    0    0  0.00000000000E+00  0.00000000000E+00  0.24235975508E+03  0.36155813258E+04  0.36074492475E+04 0.  0.
        2    1    3    3  502    0 -0.14117802203E+04 -0.58667131297E+03  0.10804769406E+04  0.18720942922E+04  0.25500000920E-02 0.  1.
       -2    1    3    3    0  502  0.14117802203E+04  0.58667131297E+03 -0.83811718547E+03  0.17434870336E+04  0.25500000920E-02 0. -1.
</event>
<event>
 5   0  0.2198900E-07  0.3611230E+04  0.7818609E-02  0.8087924E-01
       -2   -1    0    0    0  501  0.00000000000E+00  0.00000000000E+00  0.19087543650E+04  0.19087543650E+04  0.25500000920E-02 0. -1.
        2   -1    0    0  501    0  0.00000000000E+00  0.00000000000E+00 -0.17080490626E+04  0.17080490626E+04  0.25500000920E-02 0.  1.
    10030    2    1    2    0    0  0.00000000000E+00  0.00000000000E+00  0.20070530243E+03  0.36168034277E+04  0.36112303189E+04 0.  0.
        2    1    3    3  502    0  0.90879867235E+03 -0.58160524737E+03  0.15503667907E+04  0.18888665586E+04  0.25500000920E-02 0. -1.
       -2    1    3    3    0  502 -0.90879867235E+03  0.58160524737E+03 -0.13496614882E+04  0.17279368691E+04  0.25500000920E-02 0.  1.
</event>
<event>
 5   0  0.7514289E-08  0.3649399E+04  0.7818609E-02  0.8079269E-01
        1   -1    0    0  501    0  0.00000000000E+00  0.00000000000E+00  0.21362750646E+04  0.21362750646E+04  0.50400001928E-02 0. -1.
       -1   -1    0    0    0  501  0.00000000000E+00  0.00000000000E+00 -0.15585668466E+04  0.15585668466E+04  0.50400001928E-02 0.  1.
    10030    2    1    2    0    0  0.00000000000E+00  0.00000000000E+00  0.57770821803E+03  0.36948419113E+04  0.36493985757E+04 0.  0.
        4    1    3    3  502    0 -0.52008240681E+03  0.13294101028E+04  0.14395402883E+04  0.20273368703E+04  0.12699999809E+01 0. -1.
       -4    1    3    3    0  502  0.52008240681E+03 -0.13294101028E+04 -0.86183207026E+03  0.16675050409E+04  0.12699999809E+01 0.  1.
</event>
<event>
 5   0  0.2342606E-07  0.3591800E+04  0.7818609E-02  0.8092373E-01
        2   -1    0    0  501    0  0.00000000000E+00  0.00000000000E+00  0.12335987600E+04  0.12335987600E+04  0.25500000920E-02 0.  1.
       -2   -1    0    0    0  501  0.00000000000E+00  0.00000000000E+00 -0.26145102641E+04  0.26145102641E+04  0.25500000920E-02 0. -1.
    10030    2    1    2    0    0  0.00000000000E+00  0.00000000000E+00 -0.13809115041E+04  0.38481090241E+04  0.35917998941E+04 0.  0.
        5    1    3    3  502    0 -0.14528876715E+04 -0.65356423593E+03  0.19767850445E+03  0.16053434765E+04  0.46999998093E+01 0.  1.
       -5    1    3    3    0  502  0.14528876715E+04  0.65356423593E+03 -0.15785900085E+04  0.22427655476E+04  0.46999998093E+01 0. -1.
</event>
<event>
 5   0  0.7236375E-08  0.3602891E+04  0.7818609E-02  0.8089830E-01
       -1   -1    0    0    0  501  0.00000000000E+00  0.00000000000E+00  0.12338677324E+04  0.12338677324E+04  0.50400001928E-02 0. -1.
        1   -1    0    0  501    0  0.00000000000E+00  0.00000000000E+00 -0.26301091262E+04  0.26301091263E+04  0.50400001928E-02 0.  1.
    10030    2    1    2    0    0  0.00000000000E+00  0.00000000000E+00 -0.13962413939E+04  0.38639768586E+04  0.36028914963E+04 0.  0.
        1    1    3    3  502    0  0.79048771545E+03 -0.13602391716E+04  0.24301612309E+03  0.15919102577E+04  0.50400001928E-02 0. -1.
       -1    1    3    3    0  502 -0.79048771545E+03  0.13602391716E+04 -0.16392575170E+04  0.22720666010E+04  0.50400001928E-02 0.  1.
</event>
<event>
 5   0  0.2199902E-07  0.3532023E+04  0.7818609E-02  0.8106243E-01
       -2   -1    0    0    0  501  0.00000000000E+00  0.00000000000E+00  0.15838402281E+04  0.15838402282E+04  0.25500000920E-02 0. -1.
        2   -1    0    0  501    0  0.00000000000E+00  0.00000000000E+00 -0.19691359267E+04  0.19691359267E+04  0.25500000920E-02 0.  1.
    10030    2    1    2    0    0  0.00000000000E+00  0.00000000000E+00 -0.38529569851E+03  0.35529761548E+04  0.35320230437E+04 0.  0.
        1    1    3    3  502    0  0.20852270095E+03 -0.11246890881E+04 -0.15461369645E+04  0.19232646139E+04  0.50400001928E-02 0. -1.
       -1    1    3    3    0  502 -0.20852270095E+03  0.11246890881E+04  0.11608412660E+04  0.16297115410E+04  0.50400001928E-02 0.  1.
</event>
<event>
 5   0  0.7347303E-08  0.3592586E+04  0.7818609E-02  0.8092192E-01
        1   -1    0    0  501    0  0.00000000000E+00  0.00000000000E+00  0.15040038021E+04  0.15040038021E+04  0.50400001928E-02 0.  1.
       -1   -1    0    0    0  501  0.00000000000E+00  0.00000000000E+00 -0.21453854978E+04  0.21453854978E+04  0.50400001928E-02 0. -1.
    10030    2    1    2    0    0  0.00000000000E+00  0.00000000000E+00 -0.64138169569E+03  0.36493892999E+04  0.35925856681E+04 0.  0.
        2    1    3    3  502    0 -0.17118000257E+04 -0.48766832048E+03 -0.56656803665E+03  0.18679076687E+04  0.25500000920E-02 0. -1.
       -2    1    3    3    0  502  0.17118000257E+04  0.48766832048E+03 -0.74813659040E+02  0.17814816312E+04  0.25500000920E-02 0.  1.
</event>
<event>
 5   0  0.7347303E-08  0.3597623E+04  0.7818609E-02  0.8091036E-01
       -1   -1    0    0    0  501  0.00000000000E+00  0.00000000000E+00  0.14113398763E+04  0.14113398763E+04  0.50400001928E-02 0.  1.
        1   -1    0    0  501    0  0.00000000000E+00  0.00000000000E+00 -0.22926606906E+04  0.22926606906E+04  0.50400001928E-02 0. -1.
    10030    2    1    2    0    0  0.00000000000E+00  0.00000000000E+00 -0.88132081436E+03  0.37040005669E+04  0.35976233574E+04 0.  0.
        2    1    3    3  502    0  0.42101567409E+03 -0.13517282053E+04 -0.15831106927E+04  0.21238321036E+04  0.25500000920E-02 0. -1.
       -2    1    3    3    0  502 -0.42101567409E+03  0.13517282053E+04  0.70178987839E+03  0.15801684633E+04  0.25500000920E-02 0.  1.
</event>
<event>
 5   0  0.7236375E-08  0.3610883E+04  0.7818609E-02  0.8088003E-01
       -1   -1    0    0    0  501  0.00000000000E+00  0.00000000000E+00  0.18361993722E+04  0.18361993723E+04  0.50400001928E-02 0. -1.
        1   -1    0    0  501    0  0.00000000000E+00  0.00000000000E+00 -0.17751991353E+04  0.17751991353E+04  0.50400001928E-02 0.  1.
    10030    2    1    2    0    0  0.00000000000E+00  0.00000000000E+00  0.61000236979E+02  0.36113985075E+04  0.36108832924E+04 0.  0.
        5    1    3    3  502    0  0.13520969912E+04  0.11748097254E+04 -0.19592406427E+03  0.18018747163E+04  0.46999998093E+01 0. -1.
       -5    1    3    3    0  502 -0.13520969912E+04 -0.11748097254E+04  0.25692430124E+03  0.18095237912E+04  0.46999998093E+01 0.  1.
</event>
<event>
 5   0  0.7236375E-08  0.3816546E+04  0.7818609E-02  0.8042614E-01
       -1   -1    0    0    0  501  0.00000000000E+00  0.00000000000E+00  0.15117731806E+04  0.15117731806E+04  0.50400001928E-02 0.  1.
        1   -1    0    0  501    0  0.00000000000E+00  0.00000000000E+00 -0.24087641983E+04  0.24087641983E+04  0.50400001928E-02 0. -1.
    10030    2    1    2    0    0  0.00000000000E+00  0.00000000000E+00 -0.89699101771E+03  0.39205373789E+04  0.38165456179E+04 0.  0.
        5    1    3    3  502    0 -0.68099839362E+03 -0.17576460552E+03  0.13737708263E+04  0.15433471359E+04  0.46999998093E+01 0.  1.
       -5    1    3    3    0  502  0.68099839362E+03  0.17576460552E+03 -0.22707618441E+04  0.23771902429E+04  0.46999998093E+01 0. -1.
</event>
<event>
 5   0  0.7514289E-08  0.3662205E+04  0.7818609E-02  0.8076390E-01
        1   -1    0    0  501    0  0.00000000000E+00  0.00000000000E+00  0.18010335210E+04  0.18010335210E+04  0.50400001928E-02 0. -1.
       -1   -1    0    0    0  501  0.00000000000E+00  0.00000000000E+00 -0.18616737960E+04  0.18616737960E+04  0.50400001928E-02 0.  1.
    10030    2    1    2    0    0  0.00000000000E+00  0.00000000000E+00 -0.60640274957E+02  0.36627073170E+04  0.36622052984E+04 0.  0.
        4    1    3    3  502    0 -0.35390552624E+03 -0.20896887763E+03  0.17543062049E+04  0.18018071448E+04  0.12699999809E+01 0. -1.
       -4    1    3    3    0  502  0.35390552624E+03  0.20896887763E+03 -0.18149464799E+04  0.18609001723E+04  0.12699999809E+01 0.  1.
</event>
<event>
 5   0  0.2309391E-07  0.3590858E+04  0.7818609E-02  0.8092589E-01
       -2   -1    0    0    0  501  0.00000000000E+00  0.00000000000E+00  0.17685319992E+04  0.17685319992E+04  0.25500000920E-02 0.  1.
        2   -1    0    0  501    0  0.00000000000E+00  0.00000000000E+00 -0.18227353184E+04  0.18227353184E+04  0.25500000920E-02 0. -1.
    10030    2    1    2    0    0  0.00000000000E+00  0.00000000000E+00 -0.54203319204E+02  0.35912673175E+04  0.35908582465E+04 0.  0.
        4    1    3    3  502    0  0.16700692025E+04 -0.57605216856E+03 -0.34744562878E+03  0.18004686390E+04  0.12699999809E+01 0. -1.
       -4    1    3    3    0  502 -0.16700692025E+04  0.57605216856E+03  0.29324230958E+03  0.17907986786E+04  0.12699999809E+01 0.  1.
</event>
<event>
 5   0  0.2199902E-07  0.3630818E+04  0.7818609E-02  0.8083469E-01
       -2   -1    0    0    0  501  0.00000000000E+00  0.00000000000E+00  0.14388702146E+04  0.14388702146E+04  0.25500000920E-02 0. -1.
        2   -1    0    0  501    0  0.00000000000E+00  0.00000000000E+00 -0.22904849948E+04  0.22904849948E+04  0.25500000920E-02 0.  1.
    10030    2    1    2    0    0  0.00000000000E+00  0.00000000000E+00 -0.85161478021E+03  0.37293552094E+04  0.36308184399E+04 0.  0.
        1    1    3    3  502    0 -0.15730873287E+04 -0.55288027101E+03 -0.11632261638E+04  0.20330704478E+04  0.50400001928E-02 0. -1.
       -1    1    3    3    0  502  0.15730873287E+04  0.55288027101E+03  0.31161138355E+03  0.16962847615E+04  0.50400001928E-02 0.  1.
</event>
<event>
 5   0  0.2342606E-07  0.3602961E+04  0.7818609E-02  0.8089814E-01
       -2   -1    0    0    0  501  0.00000000000E+00  0.00000000000E+00  0.17693010945E+04  0.17693010945E+04  0.25500000920E-02 0. -1.
        2   -1    0    0  501    0  0.00000000000E+00  0.00000000000E+00 -0.18342455534E+04  0.18342455534E+04  0.25500000920E-02 0.  1.
    10030    2    1    2    0    0  0.00000000000E+00  0.00000000000E+00 -0.64944458970E+02  0.36035466479E+04  0.36029613738E+04 0.  0.
        5    1    3    3  502    0 -0.13992270302E+04 -0.78531036402E+03 -0.85160583492E+03  0.18165360547E+04  0.46999998093E+01 0.  1.
       -5    1    3    3    0  502  0.13992270302E+04  0.78531036402E+03  0.78666137595E+03  0.17870105932E+04  0.46999998093E+01 0. -1.
</event>
<event>
 5   0  0.2198900E-07  0.3414035E+04  0.7818609E-02  0.8134470E-01
       -2   -1    0    0    0  501  0.00000000000E+00  0.00000000000E+00  0.11031049099E+04  0.11031049099E+04  0.25500000920E-02 0. -1.
        2   -1    0    0  501    0  0.00000000000E+00  0.00000000000E+00 -0.26415514340E+04  0.26415514341E+04  0.25500000920E-02 0.  1.
    10030    2    1    2    0    0  0.00000000000E+00  0.00000000000E+00 -0.15384465242E+04  0.37446563439E+04  0.34140347723E+04 0.  0.
        2    1    3    3  502    0  0.13416403915E+04 -0.60058547258E+03  0.18269806941E+03  0.14812428682E+04  0.25500000920E-02 0.  1.
       -2    1    3    3    0  502 -0.13416403915E+04  0.60058547258E+03 -0.17211445936E+04  0.22634134757E+04  0.25500000920E-02 0. -1.
</event>
<event>
 5   0  0.7347303E-08  0.3583802E+04  0.7818609E-02  0.8094212E-01
        1   -1    0    0  501    0  0.00000000000E+00  0.00000000000E+00  0.10488013888E+04  0.10488013888E+04  0.50400001928E-02 0.  1.
       -1   -1    0    0    0  501  0.00000000000E+00  0.00000000000E+00 -0.30615032676E+04  0.30615032676E+04  0.50400001928E-02 0. -1.
    10030    2    1    2    0    0  0.00000000000E+00  0.00000000000E+00 -0.20127018789E+04  0.41103046564E+04  0.35838018242E+04 0.  0.
        2    1    3    3  502    0  0.25238676111E+03 -0.17650669311E+04 -0.80199284655E+03  0.19550838535E+04  0.25500000920E-02 0. -1.
       -2    1    3    3    0  502 -0.25238676111E+03  0.17650669311E+04 -0.12107090323E+04  0.21552208029E+04  0.25500000920E-02 0.  1.
</event>
<event>
 5   0  0.7236375E-08  0.3604407E+04  0.7818609E-02  0.8089483E-01
        1   -1    0    0  501    0  0.00000000000E+00  0.00000000000E+00  0.24390161795E+04  0.24390161795E+04  0.50400001928E-02 0. -1.
       -1   -1    0    0    0  501  0.00000000000E+00  0.00000000000E+00 -0.13316585653E+04  0.13316585653E+04  0.50400001928E-02 0.  1.
    10030    2    1    2    0    0  0.00000000000E+00  0.00000000000E+00  0.11073576142E+04  0.37706747447E+04  0.36044066287E+04 0.  0.
        1    1    3    3  502    0  0.64342714719E+02  0.16251880502E+04  0.13657342074E+04  0.21238187561E+04  0.50400001928E-02 0. -1.
       -1    1    3    3    0  502 -0.64342714719E+02 -0.16251880502E+04 -0.25837659320E+03  0.16468559887E+04  0.50400001928E-02 0.  1.
</event>
<event>
 5   0  0.2342606E-07  0.3608978E+04  0.7818609E-02  0.8088438E-01
       -2   -1    0    0    0  501  0.00000000000E+00  0.00000000000E+00  0.11637067882E+04  0.11637067882E+04  0.25500000920E-02 0. -1.
        2   -1    0    0  501    0  0.00000000000E+00  0.00000000000E+00 -0.27981100652E+04  0.27981100652E+04  0.25500000920E-02 0.  1.
    10030    2    1    2    0    0  0.00000000000E+00  0.00000000000E+00 -0.16344032769E+04  0.39618168534E+04  0.36089775156E+04 0.  0.
        5    1    3    3  502    0  0.37775080570E+03 -0.64663850825E+02 -0.27529110896E+04  0.27794637328E+04  0.46999998093E+01 0.  1.
       -5    1    3    3    0  502 -0.37775080570E+03  0.64663850825E+02  0.11185078126E+04  0.11823531206E+04  0.46999998093E+01 0. -1.
</event>
<event>
 5   0  0.2199902E-07  0.3586161E+04  0.7818609E-02  0.8093669E-01
        2   -1    0    0  501    0  0.00000000000E+00  0.00000000000E+00  0.11143876827E+04  0.11143876827E+04  0.25500000920E-02 0. -1.
       -2   -1    0    0    0  501  0.00000000000E+00  0.00000000000E+00 -0.28851156027E+04  0.28851156027E+04  0.25500000920E-02 0.  1.
    10030    2    1    2    0    0  0.00000000000E+00  0.00000000000E+00 -0.17707279200E+04  0.39995032853E+04  0.35861607832E+04 0.  0.
        1    1    3    3  502    0 -0.11232388854E+03 -0.16706106646E+04 -0.16008542942E+04  0.23165256571E+04  0.50400001928E-02 0. -1.
       -1    1    3    3    0  502  0.11232388854E+03  0.16706106646E+04 -0.16987362578E+03  0.16829776283E+04  0.50400001928E-02 0.  1.
</event>
<event>
 5   0  0.7236375E-08  0.3603531E+04  0.7818609E-02  0.8089683E-01
        1   -1    0    0  501    0  0.00000000000E+00  0.00000000000E+00  0.25429871174E+04  0.25429871174E+04  0.50400001928E-02 0.  1.
       -1   -1    0    0    0  501  0.00000000000E+00  0.00000000000E+00 -0.12765930197E+04  0.12765930197E+04  0.50400001928E-02 0. -1.
    10030    2    1    2    0    0  0.00000000000E+00  0.00000000000E+00  0.12663940977E+04  0.38195801371E+04  0.36035313809E+04 0.  0.
        5    1    3    3  502    0  0.46805069820E+03 -0.32638337046E+03 -0.11782838689E+04  0.13091877353E+04  0.46999998093E+01 0. -1.
       -5    1    3    3    0  502 -0.46805069820E+03  0.32638337046E+03  0.24446779666E+04  0.25103924018E+04  0.46999998093E+01 0.  1.
</event>
<event>
 5   0  0.7261233E-08  0.3598717E+04  0.7818609E-02  0.8090786E-01
        1   -1    0    0  501    0  0.00000000000E+00  0.00000000000E+00  0.22895904157E+04  0.22895904157E+04  0.50400001928E-02 0. -1.
       -1   -1    0    0    0  501  0.00000000000E+00  0.00000000000E+00 -0.14140914183E+04  0.14140914183E+04  0.50400001928E-02 0.  1.
    10030    2    1    2    0    0  0.00000000000E+00  0.00000000000E+00  0.87549899742E+03  0.37036818341E+04  0.35987165258E+04 0.  0.
        3    1    3    3  502    0  0.11178447989E+03  0.17838121382E+04  0.65167930645E+03  0.19024109553E+04  0.10100000352E+00 0.  1.
       -3    1    3    3    0  502 -0.11178447989E+03 -0.17838121382E+04  0.22381969097E+03  0.18012708787E+04  0.10100000352E+00 0. -1.
</event>
<event>
 5   0  0.2342606E-07  0.3606263E+04  0.7818609E-02  0.8089059E-01
        2   -1    0    0  501    0  0.00000000000E+00  0.00000000000E+00  0.18824108762E+04  0.18824108762E+04  0.25500000920E-02 0. -1.
       -2   -1    0    0    0  501  0.00000000000E+00  0.00000000000E+00 -0.17271910639E+04  0.17271910639E+04  0.25500000920E-02 0.  1.
    10030    2    1    2    0    0  0.00000000000E+00  0.00000000000E+00  0.15521981236E+03  0.36096019401E+04  0.36062630209E+04 0.  0.
        5    1    3    3  502    0  0.35918866442E+03 -0.96677876490E+03 -0.14028076613E+04  0.17411401728E+04  0.46999998093E+01 0.  1.
       -5    1    3    3    0  502 -0.35918866442E+03  0.96677876490E+03  0.15580274737E+04  0.18684617672E+04  0.46999998093E+01 0. -1.
</event>
<event>
 5   0  0.7261233E-08  0.3585797E+04  0.7818609E-02  0.8093753E-01
       -1   -1    0    0    0  501  0.00000000000E+00  0.00000000000E+00  0.13760341090E+04  0.13760341090E+04  0.50400001928E-02 0. -1.
        1   -1    0    0  501    0  0.00000000000E+00  0.00000000000E+00 -0.23360505902E+04  0.23360505902E+04  0.50400001928E-02 0.  1.
    10030    2    1    2    0    0  0.00000000000E+00  0.00000000000E+00 -0.96001648116E+03  0.37120846993E+04  0.35857971457E+04 0.  0.
        3    1    3    3  502    0  0.11973485892E+04  0.12012557977E+04 -0.10817065480E+04  0.20116531017E+04  0.10100000352E+00 0.  1.
       -3    1    3    3    0  502 -0.11973485892E+04 -0.12012557977E+04  0.12169006686E+03  0.17004315976E+04  0.10100000352E+00 0. -1.
</event>
<event>
 5   0  0.2238968E-07  0.3596929E+04  0.7818609E-02  0.8091195E-01
        2   -1    0    0  501    0  0.00000000000E+00  0.00000000000E+00  0.23989447573E+04  0.23989447573E+04  0.25500000920E-02 0. -1.
       -2   -1    0    0    0  501  0.00000000000E+00  0.00000000000E+00 -0.13482906794E+04  0.13482906794E+04  0.25500000920E-02 0.  1.
    10030    2    1    2    0    0  0.00000000000E+00  0.00000000000E+00  0.10506540780E+04  0.37472354367E+04  0.35969291661E+04 0.  0.
        3    1    3    3  502    0 -0.11669629209E+04  0.12727781309E+04  0.16195588488E+01  0.17267800272E+04  0.10100000352E+00 0.  1.
       -3    1    3    3    0  502  0.11669629209E+04 -0.12727781309E+04  0.10490345191E+04  0.20204554095E+04  0.10100000352E+00 0. -1.
</event>
<event>
 5   0  0.7347303E-08  0.3581920E+04  0.7818609E-02  0.8094646E-01
       -1   -1    0    0    0  501  0.00000000000E+00  0.00000000000E+00  0.13106826778E+04  0.13106826778E+04  0.50400001928E-02 0.  1.
        1   -1    0    0  501    0  0.00000000000E+00  0.00000000000E+00 -0.24472273735E+04  0.24472273735E+04  0.50400001928E-02 0. -1.
    10030    2    1    2    0    0  0.00000000000E+00  0.00000000000E+00 -0.11365446957E+04  0.37579100513E+04  0.35819204498E+04 0.  0.
        2    1    3    3  502    0 -0.63402316144E+02  0.17687001558E+04 -0.28053742069E+03  0.17919322921E+04  0.25500000920E-02 0.  1.
       -2    1    3    3    0  502  0.63402316144E+02 -0.17687001558E+04 -0.85600727502E+03  0.19659777593E+04  0.25500000920E-02 0. -1.
</event>
<event>
 5   0  0.2199902E-07  0.3619188E+04  0.7818609E-02  0.8086111E-01
        2   -1    0    0  501    0  0.00000000000E+00  0.00000000000E+00  0.12942642549E+04  0.12942642549E+04  0.25500000920E-02 0. -1.
       -2   -1    0    0    0  501  0.00000000000E+00  0.00000000000E+00 -0.25301095363E+04  0.25301095363E+04  0.25500000920E-02 0.  1.
    10030    2    1    2    0    0  0.00000000000E+00  0.00000000000E+00 -0.12358452814E+04  0.38243737912E+04  0.36191879387E+04 0.  0.
        1    1    3    3  502    0 -0.66991733347E+03  0.79645538902E+03  0.94637693057E+03  0.14066839429E+04  0.50400001928E-02 0. -1.
       -1    1    3    3    0  502  0.66991733347E+03 -0.79645538902E+03 -0.21822222120E+04  0.24176898484E+04  0.50400001928E-02 0.  1.
</event>
<event>
 5   0  0.7347303E-08  0.3595937E+04  0.7818609E-02  0.8091423E-01
       -1   -1    0    0    0  501  0.00000000000E+00  0.00000000000E+00  0.23769950870E+04  0.23769950870E+04  0.50400001928E-02 0.  1.
        1   -1    0    0  501    0  0.00000000000E+00  0.00000000000E+00 -0.13599908118E+04  0.13599908118E+04  0.50400001928E-02 0. -1.
    10030    2    1    2    0    0  0.00000000000E+00  0.00000000000E+00  0.10170042752E+04  0.37369858988E+04  0.35959374177E+04 0.  0.
        2    1    3    3  502    0 -0.53688664189E+03 -0.90726602379E+03 -0.10050997733E+04  0.14565728469E+04  0.25500000920E-02 0. -1.
       -2    1    3    3    0  502  0.53688664189E+03  0.90726602379E+03  0.20221040485E+04  0.22804130519E+04  0.25500000920E-02 0.  1.
</event>
<event>
 5   0  0.2309391E-07  0.3600471E+04  0.7818609E-02  0.8090384E-01
       -2   -1    0    0    0  501  0.00000000000E+00  0.00000000000E+00  0.30434636944E+04  0.30434636944E+04  0.25500000920E-02 0.  1.
        2   -1    0    0  501    0  0.00000000000E+00  0.00000000000E+00 -0.10648550654E+04  0.10648550654E+04  0.25500000920E-02 0. -1.
    10030    2    1    2    0    0  0.00000000000E+00  0.00000000000E+00  0.19786086291E+04  0.41083187598E+04  0.36004709310E+04 0.  0.
        4    1    3    3  502    0  0.13679699397E+04 -0.24190863154E+02 -0.34573398683E+03  0.14111911835E+04  0.12699999809E+01 0. -1.
       -4    1    3    3    0  502 -0.13679699397E+04  0.24190863154E+02  0.23243426159E+04  0.26971275763E+04  0.12699999809E+01 0.  1.
</event>
<event>
 5   0  0.7514289E-08  0.3597120E+04  0.7818609E-02  0.8091152E-01
        1   -1    0    0  501    0  0.00000000000E+00  0.00000000000E+00  0.14424585632E+04  0.14424585632E+04  0.50400001928E-02 0. -1.
       -1   -1    0    0    0  501  0.00000000000E+00  0.00000000000E+00 -0.22425724057E+04  0.22425724057E+04  0.50400001928E-02 0.  1.
    10030    2    1    2    0    0  0.00000000000E+00  0.00000000000E+00 -0.80011384249E+03  0.36850309689E+04  0.35971198313E+04 0.  0.
        4    1    3    3  502    0  0.11304652038E+04 -0.66330667091E+03 -0.16617772906E+04  0.21164670310E+04  0.12699999809E+01 0.  1.
       -4    1    3    3    0  502 -0.11304652038E+04  0.66330667091E+03  0.86166344811E+03  0.15685639379E+04  0.12699999809E+01 0. -1.
</event>
<event>
 5   0  0.7347303E-08  0.3605379E+04  0.7818609E-02  0.8089261E-01
        1   -1    0    0  501    0  0.00000000000E+00  0.00000000000E+00  0.12384398686E+04  0.12384398686E+04  0.50400001928E-02 0. -1.
       -1   -1    0    0    0  501  0.00000000000E+00  0.00000000000E+00 -0.26240189298E+04  0.26240189298E+04  0.50400001928E-02 0.  1.
    10030    2    1    2    0    0  0.00000000000E+00  0.00000000000E+00 -0.13855790612E+04  0.38624587984E+04  0.36053791250E+04 0.  0.
        2    1    3    3  502    0  0.15273882035E+03 -0.96252782751E+03  0.93188907642E+03  0.13484087721E+04  0.25500000920E-02 0. -1.
       -2    1    3    3    0  502 -0.15273882035E+03  0.96252782751E+03 -0.23174681376E+04  0.25140500263E+04  0.25500000920E-02 0.  1.
</event>
<event>
 5   0  0.7236375E-08  0.3615619E+04  0.7818609E-02  0.8086923E-01
       -1   -1    0    0    0  501  0.00000000000E+00  0.00000000000E+00  0.15642868157E+04  0.15642868157E+04  0.50400001928E-02 0.  1.
        1   -1    0    0  501    0  0.00000000000E+00  0.00000000000E+00 -0.20892434989E+04  0.20892434989E+04  0.50400001928E-02 0. -1.
    10030    2    1    2    0    0  0.00000000000E+00  0.00000000000E+00 -0.52495668316E+03  0.36535303146E+04  0.36156194823E+04 0.  0.
        5    1    3    3  502    0 -0.14068729493E+04  0.11066575953E+04 -0.65013710362E+01  0.17899851638E+04  0.46999998093E+01 0.  1.
       -5    1    3    3    0  502  0.14068729493E+04 -0.11066575953E+04 -0.51845531213E+03  0.18635451509E+04  0.46999998093E+01 0. -1.
</event>
<event>
 5   0  0.7347303E-08  0.3609914E+04  0.7818609E-02  0.8088225E-01
       -1   -1    0    0    0  501  0.00000000000E+00  0.00000000000E+00  0.26152017237E+04  0.26152017237E+04  0.50400001928E-02 0. -1.
        1   -1    0    0  501    0  0.00000000000E+00  0.00000000000E+00 -0.12457430147E+04  0.12457430147E+04  0.50400001928E-02 0.  1.
    10030    2    1    2    0    0  0.00000000000E+00  0.00000000000E+00  0.13694587090E+04  0.38609447384E+04  0.36099137271E+04 0.  0.
        2    1    3    3  502    0 -0.54644800606E+03 -0.14328806479E+04 -0.33336699242E+03  0.15693584441E+04  0.25500000920E-02 0.  1.
       -2    1    3    3    0  502  0.54644800606E+03  0.14328806479E+04  0.17028257014E+04  0.22915862942E+04  0.25500000920E-02 0. -1.
</event>
<event>
 5   0  0.7261233E-08  0.3617735E+04  0.7818609E-02  0.8086441E-01
       -1   -1    0    0    0  501  0.00000000000E+00  0.00000000000E+00  0.11228364108E+04  0.11228364108E+04  0.50400001928E-02 0. -1.
        1   -1    0    0  501    0  0.00000000000E+00  0.00000000000E+00 -0.29140494858E+04  0.29140494858E+04  0.50400001928E-02 0.  1.
    10030    2    1    2    0    0  0.00000000000E+00  0.00000000000E+00 -0.17912130750E+04  0.40368858966E+04  0.36177345760E+04 0.  0.
        3    1    3    3  502    0 -0.59980025246E+03  0.16256263932E+04 -0.31624043985E+03  0.17613714937E+04  0.10100000352E+00 0.  1.
       -3    1    3    3    0  502  0.59980025246E+03 -0.16256263932E+04 -0.14749726351E+04  0.22755144029E+04  0.10100000352E+00 0. -1.
</event>
<event>
 5   0  0.7236375E-08  0.3603851E+04  0.7818609E-02  0.8089610E-01
        1   -1    0    0  501    0  0.00000000000E+00  0.00000000000E+00  0.17416739227E+04  0.17416739227E+04  0.50400001928E-02 0. -1.
       -1   -1    0    0    0  501  0.00000000000E+00  0.00000000000E+00 -0.18642611970E+04  0.18642611970E+04  0.50400001928E-02 0.  1.
    10030    2    1    2    0    0  0.00000000000E+00  0.00000000000E+00 -0.12258727431E+03  0.36059351197E+04  0.36038507804E+04 0.  0.
        5    1    3    3  502    0 -0.12569090718E+04  0.12904095899E+04 -0.10531564701E+03  0.18044641309E+04  0.46999998093E+01 0.  1.
       -5    1    3    3    0  502  0.12569090718E+04 -0.12904095899E+04 -0.17271627297E+02  0.18014709888E+04  0.46999998093E+01 0. -1.
</event>
<event>
 5   0  0.7236375E-08  0.3623431E+04  0.7818609E-02  0.8085146E-01
       -1   -1    0    0    0  501  0.00000000000E+00  0.00000000000E+00  0.11109518047E+04  0.11109518047E+04  0.50400001928E-02 0. -1.
        1   -1    0    0  501    0  0.00000000000E+00  0.00000000000E+00 -0.29545054891E+04  0.29545054891E+04  0.50400001928E-02 0.  1.
    10030    2    1    2    0    0  0.00000000000E+00  0.00000000000E+00 -0.18435536844E+04  0.40654572938E+04  0.36234310840E+04 0.  0.
        5    1    3    3  502    0  0.58734047167E+02 -0.57103214966E+03  0.10062085767E+04  0.11584494784E+04  0.46999998093E+01 0. -1.
       -5    1    3    3    0  502 -0.58734047167E+02  0.57103214966E+03 -0.28497622611E+04  0.29070078154E+04  0.46999998093E+01 0.  1.
</event>
<event>
 5   0  0.7236375E-08  0.3580749E+04  0.7818609E-02  0.8094916E-01
       -1   -1    0    0    0  501  0.00000000000E+00  0.00000000000E+00  0.12522100985E+04  0.12522100985E+04  0.50400001928E-02 0.  1.
        1   -1    0    0  501    0  0.00000000000E+00  0.00000000000E+00 -0.25598262490E+04  0.25598262490E+04  0.50400001928E-02 0. -1.
    10030    2    1    2    0    0  0.00000000000E+00  0.00000000000E+00 -0.13076161505E+04  0.38120363476E+04  0.35807486812E+04 0.  0.
        5    1    3    3  502    0 -0.49685652106E+03 -0.10564843789E+04  0.79121331545E+03  0.14103425988E+04  0.46999998093E+01 0.  1.
       -5    1    3    3    0  502  0.49685652106E+03  0.10564843789E+04 -0.20988294660E+04  0.24016937488E+04  0.46999998093E+01 0. -1.
</event>
<event>
 5   0  0.2309391E-07  0.3575750E+04  0.7818609E-02  0.8096069E-01
       -2   -1    0    0    0  501  0.00000000000E+00  0.00000000000E+00  0.22284071442E+04  0.22284071442E+04  0.25500000920E-02 0.  1.
        2   -1    0    0  501    0  0.00000000000E+00  0.00000000000E+00 -0.14344309363E+04  0.14344309363E+04  0.25500000920E-02 0. -1.
    10030    2    1    2    0    0  0.00000000000E+00  0.00000000000E+00  0.79397620795E+03  0.36628380805E+04  0.35757495137E+04 0.  0.
        4    1    3    3  502    0  0.14003320797E+04 -0.12564663733E+03 -0.73434617288E+03  0.15861850224E+04  0.12699999809E+01 0. -1.
       -4    1    3    3    0  502 -0.14003320797E+04  0.12564663733E+03  0.15283223808E+04  0.20766530581E+04  0.12699999809E+01 0.  1.
</event>
<event>
 5   0  0.7514289E-08  0.3601040E+04  0.7818609E-02  0.8090254E-01
        1   -1    0    0  501    0  0.00000000000E+00  0.00000000000E+00  0.21212190972E+04  0.21212190972E+04  0.50400001928E-02 0.  1.
       -1   -1    0    0    0  501  0.00000000000E+00  0.00000000000E+00 -0.15283058951E+04  0.15283058951E+04  0.50400001928E-02 0. -1.
    10030    2    1    2    0    0  0.00000000000E+00  0.00000000000E+00  0.59291320211E+03  0.36495249924E+04  0.36010396561E+04 0.  0.
        4    1    3    3  502    0  0.74238140590E+03 -0.14467564501E+04 -0.48702118949E+03  0.16974762530E+04  0.12699999809E+01 0. -1.
       -4    1    3    3    0  502 -0.74238140590E+03  0.14467564501E+04  0.10799343916E+04  0.19520487393E+04  0.12699999809E+01 0.  1.
</event>
<event>
 5   0  0.2238968E-07  0.3595439E+04  0.7818609E-02  0.8091537E-01
        2   -1    0    0  501    0  0.00000000000E+00  0.00000000000E+00  0.27640683727E+04  0.27640683727E+04  0.25500000920E-02 0.  1.
       -2   -1    0    0    0  501  0.00000000000E+00  0.00000000000E+00 -0.11692166560E+04  0.11692166560E+04  0.25500000920E-02 0. -1.
    10030    2    1    2    0    0  0.00000000000E+00  0.00000000000E+00  0.15948517167E+04  0.39332850287E+04  0.35954386546E+04 0.  0.
        3    1    3    3  502    0 -0.14087145135E+04  0.66476002915E+03  0.17792024266E+04  0.23647291096E+04  0.10100000352E+00 0.  1.
       -3    1    3    3    0  502  0.14087145135E+04 -0.66476002915E+03 -0.18435070991E+03  0.15685559191E+04  0.10100000352E+00 0. -1.
</event>
<event>
 5   0  0.2199902E-07  0.3603936E+04  0.7818609E-02  0.8089591E-01
        2   -1    0    0  501    0  0.00000000000E+00  0.00000000000E+00  0.27879972977E+04  0.27879972977E+04  0.25500000920E-02 0. -1.
       -2   -1    0    0    0  501  0.00000000000E+00  0.00000000000E+00 -0.11646673306E+04  0.11646673306E+04  0.25500000920E-02 0.  1.
    10030    2    1    2    0    0  0.00000000000E+00  0.00000000000E+00  0.16233299671E+04  0.39526646284E+04  0.36039363871E+04 0.  0.
        1    1    3    3  502    0 -0.14566434948E+04  0.80076090820E+03  0.48597534671E+02  0.16629461878E+04  0.50400001928E-02 0.  1.
       -1    1    3    3    0  502  0.14566434948E+04 -0.80076090820E+03  0.15747324324E+04  0.22897184405E+04  0.50400001928E-02 0. -1.
</event>
<event>
 5   0  0.7514289E-08  0.3599432E+04  0.7818609E-02  0.8090622E-01
        1   -1    0    0  501    0  0.00000000000E+00  0.00000000000E+00  0.18667124966E+04  0.18667124966E+04  0.50400001928E-02 0. -1.
       -1   -1    0    0    0  501  0.00000000000E+00  0.00000000000E+00 -0.17351235400E+04  0.17351235400E+04  0.50400001928E-02 0.  1.
    10030    2    1    2    0    0  0.00000000000E+00  0.00000000000E+00  0.13158895666E+03  0.36018360366E+04  0.35994315081E+04 0.  0.
        4    1    3    3  502    0  0.13444915915E+04 -0.76480876134E+03  0.98640096346E+03  0.18345513224E+04  0.12699999809E+01 0. -1.
       -4    1    3    3    0  502 -0.13444915915E+04  0.76480876134E+03 -0.85481200680E+03  0.17672847142E+04  0.12699999809E+01 0.  1.
</event>
<event>
 5   0  0.2199902E-07  0.3638285E+04  0.7818609E-02  0.8081778E-01
       -2   -1    0    0    0  501  0.00000000000E+00  0.00000000000E+00  0.25158523897E+04  0.25158523897E+04  0.25500000920E-02 0.  1.
        2   -1    0    0  501    0  0.00000000000E+00  0.00000000000E+00 -0.13153707879E+04  0.13153707879E+04  0.25500000920E-02 0. -1.
    10030    2    1    2    0    0  0.00000000000E+00  0.00000000000E+00  0.12004816018E+04  0.38312231775E+04  0.36382846178E+04 0.  0.
        1    1    3    3  502    0 -0.10528898264E+03 -0.15707191428E+04  0.15601944576E+04  0.22164050038E+04  0.50400001928E-02 0.  1.
       -1    1    3    3    0  502  0.10528898264E+03  0.15707191428E+04 -0.35971285585E+03  0.16148181737E+04  0.50400001928E-02 0. -1.
</event>
<event>
 5   0  0.2199902E-07  0.3560728E+04  0.7818609E-02  0.8099547E-01
        2   -1    0    0  501    0  0.00000000000E+00  0.00000000000E+00  0.10016137906E+04  0.10016137906E+04  0.25500000920E-02 0.  1.
       -2   -1    0    0    0  501  0.00000000000E+00  0.00000000000E+00 -0.31645888412E+04  0.31645888412E+04  0.25500000920E-02 0. -1.
    10030    2    1    2    0    0  0.00000000000E+00  0.00000000000E+00 -0.21629750506E+04  0.41662026318E+04  0.35607279171E+04 0.  0.
        1    1    3    3  502    0 -0.28659739129E+03 -0.12269897638E+04 -0.25531636166E+04  0.28471540876E+04  0.50400001928E-02 0. -1.
       -1    1    3    3    0  502  0.28659739129E+03  0.12269897638E+04  0.39018856599E+03  0.13190485443E+04  0.50400001928E-02 0.  1.
</event>
<event>
 5   0  0.7347303E-08  0.3596114E+04  0.7818609E-02  0.8091382E-01
       -1   -1    0    0    0  501  0.00000000000E+00  0.00000000000E+00  0.13596168511E+04  0.13596168511E+04  0.50400001928E-02 0.  1.
        1   -1    0    0  501    0  0.00000000000E+00  0.00000000000E+00 -0.23778829287E+04  0.23778829287E+04  0.50400001928E-02 0. -1.
    10030    2    1    2    0    0  0.00000000000E+00  0.00000000000E+00 -0.10182660776E+04  0.37374997799E+04  0.35961144030E+04 0.  0.
        2    1    3    3  502    0 -0.13987581440E+04  0.11051015246E+04 -0.75339660194E+03  0.19352984692E+04  0.25500000920E-02 0.  1.
       -2    1    3    3    0  502  0.13987581440E+04 -0.11051015246E+04 -0.26486947570E+03  0.18022013107E+04  0.25500000920E-02 0. -1.
</event>
<event>
 5   0  0.2199902E-07  0.3595056E+04  0.7818609E-02  0.8091625E-01
        2   -1    0    0  501    0  0.00000000000E+00  0.00000000000E+00  0.83288136066E+03  0.83288136066E+03  0.25500000920E-02 0.  1.
       -2   -1    0    0    0  501  0.00000000000E+00  0.00000000000E+00 -0.38794323418E+04  0.38794323418E+04  0.25500000920E-02 0. -1.
    10030    2    1    2    0    0  0.00000000000E+00  0.00000000000E+00 -0.30465509811E+04  0.47123137025E+04  0.35950559870E+04 0.  0.
        1    1    3    3  502    0 -0.23920593257E+03  0.81941037915E+03 -0.35968115432E+04  0.36967155862E+04  0.50400001928E-02 0. -1.
       -1    1    3    3    0  502  0.23920593257E+03 -0.81941037915E+03  0.55026056206E+03  0.10155981163E+04  0.50400001928E-02 0.  1.
</event>
<event>
 5   0  0.7236375E-08  0.3603030E+04  0.7818609E-02  0.8089798E-01
       -1   -1    0    0    0  501  0.00000000000E+00  0.00000000000E+00  0.13761290909E+04  0.13761290909E+04  0.50400001928E-02 0.  1.
        1   -1    0    0  501    0  0.00000000000E+00  0.00000000000E+00 -0.23583956899E+04  0.23583956899E+04  0.50400001928E-02 0. -1.
    10030    2    1    2    0    0  0.00000000000E+00  0.00000000000E+00 -0.98226659902E+03  0.37345247808E+04  0.36030303450E+04 0.  0.
        1    1    3    3  502    0 -0.44136453407E+03  0.16490718364E+04  0.10538435938E+03  0.17103644164E+04  0.50400001928E-02 0.  1.
       -1    1    3    3    0  502  0.44136453407E+03 -0.16490718364E+04 -0.10876509584E+04  0.20241603644E+04  0.50400001928E-02 0. -1.
</event>
<event>
 5   0  0.7347303E-08  0.3603306E+04  0.7818609E-02  0.8089735E-01
       -1   -1    0    0    0  501  0.00000000000E+00  0.00000000000E+00  0.15398449112E+04  0.15398449112E+04  0.50400001928E-02 0. -1.
        1   -1    0    0  501    0  0.00000000000E+00  0.00000000000E+00 -0.21079742448E+04  0.21079742448E+04  0.50400001928E-02 0.  1.
    10030    2    1    2    0    0  0.00000000000E+00  0.00000000000E+00 -0.56812933366E+03  0.36478191560E+04  0.36033059342E+04 0.  0.
        2    1    3    3  502    0 -0.13263516057E+04  0.50740810894E+03 -0.14064911268E+04  0.19987218068E+04  0.25500000920E-02 0.  1.
       -2    1    3    3    0  502  0.13263516057E+04 -0.50740810894E+03  0.83836179315E+03  0.16490973492E+04  0.25500000920E-02 0. -1.
</event>
<event>
 5   0  0.7236375E-08  0.3597350E+04  0.7818609E-02  0.8091099E-01
       -1   -1    0    0    0  501  0.00000000000E+00  0.00000000000E+00  0.16793267455E+04  0.16793267455E+04  0.50400001928E-02 0. -1.
        1   -1    0    0  501    0  0.00000000000E+00  0.00000000000E+00 -0.19265048362E+04  0.19265048362E+04  0.50400001928E-02 0.  1.
    10030    2    1    2    0    0  0.00000000000E+00  0.00000000000E+00 -0.24717809066E+03  0.36058315817E+04  0.35973496337E+04 0.  0.
        1    1    3    3  502    0  0.64449149433E+03  0.11734160394E+04  0.10804745456E+04  0.17203777874E+04  0.50400001928E-02 0. -1.
       -1    1    3    3    0  502 -0.64449149433E+03 -0.11734160394E+04 -0.13276526362E+04  0.18854537943E+04  0.50400001928E-02 0.  1.
</event>
<event>
 5   0  0.2199902E-07  0.3607505E+04  0.7818609E-02  0.8088775E-01
        2   -1    0    0  501    0  0.00000000000E+00  0.00000000000E+00  0.23002719599E+04  0.23002719599E+04  0.25500000920E-02 0.  1.
       -2   -1    0    0    0  501  0.00000000000E+00  0.00000000000E+00 -0.14144080415E+04  0.14144080415E+04  0.25500000920E-02 0. -1.
    10030    2    1    2    0    0  0.00000000000E+00  0.00000000000E+00  0.88586391843E+03  0.37146800014E+04  0.36075050423E+04 0.  0.
        1    1    3    3  502    0 -0.16242684926E+04 -0.40327925217E+03  0.11357055786E+04  0.20225502349E+04  0.50400001928E-02 0.  1.
       -1    1    3    3    0  502  0.16242684926E+04  0.40327925217E+03 -0.24984166016E+03  0.16921297665E+04  0.50400001928E-02 0. -1.
</event>
<event>
 5   0  0.7236375E-08  0.3613858E+04  0.7818609E-02  0.8087325E-01
        1   -1    0    0  501    0  0.00000000000E+00  0.00000000000E+00  0.21610831693E+04  0.21610831693E+04  0.50400001928E-02 0.  1.
       -1   -1    0    0    0  501  0.00000000000E+00  0.00000000000E+00 -0.15108126327E+04  0.15108126328E+04  0.50400001928E-02 0. -1.
    10030    2    1    2    0    0  0.00000000000E+00  0.00000000000E+00  0.65027053656E+03  0.36718958021E+04  0.36138576356E+04 0.  0.
        1    1    3    3  502    0  0.17254463265E+04  0.53632734255E+03  0.33875609892E+03  0.18383600678E+04  0.50400001928E-02 0.  1.
       -1    1    3    3    0  502 -0.17254463265E+04 -0.53632734255E+03  0.31151443763E+03  0.18335357343E+04  0.50400001928E-02 0. -1.
</event>
<event>
 5   0  0.7514289E-08  0.3599130E+04  0.7818609E-02  0.8090691E-01
       -1   -1    0    0    0  501  0.00000000000E+00  0.00000000000E+00  0.13627808274E+04  0.13627808274E+04  0.50400001928E-02 0.  1.
        1   -1    0    0  501    0  0.00000000000E+00  0.00000000000E+00 -0.23763423333E+04  0.23763423333E+04  0.50400001928E-02 0. -1.
    10030    2    1    2    0    0  0.00000000000E+00  0.00000000000E+00 -0.10135615059E+04  0.37391231608E+04  0.35991297677E+04 0.  0.
        4    1    3    3  502    0 -0.16608340348E+02  0.13053883439E+04  0.77999121103E+03  0.15207572021E+04  0.12699999809E+01 0.  1.
       -4    1    3    3    0  502  0.16608340348E+02 -0.13053883439E+04 -0.17935527169E+04  0.22183659587E+04  0.12699999809E+01 0. -1.
</event>
<event>
 5   0  0.2198900E-07  0.3595249E+04  0.7818609E-02  0.8091581E-01
       -2   -1    0    0    0  501  0.00000000000E+00  0.00000000000E+00  0.22537396205E+04  0.22537396205E+04  0.25500000920E-02 0. -1.
        2   -1    0    0  501    0  0.00000000000E+00  0.00000000000E+00 -0.14338189244E+04  0.14338189244E+04  0.25500000920E-02 0.  1.
    10030    2    1    2    0    0  0.00000000000E+00  0.00000000000E+00  0.81992069608E+03  0.36875585450E+04  0.35952493759E+04 0.  0.
        2    1    3    3  502    0  0.47431433618E+03 -0.64783665694E+03 -0.12396840299E+04  0.14769843999E+04  0.25500000920E-02 0.  1.
       -2    1    3    3    0  502 -0.47431433618E+03  0.64783665694E+03  0.20596047260E+04  0.22105741451E+04  0.25500000920E-02 0. -1.
</event>
<event>
 5   0  0.2198900E-07  0.3605290E+04  0.7818609E-02  0.8089281E-01
        2   -1    0    0  501    0  0.00000000000E+00  0.00000000000E+00  0.22652186051E+04  0.22652186051E+04  0.25500000920E-02 0.  1.
       -2   -1    0    0    0  501  0.00000000000E+00  0.00000000000E+00 -0.14345321278E+04  0.14345321278E+04  0.25500000920E-02 0. -1.
    10030    2    1    2    0    0  0.00000000000E+00  0.00000000000E+00  0.83068647729E+03  0.36997507330E+04  0.36052899277E+04 0.  0.
        2    1    3    3  502    0 -0.58847189092E+03  0.31258839304E+03 -0.13035100702E+04  0.14639498533E+04  0.25500000920E-02 0. -1.
       -2    1    3    3    0  502  0.58847189092E+03 -0.31258839304E+03  0.21341965475E+04  0.22358008796E+04  0.25500000920E-02 0.  1.
</event>
<event>
 5   0  0.2342606E-07  0.3606589E+04  0.7818609E-02  0.8088984E-01
       -2   -1    0    0    0  501  0.00000000000E+00  0.00000000000E+00  0.99790635129E+03  0.99790635130E+03  0.25500000920E-02 0.  1.
        2   -1    0    0  501    0  0.00000000000E+00  0.00000000000E+00 -0.32586941063E+04  0.32586941063E+04  0.25500000920E-02 0. -1.
    10030    2    1    2    0    0  0.00000000000E+00  0.00000000000E+00 -0.22607877550E+04  0.42566004576E+04  0.36065892728E+04 0.  0.
        5    1    3    3  502    0 -0.74179926009E+03 -0.66082375455E+03  0.64579957173E+03  0.11849191338E+04  0.46999998093E+01 0.  1.
       -5    1    3    3    0  502  0.74179926009E+03  0.66082375455E+03 -0.29065873267E+04  0.30716813238E+04  0.46999998093E+01 0. -1.
</event>
<event>
 5   0  0.2199902E-07  0.3623261E+04  0.7818609E-02  0.8085184E-01
        2   -1    0    0  501    0  0.00000000000E+00  0.00000000000E+00  0.21414076326E+04  0.21414076326E+04  0.25500000920E-02 0.  1.
       -2   -1    0    0    0  501  0.00000000000E+00  0.00000000000E+00 -0.15326390237E+04  0.15326390238E+04  0.25500000920E-02 0. -1.
    10030    2    1    2    0    0  0.00000000000E+00  0.00000000000E+00  0.60876860890E+03  0.36740466564E+04  0.36232609089E+04 0.  0.
        1    1    3    3  502    0 -0.13045700107E+04 -0.11930376744E+02  0.15789671159E+04  0.20482144419E+04  0.50400001928E-02 0.  1.
       -1    1    3    3    0  502  0.13045700107E+04  0.11930376744E+02 -0.97019850698E+03  0.16258322145E+04  0.50400001928E-02 0. -1.
</event>
<event>
 5   0  0.7261233E-08  0.3603050E+04  0.7818609E-02  0.8089793E-01
       -1   -1    0    0    0  501  0.00000000000E+00  0.00000000000E+00  0.20043956572E+04  0.20043956572E+04  0.50400001928E-02 0. -1.
        1   -1    0    0  501    0  0.00000000000E+00  0.00000000000E+00 -0.16191877543E+04  0.16191877543E+04  0.50400001928E-02 0.  1.
    10030    2    1    2    0    0  0.00000000000E+00  0.00000000000E+00  0.38520790295E+03  0.36235834115E+04  0.36030503205E+04 0.  0.
        3    1    3    3  502    0 -0.33331608136E+03  0.60893297430E+03  0.18644837462E+04  0.19895222108E+04  0.10100000352E+00 0. -1.
       -3    1    3    3    0  502  0.33331608136E+03 -0.60893297430E+03 -0.14792758432E+04  0.16340612007E+04  0.10100000352E+00 0.  1.
</event>
<event>
 5   0  0.2309391E-07  0.3604716E+04  0.7818609E-02  0.8089412E-01
        2   -1    0    0  501    0  0.00000000000E+00  0.00000000000E+00  0.24315657438E+04  0.24315657439E+04  0.25500000920E-02 0. -1.
       -2   -1    0    0    0  501  0.00000000000E+00  0.00000000000E+00 -0.13359684823E+04  0.13359684823E+04  0.25500000920E-02 0.  1.
    10030    2    1    2    0    0  0.00000000000E+00  0.00000000000E+00  0.10955972615E+04  0.37675342262E+04  0.36047164640E+04 0.  0.
        4    1    3    3  502    0 -0.14791311053E+04 -0.98856269092E+03  0.84964879471E+03  0.19715450053E+04  0.12699999809E+01 0. -1.
       -4    1    3    3    0  502  0.14791311053E+04  0.98856269092E+03  0.24594846679E+03  0.17959892209E+04  0.12699999809E+01 0.  1.
</event>
<event>
 5   0  0.2342606E-07  0.3591419E+04  0.7818609E-02  0.8092460E-01
        2   -1    0    0  501    0  0.00000000000E+00  0.00000000000E+00  0.11240244769E+04  0.11240244769E+04  0.25500000920E-02 0. -1.
       -2   -1    0    0    0  501  0.00000000000E+00  0.00000000000E+00 -0.28687738584E+04  0.28687738584E+04  0.25500000920E-02 0.  1.
    10030    2    1    2    0    0  0.00000000000E+00  0.00000000000E+00 -0.17447493814E+04  0.39927983353E+04  0.35914186810E+04 0.  0.
        5    1    3    3  502    0  0.27734895196E+03  0.93034438322E+03  0.80711530449E+03  0.12625055712E+04  0.46999998093E+01 0. -1.
       -5    1    3    3    0  502 -0.27734895196E+03 -0.93034438322E+03 -0.25518646859E+04  0.27302927641E+04  0.46999998093E+01 0.  1.
</event>
<event>
 5   0  0.2199902E-07  0.3606173E+04  0.7818609E-02  0.8089079E-01
        2   -1    0    0  501    0  0.00000000000E+00  0.00000000000E+00  0.19415424039E+04  0.19415424039E+04  0.25500000920E-02 0.  1.
       -2   -1    0    0    0  501  0.00000000000E+00  0.00000000000E+00 -0.16745045269E+04  0.16745045269E+04  0.25500000920E-02 0. -1.
    10030    2    1    2    0    0  0.00000000000E+00  0.00000000000E+00  0.26703787703E+03  0.36160469308E+04  0.36061733427E+04 0.  0.
        1    1    3    3  502    0  0.27005629670E+03  0.73372804166E+03 -0.14956862838E+04  0.16877098986E+04  0.50400001928E-02 0. -1.
       -1    1    3    3    0  502 -0.27005629670E+03 -0.73372804166E+03  0.17627241608E+04  0.19283370321E+04  0.50400001928E-02 0.  1.
</event>
<event>
 5   0  0.7236375E-08  0.3671178E+04  0.7818609E-02  0.8074379E-01
        1   -1    0    0  501    0  0.00000000000E+00  0.00000000000E+00  0.21037893145E+04  0.21037893145E+04  0.50400001928E-02 0. -1.
       -1   -1    0    0    0  501  0.00000000000E+00  0.00000000000E+00 -0.16015802463E+04  0.16015802463E+04  0.50400001928E-02 0.  1.
    10030    2    1    2    0    0  0.00000000000E+00  0.00000000000E+00  0.50220906815E+03  0.37053695608E+04  0.36711782351E+04 0.  0.
        1    1    3    3  502    0 -0.12765914125E+04 -0.12008175299E+04  0.80184114399E+03  0.19273291351E+04  0.50400001928E-02 0.  1.
       -1    1    3    3    0  502  0.12765914125E+04  0.12008175299E+04 -0.29963207584E+03  0.17780404257E+04  0.50400001928E-02 0. -1.
</event>
<event>
 5   0  0.7347303E-08  0.3614746E+04  0.7818609E-02  0.8087122E-01
        1   -1    0    0  501    0  0.00000000000E+00  0.00000000000E+00  0.14641857492E+04  0.14641857492E+04  0.50400001928E-02 0. -1.
       -1   -1    0    0    0  501  0.00000000000E+00  0.00000000000E+00 -0.22309997312E+04  0.22309997312E+04  0.50400001928E-02 0.  1.
    10030    2    1    2    0    0  0.00000000000E+00  0.00000000000E+00 -0.76681398201E+03  0.36951854804E+04  0.36147464713E+04 0.  0.
        2    1    3    3  502    0  0.53345941160E+02 -0.67671415115E+03 -0.20957372990E+04  0.22029304706E+04  0.25500000920E-02 0.  1.
       -2    1    3    3    0  502 -0.53345941160E+02  0.67671415115E+03  0.13289233170E+04  0.14922550098E+04  0.25500000920E-02 0. -1.
</event>
<event>
 5   0  0.7347303E-08  0.3648269E+04  0.7818609E-02  0.8079524E-01
        1   -1    0    0  501    0  0.00000000000E+00  0.00000000000E+00  0.12688460693E+04  0.12688460693E+04  0.50400001928E-02 0. -1.
       -1   -1    0    0    0  501  0.00000000000E+00  0.00000000000E+00 -0.26224359499E+04  0.26224359500E+04  0.50400001928E-02 0.  1.
    10030    2    1    2    0    0  0.00000000000E+00  0.00000000000E+00 -0.13535898807E+04  0.38912820192E+04  0.36482694785E+04 0.  0.
        2    1    3    3  502    0  0.94864214939E+03  0.15549002831E+04 -0.57104048737E+03  0.19088541212E+04  0.25500000920E-02 0. -1.
       -2    1    3    3    0  502 -0.94864214939E+03 -0.15549002831E+04 -0.78254939332E+03  0.19824278980E+04  0.25500000920E-02 0.  1.
</event>
<event>
 5   0  0.2198900E-07  0.3371763E+04  0.7818609E-02  0.8144872E-01
       -2   -1    0    0    0  501  0.00000000000E+00  0.00000000000E+00  0.19321605902E+04  0.19321605902E+04  0.25500000920E-02 0. -1.
        2   -1    0    0  501    0  0.00000000000E+00  0.00000000000E+00 -0.14709936173E+04  0.14709936173E+04  0.25500000920E-02 0.  1.
    10030    2    1    2    0    0  0.00000000000E+00  0.00000000000E+00  0.46116697286E+03  0.34031542075E+04  0.33717626820E+04 0.  0.
        2    1    3    3  502    0  0.15058805133E+04 -0.45457641749E+02 -0.53306710143E+03  0.15980935681E+04  0.25500000920E-02 0.  1.
       -2    1    3    3    0  502 -0.15058805133E+04  0.45457641749E+02  0.99423407429E+03  0.18050606395E+04  0.25500000920E-02 0. -1.
</event>
<event>
 5   0  0.2309391E-07  0.3607735E+04  0.7818609E-02  0.8088722E-01
        2   -1    0    0  501    0  0.00000000000E+00  0.00000000000E+00  0.22420539771E+04  0.22420539771E+04  0.25500000920E-02 0. -1.
       -2   -1    0    0    0  501  0.00000000000E+00  0.00000000000E+00 -0.14513203287E+04  0.14513203287E+04  0.25500000920E-02 0.  1.
    10030    2    1    2    0    0  0.00000000000E+00  0.00000000000E+00  0.79073364845E+03  0.36933743058E+04  0.36077353090E+04 0.  0.
        4    1    3    3  502    0  0.12780190651E+03 -0.14737774741E+04  0.14521415224E+04  0.20729375255E+04  0.12699999809E+01 0. -1.
       -4    1    3    3    0  502 -0.12780190651E+03  0.14737774741E+04 -0.66140787399E+03  0.16204367803E+04  0.12699999809E+01 0.  1.
</event>
<event>
 5   0  0.2342606E-07  0.3590476E+04  0.7818609E-02  0.8092677E-01
        2   -1    0    0  501    0  0.00000000000E+00  0.00000000000E+00  0.24540305092E+04  0.24540305092E+04  0.25500000920E-02 0.  1.
       -2   -1    0    0    0  501  0.00000000000E+00  0.00000000000E+00 -0.13133004940E+04  0.13133004940E+04  0.25500000920E-02 0. -1.
    10030    2    1    2    0    0  0.00000000000E+00  0.00000000000E+00  0.11407300152E+04  0.37673310032E+04  0.35904760019E+04 0.  0.
        5    1    3    3  502    0  0.83076405984E+03 -0.64339408909E+03 -0.95691904443E+03  0.14212111119E+04  0.46999998093E+01 0. -1.
       -5    1    3    3    0  502 -0.83076405984E+03  0.64339408909E+03  0.20976490596E+04  0.23461198913E+04  0.46999998093E+01 0.  1.
</event>
<event>
 5   0  0.7236375E-08  0.3577452E+04  0.7818609E-02  0.8095676E-01
        1   -1    0    0  501    0  0.00000000000E+00  0.00000000000E+00  0.17590078075E+04  0.17590078075E+04  0.50400001928E-02 0.  1.
       -1   -1    0    0    0  501  0.00000000000E+00  0.00000000000E+00 -0.18189460980E+04  0.18189460980E+04  0.50400001928E-02 0. -1.
    10030    2    1    2    0    0  0.00000000000E+00  0.00000000000E+00 -0.59938290499E+02  0.35779539054E+04  0.35774518237E+04 0.  0.
        1    1    3    3  502    0 -0.75452833184E+02 -0.68988524538E+03  0.16188694020E+04  0.17613554220E+04  0.50400001928E-02 0.  1.
       -1    1    3    3    0  502  0.75452833184E+02  0.68988524538E+03 -0.16788076925E+04  0.18165984835E+04  0.50400001928E-02 0. -1.
</event>
<event>
 5   0  0.7514289E-08  0.3605081E+04  0.7818609E-02  0.8089329E-01
        1   -1    0    0  501    0  0.00000000000E+00  0.00000000000E+00  0.18019003675E+04  0.18019003675E+04  0.50400001928E-02 0.  1.
       -1   -1    0    0    0  501  0.00000000000E+00  0.00000000000E+00 -0.18031812321E+04  0.18031812321E+04  0.50400001928E-02 0. -1.
    10030    2    1    2    0    0  0.00000000000E+00  0.00000000000E+00 -0.12808645555E+01  0.36050815996E+04  0.36050813721E+04 0.  0.
        4    1    3    3  502    0  0.10915689984E+04  0.42078749093E+03 -0.13719779395E+04  0.18030280281E+04  0.12699999809E+01 0. -1.
       -4    1    3    3    0  502 -0.10915689984E+04 -0.42078749093E+03  0.13706970749E+04  0.18020535716E+04  0.12699999809E+01 0.  1.
</event>
<event>
 5   0  0.2198900E-07  0.3606597E+04  0.7818609E-02  0.8088982E-01
       -2   -1    0    0    0  501  0.00000000000E+00  0.00000000000E+00  0.26761969841E+04  0.26761969841E+04  0.25500000920E-02 0.  1.
        2   -1    0    0  501    0  0.00000000000E+00  0.00000000000E+00 -0.12151141584E+04  0.12151141584E+04  0.25500000920E-02 0. -1.
    10030    2    1    2    0    0  0.00000000000E+00  0.00000000000E+00  0.14610828258E+04  0.38913111425E+04  0.36065966483E+04 0.  0.
        2    1    3    3  502    0 -0.15072104487E+04  0.21713610476E+03 -0.31165995227E+03  0.15543369488E+04  0.25500000920E-02 0. -1.
       -2    1    3    3    0  502  0.15072104487E+04 -0.21713610476E+03  0.17727427780E+04  0.23369741936E+04  0.25500000920E-02 0.  1.
</event>
<event>
 5   0  0.2199902E-07  0.3630813E+04  0.7818609E-02  0.8083470E-01
       -2   -1    0    0    0  501  0.00000000000E+00  0.00000000000E+00  0.12519036774E+04  0.12519036774E+04  0.25500000920E-02 0.  1.
        2   -1    0    0  501    0  0.00000000000E+00  0.00000000000E+00 -0.26325516722E+04  0.26325516722E+04  0.25500000920E-02 0. -1.
    10030    2    1    2    0    0  0.00000000000E+00  0.00000000000E+00 -0.13806479947E+04  0.38844553496E+04  0.36308131979E+04 0.  0.
        1    1    3    3  502    0  0.12329157532E+03 -0.11955120680E+04  0.76533250639E+03  0.14248451715E+04  0.50400001928E-02 0.  1.
       -1    1    3    3    0  502 -0.12329157532E+03  0.11955120680E+04 -0.21459805011E+04  0.24596101782E+04  0.50400001928E-02 0. -1.
</event>
<event>
 5   0  0.2199902E-07  0.3598452E+04  0.7818609E-02  0.8090846E-01
        2   -1    0    0  501    0  0.00000000000E+00  0.00000000000E+00  0.13874262932E+04  0.13874262932E+04  0.25500000920E-02 0.  1.
       -2   -1    0    0    0  501  0.00000000000E+00  0.00000000000E+00 -0.23332517525E+04  0.23332517525E+04  0.25500000920E-02 0. -1.
    10030    2    1    2    0    0  0.00000000000E+00  0.00000000000E+00 -0.94582545939E+03  0.37206780457E+04  0.35984523507E+04 0.  0.
        1    1    3    3  502    0  0.14531818890E+04  0.65649595694E+03 -0.13345796552E+04  0.20793814946E+04  0.50400001928E-02 0. -1.
       -1    1    3    3    0  502 -0.14531818890E+04 -0.65649595694E+03  0.38875419580E+03  0.16412965511E+04  0.50400001928E-02 0.  1.
</event>
<event>
 5   0  0.7347303E-08  0.3598885E+04  0.7818609E-02  0.8090747E-01
        1   -1    0    0  501    0  0.00000000000E+00  0.00000000000E+00  0.25030678276E+04  0.25030678276E+04  0.50400001928E-02 0. -1.
       -1   -1    0    0    0  501  0.00000000000E+00  0.00000000000E+00 -0.12936101462E+04  0.12936101462E+04  0.50400001928E-02 0.  1.
    10030    2    1    2    0    0  0.00000000000E+00  0.00000000000E+00  0.12094576813E+04  0.37966779738E+04  0.35988853488E+04 0.  0.
        2    1    3    3  502    0  0.21208160596E+02 -0.99665271532E+03  0.21851367444E+04  0.24017887111E+04  0.25500000920E-02 0. -1.
       -2    1    3    3    0  502 -0.21208160596E+02  0.99665271532E+03 -0.97567906307E+03  0.13948892627E+04  0.25500000920E-02 0.  1.
</event>
<event>
 5   0  0.2342606E-07  0.3600287E+04  0.7818609E-02  0.8090426E-01
       -2   -1    0    0    0  501  0.00000000000E+00  0.00000000000E+00  0.24994887698E+04  0.24994887698E+04  0.25500000920E-02 0.  1.
        2   -1    0    0  501    0  0.00000000000E+00  0.00000000000E+00 -0.12964719832E+04  0.12964719832E+04  0.25500000920E-02 0. -1.
    10030    2    1    2    0    0  0.00000000000E+00  0.00000000000E+00  0.12030167866E+04  0.37959607530E+04  0.36002873009E+04 0.  0.
        5    1    3    3  502    0 -0.13986126161E+04 -0.28753451211E+03  0.17573089452E+04  0.22642769629E+04  0.46999998093E+01 0.  1.
       -5    1    3    3    0  502  0.13986126161E+04  0.28753451211E+03 -0.55429215868E+03  0.15316837901E+04  0.46999998093E+01 0. -1.
</event>
<event>
 5   0  0.7514289E-08  0.3592923E+04  0.7818609E-02  0.8092115E-01
        1   -1    0    0  501    0  0.00000000000E+00  0.00000000000E+00  0.14862347408E+04  0.14862347408E+04  0.50400001928E-02 0.  1.
       -1   -1    0    0    0  501  0.00000000000E+00  0.00000000000E+00 -0.21714434513E+04  0.21714434513E+04  0.50400001928E-02 0. -1.
    10030    2    1    2    0    0  0.00000000000E+00  0.00000000000E+00 -0.68520871044E+03  0.36576781921E+04  0.35929234309E+04 0.  0.
        4    1    3    3  502    0  0.85342586567E+03 -0.15776413195E+04 -0.44433148901E+03  0.18478960810E+04  0.12699999809E+01 0. -1.
       -4    1    3    3    0  502 -0.85342586567E+03  0.15776413195E+04 -0.24087722143E+03  0.18097821111E+04  0.12699999809E+01 0.  1.
</event>
<event>
 5   0  0.7236375E-08  0.3606746E+04  0.7818609E-02  0.8088948E-01
       -1   -1    0    0    0  501  0.00000000000E+00  0.00000000000E+00  0.16367136604E+04  0.16367136604E+04  0.50400001928E-02 0.  1.
        1   -1    0    0  501    0  0.00000000000E+00  0.00000000000E+00 -0.19870028646E+04  0.19870028646E+04  0.50400001928E-02 0. -1.
    10030    2    1    2    0    0  0.00000000000E+00  0.00000000000E+00 -0.35028920419E+03  0.36237165251E+04  0.36067463076E+04 0.  0.
        1    1    3    3  502    0 -0.25100523285E+03  0.15928851719E+04  0.63603763062E+03  0.17334447396E+04  0.50400001928E-02 0.  1.
       -1    1    3    3    0  502  0.25100523285E+03 -0.15928851719E+04 -0.98632683481E+03  0.18902717854E+04  0.50400001928E-02 0. -1.
</event>
<event>
 5   0  0.7236375E-08  0.3595290E+04  0.7818609E-02  0.8091571E-01
        1   -1    0    0  501    0  0.00000000000E+00  0.00000000000E+00  0.23253947919E+04  0.23253947920E+04  0.50400001928E-02 0. -1.
       -1   -1    0    0    0  501  0.00000000000E+00  0.00000000000E+00 -0.13896685402E+04  0.13896685402E+04  0.50400001928E-02 0.  1.
    10030    2    1    2    0    0  0.00000000000E+00  0.00000000000E+00  0.93572625179E+03  0.37150633321E+04  0.35952902447E+04 0.  0.
        1    1    3    3  502    0  0.13404147298E+04 -0.56561051302E+03 -0.62320139725E+03  0.15827213532E+04  0.50400001928E-02 0.  1.
       -1    1    3    3    0  502 -0.13404147298E+04  0.56561051302E+03  0.15589276490E+04  0.21323419789E+04  0.50400001928E-02 0. -1.
</event>
<event>
 5   0  0.7347303E-08  0.3581810E+04  0.7818609E-02  0.8094671E-01
       -1   -1    0    0    0  501  0.00000000000E+00  0.00000000000E+00  0.13087197729E+04  0.13087197729E+04  0.50400001928E-02 0. -1.
        1   -1    0    0  501    0  0.00000000000E+00  0.00000000000E+00 -0.24507466135E+04  0.24507466135E+04  0.50400001928E-02 0.  1.
    10030    2    1    2    0    0  0.00000000000E+00  0.00000000000E+00 -0.11420268407E+04  0.37594663864E+04  0.35818099064E+04 0.  0.
        2    1    3    3  502    0  0.28333129427E+03  0.17555182090E+04 -0.79421010410E+03  0.19475344654E+04  0.25500000920E-02 0.  1.
       -2    1    3    3    0  502 -0.28333129427E+03 -0.17555182090E+04 -0.34781673657E+03  0.18119319211E+04  0.25500000920E-02 0. -1.
</event>
<event>
 5   0  0.7261233E-08  0.3608843E+04  0.7818609E-02  0.8088469E-01
        1   -1    0    0  501    0  0.00000000000E+00  0.00000000000E+00  0.16649657980E+04  0.16649657981E+04  0.50400001928E-02 0. -1.
       -1   -1    0    0    0  501  0.00000000000E+00  0.00000000000E+00 -0.19555578102E+04  0.19555578102E+04  0.50400001928E-02 0.  1.
    10030    2    1    2    0    0  0.00000000000E+00  0.00000000000E+00 -0.29059201215E+03  0.36205236083E+04  0.36088429559E+04 0.  0.
        3    1    3    3  502    0 -0.12017899655E+04 -0.11140287179E+04 -0.90310685414E+03  0.18710855421E+04  0.10100000352E+00 0.  1.
       -3    1    3    3    0  502  0.12017899655E+04  0.11140287179E+04  0.61251484199E+03  0.17494380662E+04  0.10100000352E+00 0. -1.
</event>
<event>
 5   0  0.2199902E-07  0.3600255E+04  0.7818609E-02  0.8090433E-01
        2   -1    0    0  501    0  0.00000000000E+00  0.00000000000E+00  0.20867575470E+04  0.20867575470E+04  0.25500000920E-02 0.  1.
       -2   -1    0    0    0  501  0.00000000000E+00  0.00000000000E+00 -0.15528679018E+04  0.15528679018E+04  0.25500000920E-02 0. -1.
    10030    2    1    2    0    0  0.00000000000E+00  0.00000000000E+00  0.53388964519E+03  0.36396254488E+04  0.36002548874E+04 0.  0.
        1    1    3    3  502    0 -0.91246552159E+03  0.15377274046E+04  0.56680168822E+02  0.17889694074E+04  0.50400001928E-02 0. -1.
       -1    1    3    3    0  502  0.91246552159E+03 -0.15377274046E+04  0.47720947636E+03  0.18506560414E+04  0.50400001928E-02 0.  1.
</event>
<event>
 5   0  0.7261233E-08  0.3594640E+04  0.7818609E-02  0.8091721E-01
        1   -1    0    0  501    0  0.00000000000E+00  0.00000000000E+00  0.24835075567E+04  0.24835075567E+04  0.50400001928E-02 0. -1.
       -1   -1    0    0    0  501  0.00000000000E+00  0.00000000000E+00 -0.13007244118E+04  0.13007244119E+04  0.50400001928E-02 0.  1.
    10030    2    1    2    0    0  0.00000000000E+00  0.00000000000E+00  0.11827831449E+04  0.37842319686E+04  0.35946398462E+04 0.  0.
        3    1    3    3  502    0  0.16422709503E+04 -0.73006354099E+03  0.57278904598E+03  0.18863016592E+04  0.10100000352E+00 0.  1.
       -3    1    3    3    0  502 -0.16422709503E+04  0.73006354099E+03  0.60999409890E+03  0.18979303093E+04  0.10100000352E+00 0. -1.
</event>
<event>
 5   0  0.2309391E-07  0.3381883E+04  0.7818609E-02  0.8142367E-01
       -2   -1    0    0    0  501  0.00000000000E+00  0.00000000000E+00  0.15100038959E+04  0.15100038959E+04  0.25500000920E-02 0.  1.
        2   -1    0    0  501    0  0.00000000000E+00  0.00000000000E+00 -0.18935604766E+04  0.18935604766E+04  0.25500000920E-02 0. -1.
    10030    2    1    2    0    0  0.00000000000E+00  0.00000000000E+00 -0.38355658066E+03  0.34035643725E+04  0.33818833196E+04 0.  0.
        4    1    3    3  502    0  0.97916708308E+03 -0.11662224584E+04  0.54808030611E+03  0.16184055839E+04  0.12699999809E+01 0.  1.
       -4    1    3    3    0  502 -0.97916708308E+03  0.11662224584E+04 -0.93163688677E+03  0.17851587887E+04  0.12699999809E+01 0. -1.
</event>
<event>
 5   0  0.2238968E-07  0.3603916E+04  0.7818609E-02  0.8089595E-01
        2   -1    0    0  501    0  0.00000000000E+00  0.00000000000E+00  0.26933134082E+04  0.26933134082E+04  0.25500000920E-02 0. -1.
       -2   -1    0    0    0  501  0.00000000000E+00  0.00000000000E+00 -0.12055979237E+04  0.12055979237E+04  0.25500000920E-02 0.  1.
    10030    2    1    2    0    0  0.00000000000E+00  0.00000000000E+00  0.14877154845E+04  0.38989113320E+04  0.36039162326E+04 0.  0.
        3    1    3    3  502    0  0.98252728962E+03 -0.71063548787E+03 -0.69817308642E+03  0.13992170454E+04  0.10100000352E+00 0.  1.
       -3    1    3    3    0  502 -0.98252728962E+03  0.71063548787E+03  0.21858885709E+04  0.24996942865E+04  0.10100000352E+00 0. -1.
</event>
<event>
 5   0  0.2198900E-07  0.3613931E+04  0.7818609E-02  0.8087308E-01
       -2   -1    0    0    0  501  0.00000000000E+00  0.00000000000E+00  0.27981728453E+04  0.27981728453E+04  0.25500000920E-02 0.  1.
        2   -1    0    0  501    0  0.00000000000E+00  0.00000000000E+00 -0.11668774656E+04  0.11668774656E+04  0.25500000920E-02 0. -1.
    10030    2    1    2    0    0  0.00000000000E+00  0.00000000000E+00  0.16312953798E+04  0.39650503109E+04  0.36139312876E+04 0.  0.
        2    1    3    3  502    0  0.83406902546E+03  0.31853575782E+03 -0.90796781466E+03  0.12733977072E+04  0.25500000920E-02 0. -1.
       -2    1    3    3    0  502 -0.83406902546E+03 -0.31853575782E+03  0.25392631945E+04  0.26916526037E+04  0.25500000920E-02 0.  1.
</event>
<event>
 5   0  0.7236375E-08  0.3645693E+04  0.7818609E-02  0.8080105E-01
        1   -1    0    0  501    0  0.00000000000E+00  0.00000000000E+00  0.15815006489E+04  0.15815006489E+04  0.50400001928E-02 0.  1.
       -1   -1    0    0    0  501  0.00000000000E+00  0.00000000000E+00 -0.21010231123E+04  0.21010231123E+04  0.50400001928E-02 0. -1.
    10030    2    1    2    0    0  0.00000000000E+00  0.00000000000E+00 -0.51952246341E+03  0.36825237612E+04  0.36456930290E+04 0.  0.
        5    1    3    3  502    0  0.99733581063E+03 -0.18332726180E+02  0.12813429423E+04  0.16238462470E+04  0.46999998093E+01 0.  1.
       -5    1    3    3    0  502 -0.99733581063E+03  0.18332726180E+02 -0.18008654057E+04  0.20586775142E+04  0.46999998093E+01 0. -1.
</event>
<event>
 5   0  0.7236375E-08  0.3598161E+04  0.7818609E-02  0.8090913E-01
       -1   -1    0    0    0  501  0.00000000000E+00  0.00000000000E+00  0.19577517124E+04  0.19577517124E+04  0.50400001928E-02 0. -1.
        1   -1    0    0  501    0  0.00000000000E+00  0.00000000000E+00 -0.16532691414E+04  0.16532691414E+04  0.50400001928E-02 0.  1.
    10030    2    1    2    0    0  0.00000000000E+00  0.00000000000E+00  0.30448257097E+03  0.36110208538E+04  0.35981609150E+04 0.  0.
        1    1    3    3  502    0 -0.37561606210E+03  0.90319291929E+03 -0.13630709652E+04  0.16777387555E+04  0.50400001928E-02 0.  1.
       -1    1    3    3    0  502  0.37561606210E+03 -0.90319291929E+03  0.16675535361E+04  0.19332820983E+04  0.50400001928E-02 0. -1.
</event>
<event>
 5   0  0.2309391E-07  0.3602461E+04  0.7818609E-02  0.8089928E-01
        2   -1    0    0  501    0  0.00000000000E+00  0.00000000000E+00  0.29227006038E+04  0.29227006038E+04  0.25500000920E-02 0.  1.
       -2   -1    0    0    0  501  0.00000000000E+00  0.00000000000E+00 -0.11100799902E+04  0.11100799902E+04  0.25500000920E-02 0. -1.
    10030    2    1    2    0    0  0.00000000000E+00  0.00000000000E+00  0.18126206136E+04  0.40327805940E+04  0.36024610797E+04 0.  0.
        4    1    3    3  502    0 -0.49213534326E+03 -0.17079564915E+04  0.57971183738E+03  0.18695935387E+04  0.12699999809E+01 0. -1.
       -4    1    3    3    0  502  0.49213534326E+03  0.17079564915E+04  0.12329087762E+04  0.21631870553E+04  0.12699999809E+01 0.  1.
</event>
<event>
 5   0  0.2309391E-07  0.3604997E+04  0.7818609E-02  0.8089348E-01
       -2   -1    0    0    0  501  0.00000000000E+00  0.00000000000E+00  0.11845527876E+04  0.11845527876E+04  0.25500000920E-02 0.  1.
        2   -1    0    0  501    0  0.00000000000E+00  0.00000000000E+00 -0.27428087197E+04  0.27428087197E+04  0.25500000920E-02 0. -1.
    10030    2    1    2    0    0  0.00000000000E+00  0.00000000000E+00 -0.15582559321E+04  0.39273615074E+04  0.36049974840E+04 0.  0.
        4    1    3    3  502    0  0.80853853325E+03  0.29997770238E+03 -0.25034721454E+04  0.26478473478E+04  0.12699999809E+01 0. -1.
       -4    1    3    3    0  502 -0.80853853325E+03 -0.29997770238E+03  0.94521621328E+03  0.12795141595E+04  0.12699999809E+01 0.  1.
</event>
<event>
 5   0  0.2342606E-07  0.3629568E+04  0.7818609E-02  0.8083752E-01
        2   -1    0    0  501    0  0.00000000000E+00  0.00000000000E+00  0.18910243538E+04  0.18910243539E+04  0.25500000920E-02 0. -1.
       -2   -1    0    0    0  501  0.00000000000E+00  0.00000000000E+00 -0.17416172563E+04  0.17416172563E+04  0.25500000920E-02 0.  1.
    10030    2    1    2    0    0  0.00000000000E+00  0.00000000000E+00  0.14940709753E+03  0.36326416102E+04  0.36295678237E+04 0.  0.
        5    1    3    3  502    0 -0.15403929452E+04 -0.23614333430E+03 -0.85605415628E+03  0.17780396251E+04  0.46999998093E+01 0.  1.
       -5    1    3    3    0  502  0.15403929452E+04  0.23614333430E+03  0.10054612538E+04  0.18546019850E+04  0.46999998093E+01 0. -1.
</event>
<event>
 5   0  0.2238968E-07  0.3542130E+04  0.7818609E-02  0.8103878E-01
       -2   -1    0    0    0  501  0.00000000000E+00  0.00000000000E+00  0.14343710604E+04  0.14343710604E+04  0.25500000920E-02 0.  1.
        2   -1    0    0  501    0  0.00000000000E+00  0.00000000000E+00 -0.21867926347E+04  0.21867926347E+04  0.25500000920E-02 0. -1.
    10030    2    1    2    0    0  0.00000000000E+00  0.00000000000E+00 -0.75242157424E+03  0.36211636951E+04  0.35421304721E+04 0.  0.
        3    1    3    3  502    0 -0.66129035726E+03  0.92942459839E+03 -0.17612599202E+04  0.20983735457E+04  0.10100000352E+00 0. -1.
       -3    1    3    3    0  502  0.66129035726E+03 -0.92942459839E+03  0.10088383459E+04  0.15227901494E+04  0.10100000352E+00 0.  1.
</event>
<event>
 5   0  0.2309391E-07  0.3612215E+04  0.7818609E-02  0.8087699E-01
       -2   -1    0    0    0  501  0.00000000000E+00  0.00000000000E+00  0.15835260369E+04  0.15835260369E+04  0.25500000920E-02 0.  1.
        2   -1    0    0  501    0  0.00000000000E+00  0.00000000000E+00 -0.20599753790E+04  0.20599753790E+04  0.25500000920E-02 0. -1.
    10030    2    1    2    0    0  0.00000000000E+00  0.00000000000E+00 -0.47644934215E+03  0.36435014159E+04  0.36122151918E+04 0.  0.
        4    1    3    3  502    0  0.14906941062E+04  0.62102057503E+03 -0.10540486559E+04  0.19284334717E+04  0.12699999809E+01 0. -1.
       -4    1    3    3    0  502 -0.14906941062E+04 -0.62102057503E+03  0.57759931377E+03  0.17150679442E+04  0.12699999809E+01 0.  1.
</event>
<event>
 5   0  0.7236375E-08  0.3595405E+04  0.7818609E-02  0.8091545E-01
        1   -1    0    0  501    0  0.00000000000E+00  0.00000000000E+00  0.10021773177E+04  0.10021773177E+04  0.50400001928E-02 0. -1.
       -1   -1    0    0    0  501  0.00000000000E+00  0.00000000000E+00 -0.32247125576E+04  0.32247125577E+04  0.50400001928E-02 0.  1.
    10030    2    1    2    0    0  0.00000000000E+00  0.00000000000E+00 -0.22225352400E+04  0.42268898754E+04  0.35954047235E+04 0.  0.
        5    1    3    3  502    0  0.10959748037E+04  0.16365693059E+03 -0.27754341925E+04  0.29884781090E+04  0.46999998093E+01 0.  1.
       -5    1    3    3    0  502 -0.10959748037E+04 -0.16365693059E+03  0.55289895253E+03  0.12384117663E+04  0.46999998093E+01 0. -1.
</event>
<event>
 5   0  0.7347303E-08  0.3599308E+04  0.7818609E-02  0.8090650E-01
        1   -1    0    0  501    0  0.00000000000E+00  0.00000000000E+00  0.11126191082E+04  0.11126191082E+04  0.50400001928E-02 0.  1.
       -1   -1    0    0    0  501  0.00000000000E+00  0.00000000000E+00 -0.29109278306E+04  0.29109278306E+04  0.50400001928E-02 0. -1.
    10030    2    1    2    0    0  0.00000000000E+00  0.00000000000E+00 -0.17983087224E+04  0.40235469388E+04  0.35993076706E+04 0.  0.
        2    1    3    3  502    0  0.13824966024E+04 -0.57575903465E+03  0.21645138986E+03  0.15131577994E+04  0.25500000920E-02 0. -1.
       -2    1    3    3    0  502 -0.13824966024E+04  0.57575903465E+03 -0.20147601123E+04  0.25103891395E+04  0.25500000920E-02 0.  1.
</event>
<event>
 5   0  0.2309391E-07  0.3571778E+04  0.7818609E-02  0.8096987E-01
       -2   -1    0    0    0  501  0.00000000000E+00  0.00000000000E+00  0.17312689736E+04  0.17312689736E+04  0.25500000920E-02 0. -1.
        2   -1    0    0  501    0  0.00000000000E+00  0.00000000000E+00 -0.18422319751E+04  0.18422319751E+04  0.25500000920E-02 0.  1.
    10030    2    1    2    0    0  0.00000000000E+00  0.00000000000E+00 -0.11096300157E+03  0.35735009487E+04  0.35717777426E+04 0.  0.
        4    1    3    3  502    0  0.11958667181E+04 -0.12985618249E+04  0.21490325888E+03  0.17783545889E+04  0.12699999809E+01 0.  1.
       -4    1    3    3    0  502 -0.11958667181E+04  0.12985618249E+04 -0.32586626045E+03  0.17951463598E+04  0.12699999809E+01 0. -1.
</event>
<event>
 5   0  0.2238968E-07  0.3529970E+04  0.7818609E-02  0.8106724E-01
        2   -1    0    0  501    0  0.00000000000E+00  0.00000000000E+00  0.18927086193E+04  0.18927086193E+04  0.25500000920E-02 0.  1.
       -2   -1    0    0    0  501  0.00000000000E+00  0.00000000000E+00 -0.16458800912E+04  0.16458800912E+04  0.25500000920E-02 0. -1.
    10030    2    1    2    0    0  0.00000000000E+00  0.00000000000E+00  0.24682852813E+03  0.35385887104E+04  0.35299696513E+04 0.  0.
        3    1    3    3  502    0 -0.63127301890E+03  0.22791952048E+03  0.17597966041E+04  0.18834375568E+04  0.10100000352E+00 0.  1.
       -3    1    3    3    0  502  0.63127301890E+03 -0.22791952048E+03 -0.15129680760E+04  0.16551511536E+04  0.10100000352E+00 0. -1.
</event>
<event>
 5   0  0.7236375E-08  0.3594501E+04  0.7818609E-02  0.8091753E-01
       -3   -1    0    0    0  501  0.00000000000E+00  0.00000000000E+00  0.12595613513E+04  0.12595613554E+04  0.10100000352E+00 0.  1.
        3   -1    0    0  501    0  0.00000000000E+00  0.00000000000E+00 -0.25644709628E+04  0.25644709647E+04  0.10100000352E+00 0. -1.
    10030    2    1    2    0    0  0.00000000000E+00  0.00000000000E+00 -0.13049096114E+04  0.38240323201E+04  0.35945005343E+04 0.  0.
        5    1    3    3  502    0 -0.12791003348E+04  0.21079972034E+03 -0.19767539957E+04  0.23639189152E+04  0.46999998093E+01 0. -1.
       -5    1    3    3    0  502  0.12791003348E+04 -0.21079972034E+03  0.67184438423E+03  0.14601134049E+04  0.46999998093E+01 0.  1.
</event>
<event>
 5   0  0.2198900E-07  0.3596995E+04  0.7818609E-02  0.8091180E-01
        2   -1    0    0  501    0  0.00000000000E+00  0.00000000000E+00  0.20069821775E+04  0.20069821775E+04  0.25500000920E-02 0. -1.
       -2   -1    0    0    0  501  0.00000000000E+00  0.00000000000E+00 -0.16116705313E+04  0.16116705313E+04  0.25500000920E-02 0.  1.
    10030    2    1    2    0    0  0.00000000000E+00  0.00000000000E+00  0.39531164625E+03  0.36186527088E+04  0.35969954308E+04 0.  0.
        2    1    3    3  502    0 -0.15201756273E+04 -0.95437500077E+03  0.83711116829E+02  0.17968787190E+04  0.25500000920E-02 0. -1.
       -2    1    3    3    0  502  0.15201756273E+04  0.95437500077E+03  0.31160052942E+03  0.18217739898E+04  0.25500000920E-02 0.  1.
</event>
<event>
 5   0  0.2309391E-07  0.3598203E+04  0.7818609E-02  0.8090904E-01
        2   -1    0    0  501    0  0.00000000000E+00  0.00000000000E+00  0.96786485087E+03  0.96786485087E+03  0.25500000920E-02 0. -1.
       -2   -1    0    0    0  501  0.00000000000E+00  0.00000000000E+00 -0.33442328059E+04  0.33442328059E+04  0.25500000920E-02 0.  1.
    10030    2    1    2    0    0  0.00000000000E+00  0.00000000000E+00 -0.23763679551E+04  0.43120976568E+04  0.35982025435E+04 0.  0.
        4    1    3    3  502    0  0.16839624987E+04  0.61689564150E+03 -0.13596597118E+04  0.22505479498E+04  0.12699999809E+01 0. -1.
       -4    1    3    3    0  502 -0.16839624987E+04 -0.61689564150E+03 -0.10167082433E+04  0.20615497070E+04  0.12699999809E+01 0.  1.
</event>
<event>
 5   0  0.7236375E-08  0.3603844E+04  0.7818609E-02  0.8089612E-01
        1   -1    0    0  501    0  0.00000000000E+00  0.00000000000E+00  0.18586587582E+04  0.18586587582E+04  0.50400001928E-02 0.  1.
       -1   -1    0    0    0  501  0.00000000000E+00  0.00000000000E+00 -0.17469168625E+04  0.17469168625E+04  0.50400001928E-02 0. -1.
    10030    2    1    2    0    0  0.00000000000E+00  0.00000000000E+00  0.11174189568E+03  0.36055756207E+04  0.36038436849E+04 0.  0.
        1    1    3    3  502    0  0.84559953799E+03  0.10203701055E+04  0.12774116835E+04  0.18406450880E+04  0.50400001928E-02 0.  1.
       -1    1    3    3    0  502 -0.84559953799E+03 -0.10203701055E+04 -0.11656697878E+04  0.17649305327E+04  0.50400001928E-02 0. -1.
</event>
<event>
 5   0  0.2198900E-07  0.3504708E+04  0.7818609E-02  0.8112675E-01
        2   -1    0    0  501    0  0.00000000000E+00  0.00000000000E+00  0.21127343655E+04  0.21127343655E+04  0.25500000920E-02 0.  1.
       -2   -1    0    0    0  501  0.00000000000E+00  0.00000000000E+00 -0.14534458774E+04  0.14534458774E+04  0.25500000920E-02 0. -1.
    10030    2    1    2    0    0  0.00000000000E+00  0.00000000000E+00  0.65928848810E+03  0.35661802430E+04  0.35047082924E+04 0.  0.
        2    1    3    3  502    0  0.93200026633E+03 -0.13987571030E+04 -0.17462771631E+03  0.16898641274E+04  0.25500000920E-02 0. -1.
       -2    1    3    3    0  502 -0.93200026633E+03  0.13987571030E+04  0.83391620441E+03  0.18763161156E+04  0.25500000920E-02 0.  1.
</event>
<event>
 5   0  0.7236375E-08  0.3610107E+04  0.7818609E-02  0.8088181E-01
       -1   -1    0    0    0  501  0.00000000000E+00  0.00000000000E+00  0.23248246538E+04  0.23248246539E+04  0.50400001928E-02 0. -1.
        1   -1    0    0  501    0  0.00000000000E+00  0.00000000000E+00 -0.14014894835E+04  0.14014894835E+04  0.50400001928E-02 0.  1.
    10030    2    1    2    0    0  0.00000000000E+00  0.00000000000E+00  0.92333517031E+03  0.37263141374E+04  0.36101065377E+04 0.  0.
        5    1    3    3  502    0 -0.17879500986E+04 -0.19989955081E+03  0.61291004390E+03  0.19006331043E+04  0.46999998093E+01 0. -1.
       -5    1    3    3    0  502  0.17879500986E+04  0.19989955081E+03  0.31042512641E+03  0.18256810331E+04  0.46999998093E+01 0.  1.
</event>
<event>
 5   0  0.7261233E-08  0.3606436E+04  0.7818609E-02  0.8089019E-01
        1   -1    0    0  501    0  0.00000000000E+00  0.00000000000E+00  0.35185701921E+04  0.35185701921E+04  0.50400001928E-02 0. -1.
       -1   -1    0    0    0  501  0.00000000000E+00  0.00000000000E+00 -0.92412412531E+03  0.92412412532E+03  0.50400001928E-02 0.  1.
    10030    2    1    2    0    0  0.00000000000E+00  0.00000000000E+00  0.25944460668E+04  0.44426943174E+04  0.36064362471E+04 0.  0.
        3    1    3    3  502    0 -0.13110652314E+04  0.11069531050E+04  0.61427022132E+03  0.18225161543E+04  0.10100000352E+00 0.  1.
       -3    1    3    3    0  502  0.13110652314E+04 -0.11069531050E+04  0.19801758455E+04  0.26201781632E+04  0.10100000352E+00 0. -1.
</event>
<event>
 5   0  0.2342606E-07  0.3592187E+04  0.7818609E-02  0.8092284E-01
        2   -1    0    0  501    0  0.00000000000E+00  0.00000000000E+00  0.20660202360E+04  0.20660202360E+04  0.25500000920E-02 0. -1.
       -2   -1    0    0    0  501  0.00000000000E+00  0.00000000000E+00 -0.15614329716E+04  0.15614329716E+04  0.25500000920E-02 0.  1.
    10030    2    1    2    0    0  0.00000000000E+00  0.00000000000E+00  0.50458726439E+03  0.36274532076E+04  0.35921871424E+04 0.  0.
        5    1    3    3  502    0  0.10362546426E+04  0.12325622382E+04  0.10556519055E+04  0.19254756272E+04  0.46999998093E+01 0.  1.
       -5    1    3    3    0  502 -0.10362546426E+04 -0.12325622382E+04 -0.55106464115E+03  0.17019775804E+04  0.46999998093E+01 0. -1.
</event>
<event>
 5   0  0.7236375E-08  0.3597937E+04  0.7818609E-02  0.8090964E-01
        1   -1    0    0  501    0  0.00000000000E+00  0.00000000000E+00  0.28549168004E+04  0.28549168004E+04  0.50400001928E-02 0.  1.
       -1   -1    0    0    0  501  0.00000000000E+00  0.00000000000E+00 -0.11335840516E+04  0.11335840516E+04  0.50400001928E-02 0. -1.
    10030    2    1    2    0    0  0.00000000000E+00  0.00000000000E+00  0.17213327489E+04  0.39885008520E+04  0.35979372722E+04 0.  0.
        5    1    3    3  502    0 -0.14830426220E+04  0.66957328557E+03  0.17110943707E+04  0.23612729277E+04  0.46999998093E+01 0.  1.
       -5    1    3    3    0  502  0.14830426220E+04 -0.66957328557E+03  0.10238378159E+02  0.16272279244E+04  0.46999998093E+01 0. -1.
</event>
<event>
 5   0  0.2238968E-07  0.3597204E+04  0.7818609E-02  0.8091132E-01
        2   -1    0    0  501    0  0.00000000000E+00  0.00000000000E+00  0.20546546235E+04  0.20546546235E+04  0.25500000920E-02 0. -1.
       -2   -1    0    0    0  501  0.00000000000E+00  0.00000000000E+00 -0.15744592184E+04  0.15744592184E+04  0.25500000920E-02 0.  1.
    10030    2    1    2    0    0  0.00000000000E+00  0.00000000000E+00  0.48019540509E+03  0.36291138419E+04  0.35972044216E+04 0.  0.
        3    1    3    3  502    0 -0.49626323694E+03 -0.16677903024E+04  0.69929257442E+03  0.18753164554E+04  0.10100000352E+00 0.  1.
       -3    1    3    3    0  502  0.49626323694E+03  0.16677903024E+04 -0.21909716933E+03  0.17537973865E+04  0.10100000352E+00 0. -1.
</event>
<event>
 5   0  0.7236375E-08  0.3607518E+04  0.7818609E-02  0.8088772E-01
        1   -1    0    0  501    0  0.00000000000E+00  0.00000000000E+00  0.19729713542E+04  0.19729713542E+04  0.50400001928E-02 0.  1.
       -1   -1    0    0    0  501  0.00000000000E+00  0.00000000000E+00 -0.16490591177E+04  0.16490591178E+04  0.50400001928E-02 0. -1.
    10030    2    1    2    0    0  0.00000000000E+00  0.00000000000E+00  0.32391223641E+03  0.36220304719E+04  0.36075179282E+04 0.  0.
        1    1    3    3  502    0 -0.15751366203E+04  0.40432702405E+03 -0.62157465482E+03  0.17409453658E+04  0.50400001928E-02 0. -1.
       -1    1    3    3    0  502  0.15751366203E+04 -0.40432702405E+03  0.94548689123E+03  0.18810851061E+04  0.50400001928E-02 0.  1.
</event>
<event>
 5   0  0.7236375E-08  0.3587665E+04  0.7818609E-02  0.8093323E-01
        1   -1    0    0  501    0  0.00000000000E+00  0.00000000000E+00  0.17849490165E+04  0.17849490165E+04  0.50400001928E-02 0.  1.
       -1   -1    0    0    0  501  0.00000000000E+00  0.00000000000E+00 -0.18027600540E+04  0.18027600540E+04  0.50400001928E-02 0. -1.
    10030    2    1    2    0    0  0.00000000000E+00  0.00000000000E+00 -0.17811037550E+02  0.35877090705E+04  0.35876648591E+04 0.  0.
        5    1    3    3  502    0 -0.28864401140E+02  0.15926726569E+04 -0.83376315411E+03  0.17979495078E+04  0.46999998093E+01 0. -1.
       -5    1    3    3    0  502  0.28864401140E+02 -0.15926726569E+04  0.81595211655E+03  0.17897595626E+04  0.46999998093E+01 0.  1.
</event>
<event>
 5   0  0.2238968E-07  0.3590222E+04  0.7818609E-02  0.8092735E-01
        2   -1    0    0  501    0  0.00000000000E+00  0.00000000000E+00  0.17866423496E+04  0.17866423496E+04  0.25500000920E-02 0.  1.
       -2   -1    0    0    0  501  0.00000000000E+00  0.00000000000E+00 -0.18036197867E+04  0.18036197867E+04  0.25500000920E-02 0. -1.
    10030    2    1    2    0    0  0.00000000000E+00  0.00000000000E+00 -0.16977437099E+02  0.35902621362E+04  0.35902219950E+04 0.  0.
        3    1    3    3  502    0  0.12617864220E+04 -0.11502114408E+04 -0.56287037605E+03  0.17977525981E+04  0.10100000352E+00 0. -1.
       -3    1    3    3    0  502 -0.12617864220E+04  0.11502114408E+04  0.54589293895E+03  0.17925095382E+04  0.10100000352E+00 0.  1.
</event>
<event>
 5   0  0.2342606E-07  0.3593748E+04  0.7818609E-02  0.8091925E-01
       -2   -1    0    0    0  501  0.00000000000E+00  0.00000000000E+00  0.26249060970E+04  0.26249060970E+04  0.25500000920E-02 0. -1.
        2   -1    0    0  501    0  0.00000000000E+00  0.00000000000E+00 -0.12300464723E+04  0.12300464723E+04  0.25500000920E-02 0.  1.
    10030    2    1    2    0    0  0.00000000000E+00  0.00000000000E+00  0.13948596247E+04  0.38549525692E+04  0.35937481740E+04 0.  0.
        5    1    3    3  502    0 -0.64090369372E+03  0.15695831616E+04  0.58858506783E+02  0.16964183622E+04  0.46999998093E+01 0.  1.
       -5    1    3    3    0  502  0.64090369372E+03 -0.15695831616E+04  0.13360011179E+04  0.21585342070E+04  0.46999998093E+01 0. -1.
</event>
<event>
 5   0  0.2342606E-07  0.3598945E+04  0.7818609E-02  0.8090733E-01
       -2   -1    0    0    0  501  0.00000000000E+00  0.00000000000E+00  0.11682285570E+04  0.11682285570E+04  0.25500000920E-02 0.  1.
        2   -1    0    0  501    0  0.00000000000E+00  0.00000000000E+00 -0.27718048431E+04  0.27718048431E+04  0.25500000920E-02 0. -1.
    10030    2    1    2    0    0  0.00000000000E+00  0.00000000000E+00 -0.16035762861E+04  0.39400334001E+04  0.35989451634E+04 0.  0.
        5    1    3    3  502    0  0.35859562289E+03  0.12671712884E+04 -0.21442895361E+04  0.25164088697E+04  0.46999998093E+01 0. -1.
       -5    1    3    3    0  502 -0.35859562289E+03 -0.12671712884E+04  0.54071325002E+03  0.14236245304E+04  0.46999998093E+01 0.  1.
</event>
<event>
 5   0  0.7514289E-08  0.3616711E+04  0.7818609E-02  0.8086675E-01
       -1   -1    0    0    0  501  0.00000000000E+00  0.00000000000E+00  0.26369339880E+04  0.26369339880E+04  0.50400001928E-02 0.  1.
        1   -1    0    0  501    0  0.00000000000E+00  0.00000000000E+00 -0.12401330833E+04  0.12401330833E+04  0.50400001928E-02 0. -1.
    10030    2    1    2    0    0  0.00000000000E+00  0.00000000000E+00  0.13968009047E+04  0.38770670713E+04  0.36167107028E+04 0.  0.
        4    1    3    3  502    0 -0.51122824064E+03 -0.20881792900E+03  0.25443323566E+04  0.26035721606E+04  0.12699999809E+01 0.  1.
       -4    1    3    3    0  502  0.51122824064E+03  0.20881792900E+03 -0.11475314519E+04  0.12734949107E+04  0.12699999809E+01 0. -1.
</event>
<event>
 5   0  0.7236375E-08  0.3633067E+04  0.7818609E-02  0.8082959E-01
       -3   -1    0    0    0  501  0.00000000000E+00  0.00000000000E+00  0.21277978296E+04  0.21277978320E+04  0.10100000352E+00 0. -1.
        3   -1    0    0  501    0  0.00000000000E+00  0.00000000000E+00 -0.15508025694E+04  0.15508025727E+04  0.10100000352E+00 0.  1.
    10030    2    1    2    0    0  0.00000000000E+00  0.00000000000E+00  0.57699526019E+03  0.36786004047E+04  0.36330672175E+04 0.  0.
        1    1    3    3  502    0 -0.26316719278E+03  0.14076822792E+04  0.14200765114E+04  0.20167904375E+04  0.50400001928E-02 0. -1.
       -1    1    3    3    0  502  0.26316719278E+03 -0.14076822792E+04 -0.84308125125E+03  0.16618099671E+04  0.50400001928E-02 0.  1.
</event>
<event>
 5   0  0.7514289E-08  0.3447406E+04  0.7818609E-02  0.8126368E-01
       -1   -1    0    0    0  501  0.00000000000E+00  0.00000000000E+00  0.14423227483E+04  0.14423227483E+04  0.50400001928E-02 0.  1.
        1   -1    0    0  501    0  0.00000000000E+00  0.00000000000E+00 -0.20599775403E+04  0.20599775403E+04  0.50400001928E-02 0. -1.
    10030    2    1    2    0    0  0.00000000000E+00  0.00000000000E+00 -0.61765479194E+03  0.35023002886E+04  0.34474062525E+04 0.  0.
        4    1    3    3  502    0 -0.70438142145E+03 -0.96919841985E+03 -0.15677740636E+04  0.19731740651E+04  0.12699999809E+01 0. -1.
       -4    1    3    3    0  502  0.70438142145E+03  0.96919841985E+03  0.95011927167E+03  0.15291262234E+04  0.12699999809E+01 0.  1.
</event>
<event>
 5   0  0.7261233E-08  0.3603005E+04  0.7818609E-02  0.8089804E-01
        1   -1    0    0  501    0  0.00000000000E+00  0.00000000000E+00  0.16278208027E+04  0.16278208027E+04  0.50400001928E-02 0. -1.
       -1   -1    0    0    0  501  0.00000000000E+00  0.00000000000E+00 -0.19937153455E+04  0.19937153455E+04  0.50400001928E-02 0.  1.
    10030    2    1    2    0    0  0.00000000000E+00  0.00000000000E+00 -0.36589454280E+03  0.36215361482E+04  0.36030050314E+04 0.  0.
        3    1    3    3  502    0 -0.72120455697E+03  0.14564544229E+04  0.59823451188E+03  0.17318429607E+04  0.10100000352E+00 0.  1.
       -3    1    3    3    0  502  0.72120455697E+03 -0.14564544229E+04 -0.96412905467E+03  0.18896931876E+04  0.10100000352E+00 0. -1.
</event>
<event>
 5   0  0.7236375E-08  0.3606447E+04  0.7818609E-02  0.8089017E-01
       -1   -1    0    0    0  501  0.00000000000E+00  0.00000000000E+00  0.36291173242E+04  0.36291173242E+04  0.50400001928E-02 0.  1.
        1   -1    0    0  501    0  0.00000000000E+00  0.00000000000E+00 -0.89597936112E+03  0.89597936113E+03  0.50400001928E-02 0. -1.
    10030    2    1    2    0    0  0.00000000000E+00  0.00000000000E+00  0.27331379630E+04  0.45250966853E+04  0.36064465733E+04 0.  0.
        1    1    3    3  502    0 -0.25054754575E+03 -0.13001826741E+04  0.29024486581E+04  0.31902127314E+04  0.50400001928E-02 0.  1.
       -1    1    3    3    0  502  0.25054754575E+03  0.13001826741E+04 -0.16931069505E+03  0.13348839539E+04  0.50400001928E-02 0. -1.
</event>
<event>
 5   0  0.2238968E-07  0.3591156E+04  0.7818609E-02  0.8092520E-01
        2   -1    0    0  501    0  0.00000000000E+00  0.00000000000E+00  0.11919753399E+04  0.11919753399E+04  0.25500000920E-02 0.  1.
       -2   -1    0    0    0  501  0.00000000000E+00  0.00000000000E+00 -0.27048386766E+04  0.27048386766E+04  0.25500000920E-02 0. -1.
    10030    2    1    2    0    0  0.00000000000E+00  0.00000000000E+00 -0.15128633367E+04  0.38968140165E+04  0.35911563602E+04 0.  0.
        3    1    3    3  502    0  0.25353043836E+03 -0.10390621407E+04  0.80860713427E+03  0.13408106962E+04  0.10100000352E+00 0.  1.
       -3    1    3    3    0  502 -0.25353043836E+03  0.10390621407E+04 -0.23214704709E+04  0.25560033202E+04  0.10100000352E+00 0. -1.
</event>
<event>
 5   0  0.2342606E-07  0.3580578E+04  0.7818609E-02  0.8094955E-01
       -2   -1    0    0    0  501  0.00000000000E+00  0.00000000000E+00  0.10892494574E+04  0.10892494574E+04  0.25500000920E-02 0.  1.
        2   -1    0    0  501    0  0.00000000000E+00  0.00000000000E+00 -0.29425170331E+04  0.29425170331E+04  0.25500000920E-02 0. -1.
    10030    2    1    2    0    0  0.00000000000E+00  0.00000000000E+00 -0.18532675757E+04  0.40317664905E+04  0.35805782112E+04 0.  0.
        5    1    3    3  502    0 -0.64980232520E+03 -0.72928162278E+03  0.76276319367E+03  0.12393242218E+04  0.46999998093E+01 0.  1.
       -5    1    3    3    0  502  0.64980232520E+03  0.72928162278E+03 -0.26160307694E+04  0.27924422686E+04  0.46999998093E+01 0. -1.
</event>
<event>
 5   0  0.2342606E-07  0.3604664E+04  0.7818609E-02  0.8089424E-01
       -2   -1    0    0    0  501  0.00000000000E+00  0.00000000000E+00  0.16519380865E+04  0.16519380865E+04  0.25500000920E-02 0.  1.
        2   -1    0    0  501    0  0.00000000000E+00  0.00000000000E+00 -0.19664183332E+04  0.19664183332E+04  0.25500000920E-02 0. -1.
    10030    2    1    2    0    0  0.00000000000E+00  0.00000000000E+00 -0.31448024669E+03  0.36183564196E+04  0.36046643885E+04 0.  0.
        5    1    3    3  502    0  0.11814327257E+03  0.11417602718E+04  0.12375719690E+04  0.16879516638E+04  0.46999998093E+01 0.  1.
       -5    1    3    3    0  502 -0.11814327257E+03 -0.11417602718E+04 -0.15520522156E+04  0.19304047558E+04  0.46999998093E+01 0. -1.
</event>
<event>
 5   0  0.7236375E-08  0.3608698E+04  0.7818609E-02  0.8088502E-01
       -1   -1    0    0    0  501  0.00000000000E+00  0.00000000000E+00  0.22699819529E+04  0.22699819529E+04  0.50400001928E-02 0.  1.
        1   -1    0    0  501    0  0.00000000000E+00  0.00000000000E+00 -0.14342294361E+04  0.14342294361E+04  0.50400001928E-02 0. -1.
    10030    2    1    2    0    0  0.00000000000E+00  0.00000000000E+00  0.83575251684E+03  0.37042113891E+04  0.36086977908E+04 0.  0.
        1    1    3    3  502    0  0.11976653034E+04  0.65339524922E+03 -0.79420223520E+03  0.15786338148E+04  0.50400001928E-02 0. -1.
       -1    1    3    3    0  502 -0.11976653034E+04 -0.65339524922E+03  0.16299547520E+04  0.21255775743E+04  0.50400001928E-02 0.  1.
</event>
<event>
 5   0  0.2199902E-07  0.3596674E+04  0.7818609E-02  0.8091254E-01
        2   -1    0    0  501    0  0.00000000000E+00  0.00000000000E+00  0.14713452995E+04  0.14713452995E+04  0.25500000920E-02 0. -1.
       -2   -1    0    0    0  501  0.00000000000E+00  0.00000000000E+00 -0.21979995052E+04  0.21979995052E+04  0.25500000920E-02 0.  1.
    10030    2    1    2    0    0  0.00000000000E+00  0.00000000000E+00 -0.72665420575E+03  0.36693448047E+04  0.35966741527E+04 0.  0.
        1    1    3    3  502    0 -0.60349941109E+03  0.21117251098E+02 -0.20914708180E+04  0.21769032271E+04  0.50400001928E-02 0.  1.
       -1    1    3    3    0  502  0.60349941109E+03 -0.21117251098E+02  0.13648166122E+04  0.14924415776E+04  0.50400001928E-02 0. -1.
</event>
<event>
 5   0  0.2199902E-07  0.3616814E+04  0.7818609E-02  0.8086651E-01
       -2   -1    0    0    0  501  0.00000000000E+00  0.00000000000E+00  0.16503215650E+04  0.16503215650E+04  0.25500000920E-02 0. -1.
        2   -1    0    0  501    0  0.00000000000E+00  0.00000000000E+00 -0.19816360946E+04  0.19816360946E+04  0.25500000920E-02 0.  1.
    10030    2    1    2    0    0  0.00000000000E+00  0.00000000000E+00 -0.33131452962E+03  0.36319576596E+04  0.36168144995E+04 0.  0.
        1    1    3    3  502    0 -0.30597227894E+03  0.17819325490E+04 -0.20368581343E+03  0.18194478710E+04  0.50400001928E-02 0. -1.
       -1    1    3    3    0  502  0.30597227894E+03 -0.17819325490E+04 -0.12762871620E+03  0.18125097886E+04  0.50400001928E-02 0.  1.
</event>
<event>
 5   0  0.7261233E-08  0.3602834E+04  0.7818609E-02  0.8089843E-01
       -1   -1    0    0    0  501  0.00000000000E+00  0.00000000000E+00  0.25066264395E+04  0.25066264395E+04  0.50400001928E-02 0. -1.
        1   -1    0    0  501    0  0.00000000000E+00  0.00000000000E+00 -0.12946096065E+04  0.12946096065E+04  0.50400001928E-02 0.  1.
    10030    2    1    2    0    0  0.00000000000E+00  0.00000000000E+00  0.12120168330E+04  0.38012360460E+04  0.36028337006E+04 0.  0.
        3    1    3    3  502    0  0.89025067073E+03 -0.91884051895E+03 -0.73201157105E+03  0.14739929126E+04  0.10100000352E+00 0.  1.
       -3    1    3    3    0  502 -0.89025067073E+03  0.91884051895E+03  0.19440284041E+04  0.23272431334E+04  0.10100000352E+00 0. -1.
</event>
<event>
 5   0  0.2309391E-07  0.3550472E+04  0.7818609E-02  0.8101932E-01
       -2   -1    0    0    0  501  0.00000000000E+00  0.00000000000E+00  0.14921015870E+04  0.14921015870E+04  0.25500000920E-02 0.  1.
        2   -1    0    0  501    0  0.00000000000E+00  0.00000000000E+00 -0.21120967218E+04  0.21120967218E+04  0.25500000920E-02 0. -1.
    10030    2    1    2    0    0  0.00000000000E+00  0.00000000000E+00 -0.61999513485E+03  0.36041983088E+04  0.35504720083E+04 0.  0.
        4    1    3    3  502    0  0.10652949766E+03  0.15093478611E+04  0.63248130413E+03  0.16399736926E+04  0.12699999809E+01 0.  1.
       -4    1    3    3    0  502 -0.10652949766E+03 -0.15093478611E+04 -0.12524764390E+04  0.19642246161E+04  0.12699999809E+01 0. -1.
</event>
<event>
 5   0  0.7347303E-08  0.3601094E+04  0.7818609E-02  0.8090241E-01
        1   -1    0    0  501    0  0.00000000000E+00  0.00000000000E+00  0.11225587256E+04  0.11225587256E+04  0.50400001928E-02 0. -1.
       -1   -1    0    0    0  501  0.00000000000E+00  0.00000000000E+00 -0.28880174575E+04  0.28880174575E+04  0.50400001928E-02 0.  1.
    10030    2    1    2    0    0  0.00000000000E+00  0.00000000000E+00 -0.17654587319E+04  0.40105761832E+04  0.36010938320E+04 0.  0.
        2    1    3    3  502    0  0.91869548561E+03 -0.39376410116E+03 -0.25506638797E+04  0.27395141521E+04  0.25500000920E-02 0.  1.
       -2    1    3    3    0  502 -0.91869548561E+03  0.39376410116E+03  0.78520514776E+03  0.12710620310E+04  0.25500000920E-02 0. -1.
</event>
<event>
 5   0  0.2198900E-07  0.3636553E+04  0.7818609E-02  0.8082170E-01
       -2   -1    0    0    0  501  0.00000000000E+00  0.00000000000E+00  0.12921170324E+04  0.12921170324E+04  0.25500000920E-02 0.  1.
        2   -1    0    0  501    0  0.00000000000E+00  0.00000000000E+00 -0.25586921413E+04  0.25586921413E+04  0.25500000920E-02 0. -1.
    10030    2    1    2    0    0  0.00000000000E+00  0.00000000000E+00 -0.12665751089E+04  0.38508091737E+04  0.36365531463E+04 0.  0.
        2    1    3    3  502    0 -0.28429415821E+03  0.12926833194E+04  0.68687126120E+03  0.14911892777E+04  0.25500000920E-02 0.  1.
       -2    1    3    3    0  502  0.28429415821E+03 -0.12926833194E+04 -0.19534463701E+04  0.23596198960E+04  0.25500000920E-02 0. -1.
</event>
<event>
 5   0  0.7236375E-08  0.3606975E+04  0.7818609E-02  0.8088896E-01
        1   -1    0    0  501    0  0.00000000000E+00  0.00000000000E+00  0.31278267062E+04  0.31278267062E+04  0.50400001928E-02 0.  1.
       -1   -1    0    0    0  501  0.00000000000E+00  0.00000000000E+00 -0.10398809387E+04  0.10398809387E+04  0.50400001928E-02 0. -1.
    10030    2    1    2    0    0  0.00000000000E+00  0.00000000000E+00  0.20879457675E+04  0.41677076449E+04  0.36069751157E+04 0.  0.
        1    1    3    3  502    0 -0.14247669993E+04  0.10749600263E+04  0.74473984225E+03  0.19339435083E+04  0.50400001928E-02 0.  1.
       -1    1    3    3    0  502  0.14247669993E+04 -0.10749600263E+04  0.13432059253E+04  0.22337641366E+04  0.50400001928E-02 0. -1.
</event>
<event>
 5   0  0.2198900E-07  0.3603084E+04  0.7818609E-02  0.8089786E-01
        2   -1    0    0  501    0  0.00000000000E+00  0.00000000000E+00  0.19103696834E+04  0.19103696834E+04  0.25500000920E-02 0.  1.
       -2   -1    0    0    0  501  0.00000000000E+00  0.00000000000E+00 -0.16989142840E+04  0.16989142840E+04  0.25500000920E-02 0. -1.
    10030    2    1    2    0    0  0.00000000000E+00  0.00000000000E+00  0.21145539936E+03  0.36092839674E+04  0.36030844247E+04 0.  0.
        2    1    3    3  502    0  0.17683560637E+04  0.24960326265E+03  0.34313630244E+03  0.18185509283E+04  0.25500000920E-02 0.  1.
       -2    1    3    3    0  502 -0.17683560637E+04 -0.24960326265E+03 -0.13168090308E+03  0.17907330390E+04  0.25500000920E-02 0. -1.
</event>
<event>
 5   0  0.2342606E-07  0.3601938E+04  0.7818609E-02  0.8090048E-01
       -2   -1    0    0    0  501  0.00000000000E+00  0.00000000000E+00  0.23177469966E+04  0.23177469966E+04  0.25500000920E-02 0.  1.
        2   -1    0    0  501    0  0.00000000000E+00  0.00000000000E+00 -0.13994150539E+04  0.13994150539E+04  0.25500000920E-02 0. -1.
    10030    2    1    2    0    0  0.00000000000E+00  0.00000000000E+00  0.91833194272E+03  0.37171620504E+04  0.36019383882E+04 0.  0.
        5    1    3    3  502    0 -0.26018003899E+03  0.10448672151E+04 -0.10306302362E+04  0.14905240433E+04  0.46999998093E+01 0. -1.
       -5    1    3    3    0  502  0.26018003899E+03 -0.10448672151E+04  0.19489621789E+04  0.22266380071E+04  0.46999998093E+01 0.  1.
</event>
<event>
 5   0  0.2342606E-07  0.3603451E+04  0.7818609E-02  0.8089702E-01
       -2   -1    0    0    0  501  0.00000000000E+00  0.00000000000E+00  0.16579110701E+04  0.16579110701E+04  0.25500000920E-02 0. -1.
        2   -1    0    0  501    0  0.00000000000E+00  0.00000000000E+00 -0.19580155495E+04  0.19580155495E+04  0.25500000920E-02 0.  1.
    10030    2    1    2    0    0  0.00000000000E+00  0.00000000000E+00 -0.30010447944E+03  0.36159266196E+04  0.36034514871E+04 0.  0.
        5    1    3    3  502    0  0.76724264647E+02 -0.75188109201E+03  0.14911471344E+04  0.16717516729E+04  0.46999998093E+01 0. -1.
       -5    1    3    3    0  502 -0.76724264647E+02  0.75188109201E+03 -0.17912516139E+04  0.19441749467E+04  0.46999998093E+01 0.  1.
</event>
<event>
 5   0  0.2342606E-07  0.3601587E+04  0.7818609E-02  0.8090128E-01
       -2   -1    0    0    0  501  0.00000000000E+00  0.00000000000E+00  0.15779310014E+04  0.15779310014E+04  0.25500000920E-02 0.  1.
        2   -1    0    0  501    0  0.00000000000E+00  0.00000000000E+00 -0.20551320502E+04  0.20551320503E+04  0.25500000920E-02 0. -1.
    10030    2    1    2    0    0  0.00000000000E+00  0.00000000000E+00 -0.47720104885E+03  0.36330630517E+04  0.36015866360E+04 0.  0.
        5    1    3    3  502    0 -0.15243962751E+04  0.13796312994E+03 -0.11955837869E+04  0.19422308077E+04  0.46999998093E+01 0. -1.
       -5    1    3    3    0  502  0.15243962751E+04 -0.13796312994E+03  0.71838273804E+03  0.16908322440E+04  0.46999998093E+01 0.  1.
</event>
<event>
 5   0  0.7261233E-08  0.3600429E+04  0.7818609E-02  0.8090393E-01
       -1   -1    0    0    0  501  0.00000000000E+00  0.00000000000E+00  0.12225691436E+04  0.12225691437E+04  0.50400001928E-02 0.  1.
        1   -1    0    0  501    0  0.00000000000E+00  0.00000000000E+00 -0.26507881242E+04  0.26507881242E+04  0.50400001928E-02 0. -1.
    10030    2    1    2    0    0  0.00000000000E+00  0.00000000000E+00 -0.14282189805E+04  0.38733572679E+04  0.36004287339E+04 0.  0.
        3    1    3    3  502    0 -0.14288344211E+04 -0.41392854202E+03  0.37658174711E+03  0.15345091929E+04  0.10100000352E+00 0.  1.
       -3    1    3    3    0  502  0.14288344211E+04  0.41392854202E+03 -0.18048007277E+04  0.23388480749E+04  0.10100000352E+00 0. -1.
</event>
<event>
 5   0  0.7261233E-08  0.3598635E+04  0.7818609E-02  0.8090804E-01
        1   -1    0    0  501    0  0.00000000000E+00  0.00000000000E+00  0.16403544009E+04  0.16403544009E+04  0.50400001928E-02 0.  1.
       -1   -1    0    0    0  501  0.00000000000E+00  0.00000000000E+00 -0.19736851780E+04  0.19736851780E+04  0.50400001928E-02 0. -1.
    10030    2    1    2    0    0  0.00000000000E+00  0.00000000000E+00 -0.33333077711E+03  0.36140395790E+04  0.35986348344E+04 0.  0.
        3    1    3    3  502    0  0.17589642469E+04 -0.17353995404E+03  0.17163238182E+03  0.17758178460E+04  0.10100000352E+00 0.  1.
       -3    1    3    3    0  502 -0.17589642469E+04  0.17353995404E+03 -0.50496315893E+03  0.18382217330E+04  0.10100000352E+00 0. -1.
</event>
<event>
 5   0  0.7261233E-08  0.3593856E+04  0.7818609E-02  0.8091900E-01
       -1   -1    0    0    0  501  0.00000000000E+00  0.00000000000E+00  0.14822658115E+04  0.14822658115E+04  0.50400001928E-02 0.  1.
        1   -1    0    0  501    0  0.00000000000E+00  0.00000000000E+00 -0.21783882658E+04  0.21783882658E+04  0.50400001928E-02 0. -1.
    10030    2    1    2    0    0  0.00000000000E+00  0.00000000000E+00 -0.69612245426E+03  0.36606540773E+04  0.35938561187E+04 0.  0.
        3    1    3    3  502    0  0.15614302182E+04 -0.16661198425E+03 -0.12378691939E+04  0.19995359539E+04  0.10100000352E+00 0. -1.
       -3    1    3    3    0  502 -0.15614302182E+04  0.16661198425E+03  0.54174673963E+03  0.16611181234E+04  0.10100000352E+00 0.  1.
</event>
<event>
 5   0  0.2199902E-07  0.3590592E+04  0.7818609E-02  0.8092650E-01
       -2   -1    0    0    0  501  0.00000000000E+00  0.00000000000E+00  0.19173888570E+04  0.19173888570E+04  0.25500000920E-02 0.  1.
        2   -1    0    0  501    0  0.00000000000E+00  0.00000000000E+00 -0.16809779384E+04  0.16809779384E+04  0.25500000920E-02 0. -1.
    10030    2    1    2    0    0  0.00000000000E+00  0.00000000000E+00  0.23641091864E+03  0.35983667954E+04  0.35905923567E+04 0.  0.
        1    1    3    3  502    0 -0.34121693964E+03 -0.15042328299E+04  0.10388582550E+04  0.18596698310E+04  0.50400001928E-02 0.  1.
       -1    1    3    3    0  502  0.34121693964E+03  0.15042328299E+04 -0.80244733632E+03  0.17386969644E+04  0.50400001928E-02 0. -1.
</event>
<event>
 5   0  0.7236375E-08  0.3590442E+04  0.7818609E-02  0.8092685E-01
        1   -1    0    0  501    0  0.00000000000E+00  0.00000000000E+00  0.19269696264E+04  0.19269696264E+04  0.50400001928E-02 0. -1.
       -1   -1    0    0    0  501  0.00000000000E+00  0.00000000000E+00 -0.16724798945E+04  0.16724798945E+04  0.50400001928E-02 0.  1.
    10030    2    1    2    0    0  0.00000000000E+00  0.00000000000E+00  0.25448973187E+03  0.35994495209E+04  0.35904417319E+04 0.  0.
        5    1    3    3  502    0  0.13492052533E+04  0.10542454621E+04  0.66804941789E+03  0.18379609420E+04  0.46999998093E+01 0.  1.
       -5    1    3    3    0  502 -0.13492052533E+04 -0.10542454621E+04 -0.41355968602E+03  0.17614885789E+04  0.46999998093E+01 0. -1.
</event>
<event>
 5   0  0.2199902E-07  0.3602985E+04  0.7818609E-02  0.8089808E-01
       -2   -1    0    0    0  501  0.00000000000E+00  0.00000000000E+00  0.31678245482E+04  0.31678245482E+04  0.25500000920E-02 0. -1.
        2   -1    0    0  501    0  0.00000000000E+00  0.00000000000E+00 -0.10244809830E+04  0.10244809830E+04  0.25500000920E-02 0.  1.
    10030    2    1    2    0    0  0.00000000000E+00  0.00000000000E+00  0.21433435652E+04  0.41923055313E+04  0.36029854328E+04 0.  0.
        1    1    3    3  502    0 -0.15698855736E+04 -0.57225682001E+03  0.28822268191E+03  0.16956092995E+04  0.50400001928E-02 0. -1.
       -1    1    3    3    0  502  0.15698855736E+04  0.57225682001E+03  0.18551208833E+04  0.24966962318E+04  0.50400001928E-02 0.  1.
</event>
<event>
 5   0  0.2238968E-07  0.3617923E+04  0.7818609E-02  0.8086398E-01
        2   -1    0    0  501    0  0.00000000000E+00  0.00000000000E+00  0.19041525826E+04  0.19041525826E+04  0.25500000920E-02 0. -1.
       -2   -1    0    0    0  501  0.00000000000E+00  0.00000000000E+00 -0.17185295611E+04  0.17185295611E+04  0.25500000920E-02 0.  1.
    10030    2    1    2    0    0  0.00000000000E+00  0.00000000000E+00  0.18562302155E+03  0.36226821437E+04  0.36179234387E+04 0.  0.
        3    1    3    3  502    0  0.12272822198E+04 -0.11209514030E+04 -0.62198231755E+03  0.17747156698E+04  0.10100000352E+00 0.  1.
       -3    1    3    3    0  502 -0.12272822198E+04  0.11209514030E+04  0.80760533910E+03  0.18479664740E+04  0.10100000352E+00 0. -1.
</event>
<event>
 5   0  0.2198900E-07  0.3615475E+04  0.7818609E-02  0.8086956E-01
       -2   -1    0    0    0  501  0.00000000000E+00  0.00000000000E+00  0.14662933437E+04  0.14662933437E+04  0.25500000920E-02 0. -1.
        2   -1    0    0  501    0  0.00000000000E+00  0.00000000000E+00 -0.22286916327E+04  0.22286916327E+04  0.25500000920E-02 0.  1.
    10030    2    1    2    0    0  0.00000000000E+00  0.00000000000E+00 -0.76239828899E+03  0.36949849765E+04  0.36154754632E+04 0.  0.
        2    1    3    3  502    0 -0.54009823783E+03  0.59710376054E+03  0.12729364497E+04  0.15061893017E+04  0.25500000920E-02 0. -1.
       -2    1    3    3    0  502  0.54009823783E+03 -0.59710376054E+03 -0.20353347387E+04  0.21887956748E+04  0.25500000920E-02 0.  1.
</event>
<event>
 5   0  0.7347303E-08  0.3602533E+04  0.7818609E-02  0.8089912E-01
       -1   -1    0    0    0  501  0.00000000000E+00  0.00000000000E+00  0.26410946704E+04  0.26410946704E+04  0.50400001928E-02 0. -1.
        1   -1    0    0  501    0  0.00000000000E+00  0.00000000000E+00 -0.12284911416E+04  0.12284911416E+04  0.50400001928E-02 0.  1.
    10030    2    1    2    0    0  0.00000000000E+00  0.00000000000E+00  0.14126035287E+04  0.38695858120E+04  0.36025332236E+04 0.  0.
        2    1    3    3  502    0 -0.11323842280E+04  0.81597279064E+03  0.19293267799E+04  0.23812617367E+04  0.25500000920E-02 0. -1.
       -2    1    3    3    0  502  0.11323842280E+04 -0.81597279064E+03 -0.51672325113E+03  0.14883240753E+04  0.25500000920E-02 0.  1.
</event>
<event>
 5   0  0.2342606E-07  0.3608234E+04  0.7818609E-02  0.8088608E-01
        2   -1    0    0  501    0  0.00000000000E+00  0.00000000000E+00  0.23632183976E+04  0.23632183976E+04  0.25500000920E-02 0.  1.
       -2   -1    0    0    0  501  0.00000000000E+00  0.00000000000E+00 -0.13772903492E+04  0.13772903492E+04  0.25500000920E-02 0. -1.
    10030    2    1    2    0    0  0.00000000000E+00  0.00000000000E+00  0.98592804842E+03  0.37405087468E+04  0.36082338572E+04 0.  0.
        5    1    3    3  502    0 -0.10067986075E+04  0.33163865256E+03 -0.10204121616E+04  0.14713567553E+04  0.46999998093E+01 0. -1.
       -5    1    3    3    0  502  0.10067986075E+04 -0.33163865256E+03  0.20063402100E+04  0.22691519915E+04  0.46999998093E+01 0.  1.
</event>
<event>
 5   0  0.2342606E-07  0.3600458E+04  0.7818609E-02  0.8090387E-01
        2   -1    0    0  501    0  0.00000000000E+00  0.00000000000E+00  0.10835717204E+04  0.10835717204E+04  0.25500000920E-02 0. -1.
       -2   -1    0    0    0  501  0.00000000000E+00  0.00000000000E+00 -0.29908719282E+04  0.29908719282E+04  0.25500000920E-02 0.  1.
    10030    2    1    2    0    0  0.00000000000E+00  0.00000000000E+00 -0.19073002078E+04  0.40744436486E+04  0.36004578825E+04 0.  0.
        5    1    3    3  502    0 -0.96081513556E+03 -0.45363400110E+03 -0.25981823138E+04  0.28070487985E+04  0.46999998093E+01 0.  1.
       -5    1    3    3    0  502  0.96081513556E+03  0.45363400110E+03  0.69088210603E+03  0.12673948501E+04  0.46999998093E+01 0. -1.
</event>
<event>
 5   0  0.2199902E-07  0.3594761E+04  0.7818609E-02  0.8091693E-01
        2   -1    0    0  501    0  0.00000000000E+00  0.00000000000E+00  0.25644056683E+04  0.25644056683E+04  0.25500000920E-02 0. -1.
       -2   -1    0    0    0  501  0.00000000000E+00  0.00000000000E+00 -0.12597758440E+04  0.12597758440E+04  0.25500000920E-02 0.  1.
    10030    2    1    2    0    0  0.00000000000E+00  0.00000000000E+00  0.13046298242E+04  0.38241815123E+04  0.35947608072E+04 0.  0.
        1    1    3    3  502    0  0.38302972386E+03 -0.12803983089E+04 -0.62623875404E+03  0.14759087289E+04  0.50400001928E-02 0.  1.
       -1    1    3    3    0  502 -0.38302972386E+03  0.12803983089E+04  0.19308685783E+04  0.23482727834E+04  0.50400001928E-02 0. -1.
</event>
<event>
 5   0  0.2309391E-07  0.3606518E+04  0.7818609E-02  0.8089000E-01
        2   -1    0    0  501    0  0.00000000000E+00  0.00000000000E+00  0.25871043616E+04  0.25871043616E+04  0.25500000920E-02 0.  1.
       -2   -1    0    0    0  501  0.00000000000E+00  0.00000000000E+00 -0.12569045653E+04  0.12569045653E+04  0.25500000920E-02 0. -1.
    10030    2    1    2    0    0  0.00000000000E+00  0.00000000000E+00  0.13301997963E+04  0.38440089269E+04  0.36065181452E+04 0.  0.
        4    1    3    3  502    0  0.72315362082E+03 -0.16151875633E+04  0.29594056391E+03  0.17942587478E+04  0.12699999809E+01 0.  1.
       -4    1    3    3    0  502 -0.72315362082E+03  0.16151875633E+04  0.10342592324E+04  0.20497501791E+04  0.12699999809E+01 0. -1.
</event>
<event>
 5   0  0.7347303E-08  0.3598502E+04  0.7818609E-02  0.8090835E-01
       -1   -1    0    0    0  501  0.00000000000E+00  0.00000000000E+00  0.14481633486E+04  0.14481633486E+04  0.50400001928E-02 0.  1.
        1   -1    0    0  501    0  0.00000000000E+00  0.00000000000E+00 -0.22354545780E+04  0.22354545780E+04  0.50400001928E-02 0. -1.
    10030    2    1    2    0    0  0.00000000000E+00  0.00000000000E+00 -0.78729122940E+03  0.36836179267E+04  0.35985015701E+04 0.  0.
        2    1    3    3  502    0  0.14483664000E+04  0.54946361814E+02  0.69764706574E+03  0.16085694762E+04  0.25500000920E-02 0.  1.
       -2    1    3    3    0  502 -0.14483664000E+04 -0.54946361814E+02 -0.14849382951E+04  0.20750484505E+04  0.25500000920E-02 0. -1.
</event>
<event>
 5   0  0.7347303E-08  0.3605573E+04  0.7818609E-02  0.8089216E-01
       -1   -1    0    0    0  501  0.00000000000E+00  0.00000000000E+00  0.13080219646E+04  0.13080219646E+04  0.50400001928E-02 0. -1.
        1   -1    0    0  501    0  0.00000000000E+00  0.00000000000E+00 -0.24846981497E+04  0.24846981497E+04  0.50400001928E-02 0.  1.
    10030    2    1    2    0    0  0.00000000000E+00  0.00000000000E+00 -0.11766761851E+04  0.37927201143E+04  0.36055733276E+04 0.  0.
        2    1    3    3  502    0  0.12321546466E+04 -0.10805182622E+04 -0.13785384959E+04  0.21415165591E+04  0.25500000920E-02 0.  1.
       -2    1    3    3    0  502 -0.12321546466E+04  0.10805182622E+04  0.20186231084E+03  0.16512035552E+04  0.25500000920E-02 0. -1.
</event>
<event>
 5   0  0.2342606E-07  0.3626231E+04  0.7818609E-02  0.8084510E-01
        2   -1    0    0  501    0  0.00000000000E+00  0.00000000000E+00  0.16162206410E+04  0.16162206410E+04  0.25500000920E-02 0.  1.
       -2   -1    0    0    0  501  0.00000000000E+00  0.00000000000E+00 -0.20339966861E+04  0.20339966861E+04  0.25500000920E-02 0. -1.
    10030    2    1    2    0    0  0.00000000000E+00  0.00000000000E+00 -0.41777604508E+03  0.36502173272E+04  0.36262307858E+04 0.  0.
        5    1    3    3  502    0 -0.11686229650E+04  0.11572978637E+04 -0.97705270600E+03  0.19130269366E+04  0.46999998093E+01 0.  1.
       -5    1    3    3    0  502  0.11686229650E+04 -0.11572978637E+04  0.55927666092E+03  0.17371903906E+04  0.46999998093E+01 0. -1.
</event>
<event>
 5   0  0.2238968E-07  0.3601485E+04  0.7818609E-02  0.8090152E-01
       -2   -1    0    0    0  501  0.00000000000E+00  0.00000000000E+00  0.25091746526E+04  0.25091746526E+04  0.25500000920E-02 0. -1.
        2   -1    0    0  501    0  0.00000000000E+00  0.00000000000E+00 -0.12923266368E+04  0.12923266368E+04  0.25500000920E-02 0.  1.
    10030    2    1    2    0    0  0.00000000000E+00  0.00000000000E+00  0.12168480158E+04  0.38015012894E+04  0.36014848271E+04 0.  0.
        3    1    3    3  502    0  0.68882331634E+03  0.51612599207E+03  0.22779788232E+04  0.24351696307E+04  0.10100000352E+00 0. -1.
       -3    1    3    3    0  502 -0.68882331634E+03 -0.51612599207E+03 -0.10611308074E+04  0.13663316587E+04  0.10100000352E+00 0.  1.
</event>
<event>
 5   0  0.7347303E-08  0.3606077E+04  0.7818609E-02  0.8089101E-01
        1   -1    0    0  501    0  0.00000000000E+00  0.00000000000E+00  0.24115211178E+04  0.24115211178E+04  0.50400001928E-02 0. -1.
       -1   -1    0    0    0  501  0.00000000000E+00  0.00000000000E+00 -0.13480903024E+04  0.13480903024E+04  0.50400001928E-02 0.  1.
    10030    2    1    2    0    0  0.00000000000E+00  0.00000000000E+00  0.10634308154E+04  0.37596114202E+04  0.36060772221E+04 0.  0.
        2    1    3    3  502    0 -0.12367493774E+04  0.98000442659E+03 -0.37777383123E+03  0.16225506976E+04  0.25500000920E-02 0.  1.
       -2    1    3    3    0  502  0.12367493774E+04 -0.98000442659E+03  0.14412046467E+04  0.21370607226E+04  0.25500000920E-02 0. -1.
</event>
<event>
 5   0  0.2198900E-07  0.3598246E+04  0.7818609E-02  0.8090894E-01
       -2   -1    0    0    0  501  0.00000000000E+00  0.00000000000E+00  0.16278299081E+04  0.16278299081E+04  0.25500000920E-02 0. -1.
        2   -1    0    0  501    0  0.00000000000E+00  0.00000000000E+00 -0.19884405860E+04  0.19884405860E+04  0.25500000920E-02 0.  1.
    10030    2    1    2    0    0  0.00000000000E+00  0.00000000000E+00 -0.36061067791E+03  0.36162704941E+04  0.35982457150E+04 0.  0.
        2    1    3    3  502    0  0.40567818142E+03  0.61095772961E+03 -0.18313979983E+04  0.19727804649E+04  0.25500000920E-02 0.  1.
       -2    1    3    3    0  502 -0.40567818142E+03 -0.61095772961E+03  0.14707873204E+04  0.16434900292E+04  0.25500000920E-02 0. -1.
</event>
<event>
 5   0  0.7514289E-08  0.3599444E+04  0.7818609E-02  0.8090619E-01
       -1   -1    0    0    0  501  0.00000000000E+00  0.00000000000E+00  0.14282345466E+04  0.14282345466E+04  0.50400001928E-02 0.  1.
        1   -1    0    0  501    0  0.00000000000E+00  0.00000000000E+00 -0.22678339757E+04  0.22678339757E+04  0.50400001928E-02 0. -1.
    10030    2    1    2    0    0  0.00000000000E+00  0.00000000000E+00 -0.83959942916E+03  0.36960685223E+04  0.35994437515E+04 0.  0.
        4    1    3    3  502    0  0.10339984975E+04 -0.13048582284E+04 -0.11216606644E+04  0.20074690901E+04  0.12699999809E+01 0. -1.
       -4    1    3    3    0  502 -0.10339984975E+04  0.13048582284E+04  0.28206123521E+03  0.16885994322E+04  0.12699999809E+01 0.  1.
</event>
<event>
 5   0  0.7261233E-08  0.3606161E+04  0.7818609E-02  0.8089082E-01
        1   -1    0    0  501    0  0.00000000000E+00  0.00000000000E+00  0.16787318839E+04  0.16787318839E+04  0.50400001928E-02 0. -1.
       -1   -1    0    0    0  501  0.00000000000E+00  0.00000000000E+00 -0.19366403088E+04  0.19366403088E+04  0.50400001928E-02 0.  1.
    10030    2    1    2    0    0  0.00000000000E+00  0.00000000000E+00 -0.25790842490E+03  0.36153721927E+04  0.36061613020E+04 0.  0.
        3    1    3    3  502    0  0.13030488265E+03 -0.25336467602E+03 -0.19139306257E+04  0.19350202768E+04  0.10100000352E+00 0.  1.
       -3    1    3    3    0  502 -0.13030488265E+03  0.25336467602E+03  0.16560222008E+04  0.16803519159E+04  0.10100000352E+00 0. -1.
</event>
<event>
 5   0  0.2199902E-07  0.3599022E+04  0.7818609E-02  0.8090716E-01
       -2   -1    0    0    0  501  0.00000000000E+00  0.00000000000E+00  0.20728502271E+04  0.20728502271E+04  0.25500000920E-02 0.  1.
        2   -1    0    0  501    0  0.00000000000E+00  0.00000000000E+00 -0.15622161016E+04  0.15622161016E+04  0.25500000920E-02 0. -1.
    10030    2    1    2    0    0  0.00000000000E+00  0.00000000000E+00  0.51063412552E+03  0.36350663287E+04  0.35990220900E+04 0.  0.
        1    1    3    3  502    0 -0.94917294493E+03  0.15251588277E+04  0.14842105198E+03  0.18025170007E+04  0.50400001928E-02 0.  1.
       -1    1    3    3    0  502  0.94917294493E+03 -0.15251588277E+04  0.36221307354E+03  0.18325493280E+04  0.50400001928E-02 0. -1.
</event>
<event>
 5   0  0.7347303E-08  0.3600766E+04  0.7818609E-02  0.8090316E-01
        1   -1    0    0  501    0  0.00000000000E+00  0.00000000000E+00  0.23723469126E+04  0.23723469126E+04  0.50400001928E-02 0.  1.
       -1   -1    0    0    0  501  0.00000000000E+00  0.00000000000E+00 -0.13663175932E+04  0.13663175932E+04  0.50400001928E-02 0. -1.
    10030    2    1    2    0    0  0.00000000000E+00  0.00000000000E+00  0.10060293194E+04  0.37386645058E+04  0.36007662095E+04 0.  0.
        2    1    3    3  502    0 -0.20173143034E+03 -0.31958203887E+03  0.23306977764E+04  0.23611396347E+04  0.25500000920E-02 0.  1.
       -2    1    3    3    0  502  0.20173143034E+03  0.31958203887E+03 -0.13246684570E+04  0.13775248711E+04  0.25500000920E-02 0. -1.
</event>
<event>
 5   0  0.2199902E-07  0.3603427E+04  0.7818609E-02  0.8089707E-01
        2   -1    0    0  501    0  0.00000000000E+00  0.00000000000E+00  0.25362394683E+04  0.25362394683E+04  0.25500000920E-02 0. -1.
       -2   -1    0    0    0  501  0.00000000000E+00  0.00000000000E+00 -0.12799153847E+04  0.12799153847E+04  0.25500000920E-02 0.  1.
    10030    2    1    2    0    0  0.00000000000E+00  0.00000000000E+00  0.12563240836E+04  0.38161548530E+04  0.36034272102E+04 0.  0.
        1    1    3    3  502    0  0.41177035610E+03 -0.98035460506E+02 -0.12265118487E+04  0.12974964712E+04  0.50400001928E-02 0.  1.
       -1    1    3    3    0  502 -0.41177035610E+03  0.98035460506E+02  0.24828359323E+04  0.25186583818E+04  0.50400001928E-02 0. -1.
</event>
<event>
 5   0  0.2238968E-07  0.3596717E+04  0.7818609E-02  0.8091244E-01
       -2   -1    0    0    0  501  0.00000000000E+00  0.00000000000E+00  0.14859913455E+04  0.14859913455E+04  0.25500000920E-02 0.  1.
        2   -1    0    0  501    0  0.00000000000E+00  0.00000000000E+00 -0.21763875186E+04  0.21763875186E+04  0.25500000920E-02 0. -1.
    10030    2    1    2    0    0  0.00000000000E+00  0.00000000000E+00 -0.69039617309E+03  0.36623788641E+04  0.35967168457E+04 0.  0.
        3    1    3    3  502    0  0.65005058283E+03 -0.13792546746E+04  0.62572060477E+03  0.16481612491E+04  0.10100000352E+00 0.  1.
       -3    1    3    3    0  502 -0.65005058283E+03  0.13792546746E+04 -0.13161167779E+04  0.20142176150E+04  0.10100000352E+00 0. -1.
</event>
<event>
 5   0  0.7236375E-08  0.3599099E+04  0.7818609E-02  0.8090698E-01
       -1   -1    0    0    0  501  0.00000000000E+00  0.00000000000E+00  0.10159938238E+04  0.10159938238E+04  0.50400001928E-02 0. -1.
        1   -1    0    0  501    0  0.00000000000E+00  0.00000000000E+00 -0.31873999556E+04  0.31873999556E+04  0.50400001928E-02 0.  1.
    10030    2    1    2    0    0  0.00000000000E+00  0.00000000000E+00 -0.21714061318E+04  0.42033937795E+04  0.35990991478E+04 0.  0.
        1    1    3    3  502    0 -0.17263633029E+04 -0.21243849060E+03 -0.54679738153E+03  0.18233068152E+04  0.50400001928E-02 0.  1.
       -1    1    3    3    0  502  0.17263633029E+04  0.21243849060E+03 -0.16246087503E+04  0.23800869642E+04  0.50400001928E-02 0. -1.
</event>
<event>
 5   0  0.7236375E-08  0.3596924E+04  0.7818609E-02  0.8091197E-01
        1   -1    0    0  501    0  0.00000000000E+00  0.00000000000E+00  0.13140400159E+04  0.13140400159E+04  0.50400001928E-02 0. -1.
       -1   -1    0    0    0  501  0.00000000000E+00  0.00000000000E+00 -0.24614664185E+04  0.24614664185E+04  0.50400001928E-02 0.  1.
    10030    2    1    2    0    0  0.00000000000E+00  0.00000000000E+00 -0.11474264025E+04  0.37755064344E+04  0.35969238923E+04 0.  0.
        1    1    3    3  502    0 -0.33428000520E+03 -0.13397845136E+03  0.12758059147E+04  0.13256598656E+04  0.50400001928E-02 0. -1.
       -1    1    3    3    0  502  0.33428000520E+03  0.13397845136E+03 -0.24232323172E+04  0.24498465688E+04  0.50400001928E-02 0.  1.
</event>
<event>
 5   0  0.2199902E-07  0.3615811E+04  0.7818609E-02  0.8086880E-01
        2   -1    0    0  501    0  0.00000000000E+00  0.00000000000E+00  0.23624243451E+04  0.23624243451E+04  0.25500000920E-02 0. -1.
       -2   -1    0    0    0  501  0.00000000000E+00  0.00000000000E+00 -0.13835455442E+04  0.13835455442E+04  0.25500000920E-02 0.  1.
    10030    2    1    2    0    0  0.00000000000E+00  0.00000000000E+00  0.97887880089E+03  0.37459698893E+04  0.36158106566E+04 0.  0.
        1    1    3    3  502    0  0.62704131620E+03  0.84253735827E+03  0.20139654667E+04  0.22713667501E+04  0.50400001928E-02 0. -1.
       -1    1    3    3    0  502 -0.62704131620E+03 -0.84253735827E+03 -0.10350866658E+04  0.14746031392E+04  0.50400001928E-02 0.  1.
</event>
<event>
 5   0  0.7347303E-08  0.3641564E+04  0.7818609E-02  0.8081037E-01
       -1   -1    0    0    0  501  0.00000000000E+00  0.00000000000E+00  0.13293013711E+04  0.13293013711E+04  0.50400001928E-02 0.  1.
        1   -1    0    0  501    0  0.00000000000E+00  0.00000000000E+00 -0.24939767920E+04  0.24939767920E+04  0.50400001928E-02 0. -1.
    10030    2    1    2    0    0  0.00000000000E+00  0.00000000000E+00 -0.11646754209E+04  0.38232781631E+04  0.36415638230E+04 0.  0.
        2    1    3    3  502    0 -0.68506729618E+03  0.12767176017E+04  0.57537494593E+03  0.15589680444E+04  0.25500000920E-02 0.  1.
       -2    1    3    3    0  502  0.68506729618E+03 -0.12767176017E+04 -0.17400503668E+04  0.22643101188E+04  0.25500000920E-02 0. -1.
</event>
<event>
 5   0  0.7236375E-08  0.3606656E+04  0.7818609E-02  0.8088969E-01
       -1   -1    0    0    0  501  0.00000000000E+00  0.00000000000E+00  0.12549594171E+04  0.12549594171E+04  0.50400001928E-02 0.  1.
        1   -1    0    0  501    0  0.00000000000E+00  0.00000000000E+00 -0.25913122049E+04  0.25913122049E+04  0.50400001928E-02 0. -1.
    10030    2    1    2    0    0  0.00000000000E+00  0.00000000000E+00 -0.13363527878E+04  0.38462716220E+04  0.36066558773E+04 0.  0.
        1    1    3    3  502    0 -0.17458415842E+03 -0.65927711534E+03  0.11121239056E+04  0.13045863423E+04  0.50400001928E-02 0.  1.
       -1    1    3    3    0  502  0.17458415842E+03  0.65927711534E+03 -0.24484766934E+04  0.25416852797E+04  0.50400001928E-02 0. -1.
</event>
<event>
 5   0  0.2238968E-07  0.3525701E+04  0.7818609E-02  0.8107726E-01
        2   -1    0    0  501    0  0.00000000000E+00  0.00000000000E+00  0.16270385586E+04  0.16270385586E+04  0.25500000920E-02 0.  1.
       -2   -1    0    0    0  501  0.00000000000E+00  0.00000000000E+00 -0.19099994332E+04  0.19099994332E+04  0.25500000920E-02 0. -1.
    10030    2    1    2    0    0  0.00000000000E+00  0.00000000000E+00 -0.28296087465E+03  0.35370379918E+04  0.35257014761E+04 0.  0.
        3    1    3    3  502    0 -0.13024804462E+04 -0.43522718810E+03 -0.12503691762E+04  0.18572294164E+04  0.10100000352E+00 0. -1.
       -3    1    3    3    0  502  0.13024804462E+04  0.43522718810E+03  0.96740830157E+03  0.16798085754E+04  0.10100000352E+00 0.  1.
</event>
<event>
 5   0  0.7514289E-08  0.3628228E+04  0.7818609E-02  0.8084056E-01
       -1   -1    0    0    0  501  0.00000000000E+00  0.00000000000E+00  0.27588576125E+04  0.27588576125E+04  0.50400001928E-02 0.  1.
        1   -1    0    0  501    0  0.00000000000E+00  0.00000000000E+00 -0.11928883353E+04  0.11928883353E+04  0.50400001928E-02 0. -1.
    10030    2    1    2    0    0  0.00000000000E+00  0.00000000000E+00  0.15659692772E+04  0.39517459479E+04  0.36282277022E+04 0.  0.
        4    1    3    3  502    0 -0.13007901503E+04 -0.12588467972E+04  0.91303491100E+03  0.20274083544E+04  0.12699999809E+01 0. -1.
       -4    1    3    3    0  502  0.13007901503E+04  0.12588467972E+04  0.65293436622E+03  0.19243375934E+04  0.12699999809E+01 0.  1.
</event>
<event>
 5   0  0.7236375E-08  0.3599466E+04  0.7818609E-02  0.8090614E-01
       -1   -1    0    0    0  501  0.00000000000E+00  0.00000000000E+00  0.13596975161E+04  0.13596975161E+04  0.50400001928E-02 0.  1.
        1   -1    0    0  501    0  0.00000000000E+00  0.00000000000E+00 -0.23821761742E+04  0.23821761742E+04  0.50400001928E-02 0. -1.
    10030    2    1    2    0    0  0.00000000000E+00  0.00000000000E+00 -0.10224786581E+04  0.37418736903E+04  0.35994660865E+04 0.  0.
        1    1    3    3  502    0 -0.99181142271E+03  0.12374817374E+04 -0.13957778377E+04  0.21126397518E+04  0.50400001928E-02 0. -1.
       -1    1    3    3    0  502  0.99181142271E+03 -0.12374817374E+04  0.37329917968E+03  0.16292339385E+04  0.50400001928E-02 0.  1.
</event>
<event>
 5   0  0.7236375E-08  0.3575580E+04  0.7818609E-02  0.8096108E-01
       -1   -1    0    0    0  501  0.00000000000E+00  0.00000000000E+00  0.17173462879E+04  0.17173462879E+04  0.50400001928E-02 0.  1.
        1   -1    0    0  501    0  0.00000000000E+00  0.00000000000E+00 -0.18611235684E+04  0.18611235684E+04  0.50400001928E-02 0. -1.
    10030    2    1    2    0    0  0.00000000000E+00  0.00000000000E+00 -0.14377728046E+03  0.35784698563E+04  0.35755803174E+04 0.  0.
        1    1    3    3  502    0  0.15350624983E+04 -0.66113274025E+02  0.84285536433E+03  0.17524819554E+04  0.50400001928E-02 0.  1.
       -1    1    3    3    0  502 -0.15350624983E+04  0.66113274025E+02 -0.98663264479E+03  0.18259879010E+04  0.50400001928E-02 0. -1.
</event>
<event>
 5   0  0.2198900E-07  0.3603984E+04  0.7818609E-02  0.8089580E-01
       -2   -1    0    0    0  501  0.00000000000E+00  0.00000000000E+00  0.16690000997E+04  0.16690000997E+04  0.25500000920E-02 0. -1.
        2   -1    0    0  501    0  0.00000000000E+00  0.00000000000E+00 -0.19455816088E+04  0.19455816088E+04  0.25500000920E-02 0.  1.
    10030    2    1    2    0    0  0.00000000000E+00  0.00000000000E+00 -0.27658150910E+03  0.36145817085E+04  0.36039844056E+04 0.  0.
        2    1    3    3  502    0  0.84970190331E+02  0.48902018760E+03 -0.18756705652E+04  0.19402321373E+04  0.25500000920E-02 0.  1.
       -2    1    3    3    0  502 -0.84970190331E+02 -0.48902018760E+03  0.15990890561E+04  0.16743495712E+04  0.25500000920E-02 0. -1.
</event>
<event>
 5   0  0.2309391E-07  0.3601983E+04  0.7818609E-02  0.8090038E-01
        2   -1    0    0  501    0  0.00000000000E+00  0.00000000000E+00  0.15892028065E+04  0.15892028065E+04  0.25500000920E-02 0. -1.
       -2   -1    0    0    0  501  0.00000000000E+00  0.00000000000E+00 -0.20410041825E+04  0.20410041825E+04  0.25500000920E-02 0.  1.
    10030    2    1    2    0    0  0.00000000000E+00  0.00000000000E+00 -0.45180137592E+03  0.36302069890E+04  0.36019825513E+04 0.  0.
        4    1    3    3  502    0  0.70417409002E+03  0.16575200508E+04 -0.20747922058E+03  0.18128108307E+04  0.12699999809E+01 0. -1.
       -4    1    3    3    0  502 -0.70417409002E+03 -0.16575200508E+04 -0.24432215535E+03  0.18173961583E+04  0.12699999809E+01 0.  1.
</event>
<event>
 5   0  0.2238968E-07  0.3613390E+04  0.7818609E-02  0.8087432E-01
        2   -1    0    0  501    0  0.00000000000E+00  0.00000000000E+00  0.23357953583E+04  0.23357953583E+04  0.25500000920E-02 0.  1.
       -2   -1    0    0    0  501  0.00000000000E+00  0.00000000000E+00 -0.13974452404E+04  0.13974452404E+04  0.25500000920E-02 0. -1.
    10030    2    1    2    0    0  0.00000000000E+00  0.00000000000E+00  0.93835011785E+03  0.37332405987E+04  0.36133896032E+04 0.  0.
        3    1    3    3  502    0  0.16591340481E+04  0.16284926754E+03  0.11886198470E+04  0.20474527648E+04  0.10100000352E+00 0.  1.
       -3    1    3    3    0  502 -0.16591340481E+04 -0.16284926754E+03 -0.25026972912E+03  0.16857878339E+04  0.10100000352E+00 0. -1.
</event>
<event>
 5   0  0.7261233E-08  0.3588104E+04  0.7818609E-02  0.8093222E-01
        1   -1    0    0  501    0  0.00000000000E+00  0.00000000000E+00  0.20497456217E+04  0.20497456217E+04  0.50400001928E-02 0.  1.
       -1   -1    0    0    0  501  0.00000000000E+00  0.00000000000E+00 -0.15702547526E+04  0.15702547526E+04  0.50400001928E-02 0. -1.
    10030    2    1    2    0    0  0.00000000000E+00  0.00000000000E+00  0.47949086912E+03  0.36200003743E+04  0.35881041256E+04 0.  0.
        3    1    3    3  502    0  0.88032506948E+03 -0.13477270280E+03  0.18109873029E+04  0.20181206433E+04  0.10100000352E+00 0.  1.
       -3    1    3    3    0  502 -0.88032506948E+03  0.13477270280E+03 -0.13314964338E+04  0.16018797310E+04  0.10100000352E+00 0. -1.
</event>
<event>
 5   0  0.2238968E-07  0.3517177E+04  0.7818609E-02  0.8109731E-01
        2   -1    0    0  501    0  0.00000000000E+00  0.00000000000E+00  0.25332958805E+04  0.25332958805E+04  0.25500000920E-02 0.  1.
       -2   -1    0    0    0  501  0.00000000000E+00  0.00000000000E+00 -0.12207944233E+04  0.12207944233E+04  0.25500000920E-02 0. -1.
    10030    2    1    2    0    0  0.00000000000E+00  0.00000000000E+00  0.13125014572E+04  0.37540903039E+04  0.35171769837E+04 0.  0.
        3    1    3    3  502    0 -0.16045496595E+04 -0.56890408063E+03  0.18564103463E+03  0.17125110414E+04  0.10100000352E+00 0.  1.
       -3    1    3    3    0  502  0.16045496595E+04  0.56890408063E+03  0.11268604226E+04  0.20415792625E+04  0.10100000352E+00 0. -1.
</event>
<event>
 5   0  0.2198900E-07  0.3606092E+04  0.7818609E-02  0.8089098E-01
        2   -1    0    0  501    0  0.00000000000E+00  0.00000000000E+00  0.16789655275E+04  0.16789655275E+04  0.25500000920E-02 0.  1.
       -2   -1    0    0    0  501  0.00000000000E+00  0.00000000000E+00 -0.19362959782E+04  0.19362959782E+04  0.25500000920E-02 0. -1.
    10030    2    1    2    0    0  0.00000000000E+00  0.00000000000E+00 -0.25733045069E+03  0.36152615057E+04  0.36060916230E+04 0.  0.
        2    1    3    3  502    0  0.59139123617E+02 -0.12328514421E+04 -0.14463720228E+04  0.19014237146E+04  0.25500000920E-02 0. -1.
       -2    1    3    3    0  502 -0.59139123617E+02  0.12328514421E+04  0.11890415721E+04  0.17138377911E+04  0.25500000920E-02 0.  1.
</event>
<event>
 5   0  0.7261233E-08  0.3602429E+04  0.7818609E-02  0.8089936E-01
       -1   -1    0    0    0  501  0.00000000000E+00  0.00000000000E+00  0.28742900561E+04  0.28742900561E+04  0.50400001928E-02 0.  1.
        1   -1    0    0  501    0  0.00000000000E+00  0.00000000000E+00 -0.11287565364E+04  0.11287565364E+04  0.50400001928E-02 0. -1.
    10030    2    1    2    0    0  0.00000000000E+00  0.00000000000E+00  0.17455335197E+04  0.40030465925E+04  0.36024290074E+04 0.  0.
        3    1    3    3  502    0  0.44985483545E+03  0.15708101548E+04  0.17150590362E+04  0.23688059066E+04  0.10100000352E+00 0.  1.
       -3    1    3    3    0  502 -0.44985483545E+03 -0.15708101548E+04  0.30474483500E+02  0.16342406860E+04  0.10100000352E+00 0. -1.
</event>
<event>
 5   0  0.2342606E-07  0.3568013E+04  0.7818609E-02  0.8097858E-01
        2   -1    0    0  501    0  0.00000000000E+00  0.00000000000E+00  0.17004426357E+04  0.17004426357E+04  0.25500000920E-02 0.  1.
       -2   -1    0    0    0  501  0.00000000000E+00  0.00000000000E+00 -0.18716772443E+04  0.18716772443E+04  0.25500000920E-02 0. -1.
    10030    2    1    2    0    0  0.00000000000E+00  0.00000000000E+00 -0.17123460859E+03  0.35721198801E+04  0.35680133333E+04 0.  0.
        5    1    3    3  502    0  0.17188631708E+04 -0.23626857122E+03  0.33000415895E+03  0.17661365385E+04  0.46999998093E+01 0.  1.
       -5    1    3    3    0  502 -0.17188631708E+04  0.23626857122E+03 -0.50123876754E+03  0.18059833415E+04  0.46999998093E+01 0. -1.
</event>
<event>
 5   0  0.7236375E-08  0.3593216E+04  0.7818609E-02  0.8092047E-01
        3   -1    0    0  501    0  0.00000000000E+00  0.00000000000E+00  0.19200615203E+04  0.19200615229E+04  0.10100000352E+00 0.  1.
       -3   -1    0    0    0  501  0.00000000000E+00  0.00000000000E+00 -0.16810922034E+04  0.16810922065E+04  0.10100000352E+00 0. -1.
    10030    2    1    2    0    0  0.00000000000E+00  0.00000000000E+00  0.23896931682E+03  0.36011537294E+04  0.35932160871E+04 0.  0.
        1    1    3    3  502    0 -0.11380279619E+02  0.56399670823E+03 -0.15900321595E+04  0.16871348689E+04  0.50400001928E-02 0. -1.
       -1    1    3    3    0  502  0.11380279619E+02 -0.56399670823E+03  0.18290014763E+04  0.19140188604E+04  0.50400001928E-02 0.  1.
</event>
<event>
 5   0  0.2342606E-07  0.3600172E+04  0.7818609E-02  0.8090452E-01
        2   -1    0    0  501    0  0.00000000000E+00  0.00000000000E+00  0.15962074177E+04  0.15962074177E+04  0.25500000920E-02 0.  1.
       -2   -1    0    0    0  501  0.00000000000E+00  0.00000000000E+00 -0.20300053504E+04  0.20300053504E+04  0.25500000920E-02 0. -1.
    10030    2    1    2    0    0  0.00000000000E+00  0.00000000000E+00 -0.43379793266E+03  0.36262127682E+04  0.36001719950E+04 0.  0.
        5    1    3    3  502    0 -0.71186716031E+02 -0.84618204523E+03  0.13817790553E+04  0.16218591338E+04  0.46999998093E+01 0.  1.
       -5    1    3    3    0  502  0.71186716031E+02  0.84618204523E+03 -0.18155769880E+04  0.20043536343E+04  0.46999998093E+01 0. -1.
</event>
<event>
 5   0  0.2199902E-07  0.3568554E+04  0.7818609E-02  0.8097733E-01
        2   -1    0    0  501    0  0.00000000000E+00  0.00000000000E+00  0.20615200121E+04  0.20615200121E+04  0.25500000920E-02 0.  1.
       -2   -1    0    0    0  501  0.00000000000E+00  0.00000000000E+00 -0.15443190381E+04  0.15443190381E+04  0.25500000920E-02 0. -1.
    10030    2    1    2    0    0  0.00000000000E+00  0.00000000000E+00  0.51720097400E+03  0.36058390502E+04  0.35685541062E+04 0.  0.
        1    1    3    3  502    0  0.49722101012E+03 -0.17041104995E+04  0.76654496535E+02  0.17768222306E+04  0.50400001928E-02 0. -1.
       -1    1    3    3    0  502 -0.49722101012E+03  0.17041104995E+04  0.44054647746E+03  0.18290168196E+04  0.50400001928E-02 0.  1.
</event>
<event>
 5   0  0.2309391E-07  0.3601319E+04  0.7818609E-02  0.8090190E-01
       -2   -1    0    0    0  501  0.00000000000E+00  0.00000000000E+00  0.11944667308E+04  0.11944667308E+04  0.25500000920E-02 0. -1.
        2   -1    0    0  501    0  0.00000000000E+00  0.00000000000E+00 -0.27144949180E+04  0.27144949180E+04  0.25500000920E-02 0.  1.
    10030    2    1    2    0    0  0.00000000000E+00  0.00000000000E+00 -0.15200281872E+04  0.39089616488E+04  0.36013185754E+04 0.  0.
        4    1    3    3  502    0  0.19567952042E+03 -0.17792149813E+04 -0.54710515976E+03  0.18716896359E+04  0.12699999809E+01 0. -1.
       -4    1    3    3    0  502 -0.19567952042E+03  0.17792149813E+04 -0.97292302749E+03  0.20372720129E+04  0.12699999809E+01 0.  1.
</event>
<event>
 5   0  0.7261233E-08  0.3598531E+04  0.7818609E-02  0.8090828E-01
       -1   -1    0    0    0  501  0.00000000000E+00  0.00000000000E+00  0.27941176777E+04  0.27941176777E+04  0.50400001928E-02 0.  1.
        1   -1    0    0  501    0  0.00000000000E+00  0.00000000000E+00 -0.11586330700E+04  0.11586330700E+04  0.50400001928E-02 0. -1.
    10030    2    1    2    0    0  0.00000000000E+00  0.00000000000E+00  0.16354846077E+04  0.39527507478E+04  0.35985314466E+04 0.  0.
        3    1    3    3  502    0  0.16803225192E+04 -0.24359371197E+03  0.14717817944E+04  0.22469898366E+04  0.10100000352E+00 0.  1.
       -3    1    3    3    0  502 -0.16803225192E+04  0.24359371197E+03  0.16370281328E+03  0.17057609112E+04  0.10100000352E+00 0. -1.
</event>
<event>
 5   0  0.7514289E-08  0.3599244E+04  0.7818609E-02  0.8090665E-01
       -1   -1    0    0    0  501  0.00000000000E+00  0.00000000000E+00  0.13965669154E+04  0.13965669154E+04  0.50400001928E-02 0.  1.
        1   -1    0    0  501    0  0.00000000000E+00  0.00000000000E+00 -0.23189998830E+04  0.23189998830E+04  0.50400001928E-02 0. -1.
    10030    2    1    2    0    0  0.00000000000E+00  0.00000000000E+00 -0.92243296760E+03  0.37155667985E+04  0.35992435392E+04 0.  0.
        4    1    3    3  502    0  0.12278715456E+04 -0.56162021687E+02  0.89572887087E+03  0.15209058249E+04  0.12699999809E+01 0.  1.
       -4    1    3    3    0  502 -0.12278715456E+04  0.56162021687E+02 -0.18181618385E+04  0.21946609736E+04  0.12699999809E+01 0. -1.
</event>
<event>
 5   0  0.2199902E-07  0.3602924E+04  0.7818609E-02  0.8089822E-01
       -2   -1    0    0    0  501  0.00000000000E+00  0.00000000000E+00  0.18844106886E+04  0.18844106886E+04  0.25500000920E-02 0. -1.
        2   -1    0    0  501    0  0.00000000000E+00  0.00000000000E+00 -0.17221649906E+04  0.17221649906E+04  0.25500000920E-02 0.  1.
    10030    2    1    2    0    0  0.00000000000E+00  0.00000000000E+00  0.16224569792E+03  0.36065756792E+04  0.36029244321E+04 0.  0.
        1    1    3    3  502    0 -0.43766562045E+03 -0.26860422382E+03  0.18095940998E+04  0.18810449836E+04  0.50400001928E-02 0. -1.
       -1    1    3    3    0  502  0.43766562045E+03  0.26860422382E+03 -0.16473484019E+04  0.17255306956E+04  0.50400001928E-02 0.  1.
</event>
<event>
 5   0  0.7236375E-08  0.3598041E+04  0.7818609E-02  0.8090941E-01
       -1   -1    0    0    0  501  0.00000000000E+00  0.00000000000E+00  0.13229439371E+04  0.13229439372E+04  0.50400001928E-02 0. -1.
        1   -1    0    0  501    0  0.00000000000E+00  0.00000000000E+00 -0.24464184040E+04  0.24464184040E+04  0.50400001928E-02 0.  1.
    10030    2    1    2    0    0  0.00000000000E+00  0.00000000000E+00 -0.11234744668E+04  0.37693623411E+04  0.35980407976E+04 0.  0.
        1    1    3    3  502    0 -0.41286677261E+03 -0.50111594311E+02 -0.23953644541E+04  0.24312015572E+04  0.50400001928E-02 0.  1.
       -1    1    3    3    0  502  0.41286677261E+03  0.50111594311E+02  0.12718899873E+04  0.13381607839E+04  0.50400001928E-02 0. -1.
</event>
<event>
 5   0  0.2309391E-07  0.3601628E+04  0.7818609E-02  0.8090119E-01
       -2   -1    0    0    0  501  0.00000000000E+00  0.00000000000E+00  0.26772267842E+04  0.26772267842E+04  0.25500000920E-02 0.  1.
        2   -1    0    0  501    0  0.00000000000E+00  0.00000000000E+00 -0.12113026268E+04  0.12113026268E+04  0.25500000920E-02 0. -1.
    10030    2    1    2    0    0  0.00000000000E+00  0.00000000000E+00  0.14659241574E+04  0.38885294110E+04  0.36016284296E+04 0.  0.
        4    1    3    3  502    0  0.15325729024E+04  0.48278263191E+03  0.16107926143E+04  0.22751952070E+04  0.12699999809E+01 0. -1.
       -4    1    3    3    0  502 -0.15325729024E+04 -0.48278263191E+03 -0.14486845688E+03  0.16133342039E+04  0.12699999809E+01 0.  1.
</event>
<event>
 5   0  0.2238968E-07  0.3724436E+04  0.7818609E-02  0.8062568E-01
        2   -1    0    0  501    0  0.00000000000E+00  0.00000000000E+00  0.15227741111E+04  0.15227741111E+04  0.25500000920E-02 0.  1.
       -2   -1    0    0    0  501  0.00000000000E+00  0.00000000000E+00 -0.22773275072E+04  0.22773275072E+04  0.25500000920E-02 0. -1.
    10030    2    1    2    0    0  0.00000000000E+00  0.00000000000E+00 -0.75455339608E+03  0.38001016183E+04  0.37244357267E+04 0.  0.
        3    1    3    3  502    0 -0.17512675872E+04  0.11342480355E+03  0.25831716645E+03  0.17738464186E+04  0.10100000352E+00 0.  1.
       -3    1    3    3    0  502  0.17512675872E+04 -0.11342480355E+03 -0.10128705625E+04  0.20262551998E+04  0.10100000352E+00 0. -1.
</event>
<event>
 5   0  0.2342606E-07  0.3605985E+04  0.7818609E-02  0.8089122E-01
       -2   -1    0    0    0  501  0.00000000000E+00  0.00000000000E+00  0.16132609501E+04  0.16132609501E+04  0.25500000920E-02 0. -1.
        2   -1    0    0  501    0  0.00000000000E+00  0.00000000000E+00 -0.20150381539E+04  0.20150381539E+04  0.25500000920E-02 0.  1.
    10030    2    1    2    0    0  0.00000000000E+00  0.00000000000E+00 -0.40177720376E+03  0.36282991040E+04  0.36059852283E+04 0.  0.
        5    1    3    3  502    0  0.85283737829E+03 -0.10942768226E+04 -0.13595292430E+04  0.19424508259E+04  0.46999998093E+01 0.  1.
       -5    1    3    3    0  502 -0.85283737829E+03  0.10942768226E+04  0.95775203922E+03  0.16858482782E+04  0.46999998093E+01 0. -1.
</event>
<event>
 5   0  0.7514289E-08  0.3612647E+04  0.7818609E-02  0.8087601E-01
        1   -1    0    0  501    0  0.00000000000E+00  0.00000000000E+00  0.28103628640E+04  0.28103628640E+04  0.50400001928E-02 0. -1.
       -1   -1    0    0    0  501  0.00000000000E+00  0.00000000000E+00 -0.11609903398E+04  0.11609903398E+04  0.50400001928E-02 0.  1.
    10030    2    1    2    0    0  0.00000000000E+00  0.00000000000E+00  0.16493725242E+04  0.39713532038E+04  0.36126467507E+04 0.  0.
        4    1    3    3  502    0  0.56711395495E+03  0.64765012814E+03  0.25703581516E+04  0.27106847045E+04  0.12699999809E+01 0. -1.
       -4    1    3    3    0  502 -0.56711395495E+03 -0.64765012814E+03 -0.92098562740E+03  0.12606684993E+04  0.12699999809E+01 0.  1.
</event>
<event>
 5   0  0.7514289E-08  0.3633023E+04  0.7818609E-02  0.8082969E-01
       -1   -1    0    0    0  501  0.00000000000E+00  0.00000000000E+00  0.18429441742E+04  0.18429441742E+04  0.50400001928E-02 0. -1.
        1   -1    0    0  501    0  0.00000000000E+00  0.00000000000E+00 -0.17904578537E+04  0.17904578537E+04  0.50400001928E-02 0.  1.
    10030    2    1    2    0    0  0.00000000000E+00  0.00000000000E+00  0.52486320488E+02  0.36334020280E+04  0.36330229126E+04 0.  0.
        4    1    3    3  502    0  0.41668744394E+03  0.45575001990E+03 -0.16822605311E+04  0.17920208185E+04  0.12699999809E+01 0.  1.
       -4    1    3    3    0  502 -0.41668744394E+03 -0.45575001990E+03  0.17347468516E+04  0.18413812095E+04  0.12699999809E+01 0. -1.
</event>
<event>
 5   0  0.7236375E-08  0.3604427E+04  0.7818609E-02  0.8089478E-01
       -1   -1    0    0    0  501  0.00000000000E+00  0.00000000000E+00  0.17091733902E+04  0.17091733902E+04  0.50400001928E-02 0. -1.
        1   -1    0    0  501    0  0.00000000000E+00  0.00000000000E+00 -0.19003180504E+04  0.19003180504E+04  0.50400001928E-02 0.  1.
    10030    2    1    2    0    0  0.00000000000E+00  0.00000000000E+00 -0.19114466024E+03  0.36094914406E+04  0.36044267476E+04 0.  0.
        1    1    3    3  502    0  0.54448486619E+03  0.17087337656E+04 -0.27397482147E+03  0.18141932240E+04  0.50400001928E-02 0.  1.
       -1    1    3    3    0  502 -0.54448486619E+03 -0.17087337656E+04  0.82830161232E+02  0.17952982166E+04  0.50400001928E-02 0. -1.
</event>
<event>
 5   0  0.2342606E-07  0.3602696E+04  0.7818609E-02  0.8089875E-01
       -2   -1    0    0    0  501  0.00000000000E+00  0.00000000000E+00  0.10687784852E+04  0.10687784852E+04  0.25500000920E-02 0. -1.
        2   -1    0    0  501    0  0.00000000000E+00  0.00000000000E+00 -0.30360397559E+04  0.30360397559E+04  0.25500000920E-02 0.  1.
    10030    2    1    2    0    0  0.00000000000E+00  0.00000000000E+00 -0.19672612707E+04  0.41048182411E+04  0.36026956415E+04 0.  0.
        5    1    3    3  502    0 -0.13372089252E+04  0.13045760974E+03  0.38346877155E+03  0.13972176946E+04  0.46999998093E+01 0. -1.
       -5    1    3    3    0  502  0.13372089252E+04 -0.13045760974E+03 -0.23507300423E+04  0.27076005464E+04  0.46999998093E+01 0.  1.
</event>
<event>
 5   0  0.2309391E-07  0.3604152E+04  0.7818609E-02  0.8089541E-01
        2   -1    0    0  501    0  0.00000000000E+00  0.00000000000E+00  0.17836312821E+04  0.17836312821E+04  0.25500000920E-02 0.  1.
       -2   -1    0    0    0  501  0.00000000000E+00  0.00000000000E+00 -0.18207117663E+04  0.18207117663E+04  0.25500000920E-02 0. -1.
    10030    2    1    2    0    0  0.00000000000E+00  0.00000000000E+00 -0.37080484241E+02  0.36043430484E+04  0.36041523065E+04 0.  0.
        4    1    3    3  502    0  0.52473106565E+03 -0.29243337616E+03 -0.17176348311E+04  0.18196513393E+04  0.12699999809E+01 0. -1.
       -4    1    3    3    0  502 -0.52473106565E+03  0.29243337616E+03  0.16805543469E+04  0.17846917091E+04  0.12699999809E+01 0.  1.
</event>
<event>
 5   0  0.2199902E-07  0.3644165E+04  0.7818609E-02  0.8080449E-01
       -2   -1    0    0    0  501  0.00000000000E+00  0.00000000000E+00  0.14670983179E+04  0.14670983179E+04  0.25500000920E-02 0.  1.
        2   -1    0    0  501    0  0.00000000000E+00  0.00000000000E+00 -0.22629600314E+04  0.22629600314E+04  0.25500000920E-02 0. -1.
    10030    2    1    2    0    0  0.00000000000E+00  0.00000000000E+00 -0.79586171353E+03  0.37300583493E+04  0.36441651201E+04 0.  0.
        1    1    3    3  502    0  0.22727952364E+03  0.59538210400E+03  0.13493032610E+04  0.14922315912E+04  0.50400001928E-02 0.  1.
       -1    1    3    3    0  502 -0.22727952364E+03 -0.59538210400E+03 -0.21451649745E+04  0.22378267581E+04  0.50400001928E-02 0. -1.
</event>
<event>
 5   0  0.2199902E-07  0.3586572E+04  0.7818609E-02  0.8093574E-01
       -2   -1    0    0    0  501  0.00000000000E+00  0.00000000000E+00  0.10290203241E+04  0.10290203241E+04  0.25500000920E-02 0.  1.
        2   -1    0    0  501    0  0.00000000000E+00  0.00000000000E+00 -0.31251809294E+04  0.31251809294E+04  0.25500000920E-02 0. -1.
    10030    2    1    2    0    0  0.00000000000E+00  0.00000000000E+00 -0.20961606052E+04  0.41542012535E+04  0.35865720084E+04 0.  0.
        1    1    3    3  502    0 -0.52099750731E+03 -0.10937408273E+04 -0.25795184926E+04  0.28498461457E+04  0.50400001928E-02 0. -1.
       -1    1    3    3    0  502  0.52099750731E+03  0.10937408273E+04  0.48335788741E+03  0.13043551078E+04  0.50400001928E-02 0.  1.
</event>
<event>
 5   0  0.7347303E-08  0.3607893E+04  0.7818609E-02  0.8088686E-01
       -1   -1    0    0    0  501  0.00000000000E+00  0.00000000000E+00  0.14607750238E+04  0.14607750238E+04  0.50400001928E-02 0.  1.
        1   -1    0    0  501    0  0.00000000000E+00  0.00000000000E+00 -0.22277371691E+04  0.22277371691E+04  0.50400001928E-02 0. -1.
    10030    2    1    2    0    0  0.00000000000E+00  0.00000000000E+00 -0.76696214530E+03  0.36885121929E+04  0.36078929121E+04 0.  0.
        2    1    3    3  502    0 -0.52856451379E+03 -0.56048958047E+03 -0.20510931579E+04  0.21910071103E+04  0.25500000920E-02 0. -1.
       -2    1    3    3    0  502  0.52856451379E+03  0.56048958047E+03  0.12841310126E+04  0.14975050826E+04  0.25500000920E-02 0.  1.
</event>
<event>
 5   0  0.7236375E-08  0.3590862E+04  0.7818609E-02  0.8092588E-01
       -1   -1    0    0    0  501  0.00000000000E+00  0.00000000000E+00  0.14860596416E+04  0.14860596416E+04  0.50400001928E-02 0.  1.
        1   -1    0    0  501    0  0.00000000000E+00  0.00000000000E+00 -0.21692082412E+04  0.21692082412E+04  0.50400001928E-02 0. -1.
    10030    2    1    2    0    0  0.00000000000E+00  0.00000000000E+00 -0.68314859959E+03  0.36552678829E+04  0.35908621926E+04 0.  0.
        5    1    3    3  502    0  0.34542958894E+03  0.57435517634E+03 -0.20370857449E+04  0.21445153046E+04  0.46999998093E+01 0. -1.
       -5    1    3    3    0  502 -0.34542958894E+03 -0.57435517634E+03  0.13539371453E+04  0.15107525783E+04  0.46999998093E+01 0.  1.
</event>
<event>
 5   0  0.2342606E-07  0.3566174E+04  0.7818609E-02  0.8098284E-01
        2   -1    0    0  501    0  0.00000000000E+00  0.00000000000E+00  0.19103944255E+04  0.19103944255E+04  0.25500000920E-02 0.  1.
       -2   -1    0    0    0  501  0.00000000000E+00  0.00000000000E+00 -0.16642630291E+04  0.16642630291E+04  0.25500000920E-02 0. -1.
    10030    2    1    2    0    0  0.00000000000E+00  0.00000000000E+00  0.24613139639E+03  0.35746574547E+04  0.35661737554E+04 0.  0.
        5    1    3    3  502    0 -0.15024628937E+04 -0.88845528324E+03 -0.24198357200E+03  0.17621934276E+04  0.46999998093E+01 0. -1.
       -5    1    3    3    0  502  0.15024628937E+04  0.88845528324E+03  0.48811496839E+03  0.18124640271E+04  0.46999998093E+01 0.  1.
</event>
<event>
 5   0  0.7514289E-08  0.3607489E+04  0.7818609E-02  0.8088778E-01
       -1   -1    0    0    0  501  0.00000000000E+00  0.00000000000E+00  0.19440460735E+04  0.19440460735E+04  0.50400001928E-02 0.  1.
        1   -1    0    0  501    0  0.00000000000E+00  0.00000000000E+00 -0.16735686371E+04  0.16735686371E+04  0.50400001928E-02 0. -1.
    10030    2    1    2    0    0  0.00000000000E+00  0.00000000000E+00  0.27047743635E+03  0.36176147106E+04  0.36074891754E+04 0.  0.
        4    1    3    3  502    0  0.14287299162E+04 -0.16666261220E+03  0.12266166053E+04  0.18904061757E+04  0.12699999809E+01 0.  1.
       -4    1    3    3    0  502 -0.14287299162E+04  0.16666261220E+03 -0.95613916900E+03  0.17272085349E+04  0.12699999809E+01 0. -1.
</event>
<event>
 5   0  0.2198900E-07  0.3598838E+04  0.7818609E-02  0.8090758E-01
        2   -1    0    0  501    0  0.00000000000E+00  0.00000000000E+00  0.21558151834E+04  0.21558151834E+04  0.25500000920E-02 0.  1.
       -2   -1    0    0    0  501  0.00000000000E+00  0.00000000000E+00 -0.15019420370E+04  0.15019420370E+04  0.25500000920E-02 0. -1.
    10030    2    1    2    0    0  0.00000000000E+00  0.00000000000E+00  0.65387314639E+03  0.36577572203E+04  0.35988383947E+04 0.  0.
        2    1    3    3  502    0 -0.74838392142E+02 -0.44522460357E+03 -0.14434426773E+04  0.15123995819E+04  0.25500000920E-02 0. -1.
       -2    1    3    3    0  502  0.74838392142E+02  0.44522460357E+03  0.20973158237E+04  0.21453576385E+04  0.25500000920E-02 0.  1.
</event>
<event>
 5   0  0.7236375E-08  0.3592527E+04  0.7818609E-02  0.8092206E-01
       -1   -1    0    0    0  501  0.00000000000E+00  0.00000000000E+00  0.21646007921E+04  0.21646007921E+04  0.50400001928E-02 0. -1.
        1   -1    0    0  501    0  0.00000000000E+00  0.00000000000E+00 -0.14906039526E+04  0.14906039527E+04  0.50400001928E-02 0.  1.
    10030    2    1    2    0    0  0.00000000000E+00  0.00000000000E+00  0.67399683950E+03  0.36552047448E+04  0.35925269640E+04 0.  0.
        1    1    3    3  502    0 -0.91303378018E+03  0.12377189760E+04 -0.60708223623E+03  0.16535198181E+04  0.50400001928E-02 0.  1.
       -1    1    3    3    0  502  0.91303378018E+03 -0.12377189760E+04  0.12810790757E+04  0.20016849267E+04  0.50400001928E-02 0. -1.
</event>
<event>
 5   0  0.2238968E-07  0.3609896E+04  0.7818609E-02  0.8088229E-01
       -2   -1    0    0    0  501  0.00000000000E+00  0.00000000000E+00  0.13312245517E+04  0.13312245517E+04  0.25500000920E-02 0. -1.
        2   -1    0    0  501    0  0.00000000000E+00  0.00000000000E+00 -0.24472480457E+04  0.24472480457E+04  0.25500000920E-02 0.  1.
    10030    2    1    2    0    0  0.00000000000E+00  0.00000000000E+00 -0.11160234940E+04  0.37784725974E+04  0.36098956675E+04 0.  0.
        3    1    3    3  502    0 -0.79110155656E+03  0.11836400459E+04  0.60330077300E+03  0.15462267829E+04  0.10100000352E+00 0. -1.
       -3    1    3    3    0  502  0.79110155656E+03 -0.11836400459E+04 -0.17193242670E+04  0.22322458145E+04  0.10100000352E+00 0.  1.
</event>
<event>
 5   0  0.2342606E-07  0.3563320E+04  0.7818609E-02  0.8098946E-01
       -2   -1    0    0    0  501  0.00000000000E+00  0.00000000000E+00  0.15900763669E+04  0.15900763669E+04  0.25500000920E-02 0.  1.
        2   -1    0    0  501    0  0.00000000000E+00  0.00000000000E+00 -0.19963271309E+04  0.19963271309E+04  0.25500000920E-02 0. -1.
    10030    2    1    2    0    0  0.00000000000E+00  0.00000000000E+00 -0.40625076403E+03  0.35864034978E+04  0.35633201324E+04 0.  0.
        5    1    3    3  502    0  0.57250475014E+03 -0.13622192985E+04 -0.12050071185E+04  0.19066901562E+04  0.46999998093E+01 0. -1.
       -5    1    3    3    0  502 -0.57250475014E+03  0.13622192985E+04  0.79875635450E+03  0.16797133416E+04  0.46999998093E+01 0.  1.
</event>
<event>
 5   0  0.7236375E-08  0.3583069E+04  0.7818609E-02  0.8094381E-01
        1   -1    0    0  501    0  0.00000000000E+00  0.00000000000E+00  0.18342532747E+04  0.18342532747E+04  0.50400001928E-02 0. -1.
       -1   -1    0    0    0  501  0.00000000000E+00  0.00000000000E+00 -0.17498107968E+04  0.17498107968E+04  0.50400001928E-02 0.  1.
    10030    2    1    2    0    0  0.00000000000E+00  0.00000000000E+00  0.84442477869E+02  0.35840640715E+04  0.35830691783E+04 0.  0.
        1    1    3    3  502    0  0.17527641570E+04  0.10988997496E+03  0.39635087781E+03  0.18003755206E+04  0.50400001928E-02 0. -1.
       -1    1    3    3    0  502 -0.17527641570E+04 -0.10988997496E+03 -0.31190839994E+03  0.17836885509E+04  0.50400001928E-02 0.  1.
</event>
<event>
 5   0  0.7514289E-08  0.3412793E+04  0.7818609E-02  0.8134774E-01
        1   -1    0    0  501    0  0.00000000000E+00  0.00000000000E+00  0.22402385360E+04  0.22402385360E+04  0.50400001928E-02 0. -1.
       -1   -1    0    0    0  501  0.00000000000E+00  0.00000000000E+00 -0.12997675281E+04  0.12997675281E+04  0.50400001928E-02 0.  1.
    10030    2    1    2    0    0  0.00000000000E+00  0.00000000000E+00  0.94047100797E+03  0.35400060641E+04  0.34127931694E+04 0.  0.
        4    1    3    3  502    0  0.30554816607E+03  0.12786410215E+04 -0.65820616019E+03  0.14702107011E+04  0.12699999809E+01 0.  1.
       -4    1    3    3    0  502 -0.30554816607E+03 -0.12786410215E+04  0.15986771682E+04  0.20697953629E+04  0.12699999809E+01 0. -1.
</event>
<event>
 5   0  0.7236375E-08  0.3597306E+04  0.7818609E-02  0.8091109E-01
       -3   -1    0    0    0  501  0.00000000000E+00  0.00000000000E+00  0.11007329151E+04  0.11007329197E+04  0.10100000352E+00 0.  1.
        3   -1    0    0  501    0  0.00000000000E+00  0.00000000000E+00 -0.29390890578E+04  0.29390890595E+04  0.10100000352E+00 0. -1.
    10030    2    1    2    0    0  0.00000000000E+00  0.00000000000E+00 -0.18383561427E+04  0.40398219792E+04  0.35973057023E+04 0.  0.
        1    1    3    3  502    0 -0.72810500462E+03  0.12891473640E+04  0.22778866209E+03  0.14979737976E+04  0.50400001928E-02 0.  1.
       -1    1    3    3    0  502  0.72810500462E+03 -0.12891473640E+04 -0.20661448048E+04  0.25418481816E+04  0.50400001928E-02 0. -1.
</event>
<event>
 5   0  0.7236375E-08  0.3619755E+04  0.7818609E-02  0.8085981E-01
       -1   -1    0    0    0  501  0.00000000000E+00  0.00000000000E+00  0.12734127232E+04  0.12734127232E+04  0.50400001928E-02 0. -1.
        1   -1    0    0  501    0  0.00000000000E+00  0.00000000000E+00 -0.25723454551E+04  0.25723454551E+04  0.50400001928E-02 0.  1.
    10030    2    1    2    0    0  0.00000000000E+00  0.00000000000E+00 -0.12989327320E+04  0.38457581783E+04  0.36197554784E+04 0.  0.
        5    1    3    3  502    0  0.10101008379E+04  0.13746294220E+04 -0.69555941375E+01  0.17058664135E+04  0.46999998093E+01 0. -1.
       -5    1    3    3    0  502 -0.10101008379E+04 -0.13746294220E+04 -0.12919771378E+04  0.21398917648E+04  0.46999998093E+01 0.  1.
</event>
<event>
 5   0  0.2342606E-07  0.3597556E+04  0.7818609E-02  0.8091052E-01
       -2   -1    0    0    0  501  0.00000000000E+00  0.00000000000E+00  0.26367626492E+04  0.26367626492E+04  0.25500000920E-02 0. -1.
        2   -1    0    0  501    0  0.00000000000E+00  0.00000000000E+00 -0.12271118658E+04  0.12271118658E+04  0.25500000920E-02 0.  1.
    10030    2    1    2    0    0  0.00000000000E+00  0.00000000000E+00  0.14096507834E+04  0.38638745149E+04  0.35975562450E+04 0.  0.
        5    1    3    3  502    0  0.63750275082E+02 -0.12436669461E+04 -0.68926446557E+03  0.14233338202E+04  0.46999998093E+01 0.  1.
       -5    1    3    3    0  502 -0.63750275082E+02  0.12436669461E+04  0.20989152490E+04  0.24405406947E+04  0.46999998093E+01 0. -1.
</event>
<event>
 5   0  0.2342606E-07  0.3579935E+04  0.7818609E-02  0.8095103E-01
        2   -1    0    0  501    0  0.00000000000E+00  0.00000000000E+00  0.19007275365E+04  0.19007275365E+04  0.25500000920E-02 0. -1.
       -2   -1    0    0    0  501  0.00000000000E+00  0.00000000000E+00 -0.16856620464E+04  0.16856620464E+04  0.25500000920E-02 0.  1.
    10030    2    1    2    0    0  0.00000000000E+00  0.00000000000E+00  0.21506549011E+03  0.35863895829E+04  0.35799353451E+04 0.  0.
        5    1    3    3  502    0  0.77885705702E+03  0.51470555830E+03 -0.14224475962E+04  0.17014462615E+04  0.46999998093E+01 0.  1.
       -5    1    3    3    0  502 -0.77885705702E+03 -0.51470555830E+03  0.16375130863E+04  0.18849433213E+04  0.46999998093E+01 0. -1.
</event>
<event>
 5   0  0.2238968E-07  0.3656959E+04  0.7818609E-02  0.8077568E-01
       -2   -1    0    0    0  501  0.00000000000E+00  0.00000000000E+00  0.14742319633E+04  0.14742319633E+04  0.25500000920E-02 0. -1.
        2   -1    0    0  501    0  0.00000000000E+00  0.00000000000E+00 -0.22678503807E+04  0.22678503807E+04  0.25500000920E-02 0.  1.
    10030    2    1    2    0    0  0.00000000000E+00  0.00000000000E+00 -0.79361841737E+03  0.37420823439E+04  0.36569591297E+04 0.  0.
        3    1    3    3  502    0 -0.10951646800E+04 -0.78880055405E+03 -0.16591140530E+04  0.21387499717E+04  0.10100000352E+00 0.  1.
       -3    1    3    3    0  502  0.10951646800E+04  0.78880055405E+03  0.86549563567E+03  0.16033323722E+04  0.10100000352E+00 0. -1.
</event>
<event>
 5   0  0.2342606E-07  0.3623639E+04  0.7818609E-02  0.8085098E-01
       -2   -1    0    0    0  501  0.00000000000E+00  0.00000000000E+00  0.28883105404E+04  0.28883105404E+04  0.25500000920E-02 0. -1.
        2   -1    0    0  501    0  0.00000000000E+00  0.00000000000E+00 -0.11365435386E+04  0.11365435386E+04  0.25500000920E-02 0.  1.
    10030    2    1    2    0    0  0.00000000000E+00  0.00000000000E+00  0.17517670018E+04  0.40248540789E+04  0.36236394313E+04 0.  0.
        5    1    3    3  502    0  0.16107706325E+04 -0.22409946847E+03  0.17629780000E+04  0.23985237378E+04  0.46999998093E+01 0. -1.
       -5    1    3    3    0  502 -0.16107706325E+04  0.22409946847E+03 -0.11210998138E+02  0.16263303412E+04  0.46999998093E+01 0.  1.
</event>
<event>
 5   0  0.7347303E-08  0.3611037E+04  0.7818609E-02  0.8087968E-01
       -1   -1    0    0    0  501  0.00000000000E+00  0.00000000000E+00  0.14098078286E+04  0.14098078286E+04  0.50400001928E-02 0. -1.
        1   -1    0    0  501    0  0.00000000000E+00  0.00000000000E+00 -0.23122984890E+04  0.23122984890E+04  0.50400001928E-02 0.  1.
    10030    2    1    2    0    0  0.00000000000E+00  0.00000000000E+00 -0.90249066043E+03  0.37221063176E+04  0.36110366998E+04 0.  0.
        2    1    3    3  502    0 -0.13391812460E+03  0.11901461436E+04  0.94142886194E+03  0.15233746122E+04  0.25500000920E-02 0. -1.
       -2    1    3    3    0  502  0.13391812460E+03 -0.11901461436E+04 -0.18439195224E+04  0.21987317054E+04  0.25500000920E-02 0.  1.
</event>
<event>
 5   0  0.2238968E-07  0.3636482E+04  0.7818609E-02  0.8082186E-01
       -2   -1    0    0    0  501  0.00000000000E+00  0.00000000000E+00  0.25488904002E+04  0.25488904002E+04  0.25500000920E-02 0.  1.
        2   -1    0    0  501    0  0.00000000000E+00  0.00000000000E+00 -0.12970348856E+04  0.12970348856E+04  0.25500000920E-02 0. -1.
    10030    2    1    2    0    0  0.00000000000E+00  0.00000000000E+00  0.12518555145E+04  0.38459252858E+04  0.36364816891E+04 0.  0.
        3    1    3    3  502    0  0.35758690284E+03  0.10459541807E+04  0.21527197846E+04  0.24199361608E+04  0.10100000352E+00 0.  1.
       -3    1    3    3    0  502 -0.35758690284E+03 -0.10459541807E+04 -0.90086427012E+03  0.14259891250E+04  0.10100000352E+00 0. -1.
</event>
<event>
 5   0  0.2198900E-07  0.3601439E+04  0.7818609E-02  0.8090162E-01
       -2   -1    0    0    0  501  0.00000000000E+00  0.00000000000E+00  0.14273097194E+04  0.14273097194E+04  0.25500000920E-02 0.  1.
        2   -1    0    0  501    0  0.00000000000E+00  0.00000000000E+00 -0.22718205251E+04  0.22718205251E+04  0.25500000920E-02 0. -1.
    10030    2    1    2    0    0  0.00000000000E+00  0.00000000000E+00 -0.84451080572E+03  0.36991302445E+04  0.36014394434E+04 0.  0.
        2    1    3    3  502    0  0.52553110347E+03 -0.58498527119E+03  0.12416247392E+04  0.14697015688E+04  0.25500000920E-02 0.  1.
       -2    1    3    3    0  502 -0.52553110347E+03  0.58498527119E+03 -0.20861355449E+04  0.22294286757E+04  0.25500000920E-02 0. -1.
</event>
<event>
 5   0  0.2238968E-07  0.3605673E+04  0.7818609E-02  0.8089193E-01
       -2   -1    0    0    0  501  0.00000000000E+00  0.00000000000E+00  0.14808982733E+04  0.14808982733E+04  0.25500000920E-02 0. -1.
        2   -1    0    0  501    0  0.00000000000E+00  0.00000000000E+00 -0.21947626917E+04  0.21947626917E+04  0.25500000920E-02 0.  1.
    10030    2    1    2    0    0  0.00000000000E+00  0.00000000000E+00 -0.71386441837E+03  0.36756609650E+04  0.36056734630E+04 0.  0.
        3    1    3    3  502    0 -0.14234723124E+04 -0.50133893887E+03  0.64841841138E+03  0.16425774266E+04  0.10100000352E+00 0. -1.
       -3    1    3    3    0  502  0.14234723124E+04  0.50133893887E+03 -0.13622828297E+04  0.20330835384E+04  0.10100000352E+00 0.  1.
</event>
<event>
 5   0  0.7347303E-08  0.3559127E+04  0.7818609E-02  0.8099919E-01
        1   -1    0    0  501    0  0.00000000000E+00  0.00000000000E+00  0.28624522825E+04  0.28624522825E+04  0.50400001928E-02 0.  1.
       -1   -1    0    0    0  501  0.00000000000E+00  0.00000000000E+00 -0.11063402953E+04  0.11063402953E+04  0.50400001928E-02 0. -1.
    10030    2    1    2    0    0  0.00000000000E+00  0.00000000000E+00  0.17561119872E+04  0.39687925779E+04  0.35591270298E+04 0.  0.
        2    1    3    3  502    0  0.41046501503E+03 -0.11165143483E+04  0.23539401678E+04  0.26374457590E+04  0.25500000920E-02 0.  1.
       -2    1    3    3    0  502 -0.41046501503E+03  0.11165143483E+04 -0.59782818053E+03  0.13313468188E+04  0.25500000920E-02 0. -1.
</event>
<event>
 5   0  0.2198900E-07  0.3610020E+04  0.7818609E-02  0.8088200E-01
        2   -1    0    0  501    0  0.00000000000E+00  0.00000000000E+00  0.24793983168E+04  0.24793983168E+04  0.25500000920E-02 0. -1.
       -2   -1    0    0    0  501  0.00000000000E+00  0.00000000000E+00 -0.13140528726E+04  0.13140528726E+04  0.25500000920E-02 0.  1.
    10030    2    1    2    0    0  0.00000000000E+00  0.00000000000E+00  0.11653454442E+04  0.37934511895E+04  0.36100196568E+04 0.  0.
        2    1    3    3  502    0  0.11942263911E+04  0.12600195405E+04  0.63360555874E+02  0.17371932753E+04  0.25500000920E-02 0. -1.
       -2    1    3    3    0  502 -0.11942263911E+04 -0.12600195405E+04  0.11019848884E+04  0.20562579142E+04  0.25500000920E-02 0.  1.
</event>
<event>
 5   0  0.7514289E-08  0.3584302E+04  0.7818609E-02  0.8094097E-01
        1   -1    0    0  501    0  0.00000000000E+00  0.00000000000E+00  0.16058763899E+04  0.16058763899E+04  0.50400001928E-02 0. -1.
       -1   -1    0    0    0  501  0.00000000000E+00  0.00000000000E+00 -0.20000325428E+04  0.20000325428E+04  0.50400001928E-02 0.  1.
    10030    2    1    2    0    0  0.00000000000E+00  0.00000000000E+00 -0.39415615289E+03  0.36059089327E+04  0.35843019066E+04 0.  0.
        4    1    3    3  502    0  0.26766638833E+02 -0.15972136473E+04 -0.10143765184E+04  0.18922920552E+04  0.12699999809E+01 0.  1.
       -4    1    3    3    0  502 -0.26766638833E+02  0.15972136473E+04  0.62022036553E+03  0.17136168775E+04  0.12699999809E+01 0. -1.
</event>
<event>
 5   0  0.7514289E-08  0.3589896E+04  0.7818609E-02  0.8092810E-01
       -1   -1    0    0    0  501  0.00000000000E+00  0.00000000000E+00  0.27032829726E+04  0.27032829726E+04  0.50400001928E-02 0.  1.
        1   -1    0    0  501    0  0.00000000000E+00  0.00000000000E+00 -0.11918243001E+04  0.11918243001E+04  0.50400001928E-02 0. -1.
    10030    2    1    2    0    0  0.00000000000E+00  0.00000000000E+00  0.15114586725E+04  0.38951072727E+04  0.35898960079E+04 0.  0.
        4    1    3    3  502    0 -0.11692227938E+04 -0.13571807021E+04  0.87855874292E+03  0.19952163986E+04  0.12699999809E+01 0. -1.
       -4    1    3    3    0  502  0.11692227938E+04  0.13571807021E+04  0.63289992955E+03  0.18998908741E+04  0.12699999809E+01 0.  1.
</event>
<event>
 5   0  0.2309391E-07  0.3593367E+04  0.7818609E-02  0.8092013E-01
        2   -1    0    0  501    0  0.00000000000E+00  0.00000000000E+00  0.22757068326E+04  0.22757068326E+04  0.25500000920E-02 0. -1.
       -2   -1    0    0    0  501  0.00000000000E+00  0.00000000000E+00 -0.14184921342E+04  0.14184921342E+04  0.25500000920E-02 0.  1.
    10030    2    1    2    0    0  0.00000000000E+00  0.00000000000E+00  0.85721469837E+03  0.36941989668E+04  0.35933673577E+04 0.  0.
        4    1    3    3  502    0 -0.15061198568E+04  0.56913359906E+03 -0.39111250243E+03  0.16568888554E+04  0.12699999809E+01 0.  1.
       -4    1    3    3    0  502  0.15061198568E+04 -0.56913359906E+03  0.12483272008E+04  0.20373101114E+04  0.12699999809E+01 0. -1.
</event>
<event>
 5   0  0.7261233E-08  0.3597679E+04  0.7818609E-02  0.8091024E-01
        1   -1    0    0  501    0  0.00000000000E+00  0.00000000000E+00  0.26926736131E+04  0.26926736131E+04  0.50400001928E-02 0.  1.
       -1   -1    0    0    0  501  0.00000000000E+00  0.00000000000E+00 -0.12017141256E+04  0.12017141256E+04  0.50400001928E-02 0. -1.
    10030    2    1    2    0    0  0.00000000000E+00  0.00000000000E+00  0.14909594876E+04  0.38943877387E+04  0.35976792055E+04 0.  0.
        3    1    3    3  502    0 -0.17663143911E+04  0.34034285009E+03  0.73341988563E+03  0.19425767739E+04  0.10100000352E+00 0.  1.
       -3    1    3    3    0  502  0.17663143911E+04 -0.34034285009E+03  0.75753960194E+03  0.19518109648E+04  0.10100000352E+00 0. -1.
</event>
<event>
 5   0  0.7347303E-08  0.3600883E+04  0.7818609E-02  0.8090290E-01
        1   -1    0    0  501    0  0.00000000000E+00  0.00000000000E+00  0.21159723767E+04  0.21159723767E+04  0.50400001928E-02 0. -1.
       -1   -1    0    0    0  501  0.00000000000E+00  0.00000000000E+00 -0.15319619645E+04  0.15319619645E+04  0.50400001928E-02 0.  1.
    10030    2    1    2    0    0  0.00000000000E+00  0.00000000000E+00  0.58401041215E+03  0.36479343412E+04  0.36008827801E+04 0.  0.
        2    1    3    3  502    0  0.11082764252E+04  0.10388702123E+04 -0.68709176226E+03  0.16672201542E+04  0.25500000920E-02 0.  1.
       -2    1    3    3    0  502 -0.11082764252E+04 -0.10388702123E+04  0.12711021744E+04  0.19807141870E+04  0.25500000920E-02 0. -1.
</event>
<event>
 5   0  0.2199902E-07  0.3585419E+04  0.7818609E-02  0.8093840E-01
       -2   -1    0    0    0  501  0.00000000000E+00  0.00000000000E+00  0.14828691672E+04  0.14828691672E+04  0.25500000920E-02 0. -1.
        2   -1    0    0  501    0  0.00000000000E+00  0.00000000000E+00 -0.21672896835E+04  0.21672896835E+04  0.25500000920E-02 0.  1.
    10030    2    1    2    0    0  0.00000000000E+00  0.00000000000E+00 -0.68442051631E+03  0.36501588507E+04  0.35854188308E+04 0.  0.
        1    1    3    3  502    0 -0.65393712889E+03 -0.16232410233E+04  0.53736314062E+02  0.17508377366E+04  0.50400001928E-02 0. -1.
       -1    1    3    3    0  502  0.65393712889E+03  0.16232410233E+04 -0.73815683037E+03  0.18993211141E+04  0.50400001928E-02 0.  1.
</event>
<event>
 5   0  0.2238968E-07  0.3595206E+04  0.7818609E-02  0.8091591E-01
        2   -1    0    0  501    0  0.00000000000E+00  0.00000000000E+00  0.21298236677E+04  0.21298236677E+04  0.25500000920E-02 0.  1.
       -2   -1    0    0    0  501  0.00000000000E+00  0.00000000000E+00 -0.15172041557E+04  0.15172041557E+04  0.25500000920E-02 0. -1.
    10030    2    1    2    0    0  0.00000000000E+00  0.00000000000E+00  0.61261951206E+03  0.36470278234E+04  0.35952064305E+04 0.  0.
        3    1    3    3  502    0 -0.84875257999E+03 -0.13884438725E+03 -0.12949608888E+04  0.15545360786E+04  0.10100000352E+00 0. -1.
       -3    1    3    3    0  502  0.84875257999E+03  0.13884438725E+03  0.19075804009E+04  0.20924917448E+04  0.10100000352E+00 0.  1.
</event>
<event>
 5   0  0.2198900E-07  0.3670600E+04  0.7818609E-02  0.8074509E-01
        2   -1    0    0  501    0  0.00000000000E+00  0.00000000000E+00  0.21302462224E+04  0.21302462224E+04  0.25500000920E-02 0. -1.
       -2   -1    0    0    0  501  0.00000000000E+00  0.00000000000E+00 -0.15811907637E+04  0.15811907637E+04  0.25500000920E-02 0.  1.
    10030    2    1    2    0    0  0.00000000000E+00  0.00000000000E+00  0.54905545863E+03  0.37114369861E+04  0.36705997610E+04 0.  0.
        2    1    3    3  502    0 -0.39175402967E+02 -0.16593534095E+04  0.10663992299E+04  0.19728648629E+04  0.25500000920E-02 0. -1.
       -2    1    3    3    0  502  0.39175402967E+02  0.16593534095E+04 -0.51734377129E+03  0.17385721232E+04  0.25500000920E-02 0.  1.
</event>
<event>
 5   0  0.7236375E-08  0.3597947E+04  0.7818609E-02  0.8090962E-01
       -1   -1    0    0    0  501  0.00000000000E+00  0.00000000000E+00  0.13276920687E+04  0.13276920687E+04  0.50400001928E-02 0. -1.
        1   -1    0    0  501    0  0.00000000000E+00  0.00000000000E+00 -0.24375426264E+04  0.24375426264E+04  0.50400001928E-02 0.  1.
    10030    2    1    2    0    0  0.00000000000E+00  0.00000000000E+00 -0.11098505577E+04  0.37652346951E+04  0.35979471992E+04 0.  0.
        1    1    3    3  502    0  0.84275501805E+03 -0.62561827644E+03 -0.20839088500E+04  0.23333045972E+04  0.50400001928E-02 0.  1.
       -1    1    3    3    0  502 -0.84275501805E+03  0.62561827644E+03  0.97405829228E+03  0.14319300978E+04  0.50400001928E-02 0. -1.
</event>
<event>
 5   0  0.2309391E-07  0.3610482E+04  0.7818609E-02  0.8088095E-01
       -2   -1    0    0    0  501  0.00000000000E+00  0.00000000000E+00  0.13863922150E+04  0.13863922150E+04  0.25500000920E-02 0.  1.
        2   -1    0    0  501    0  0.00000000000E+00  0.00000000000E+00 -0.23506303087E+04  0.23506303087E+04  0.25500000920E-02 0. -1.
    10030    2    1    2    0    0  0.00000000000E+00  0.00000000000E+00 -0.96423809373E+03  0.37370225236E+04  0.36104822726E+04 0.  0.
        4    1    3    3  502    0  0.15961322205E+04 -0.42519513511E+03 -0.12359758476E+04  0.20630237219E+04  0.12699999809E+01 0. -1.
       -4    1    3    3    0  502 -0.15961322205E+04  0.42519513511E+03  0.27173775391E+03  0.16739988017E+04  0.12699999809E+01 0.  1.
</event>
<event>
 5   0  0.7261233E-08  0.3609479E+04  0.7818609E-02  0.8088324E-01
       -1   -1    0    0    0  501  0.00000000000E+00  0.00000000000E+00  0.27774784448E+04  0.27774784448E+04  0.50400001928E-02 0.  1.
        1   -1    0    0  501    0  0.00000000000E+00  0.00000000000E+00 -0.11726767402E+04  0.11726767402E+04  0.50400001928E-02 0. -1.
    10030    2    1    2    0    0  0.00000000000E+00  0.00000000000E+00  0.16048017046E+04  0.39501551850E+04  0.36094788369E+04 0.  0.
        3    1    3    3  502    0 -0.66685761771E+03  0.14811897607E+04 -0.58248462426E+02  0.16254276616E+04  0.10100000352E+00 0. -1.
       -3    1    3    3    0  502  0.66685761771E+03 -0.14811897607E+04  0.16630501671E+04  0.23247275234E+04  0.10100000352E+00 0.  1.
</event>
<event>
 5   0  0.2238968E-07  0.3598491E+04  0.7818609E-02  0.8090837E-01
        2   -1    0    0  501    0  0.00000000000E+00  0.00000000000E+00  0.18359326292E+04  0.18359326292E+04  0.25500000920E-02 0.  1.
       -2   -1    0    0    0  501  0.00000000000E+00  0.00000000000E+00 -0.17632919342E+04  0.17632919342E+04  0.25500000920E-02 0. -1.
    10030    2    1    2    0    0  0.00000000000E+00  0.00000000000E+00  0.72640695049E+02  0.35992245634E+04  0.35984914599E+04 0.  0.
        3    1    3    3  502    0  0.15383100646E+04  0.16361848992E+03 -0.88262485875E+03  0.17810658372E+04  0.10100000352E+00 0. -1.
       -3    1    3    3    0  502 -0.15383100646E+04 -0.16361848992E+03  0.95526555379E+03  0.18181587261E+04  0.10100000352E+00 0.  1.
</event>
<event>
 5   0  0.2238968E-07  0.3673222E+04  0.7818609E-02  0.8073922E-01
       -2   -1    0    0    0  501  0.00000000000E+00  0.00000000000E+00  0.14868756218E+04  0.14868756218E+04  0.25500000920E-02 0.  1.
        2   -1    0    0  501    0  0.00000000000E+00  0.00000000000E+00 -0.22686098819E+04  0.22686098819E+04  0.25500000920E-02 0. -1.
    10030    2    1    2    0    0  0.00000000000E+00  0.00000000000E+00 -0.78173426008E+03  0.37554855037E+04  0.36732224157E+04 0.  0.
        3    1    3    3  502    0  0.12658547731E+04  0.96631732193E+02 -0.17477728548E+04  0.21601935007E+04  0.10100000352E+00 0. -1.
       -3    1    3    3    0  502 -0.12658547731E+04 -0.96631732193E+02  0.96603859472E+03  0.15952920030E+04  0.10100000352E+00 0.  1.
</event>
<event>
 5   0  0.7236375E-08  0.3603168E+04  0.7818609E-02  0.8089767E-01
        1   -1    0    0  501    0  0.00000000000E+00  0.00000000000E+00  0.15495647247E+04  0.15495647247E+04  0.50400001928E-02 0. -1.
       -1   -1    0    0    0  501  0.00000000000E+00  0.00000000000E+00 -0.20945909134E+04  0.20945909134E+04  0.50400001928E-02 0.  1.
    10030    2    1    2    0    0  0.00000000000E+00  0.00000000000E+00 -0.54502618868E+03  0.36441556380E+04  0.36031676020E+04 0.  0.
        1    1    3    3  502    0  0.58937634248E+03 -0.81011082320E+03 -0.17868973476E+04  0.20485717341E+04  0.50400001928E-02 0.  1.
       -1    1    3    3    0  502 -0.58937634248E+03  0.81011082320E+03  0.12418711589E+04  0.15955839039E+04  0.50400001928E-02 0. -1.
</event>
<event>
 5   0  0.7236375E-08  0.3603701E+04  0.7818609E-02  0.8089644E-01
       -1   -1    0    0    0  501  0.00000000000E+00  0.00000000000E+00  0.99862118504E+03  0.99862118505E+03  0.50400001928E-02 0.  1.
        1   -1    0    0  501    0  0.00000000000E+00  0.00000000000E+00 -0.32511488543E+04  0.32511488543E+04  0.50400001928E-02 0. -1.
    10030    2    1    2    0    0  0.00000000000E+00  0.00000000000E+00 -0.22525276692E+04  0.42497700393E+04  0.36037014980E+04 0.  0.
        1    1    3    3  502    0  0.11249506394E+04  0.13954742953E+04 -0.90944422504E+03  0.20099629968E+04  0.50400001928E-02 0.  1.
       -1    1    3    3    0  502 -0.11249506394E+04 -0.13954742953E+04 -0.13430834442E+04  0.22398070426E+04  0.50400001928E-02 0. -1.
</event>
<event>
 5   0  0.2199902E-07  0.3606652E+04  0.7818609E-02  0.8088970E-01
        2   -1    0    0  501    0  0.00000000000E+00  0.00000000000E+00  0.17996202865E+04  0.17996202865E+04  0.25500000920E-02 0. -1.
       -2   -1    0    0    0  501  0.00000000000E+00  0.00000000000E+00 -0.18070394159E+04  0.18070394159E+04  0.25500000920E-02 0.  1.
    10030    2    1    2    0    0  0.00000000000E+00  0.00000000000E+00 -0.74191293598E+01  0.36066597023E+04  0.36066520715E+04 0.  0.
        1    1    3    3  502    0 -0.88488646290E+02  0.15149477998E+04 -0.97792295536E+03  0.18053338703E+04  0.50400001928E-02 0.  1.
       -1    1    3    3    0  502  0.88488646290E+02 -0.15149477998E+04  0.97050382600E+03  0.18013258320E+04  0.50400001928E-02 0. -1.
</event>
<event>
 5   0  0.7514289E-08  0.3617735E+04  0.7818609E-02  0.8086441E-01
       -1   -1    0    0    0  501  0.00000000000E+00  0.00000000000E+00  0.21092146073E+04  0.21092146073E+04  0.50400001928E-02 0.  1.
        1   -1    0    0  501    0  0.00000000000E+00  0.00000000000E+00 -0.15512892032E+04  0.15512892032E+04  0.50400001928E-02 0. -1.
    10030    2    1    2    0    0  0.00000000000E+00  0.00000000000E+00  0.55792540416E+03  0.36605038105E+04  0.36177351188E+04 0.  0.
        4    1    3    3  502    0 -0.17739647678E+04  0.35360918430E+03  0.28212730734E+03  0.18307342470E+04  0.12699999809E+01 0.  1.
       -4    1    3    3    0  502  0.17739647678E+04 -0.35360918430E+03  0.27579809682E+03  0.18297695635E+04  0.12699999809E+01 0. -1.
</event>
<event>
 5   0  0.2342606E-07  0.3471755E+04  0.7818609E-02  0.8120516E-01
        2   -1    0    0  501    0  0.00000000000E+00  0.00000000000E+00  0.22454372180E+04  0.22454372180E+04  0.25500000920E-02 0. -1.
       -2   -1    0    0    0  501  0.00000000000E+00  0.00000000000E+00 -0.13419526199E+04  0.13419526199E+04  0.25500000920E-02 0.  1.
    10030    2    1    2    0    0  0.00000000000E+00  0.00000000000E+00  0.90348459811E+03  0.35873898379E+04  0.34717548056E+04 0.  0.
        5    1    3    3  502    0 -0.57890295886E+03 -0.65062310615E+03 -0.10998743388E+04  0.14029200665E+04  0.46999998093E+01 0.  1.
       -5    1    3    3    0  502  0.57890295886E+03  0.65062310615E+03  0.20033589369E+04  0.21844697714E+04  0.46999998093E+01 0. -1.
</event>
<event>
 5   0  0.7347303E-08  0.3578065E+04  0.7818609E-02  0.8095535E-01
        1   -1    0    0  501    0  0.00000000000E+00  0.00000000000E+00  0.26856443634E+04  0.26856443634E+04  0.50400001928E-02 0. -1.
       -1   -1    0    0    0  501  0.00000000000E+00  0.00000000000E+00 -0.11917578182E+04  0.11917578182E+04  0.50400001928E-02 0.  1.
    10030    2    1    2    0    0  0.00000000000E+00  0.00000000000E+00  0.14938865452E+04  0.38774021816E+04  0.35780652129E+04 0.  0.
        2    1    3    3  502    0 -0.16726830333E+04 -0.43137167371E+03  0.24250312432E+03  0.17443502561E+04  0.25500000920E-02 0. -1.
       -2    1    3    3    0  502  0.16726830333E+04  0.43137167371E+03  0.12513834209E+04  0.21330519255E+04  0.25500000920E-02 0.  1.
</event>
<event>
 5   0  0.7236375E-08  0.3590272E+04  0.7818609E-02  0.8092724E-01
        1   -1    0    0  501    0  0.00000000000E+00  0.00000000000E+00  0.15982746160E+04  0.15982746160E+04  0.50400001928E-02 0.  1.
       -1   -1    0    0    0  501  0.00000000000E+00  0.00000000000E+00 -0.20162447904E+04  0.20162447904E+04  0.50400001928E-02 0. -1.
    10030    2    1    2    0    0  0.00000000000E+00  0.00000000000E+00 -0.41797017439E+03  0.36145194064E+04  0.35902717825E+04 0.  0.
        5    1    3    3  502    0 -0.17789804370E+04 -0.11005957250E+03 -0.42398363549E+03  0.18321213710E+04  0.46999998093E+01 0.  1.
       -5    1    3    3    0  502  0.17789804370E+04  0.11005957250E+03  0.60134611079E+01  0.17823980354E+04  0.46999998093E+01 0. -1.
</event>
<event>
 5   0  0.7236375E-08  0.3599657E+04  0.7818609E-02  0.8090570E-01
        1   -1    0    0  501    0  0.00000000000E+00  0.00000000000E+00  0.22288263821E+04  0.22288263821E+04  0.50400001928E-02 0.  1.
       -1   -1    0    0    0  501  0.00000000000E+00  0.00000000000E+00 -0.14534024962E+04  0.14534024962E+04  0.50400001928E-02 0. -1.
    10030    2    1    2    0    0  0.00000000000E+00  0.00000000000E+00  0.77542388584E+03  0.36822288783E+04  0.35996565544E+04 0.  0.
        1    1    3    3  502    0  0.68139796924E+03  0.49310971128E+03 -0.12399897946E+04  0.14983441095E+04  0.50400001928E-02 0. -1.
       -1    1    3    3    0  502 -0.68139796924E+03 -0.49310971128E+03  0.20154136805E+04  0.21838847688E+04  0.50400001928E-02 0.  1.
</event>
<event>
 5   0  0.2342606E-07  0.3600401E+04  0.7818609E-02  0.8090400E-01
       -2   -1    0    0    0  501  0.00000000000E+00  0.00000000000E+00  0.13079194522E+04  0.13079194522E+04  0.25500000920E-02 0.  1.
        2   -1    0    0  501    0  0.00000000000E+00  0.00000000000E+00 -0.24777685994E+04  0.24777685994E+04  0.25500000920E-02 0. -1.
    10030    2    1    2    0    0  0.00000000000E+00  0.00000000000E+00 -0.11698491472E+04  0.37856880516E+04  0.36004009494E+04 0.  0.
        5    1    3    3  502    0 -0.71864302724E+03  0.14867649491E+04  0.16874907987E+03  0.16599446245E+04  0.46999998093E+01 0. -1.
       -5    1    3    3    0  502  0.71864302724E+03 -0.14867649491E+04 -0.13385982271E+04  0.21257434271E+04  0.46999998093E+01 0.  1.
</event>
<event>
 5   0  0.7347303E-08  0.3641203E+04  0.7818609E-02  0.8081118E-01
        1   -1    0    0  501    0  0.00000000000E+00  0.00000000000E+00  0.21058139424E+04  0.21058139424E+04  0.50400001928E-02 0. -1.
       -1   -1    0    0    0  501  0.00000000000E+00  0.00000000000E+00 -0.15740181031E+04  0.15740181031E+04  0.50400001928E-02 0.  1.
    10030    2    1    2    0    0  0.00000000000E+00  0.00000000000E+00  0.53179583929E+03  0.36798320456E+04  0.36412026954E+04 0.  0.
        2    1    3    3  502    0 -0.12613603650E+04  0.67618290884E+03 -0.87135644751E+03  0.16755641901E+04  0.25500000920E-02 0.  1.
       -2    1    3    3    0  502  0.12613603650E+04 -0.67618290884E+03  0.14031522868E+04  0.20042678555E+04  0.25500000920E-02 0. -1.
</event>
<event>
 5   0  0.7261233E-08  0.3585017E+04  0.7818609E-02  0.8093932E-01
       -1   -1    0    0    0  501  0.00000000000E+00  0.00000000000E+00  0.15316169172E+04  0.15316169172E+04  0.50400001928E-02 0. -1.
        1   -1    0    0  501    0  0.00000000000E+00  0.00000000000E+00 -0.20978394087E+04  0.20978394087E+04  0.50400001928E-02 0.  1.
    10030    2    1    2    0    0  0.00000000000E+00  0.00000000000E+00 -0.56622249147E+03  0.36294563260E+04  0.35850167799E+04 0.  0.
        3    1    3    3  502    0  0.47879998258E+03 -0.78944291263E+03  0.12723640831E+04  0.15720623097E+04  0.10100000352E+00 0. -1.
       -3    1    3    3    0  502 -0.47879998258E+03  0.78944291263E+03 -0.18385865745E+04  0.20573940162E+04  0.10100000352E+00 0.  1.
</event>
<event>
 5   0  0.2238968E-07  0.3596344E+04  0.7818609E-02  0.8091330E-01
       -2   -1    0    0    0  501  0.00000000000E+00  0.00000000000E+00  0.20723634837E+04  0.20723634837E+04  0.25500000920E-02 0. -1.
        2   -1    0    0  501    0  0.00000000000E+00  0.00000000000E+00 -0.15602587966E+04  0.15602587966E+04  0.25500000920E-02 0.  1.
    10030    2    1    2    0    0  0.00000000000E+00  0.00000000000E+00  0.51210468714E+03  0.36326222803E+04  0.35963444524E+04 0.  0.
        3    1    3    3  502    0 -0.64360091388E+03  0.13297335781E+03 -0.14346056808E+04  0.15779725979E+04  0.10100000352E+00 0.  1.
       -3    1    3    3    0  502  0.64360091388E+03 -0.13297335781E+03  0.19467103679E+04  0.20546496823E+04  0.10100000352E+00 0. -1.
</event>
<event>
 5   0  0.2342606E-07  0.3620049E+04  0.7818609E-02  0.8085915E-01
        2   -1    0    0  501    0  0.00000000000E+00  0.00000000000E+00  0.16792903505E+04  0.16792903505E+04  0.25500000920E-02 0. -1.
       -2   -1    0    0    0  501  0.00000000000E+00  0.00000000000E+00 -0.19509360476E+04  0.19509360476E+04  0.25500000920E-02 0.  1.
    10030    2    1    2    0    0  0.00000000000E+00  0.00000000000E+00 -0.27164569708E+03  0.36302263981E+04  0.36200486622E+04 0.  0.
        5    1    3    3  502    0 -0.81172902324E+03  0.15344549259E+04 -0.64981638249E+03  0.18535747484E+04  0.46999998093E+01 0.  1.
       -5    1    3    3    0  502  0.81172902324E+03 -0.15344549259E+04  0.37817068540E+03  0.17766516497E+04  0.46999998093E+01 0. -1.
</event>
<event>
 5   0  0.2199902E-07  0.3599455E+04  0.7818609E-02  0.8090617E-01
        2   -1    0    0  501    0  0.00000000000E+00  0.00000000000E+00  0.21934045858E+04  0.21934045858E+04  0.25500000920E-02 0. -1.
       -2   -1    0    0    0  501  0.00000000000E+00  0.00000000000E+00 -0.14767081127E+04  0.14767081127E+04  0.25500000920E-02 0.  1.
    10030    2    1    2    0    0  0.00000000000E+00  0.00000000000E+00  0.71669647313E+03  0.36701126985E+04  0.35994545955E+04 0.  0.
        1    1    3    3  502    0  0.41856688463E+03  0.17498250237E+04  0.40317134452E+03  0.18438093675E+04  0.50400001928E-02 0.  1.
       -1    1    3    3    0  502 -0.41856688463E+03 -0.17498250237E+04  0.31352512861E+03  0.18263033310E+04  0.50400001928E-02 0. -1.
</event>
<event>
 5   0  0.7514289E-08  0.3576567E+04  0.7818609E-02  0.8095880E-01
       -1   -1    0    0    0  501  0.00000000000E+00  0.00000000000E+00  0.30307423105E+04  0.30307423105E+04  0.50400001928E-02 0.  1.
        1   -1    0    0  501    0  0.00000000000E+00  0.00000000000E+00 -0.10551734181E+04  0.10551734181E+04  0.50400001928E-02 0. -1.
    10030    2    1    2    0    0  0.00000000000E+00  0.00000000000E+00  0.19755688924E+04  0.40859157286E+04  0.35765674736E+04 0.  0.
        4    1    3    3  502    0 -0.10936705877E+04  0.12070604602E+04  0.18310418934E+04  0.24506787503E+04  0.12699999809E+01 0.  1.
       -4    1    3    3    0  502  0.10936705877E+04 -0.12070604602E+04  0.14452699893E+03  0.16352369783E+04  0.12699999809E+01 0. -1.
</event>
<event>
 5   0  0.7236375E-08  0.3602261E+04  0.7818609E-02  0.8089974E-01
       -1   -1    0    0    0  501  0.00000000000E+00  0.00000000000E+00  0.16982071265E+04  0.16982071265E+04  0.50400001928E-02 0. -1.
        1   -1    0    0  501    0  0.00000000000E+00  0.00000000000E+00 -0.19102917477E+04  0.19102917477E+04  0.50400001928E-02 0.  1.
    10030    2    1    2    0    0  0.00000000000E+00  0.00000000000E+00 -0.21208462120E+03  0.36084988742E+04  0.36022609897E+04 0.  0.
        5    1    3    3  502    0  0.64225308005E+03 -0.13684465774E+04 -0.10869795222E+04  0.18619026896E+04  0.46999998093E+01 0. -1.
       -5    1    3    3    0  502 -0.64225308005E+03  0.13684465774E+04  0.87489490095E+03  0.17465961845E+04  0.46999998093E+01 0.  1.
</event>
<event>
 5   0  0.7261233E-08  0.3605648E+04  0.7818609E-02  0.8089199E-01
       -1   -1    0    0    0  501  0.00000000000E+00  0.00000000000E+00  0.17940793478E+04  0.17940793478E+04  0.50400001928E-02 0. -1.
        1   -1    0    0  501    0  0.00000000000E+00  0.00000000000E+00 -0.18116113722E+04  0.18116113722E+04  0.50400001928E-02 0.  1.
    10030    2    1    2    0    0  0.00000000000E+00  0.00000000000E+00 -0.17532024375E+02  0.36056907199E+04  0.36056480965E+04 0.  0.
        3    1    3    3  502    0  0.44240185860E+03 -0.65801888948E+03  0.16103474039E+04  0.17949727114E+04  0.10100000352E+00 0. -1.
       -3    1    3    3    0  502 -0.44240185860E+03  0.65801888948E+03 -0.16278794282E+04  0.18107180085E+04  0.10100000352E+00 0.  1.
</event>
<event>
 5   0  0.2198900E-07  0.3625923E+04  0.7818609E-02  0.8084579E-01
        2   -1    0    0  501    0  0.00000000000E+00  0.00000000000E+00  0.18552973948E+04  0.18552973948E+04  0.25500000920E-02 0. -1.
       -2   -1    0    0    0  501  0.00000000000E+00  0.00000000000E+00 -0.17715920585E+04  0.17715920585E+04  0.25500000920E-02 0.  1.
    10030    2    1    2    0    0  0.00000000000E+00  0.00000000000E+00  0.83705336268E+02  0.36268894533E+04  0.36259234028E+04 0.  0.
        2    1    3    3  502    0 -0.21199012026E+03  0.11344448498E+04  0.14404115829E+04  0.18457222046E+04  0.25500000920E-02 0. -1.
       -2    1    3    3    0  502  0.21199012026E+03 -0.11344448498E+04 -0.13567062466E+04  0.17811672487E+04  0.25500000920E-02 0.  1.
</event>
<event>
 5   0  0.7261233E-08  0.3593397E+04  0.7818609E-02  0.8092006E-01
       -1   -1    0    0    0  501  0.00000000000E+00  0.00000000000E+00  0.16420772794E+04  0.16420772794E+04  0.50400001928E-02 0.  1.
        1   -1    0    0  501    0  0.00000000000E+00  0.00000000000E+00 -0.19658788242E+04  0.19658788243E+04  0.50400001928E-02 0. -1.
    10030    2    1    2    0    0  0.00000000000E+00  0.00000000000E+00 -0.32380154485E+03  0.36079561037E+04  0.35933966947E+04 0.  0.
        3    1    3    3  502    0  0.59339279856E+03  0.16192673697E+04 -0.66791007633E+03  0.18493906316E+04  0.10100000352E+00 0. -1.
       -3    1    3    3    0  502 -0.59339279856E+03 -0.16192673697E+04  0.34410853148E+03  0.17585654721E+04  0.10100000352E+00 0.  1.
</event>
<event>
 5   0  0.7347303E-08  0.3619902E+04  0.7818609E-02  0.8085948E-01
        1   -1    0    0  501    0  0.00000000000E+00  0.00000000000E+00  0.14779769731E+04  0.14779769731E+04  0.50400001928E-02 0. -1.
       -1   -1    0    0    0  501  0.00000000000E+00  0.00000000000E+00 -0.22164913255E+04  0.22164913256E+04  0.50400001928E-02 0.  1.
    10030    2    1    2    0    0  0.00000000000E+00  0.00000000000E+00 -0.73851435246E+03  0.36944682986E+04  0.36199022861E+04 0.  0.
        2    1    3    3  502    0  0.92097543388E+02  0.67977676054E+03  0.13401605991E+04  0.15055260984E+04  0.25500000920E-02 0. -1.
       -2    1    3    3    0  502 -0.92097543388E+02 -0.67977676054E+03 -0.20786749516E+04  0.21889422002E+04  0.25500000920E-02 0.  1.
</event>
<event>
 5   0  0.7514289E-08  0.3574764E+04  0.7818609E-02  0.8096297E-01
       -1   -1    0    0    0  501  0.00000000000E+00  0.00000000000E+00  0.17721803127E+04  0.17721803127E+04  0.50400001928E-02 0. -1.
        1   -1    0    0  501    0  0.00000000000E+00  0.00000000000E+00 -0.18027139428E+04  0.18027139428E+04  0.50400001928E-02 0.  1.
    10030    2    1    2    0    0  0.00000000000E+00  0.00000000000E+00 -0.30533630078E+02  0.35748942554E+04  0.35747638572E+04 0.  0.
        4    1    3    3  502    0  0.10513925869E+04  0.79785800553E+03 -0.12206027693E+04  0.17977420566E+04  0.12699999809E+01 0.  1.
       -4    1    3    3    0  502 -0.10513925869E+04 -0.79785800553E+03  0.11900691392E+04  0.17771521988E+04  0.12699999809E+01 0. -1.
</event>
<event>
 5   0  0.2199902E-07  0.3594698E+04  0.7818609E-02  0.8091707E-01
        2   -1    0    0  501    0  0.00000000000E+00  0.00000000000E+00  0.18311593874E+04  0.18311593874E+04  0.25500000920E-02 0. -1.
       -2   -1    0    0    0  501  0.00000000000E+00  0.00000000000E+00 -0.17641629422E+04  0.17641629422E+04  0.25500000920E-02 0.  1.
    10030    2    1    2    0    0  0.00000000000E+00  0.00000000000E+00  0.66996445208E+02  0.35953223296E+04  0.35946980583E+04 0.  0.
        1    1    3    3  502    0 -0.12439448232E+04  0.24179431653E+03  0.13083176755E+04  0.18214165791E+04  0.50400001928E-02 0. -1.
       -1    1    3    3    0  502  0.12439448232E+04 -0.24179431653E+03 -0.12413212303E+04  0.17739057505E+04  0.50400001928E-02 0.  1.
</event>
<event>
 5   0  0.2238968E-07  0.3632181E+04  0.7818609E-02  0.8083160E-01
       -2   -1    0    0    0  501  0.00000000000E+00  0.00000000000E+00  0.15298665061E+04  0.15298665061E+04  0.25500000920E-02 0. -1.
        2   -1    0    0  501    0  0.00000000000E+00  0.00000000000E+00 -0.21558640725E+04  0.21558640725E+04  0.25500000920E-02 0.  1.
    10030    2    1    2    0    0  0.00000000000E+00  0.00000000000E+00 -0.62599756646E+03  0.36857305786E+04  0.36321807423E+04 0.  0.
        3    1    3    3  502    0 -0.98425458795E+03  0.12903742364E+04 -0.11400994109E+04  0.19833429962E+04  0.10100000352E+00 0.  1.
       -3    1    3    3    0  502  0.98425458795E+03 -0.12903742364E+04  0.51410184440E+03  0.17023875823E+04  0.10100000352E+00 0. -1.
</event>
<event>
 5   0  0.7347303E-08  0.3609692E+04  0.7818609E-02  0.8088275E-01
        1   -1    0    0  501    0  0.00000000000E+00  0.00000000000E+00  0.10386087110E+04  0.10386087110E+04  0.50400001928E-02 0.  1.
       -1   -1    0    0    0  501  0.00000000000E+00  0.00000000000E+00 -0.31363783953E+04  0.31363783953E+04  0.50400001928E-02 0. -1.
    10030    2    1    2    0    0  0.00000000000E+00  0.00000000000E+00 -0.20977696843E+04  0.41749871063E+04  0.36096924647E+04 0.  0.
        2    1    3    3  502    0 -0.41551040145E+03 -0.17562768155E+04 -0.10284297417E+04  0.20772156556E+04  0.25500000920E-02 0. -1.
       -2    1    3    3    0  502  0.41551040145E+03  0.17562768155E+04 -0.10693399426E+04  0.20977714507E+04  0.25500000920E-02 0.  1.
</event>
<event>
 5   0  0.7236375E-08  0.3587015E+04  0.7818609E-02  0.8093472E-01
       -1   -1    0    0    0  501  0.00000000000E+00  0.00000000000E+00  0.18668748539E+04  0.18668748539E+04  0.50400001928E-02 0.  1.
        1   -1    0    0  501    0  0.00000000000E+00  0.00000000000E+00 -0.17230236726E+04  0.17230236726E+04  0.50400001928E-02 0. -1.
    10030    2    1    2    0    0  0.00000000000E+00  0.00000000000E+00  0.14385118132E+03  0.35898985266E+04  0.35870152312E+04 0.  0.
        5    1    3    3  502    0 -0.81123707168E+02  0.73474388420E+03 -0.15634680291E+04  0.17294172427E+04  0.46999998093E+01 0. -1.
       -5    1    3    3    0  502  0.81123707168E+02 -0.73474388420E+03  0.17073192105E+04  0.18604812839E+04  0.46999998093E+01 0.  1.
</event>
<event>
 5   0  0.2342606E-07  0.3625495E+04  0.7818609E-02  0.8084677E-01
       -2   -1    0    0    0  501  0.00000000000E+00  0.00000000000E+00  0.22240266631E+04  0.22240266631E+04  0.25500000920E-02 0.  1.
        2   -1    0    0  501    0  0.00000000000E+00  0.00000000000E+00 -0.14775240706E+04  0.14775240706E+04  0.25500000920E-02 0. -1.
    10030    2    1    2    0    0  0.00000000000E+00  0.00000000000E+00  0.74650259248E+03  0.37015507337E+04  0.36254946854E+04 0.  0.
        5    1    3    3  502    0 -0.13844260631E+04  0.84542642025E+03 -0.45282630711E+03  0.16841778739E+04  0.46999998093E+01 0.  1.
       -5    1    3    3    0  502  0.13844260631E+04 -0.84542642025E+03  0.11993288996E+04  0.20173728599E+04  0.46999998093E+01 0. -1.
</event>
<event>
 5   0  0.2199902E-07  0.3599716E+04  0.7818609E-02  0.8090557E-01
       -2   -1    0    0    0  501  0.00000000000E+00  0.00000000000E+00  0.18161259345E+04  0.18161259345E+04  0.25500000920E-02 0.  1.
        2   -1    0    0  501    0  0.00000000000E+00  0.00000000000E+00 -0.17837357319E+04  0.17837357319E+04  0.25500000920E-02 0. -1.
    10030    2    1    2    0    0  0.00000000000E+00  0.00000000000E+00  0.32390202646E+02  0.35998616665E+04  0.35997159461E+04 0.  0.
        1    1    3    3  502    0  0.20237341524E+03 -0.73172765475E+03  0.16481644572E+04  0.18146146803E+04  0.50400001928E-02 0.  1.
       -1    1    3    3    0  502 -0.20237341524E+03  0.73172765475E+03 -0.16157742545E+04  0.17852469862E+04  0.50400001928E-02 0. -1.
</event>
<event>
 5   0  0.7236375E-08  0.3591179E+04  0.7818609E-02  0.8092515E-01
       -3   -1    0    0    0  501  0.00000000000E+00  0.00000000000E+00  0.15409356296E+04  0.15409356329E+04  0.10100000352E+00 0. -1.
        3   -1    0    0  501    0  0.00000000000E+00  0.00000000000E+00 -0.20923269290E+04  0.20923269315E+04  0.10100000352E+00 0.  1.
    10030    2    1    2    0    0  0.00000000000E+00  0.00000000000E+00 -0.55139129944E+03  0.36332625644E+04  0.35911787057E+04 0.  0.
        1    1    3    3  502    0 -0.82086932285E+03  0.10785546150E+04  0.91583006004E+03  0.16358029226E+04  0.50400001928E-02 0. -1.
       -1    1    3    3    0  502  0.82086932285E+03 -0.10785546150E+04 -0.14672213595E+04  0.19974596418E+04  0.50400001928E-02 0.  1.
</event>
<event>
 5   0  0.7514289E-08  0.3535612E+04  0.7818609E-02  0.8105402E-01
        1   -1    0    0  501    0  0.00000000000E+00  0.00000000000E+00  0.25809482753E+04  0.25809482753E+04  0.50400001928E-02 0. -1.
       -1   -1    0    0    0  501  0.00000000000E+00  0.00000000000E+00 -0.12108487116E+04  0.12108487116E+04  0.50400001928E-02 0.  1.
    10030    2    1    2    0    0  0.00000000000E+00  0.00000000000E+00  0.13700995637E+04  0.37917969869E+04  0.35356119096E+04 0.  0.
        4    1    3    3  502    0  0.53523150232E+03 -0.62448135476E+03 -0.99316324357E+03  0.12895055505E+04  0.12699999809E+01 0.  1.
       -4    1    3    3    0  502 -0.53523150232E+03  0.62448135476E+03  0.23632628072E+04  0.25022914364E+04  0.12699999809E+01 0. -1.
</event>
<event>
 5   0  0.2309391E-07  0.3626347E+04  0.7818609E-02  0.8084483E-01
        2   -1    0    0  501    0  0.00000000000E+00  0.00000000000E+00  0.24946711594E+04  0.24946711594E+04  0.25500000920E-02 0.  1.
       -2   -1    0    0    0  501  0.00000000000E+00  0.00000000000E+00 -0.13178480098E+04  0.13178480098E+04  0.25500000920E-02 0. -1.
    10030    2    1    2    0    0  0.00000000000E+00  0.00000000000E+00  0.11768231496E+04  0.38125191692E+04  0.36263466037E+04 0.  0.
        4    1    3    3  502    0  0.62113823854E+02 -0.67001887338E+03  0.23585404475E+04  0.24526512335E+04  0.12699999809E+01 0.  1.
       -4    1    3    3    0  502 -0.62113823854E+02  0.67001887338E+03 -0.11817172978E+04  0.13598679358E+04  0.12699999809E+01 0. -1.
</event>
<event>
 5   0  0.2199902E-07  0.3621857E+04  0.7818609E-02  0.8085503E-01
       -2   -1    0    0    0  501  0.00000000000E+00  0.00000000000E+00  0.12122484962E+04  0.12122484962E+04  0.25500000920E-02 0.  1.
        2   -1    0    0  501    0  0.00000000000E+00  0.00000000000E+00 -0.27052713903E+04  0.27052713903E+04  0.25500000920E-02 0. -1.
    10030    2    1    2    0    0  0.00000000000E+00  0.00000000000E+00 -0.14930228940E+04  0.39175198865E+04  0.36218565266E+04 0.  0.
        1    1    3    3  502    0  0.66960682597E+03 -0.16109500378E+04 -0.12718866506E+04  0.21589879522E+04  0.50400001928E-02 0. -1.
       -1    1    3    3    0  502 -0.66960682597E+03  0.16109500378E+04 -0.22113624345E+03  0.17585319343E+04  0.50400001928E-02 0.  1.
</event>
<event>
 5   0  0.2342606E-07  0.3641007E+04  0.7818609E-02  0.8081163E-01
       -2   -1    0    0    0  501  0.00000000000E+00  0.00000000000E+00  0.17735245769E+04  0.17735245769E+04  0.25500000920E-02 0.  1.
        2   -1    0    0  501    0  0.00000000000E+00  0.00000000000E+00 -0.18687264971E+04  0.18687264971E+04  0.25500000920E-02 0. -1.
    10030    2    1    2    0    0  0.00000000000E+00  0.00000000000E+00 -0.95201920248E+02  0.36422510740E+04  0.36410066575E+04 0.  0.
        5    1    3    3  502    0  0.14934408858E+04  0.82692734065E+03  0.58509902217E+03  0.18045878925E+04  0.46999998093E+01 0.  1.
       -5    1    3    3    0  502 -0.14934408858E+04 -0.82692734065E+03 -0.68030094242E+03  0.18376631814E+04  0.46999998093E+01 0. -1.
</event>
<event>
 5   0  0.2342606E-07  0.3579169E+04  0.7818609E-02  0.8095280E-01
       -2   -1    0    0    0  501  0.00000000000E+00  0.00000000000E+00  0.18271806985E+04  0.18271806985E+04  0.25500000920E-02 0.  1.
        2   -1    0    0  501    0  0.00000000000E+00  0.00000000000E+00 -0.17527622104E+04  0.17527622104E+04  0.25500000920E-02 0. -1.
    10030    2    1    2    0    0  0.00000000000E+00  0.00000000000E+00  0.74418488111E+02  0.35799429089E+04  0.35791693338E+04 0.  0.
        5    1    3    3  502    0  0.90167753302E+03 -0.14478288552E+04  0.57895387536E+03  0.18012330353E+04  0.46999998093E+01 0.  1.
       -5    1    3    3    0  502 -0.90167753302E+03  0.14478288552E+04 -0.50453538725E+03  0.17787098736E+04  0.46999998093E+01 0. -1.
</event>
<event>
 5   0  0.2342606E-07  0.3601448E+04  0.7818609E-02  0.8090160E-01
        2   -1    0    0  501    0  0.00000000000E+00  0.00000000000E+00  0.20616510910E+04  0.20616510910E+04  0.25500000920E-02 0.  1.
       -2   -1    0    0    0  501  0.00000000000E+00  0.00000000000E+00 -0.15728206694E+04  0.15728206694E+04  0.25500000920E-02 0. -1.
    10030    2    1    2    0    0  0.00000000000E+00  0.00000000000E+00  0.48883042162E+03  0.36344717605E+04  0.36014482915E+04 0.  0.
        5    1    3    3  502    0  0.16437000312E+04 -0.64461438382E+03 -0.11281919214E+03  0.17691884457E+04  0.46999998093E+01 0. -1.
       -5    1    3    3    0  502 -0.16437000312E+04  0.64461438382E+03  0.60164961376E+03  0.18652833147E+04  0.46999998093E+01 0.  1.
</event>
<event>
 5   0  0.7236375E-08  0.3595871E+04  0.7818609E-02  0.8091438E-01
       -1   -1    0    0    0  501  0.00000000000E+00  0.00000000000E+00  0.13898255945E+04  0.13898255945E+04  0.50400001928E-02 0.  1.
        1   -1    0    0  501    0  0.00000000000E+00  0.00000000000E+00 -0.23258826347E+04  0.23258826347E+04  0.50400001928E-02 0. -1.
    10030    2    1    2    0    0  0.00000000000E+00  0.00000000000E+00 -0.93605704020E+03  0.37157082292E+04  0.35958705291E+04 0.  0.
        5    1    3    3  502    0 -0.61420947802E+03  0.15255488663E+03  0.12709168331E+04  0.14197809560E+04  0.46999998093E+01 0.  1.
       -5    1    3    3    0  502  0.61420947802E+03 -0.15255488663E+03 -0.22069738733E+04  0.22959272732E+04  0.46999998093E+01 0. -1.
</event>
<event>
 5   0  0.2199902E-07  0.3586024E+04  0.7818609E-02  0.8093701E-01
        2   -1    0    0  501    0  0.00000000000E+00  0.00000000000E+00  0.26489760011E+04  0.26489760011E+04  0.25500000920E-02 0. -1.
       -2   -1    0    0    0  501  0.00000000000E+00  0.00000000000E+00 -0.12136358769E+04  0.12136358769E+04  0.25500000920E-02 0.  1.
    10030    2    1    2    0    0  0.00000000000E+00  0.00000000000E+00  0.14353401242E+04  0.38626118780E+04  0.35860241561E+04 0.  0.
        1    1    3    3  502    0 -0.40795367939E+03  0.63733508494E+03 -0.10332102764E+04  0.12806817288E+04  0.50400001928E-02 0.  1.
       -1    1    3    3    0  502  0.40795367939E+03 -0.63733508494E+03  0.24685504007E+04  0.25819301493E+04  0.50400001928E-02 0. -1.
</event>
<event>
 5   0  0.7347303E-08  0.3609885E+04  0.7818609E-02  0.8088231E-01
       -1   -1    0    0    0  501  0.00000000000E+00  0.00000000000E+00  0.13355067942E+04  0.13355067942E+04  0.50400001928E-02 0.  1.
        1   -1    0    0  501    0  0.00000000000E+00  0.00000000000E+00 -0.24393863582E+04  0.24393863582E+04  0.50400001928E-02 0. -1.
    10030    2    1    2    0    0  0.00000000000E+00  0.00000000000E+00 -0.11038795641E+04  0.37748931524E+04  0.36098847932E+04 0.  0.
        2    1    3    3  502    0  0.13882068552E+04 -0.92314007704E+03 -0.12753045735E+04  0.20989777583E+04  0.25500000920E-02 0. -1.
       -2    1    3    3    0  502 -0.13882068552E+04  0.92314007704E+03  0.17142500939E+03  0.16759153942E+04  0.25500000920E-02 0.  1.
</event>
<event>
 5   0  0.7347303E-08  0.3602245E+04  0.7818609E-02  0.8089978E-01
        1   -1    0    0  501    0  0.00000000000E+00  0.00000000000E+00  0.20295466556E+04  0.20295466556E+04  0.50400001928E-02 0.  1.
       -1   -1    0    0    0  501  0.00000000000E+00  0.00000000000E+00 -0.15984070508E+04  0.15984070508E+04  0.50400001928E-02 0. -1.
    10030    2    1    2    0    0  0.00000000000E+00  0.00000000000E+00  0.43113960478E+03  0.36279537064E+04  0.36022446804E+04 0.  0.
        2    1    3    3  502    0 -0.10755291439E+04  0.81168194310E+03 -0.98813842040E+03  0.16709302960E+04  0.25500000920E-02 0. -1.
       -2    1    3    3    0  502  0.10755291439E+04 -0.81168194310E+03  0.14192780252E+04  0.19570234104E+04  0.25500000920E-02 0.  1.
</event>
<event>
 5   0  0.7261233E-08  0.3593181E+04  0.7818609E-02  0.8092055E-01
       -1   -1    0    0    0  501  0.00000000000E+00  0.00000000000E+00  0.23466831520E+04  0.23466831520E+04  0.50400001928E-02 0.  1.
        1   -1    0    0  501    0  0.00000000000E+00  0.00000000000E+00 -0.13754469951E+04  0.13754469952E+04  0.50400001928E-02 0. -1.
    10030    2    1    2    0    0  0.00000000000E+00  0.00000000000E+00  0.97123615688E+03  0.37221301472E+04  0.35931814817E+04 0.  0.
        3    1    3    3  502    0 -0.11532548328E+04  0.89473709795E+03  0.15706755639E+04  0.21441951686E+04  0.10100000352E+00 0.  1.
       -3    1    3    3    0  502  0.11532548328E+04 -0.89473709795E+03 -0.59943940701E+03  0.15779349786E+04  0.10100000352E+00 0. -1.
</event>
<event>
 5   0  0.2199902E-07  0.3608221E+04  0.7818609E-02  0.8088611E-01
       -2   -1    0    0    0  501  0.00000000000E+00  0.00000000000E+00  0.18796747663E+04  0.18796747663E+04  0.25500000920E-02 0.  1.
        2   -1    0    0  501    0  0.00000000000E+00  0.00000000000E+00 -0.17315835333E+04  0.17315835333E+04  0.25500000920E-02 0. -1.
    10030    2    1    2    0    0  0.00000000000E+00  0.00000000000E+00  0.14809123302E+03  0.36112582996E+04  0.36082205439E+04 0.  0.
        1    1    3    3  502    0  0.83293817108E+03 -0.10020184605E+04  0.13228889353E+04  0.18568419769E+04  0.50400001928E-02 0.  1.
       -1    1    3    3    0  502 -0.83293817108E+03  0.10020184605E+04 -0.11747977023E+04  0.17544163227E+04  0.50400001928E-02 0. -1.
</event>
<event>
 5   0  0.7514289E-08  0.3610511E+04  0.7818609E-02  0.8088088E-01
       -1   -1    0    0    0  501  0.00000000000E+00  0.00000000000E+00  0.16539515159E+04  0.16539515159E+04  0.50400001928E-02 0. -1.
        1   -1    0    0  501    0  0.00000000000E+00  0.00000000000E+00 -0.19704005121E+04  0.19704005121E+04  0.50400001928E-02 0.  1.
    10030    2    1    2    0    0  0.00000000000E+00  0.00000000000E+00 -0.31644899624E+03  0.36243520280E+04  0.36105107195E+04 0.  0.
        4    1    3    3  502    0  0.83273626491E+03  0.83275283729E+03 -0.15316869235E+04  0.19320956031E+04  0.12699999809E+01 0.  1.
       -4    1    3    3    0  502 -0.83273626491E+03 -0.83275283729E+03  0.12152379273E+04  0.16922564249E+04  0.12699999809E+01 0. -1.
</event>
<event>
 5   0  0.7514289E-08  0.3616322E+04  0.7818609E-02  0.8086763E-01
        1   -1    0    0  501    0  0.00000000000E+00  0.00000000000E+00  0.26271507810E+04  0.26271507810E+04  0.50400001928E-02 0. -1.
       -1   -1    0    0    0  501  0.00000000000E+00  0.00000000000E+00 -0.12444835989E+04  0.12444835989E+04  0.50400001928E-02 0.  1.
    10030    2    1    2    0    0  0.00000000000E+00  0.00000000000E+00  0.13826671822E+04  0.38716343799E+04  0.36163219208E+04 0.  0.
        4    1    3    3  502    0  0.82435879469E+03  0.15614619003E+04  0.27433005654E+03  0.17868937521E+04  0.12699999809E+01 0.  1.
       -4    1    3    3    0  502 -0.82435879469E+03 -0.15614619003E+04  0.11083371257E+04  0.20847406278E+04  0.12699999809E+01 0. -1.
</event>
<event>
 5   0  0.7236375E-08  0.3439354E+04  0.7818609E-02  0.8128315E-01
        1   -1    0    0  501    0  0.00000000000E+00  0.00000000000E+00  0.18191814608E+04  0.18191814608E+04  0.50400001928E-02 0. -1.
       -1   -1    0    0    0  501  0.00000000000E+00  0.00000000000E+00 -0.16256151437E+04  0.16256151437E+04  0.50400001928E-02 0.  1.
    10030    2    1    2    0    0  0.00000000000E+00  0.00000000000E+00  0.19356631710E+03  0.34447966046E+04  0.34393539695E+04 0.  0.
        5    1    3    3  502    0 -0.14425252135E+04 -0.83101985048E+03 -0.33493705851E+03  0.16981395428E+04  0.46999998093E+01 0.  1.
       -5    1    3    3    0  502  0.14425252135E+04  0.83101985048E+03  0.52850337561E+03  0.17466570618E+04  0.46999998093E+01 0. -1.
</event>
<event>
 5   0  0.2198900E-07  0.3598645E+04  0.7818609E-02  0.8090802E-01
        2   -1    0    0  501    0  0.00000000000E+00  0.00000000000E+00  0.13188408839E+04  0.13188408839E+04  0.25500000920E-02 0. -1.
       -2   -1    0    0    0  501  0.00000000000E+00  0.00000000000E+00 -0.24548539717E+04  0.24548539717E+04  0.25500000920E-02 0.  1.
    10030    2    1    2    0    0  0.00000000000E+00  0.00000000000E+00 -0.11360130878E+04  0.37736948557E+04  0.35986451795E+04 0.  0.
        2    1    3    3  502    0  0.10183045949E+03 -0.15528687652E+04 -0.15151531122E+04  0.21719714081E+04  0.25500000920E-02 0. -1.
       -2    1    3    3    0  502 -0.10183045949E+03  0.15528687652E+04  0.37914002441E+03  0.16017234476E+04  0.25500000920E-02 0.  1.
</event>
<event>
 5   0  0.2309391E-07  0.3592157E+04  0.7818609E-02  0.8092291E-01
       -2   -1    0    0    0  501  0.00000000000E+00  0.00000000000E+00  0.24995629007E+04  0.24995629007E+04  0.25500000920E-02 0. -1.
        2   -1    0    0  501    0  0.00000000000E+00  0.00000000000E+00 -0.12905845580E+04  0.12905845580E+04  0.25500000920E-02 0.  1.
    10030    2    1    2    0    0  0.00000000000E+00  0.00000000000E+00  0.12089783427E+04  0.37901474587E+04  0.35921566120E+04 0.  0.
        4    1    3    3  502    0 -0.62780778942E+03  0.70249794410E+03  0.22179048997E+04  0.24097198466E+04  0.12699999809E+01 0. -1.
       -4    1    3    3    0  502  0.62780778942E+03 -0.70249794410E+03 -0.10089265570E+04  0.13804276121E+04  0.12699999809E+01 0.  1.
</event>
<event>
 5   0  0.2342606E-07  0.3592990E+04  0.7818609E-02  0.8092099E-01
        2   -1    0    0  501    0  0.00000000000E+00  0.00000000000E+00  0.22651550067E+04  0.22651550067E+04  0.25500000920E-02 0.  1.
       -2   -1    0    0    0  501  0.00000000000E+00  0.00000000000E+00 -0.14248008031E+04  0.14248008031E+04  0.25500000920E-02 0. -1.
    10030    2    1    2    0    0  0.00000000000E+00  0.00000000000E+00  0.84035420356E+03  0.36899558098E+04  0.35929902158E+04 0.  0.
        5    1    3    3  502    0  0.75233675741E+03  0.86293301162E+03 -0.10016381767E+04  0.15211722802E+04  0.46999998093E+01 0. -1.
       -5    1    3    3    0  502 -0.75233675741E+03 -0.86293301162E+03  0.18419923803E+04  0.21687835295E+04  0.46999998093E+01 0.  1.
</event>
<event>
 5   0  0.2238968E-07  0.3614257E+04  0.7818609E-02  0.8087234E-01
       -2   -1    0    0    0  501  0.00000000000E+00  0.00000000000E+00  0.20960129639E+04  0.20960129639E+04  0.25500000920E-02 0. -1.
        2   -1    0    0  501    0  0.00000000000E+00  0.00000000000E+00 -0.15580593532E+04  0.15580593532E+04  0.25500000920E-02 0.  1.
    10030    2    1    2    0    0  0.00000000000E+00  0.00000000000E+00  0.53795361074E+03  0.36540723171E+04  0.36142565503E+04 0.  0.
        3    1    3    3  502    0 -0.11114244280E+04 -0.13066057296E+04 -0.30581935538E+03  0.17424144972E+04  0.10100000352E+00 0.  1.
       -3    1    3    3    0  502  0.11114244280E+04  0.13066057296E+04  0.84377296612E+03  0.19116578199E+04  0.10100000352E+00 0. -1.
</event>
<event>
 5   0  0.2342606E-07  0.3594827E+04  0.7818609E-02  0.8091678E-01
       -2   -1    0    0    0  501  0.00000000000E+00  0.00000000000E+00  0.15143976403E+04  0.15143976403E+04  0.25500000920E-02 0.  1.
        2   -1    0    0  501    0  0.00000000000E+00  0.00000000000E+00 -0.21333200576E+04  0.21333200576E+04  0.25500000920E-02 0. -1.
    10030    2    1    2    0    0  0.00000000000E+00  0.00000000000E+00 -0.61892241732E+03  0.36477176979E+04  0.35948267614E+04 0.  0.
        5    1    3    3  502    0  0.33387144483E+03  0.46037682050E+03  0.14206932566E+04  0.15302968267E+04  0.46999998093E+01 0.  1.
       -5    1    3    3    0  502 -0.33387144483E+03 -0.46037682050E+03 -0.20396156739E+04  0.21174208712E+04  0.46999998093E+01 0. -1.
</event>
<event>
 5   0  0.2198900E-07  0.3555209E+04  0.7818609E-02  0.8100829E-01
        2   -1    0    0  501    0  0.00000000000E+00  0.00000000000E+00  0.24865334821E+04  0.24865334821E+04  0.25500000920E-02 0. -1.
       -2   -1    0    0    0  501  0.00000000000E+00  0.00000000000E+00 -0.12707963975E+04  0.12707963976E+04  0.25500000920E-02 0.  1.
    10030    2    1    2    0    0  0.00000000000E+00  0.00000000000E+00  0.12157370846E+04  0.37573298797E+04  0.35552090186E+04 0.  0.
        2    1    3    3  502    0  0.91008907726E+03  0.25621130247E+03 -0.98302603791E+03  0.13639085568E+04  0.25500000920E-02 0.  1.
       -2    1    3    3    0  502 -0.91008907726E+03 -0.25621130247E+03  0.21987631225E+04  0.23934213229E+04  0.25500000920E-02 0. -1.
</event>
<event>
 5   0  0.7236375E-08  0.3590658E+04  0.7818609E-02  0.8092635E-01
       -1   -1    0    0    0  501  0.00000000000E+00  0.00000000000E+00  0.21477518473E+04  0.21477518473E+04  0.50400001928E-02 0. -1.
        1   -1    0    0  501    0  0.00000000000E+00  0.00000000000E+00 -0.15007352848E+04  0.15007352848E+04  0.50400001928E-02 0.  1.
    10030    2    1    2    0    0  0.00000000000E+00  0.00000000000E+00  0.64701656255E+03  0.36484871321E+04  0.35906584244E+04 0.  0.
        1    1    3    3  502    0  0.23025708747E+03 -0.73948590775E+03  0.19692693390E+04  0.21161000599E+04  0.50400001928E-02 0. -1.
       -1    1    3    3    0  502 -0.23025708747E+03  0.73948590775E+03 -0.13222527765E+04  0.15323870722E+04  0.50400001928E-02 0.  1.
</event>
<event>
 5   0  0.7514289E-08  0.3577115E+04  0.7818609E-02  0.8095754E-01
       -1   -1    0    0    0  501  0.00000000000E+00  0.00000000000E+00  0.21227357801E+04  0.21227357801E+04  0.50400001928E-02 0.  1.
        1   -1    0    0  501    0  0.00000000000E+00  0.00000000000E+00 -0.15069879824E+04  0.15069879824E+04  0.50400001928E-02 0. -1.
    10030    2    1    2    0    0  0.00000000000E+00  0.00000000000E+00  0.61574779772E+03  0.36297237625E+04  0.35771146531E+04 0.  0.
        4    1    3    3  502    0 -0.12132641540E+04 -0.12370023187E+03 -0.10196578106E+04  0.15896588685E+04  0.12699999809E+01 0. -1.
       -4    1    3    3    0  502  0.12132641540E+04  0.12370023187E+03  0.16354056084E+04  0.20400648939E+04  0.12699999809E+01 0.  1.
</event>
<event>
 5   0  0.2309391E-07  0.3606520E+04  0.7818609E-02  0.8089000E-01
        2   -1    0    0  501    0  0.00000000000E+00  0.00000000000E+00  0.21700783547E+04  0.21700783547E+04  0.25500000920E-02 0. -1.
       -2   -1    0    0    0  501  0.00000000000E+00  0.00000000000E+00 -0.14984467428E+04  0.14984467429E+04  0.25500000920E-02 0.  1.
    10030    2    1    2    0    0  0.00000000000E+00  0.00000000000E+00  0.67163161188E+03  0.36685250976E+04  0.36065201191E+04 0.  0.
        4    1    3    3  502    0  0.12886572365E+04  0.12530946287E+04  0.18889712397E+03  0.18073647551E+04  0.12699999809E+01 0.  1.
       -4    1    3    3    0  502 -0.12886572365E+04 -0.12530946287E+04  0.48273448791E+03  0.18611603425E+04  0.12699999809E+01 0. -1.
</event>
<event>
 5   0  0.2309391E-07  0.3606002E+04  0.7818609E-02  0.8089118E-01
       -2   -1    0    0    0  501  0.00000000000E+00  0.00000000000E+00  0.17912326255E+04  0.17912326255E+04  0.25500000920E-02 0.  1.
        2   -1    0    0  501    0  0.00000000000E+00  0.00000000000E+00 -0.18148464154E+04  0.18148464154E+04  0.25500000920E-02 0. -1.
    10030    2    1    2    0    0  0.00000000000E+00  0.00000000000E+00 -0.23613789817E+02  0.36060790409E+04  0.36060017247E+04 0.  0.
        4    1    3    3  502    0 -0.17281825080E+04  0.48215035717E+03  0.16631696429E+03  0.18018731069E+04  0.12699999809E+01 0.  1.
       -4    1    3    3    0  502  0.17281825080E+04 -0.48215035717E+03 -0.18993075411E+03  0.18042059340E+04  0.12699999809E+01 0. -1.
</event>
<event>
 5   0  0.7347303E-08  0.3602800E+04  0.7818609E-02  0.8089851E-01
       -1   -1    0    0    0  501  0.00000000000E+00  0.00000000000E+00  0.17406951507E+04  0.17406951507E+04  0.50400001928E-02 0.  1.
        1   -1    0    0  501    0  0.00000000000E+00  0.00000000000E+00 -0.18642222746E+04  0.18642222746E+04  0.50400001928E-02 0. -1.
    10030    2    1    2    0    0  0.00000000000E+00  0.00000000000E+00 -0.12352712393E+03  0.36049174253E+04  0.36028003959E+04 0.  0.
        2    1    3    3  502    0  0.23324004020E+03  0.41580420573E+03 -0.17999511696E+04  0.18620199427E+04  0.25500000920E-02 0. -1.
       -2    1    3    3    0  502 -0.23324004020E+03 -0.41580420573E+03  0.16764240457E+04  0.17428974826E+04  0.25500000920E-02 0.  1.
</event>
<event>
 5   0  0.7347303E-08  0.3591928E+04  0.7818609E-02  0.8092343E-01
       -1   -1    0    0    0  501  0.00000000000E+00  0.00000000000E+00  0.14143761219E+04  0.14143761219E+04  0.50400001928E-02 0. -1.
        1   -1    0    0  501    0  0.00000000000E+00  0.00000000000E+00 -0.22805008349E+04  0.22805008349E+04  0.50400001928E-02 0.  1.
    10030    2    1    2    0    0  0.00000000000E+00  0.00000000000E+00 -0.86612471301E+03  0.36948769569E+04  0.35919275755E+04 0.  0.
        2    1    3    3  502    0 -0.81687506725E+03 -0.40548504110E+03 -0.20245922206E+04  0.22205127006E+04  0.25500000920E-02 0.  1.
       -2    1    3    3    0  502  0.81687506725E+03  0.40548504110E+03  0.11584675075E+04  0.14743642562E+04  0.25500000920E-02 0. -1.
</event>
<event>
 5   0  0.2198900E-07  0.3602536E+04  0.7818609E-02  0.8089911E-01
       -2   -1    0    0    0  501  0.00000000000E+00  0.00000000000E+00  0.13087885269E+04  0.13087885269E+04  0.25500000920E-02 0.  1.
        2   -1    0    0  501    0  0.00000000000E+00  0.00000000000E+00 -0.24790602669E+04  0.24790602669E+04  0.25500000920E-02 0. -1.
    10030    2    1    2    0    0  0.00000000000E+00  0.00000000000E+00 -0.11702717400E+04  0.37878487938E+04  0.36025355709E+04 0.  0.
        2    1    3    3  502    0 -0.55759544469E+03 -0.12303583550E+04  0.66774230189E+03  0.15068424414E+04  0.25500000920E-02 0.  1.
       -2    1    3    3    0  502  0.55759544469E+03  0.12303583550E+04 -0.18380140419E+04  0.22810063524E+04  0.25500000920E-02 0. -1.
</event>
<event>
 5   0  0.2238968E-07  0.3609612E+04  0.7818609E-02  0.8088293E-01
        2   -1    0    0  501    0  0.00000000000E+00  0.00000000000E+00  0.16799910663E+04  0.16799910664E+04  0.25500000920E-02 0.  1.
       -2   -1    0    0    0  501  0.00000000000E+00  0.00000000000E+00 -0.19388943701E+04  0.19388943701E+04  0.25500000920E-02 0. -1.
    10030    2    1    2    0    0  0.00000000000E+00  0.00000000000E+00 -0.25890330379E+03  0.36188854365E+04  0.36096122897E+04 0.  0.
        3    1    3    3  502    0  0.82165670575E+03  0.37394779071E+02  0.14811645016E+04  0.16942155715E+04  0.10100000352E+00 0.  1.
       -3    1    3    3    0  502 -0.82165670575E+03 -0.37394779071E+02 -0.17400678054E+04  0.19246698650E+04  0.10100000352E+00 0. -1.
</event>
<event>
 5   0  0.2198900E-07  0.3583993E+04  0.7818609E-02  0.8094168E-01
        2   -1    0    0  501    0  0.00000000000E+00  0.00000000000E+00  0.12849407100E+04  0.12849407100E+04  0.25500000920E-02 0. -1.
       -2   -1    0    0    0  501  0.00000000000E+00  0.00000000000E+00 -0.24991439913E+04  0.24991439913E+04  0.25500000920E-02 0.  1.
    10030    2    1    2    0    0  0.00000000000E+00  0.00000000000E+00 -0.12142032813E+04  0.37840847013E+04  0.35839932224E+04 0.  0.
        2    1    3    3  502    0  0.48159304444E+03  0.88794476924E+01 -0.24295133539E+04  0.24768015346E+04  0.25500000920E-02 0.  1.
       -2    1    3    3    0  502 -0.48159304444E+03 -0.88794476924E+01  0.12153100727E+04  0.13072831666E+04  0.25500000920E-02 0. -1.
</event>
<event>
 5   0  0.2199902E-07  0.3589547E+04  0.7818609E-02  0.8092890E-01
       -2   -1    0    0    0  501  0.00000000000E+00  0.00000000000E+00  0.13297904768E+04  0.13297904768E+04  0.25500000920E-02 0. -1.
        2   -1    0    0  501    0  0.00000000000E+00  0.00000000000E+00 -0.24223456797E+04  0.24223456797E+04  0.25500000920E-02 0.  1.
    10030    2    1    2    0    0  0.00000000000E+00  0.00000000000E+00 -0.10925552029E+04  0.37521361565E+04  0.35895471672E+04 0.  0.
        1    1    3    3  502    0 -0.81060873668E+03  0.59969158746E+03  0.10057289579E+04  0.14241514178E+04  0.50400001928E-02 0. -1.
       -1    1    3    3    0  502  0.81060873668E+03 -0.59969158746E+03 -0.20982841608E+04  0.23279847387E+04  0.50400001928E-02 0.  1.
</event>
<event>
 5   0  0.7236375E-08  0.3598730E+04  0.7818609E-02  0.8090783E-01
       -1   -1    0    0    0  501  0.00000000000E+00  0.00000000000E+00  0.16533103460E+04  0.16533103460E+04  0.50400001928E-02 0.  1.
        1   -1    0    0  501    0  0.00000000000E+00  0.00000000000E+00 -0.19583219297E+04  0.19583219297E+04  0.50400001928E-02 0. -1.
    10030    2    1    2    0    0  0.00000000000E+00  0.00000000000E+00 -0.30501158370E+03  0.36116322757E+04  0.35987297243E+04 0.  0.
        5    1    3    3  502    0 -0.16647552357E+04 -0.30072802177E+03 -0.76776536820E+03  0.18577763828E+04  0.46999998093E+01 0. -1.
       -5    1    3    3    0  502  0.16647552357E+04  0.30072802177E+03  0.46275378450E+03  0.17538558929E+04  0.46999998093E+01 0.  1.
</event>
<event>
 5   0  0.2342606E-07  0.3596869E+04  0.7818609E-02  0.8091209E-01
        2   -1    0    0  501    0  0.00000000000E+00  0.00000000000E+00  0.21636461410E+04  0.21636461410E+04  0.25500000920E-02 0. -1.
       -2   -1    0    0    0  501  0.00000000000E+00  0.00000000000E+00 -0.14948683013E+04  0.14948683014E+04  0.25500000920E-02 0.  1.
    10030    2    1    2    0    0  0.00000000000E+00  0.00000000000E+00  0.66877783962E+03  0.36585144423E+04  0.35968686556E+04 0.  0.
        5    1    3    3  502    0 -0.11558976705E+04  0.13139223469E+04 -0.87267023939E+02  0.17521783533E+04  0.46999998093E+01 0. -1.
       -5    1    3    3    0  502  0.11558976705E+04 -0.13139223469E+04  0.75604486356E+03  0.19063360890E+04  0.46999998093E+01 0.  1.
</event>
<event>
 5   0  0.2309391E-07  0.3612553E+04  0.7818609E-02  0.8087622E-01
        2   -1    0    0  501    0  0.00000000000E+00  0.00000000000E+00  0.21008149825E+04  0.21008149825E+04  0.25500000920E-02 0.  1.
       -2   -1    0    0    0  501  0.00000000000E+00  0.00000000000E+00 -0.15530329642E+04  0.15530329642E+04  0.25500000920E-02 0. -1.
    10030    2    1    2    0    0  0.00000000000E+00  0.00000000000E+00  0.54778201828E+03  0.36538479467E+04  0.36125530692E+04 0.  0.
        4    1    3    3  502    0  0.45047540069E+03 -0.10341048581E+04  0.17008090768E+04  0.20408464108E+04  0.12699999809E+01 0.  1.
       -4    1    3    3    0  502 -0.45047540069E+03  0.10341048581E+04 -0.11530270585E+04  0.16130015358E+04  0.12699999809E+01 0. -1.
</event>
<event>
 5   0  0.2198900E-07  0.3558920E+04  0.7818609E-02  0.8099967E-01
       -2   -1    0    0    0  501  0.00000000000E+00  0.00000000000E+00  0.15484290706E+04  0.15484290706E+04  0.25500000920E-02 0. -1.
        2   -1    0    0  501    0  0.00000000000E+00  0.00000000000E+00 -0.20449617959E+04  0.20449617959E+04  0.25500000920E-02 0.  1.
    10030    2    1    2    0    0  0.00000000000E+00  0.00000000000E+00 -0.49653272529E+03  0.35933908665E+04  0.35589202256E+04 0.  0.
        2    1    3    3  502    0  0.61316174199E+03  0.11556141122E+03 -0.19308876765E+04  0.20291990983E+04  0.25500000920E-02 0.  1.
       -2    1    3    3    0  502 -0.61316174199E+03 -0.11556141122E+03  0.14343549512E+04  0.15641917682E+04  0.25500000920E-02 0. -1.
</event>
<event>
 5   0  0.7236375E-08  0.3752739E+04  0.7818609E-02  0.8056374E-01
       -1   -1    0    0    0  501  0.00000000000E+00  0.00000000000E+00  0.21096612577E+04  0.21096612577E+04  0.50400001928E-02 0.  1.
        1   -1    0    0  501    0  0.00000000000E+00  0.00000000000E+00 -0.16688760343E+04  0.16688760343E+04  0.50400001928E-02 0. -1.
    10030    2    1    2    0    0  0.00000000000E+00  0.00000000000E+00  0.44078522347E+03  0.37785372920E+04  0.37527393267E+04 0.  0.
        5    1    3    3  502    0  0.14930213948E+04 -0.89540132396E+03  0.92512172187E+03  0.19714788121E+04  0.46999998093E+01 0.  1.
       -5    1    3    3    0  502 -0.14930213948E+04  0.89540132396E+03 -0.48433649840E+03  0.18070584799E+04  0.46999998093E+01 0. -1.
</event>
<event>
 5   0  0.7236375E-08  0.3604172E+04  0.7818609E-02  0.8089537E-01
       -1   -1    0    0    0  501  0.00000000000E+00  0.00000000000E+00  0.98508757335E+03  0.98508757336E+03  0.50400001928E-02 0. -1.
        1   -1    0    0  501    0  0.00000000000E+00  0.00000000000E+00 -0.32966762420E+04  0.32966762420E+04  0.50400001928E-02 0.  1.
    10030    2    1    2    0    0  0.00000000000E+00  0.00000000000E+00 -0.23115886686E+04  0.42817638154E+04  0.36041724706E+04 0.  0.
        5    1    3    3  502    0  0.12067359697E+04  0.11015377486E+04 -0.25268187163E+03  0.16533200931E+04  0.46999998093E+01 0. -1.
       -5    1    3    3    0  502 -0.12067359697E+04 -0.11015377486E+04 -0.20589067970E+04  0.26284437222E+04  0.46999998093E+01 0.  1.
</event>
<event>
 5   0  0.2199902E-07  0.3602735E+04  0.7818609E-02  0.8089865E-01
       -2   -1    0    0    0  501  0.00000000000E+00  0.00000000000E+00  0.20174620548E+04  0.20174620548E+04  0.25500000920E-02 0.  1.
        2   -1    0    0  501    0  0.00000000000E+00  0.00000000000E+00 -0.16084197127E+04  0.16084197127E+04  0.25500000920E-02 0. -1.
    10030    2    1    2    0    0  0.00000000000E+00  0.00000000000E+00  0.40904234208E+03  0.36258817675E+04  0.36027354821E+04 0.  0.
        1    1    3    3  502    0 -0.12801236520E+04 -0.12666363769E+04  0.24770913698E+03  0.18178129970E+04  0.50400001928E-02 0.  1.
       -1    1    3    3    0  502  0.12801236520E+04  0.12666363769E+04  0.16133320509E+03  0.18080687705E+04  0.50400001928E-02 0. -1.
</event>
<event>
 5   0  0.2342606E-07  0.3590016E+04  0.7818609E-02  0.8092782E-01
        2   -1    0    0  501    0  0.00000000000E+00  0.00000000000E+00  0.11815747789E+04  0.11815747789E+04  0.25500000920E-02 0. -1.
       -2   -1    0    0    0  501  0.00000000000E+00  0.00000000000E+00 -0.27269146573E+04  0.27269146573E+04  0.25500000920E-02 0.  1.
    10030    2    1    2    0    0  0.00000000000E+00  0.00000000000E+00 -0.15453398784E+04  0.39084894363E+04  0.35900159239E+04 0.  0.
        5    1    3    3  502    0 -0.48233037709E+03 -0.26756966033E+03 -0.26323574888E+04  0.26895286120E+04  0.46999998093E+01 0.  1.
       -5    1    3    3    0  502  0.48233037709E+03  0.26756966033E+03  0.10870176104E+04  0.12189608243E+04  0.46999998093E+01 0. -1.
</event>
<event>
 5   0  0.2342606E-07  0.3554071E+04  0.7818609E-02  0.8101094E-01
        2   -1    0    0  501    0  0.00000000000E+00  0.00000000000E+00  0.15900329542E+04  0.15900329542E+04  0.25500000920E-02 0. -1.
       -2   -1    0    0    0  501  0.00000000000E+00  0.00000000000E+00 -0.19860317565E+04  0.19860317565E+04  0.25500000920E-02 0.  1.
    10030    2    1    2    0    0  0.00000000000E+00  0.00000000000E+00 -0.39599880234E+03  0.35760647107E+04  0.35540714348E+04 0.  0.
        5    1    3    3  502    0 -0.79173362979E+03 -0.10815174846E+04 -0.13719720950E+04  0.19180332973E+04  0.46999998093E+01 0.  1.
       -5    1    3    3    0  502  0.79173362979E+03  0.10815174846E+04  0.97597329263E+03  0.16580314135E+04  0.46999998093E+01 0. -1.
</event>
<event>
 5   0  0.7514289E-08  0.3593244E+04  0.7818609E-02  0.8092041E-01
        1   -1    0    0  501    0  0.00000000000E+00  0.00000000000E+00  0.23306945073E+04  0.23306945073E+04  0.50400001928E-02 0. -1.
       -1   -1    0    0    0  501  0.00000000000E+00  0.00000000000E+00 -0.13849308350E+04  0.13849308350E+04  0.50400001928E-02 0.  1.
    10030    2    1    2    0    0  0.00000000000E+00  0.00000000000E+00  0.94576367234E+03  0.37156253423E+04  0.35932440441E+04 0.  0.
        4    1    3    3  502    0  0.13073790272E+03  0.88376881190E+03 -0.11389597841E+04  0.14475395382E+04  0.12699999809E+01 0.  1.
       -4    1    3    3    0  502 -0.13073790272E+03 -0.88376881190E+03  0.20847234564E+04  0.22680858041E+04  0.12699999809E+01 0. -1.
</event>
<event>
 5   0  0.7514289E-08  0.3597267E+04  0.7818609E-02  0.8091118E-01
       -1   -1    0    0    0  501  0.00000000000E+00  0.00000000000E+00  0.19411569876E+04  0.19411569876E+04  0.50400001928E-02 0. -1.
        1   -1    0    0  501    0  0.00000000000E+00  0.00000000000E+00 -0.16665743918E+04  0.16665743918E+04  0.50400001928E-02 0.  1.
    10030    2    1    2    0    0  0.00000000000E+00  0.00000000000E+00  0.27458259574E+03  0.36077313794E+04  0.35972670326E+04 0.  0.
        4    1    3    3  502    0 -0.11333210255E+04  0.23615751662E+03 -0.12432645370E+04  0.16987922890E+04  0.12699999809E+01 0.  1.
       -4    1    3    3    0  502  0.11333210255E+04 -0.23615751662E+03  0.15178471327E+04  0.19089390904E+04  0.12699999809E+01 0. -1.
</event>
<event>
 5   0  0.7347303E-08  0.3595222E+04  0.7818609E-02  0.8091587E-01
        1   -1    0    0  501    0  0.00000000000E+00  0.00000000000E+00  0.12340426975E+04  0.12340426975E+04  0.50400001928E-02 0. -1.
       -1   -1    0    0    0  501  0.00000000000E+00  0.00000000000E+00 -0.26185527536E+04  0.26185527536E+04  0.50400001928E-02 0.  1.
    10030    2    1    2    0    0  0.00000000000E+00  0.00000000000E+00 -0.13845100562E+04  0.38525954511E+04  0.35952223317E+04 0.  0.
        2    1    3    3  502    0 -0.69040668186E+03 -0.14643007837E+04  0.14507097636E+03  0.16253872645E+04  0.25500000920E-02 0. -1.
       -2    1    3    3    0  502  0.69040668186E+03  0.14643007837E+04 -0.15295810325E+04  0.22272081866E+04  0.25500000920E-02 0.  1.
</event>
<event>
 5   0  0.2199902E-07  0.3579828E+04  0.7818609E-02  0.8095128E-01
       -2   -1    0    0    0  501  0.00000000000E+00  0.00000000000E+00  0.18740488150E+04  0.18740488150E+04  0.25500000920E-02 0.  1.
        2   -1    0    0  501    0  0.00000000000E+00  0.00000000000E+00 -0.17095566709E+04  0.17095566709E+04  0.25500000920E-02 0. -1.
    10030    2    1    2    0    0  0.00000000000E+00  0.00000000000E+00  0.16449214410E+03  0.35836054859E+04  0.35798282938E+04 0.  0.
        1    1    3    3  502    0 -0.11214819331E+04 -0.11311537108E+04  0.89954012804E+03  0.18293176011E+04  0.50400001928E-02 0.  1.
       -1    1    3    3    0  502  0.11214819331E+04  0.11311537108E+04 -0.73504798394E+03  0.17542878847E+04  0.50400001928E-02 0. -1.
</event>
<event>
 5   0  0.2342606E-07  0.3599258E+04  0.7818609E-02  0.8090662E-01
        2   -1    0    0  501    0  0.00000000000E+00  0.00000000000E+00  0.28046114295E+04  0.28046114295E+04  0.25500000920E-02 0.  1.
       -2   -1    0    0    0  501  0.00000000000E+00  0.00000000000E+00 -0.11547637719E+04  0.11547637719E+04  0.25500000920E-02 0. -1.
    10030    2    1    2    0    0  0.00000000000E+00  0.00000000000E+00  0.16498476576E+04  0.39593752013E+04  0.35992575195E+04 0.  0.
        5    1    3    3  502    0  0.13539996760E+04  0.56455789896E+03  0.19716210394E+04  0.24575093808E+04  0.46999998093E+01 0.  1.
       -5    1    3    3    0  502 -0.13539996760E+04 -0.56455789896E+03 -0.32177338178E+03  0.15018658206E+04  0.46999998093E+01 0. -1.
</event>
<event>
 5   0  0.2238968E-07  0.3628604E+04  0.7818609E-02  0.8083971E-01
       -2   -1    0    0    0  501  0.00000000000E+00  0.00000000000E+00  0.21065113733E+04  0.21065113733E+04  0.25500000920E-02 0. -1.
        2   -1    0    0  501    0  0.00000000000E+00  0.00000000000E+00 -0.15626274844E+04  0.15626274845E+04  0.25500000920E-02 0.  1.
    10030    2    1    2    0    0  0.00000000000E+00  0.00000000000E+00  0.54388388881E+03  0.36691388577E+04  0.36286044525E+04 0.  0.
        3    1    3    3  502    0 -0.57616789282E+03 -0.16836629207E+04  0.62944807844E+03  0.18875632876E+04  0.10100000352E+00 0. -1.
       -3    1    3    3    0  502  0.57616789282E+03  0.16836629207E+04 -0.85564189633E+02  0.17815755701E+04  0.10100000352E+00 0.  1.
</event>
<event>
 5   0  0.7236375E-08  0.3585102E+04  0.7818609E-02  0.8093913E-01
       -1   -1    0    0    0  501  0.00000000000E+00  0.00000000000E+00  0.15553026075E+04  0.15553026075E+04  0.50400001928E-02 0. -1.
        1   -1    0    0  501    0  0.00000000000E+00  0.00000000000E+00 -0.20659892453E+04  0.20659892453E+04  0.50400001928E-02 0.  1.
    10030    2    1    2    0    0  0.00000000000E+00  0.00000000000E+00 -0.51068663781E+03  0.36212918528E+04  0.35851016501E+04 0.  0.
        1    1    3    3  502    0 -0.93260708366E+03  0.14868516016E+04  0.11269003066E+03  0.17587446377E+04  0.50400001928E-02 0. -1.
       -1    1    3    3    0  502  0.93260708366E+03 -0.14868516016E+04 -0.62337666848E+03  0.18625472151E+04  0.50400001928E-02 0.  1.
</event>
<event>
 5   0  0.2199902E-07  0.3609244E+04  0.7818609E-02  0.8088377E-01
        2   -1    0    0  501    0  0.00000000000E+00  0.00000000000E+00  0.20161638402E+04  0.20161638402E+04  0.25500000920E-02 0. -1.
       -2   -1    0    0    0  501  0.00000000000E+00  0.00000000000E+00 -0.16152761243E+04  0.16152761243E+04  0.25500000920E-02 0.  1.
    10030    2    1    2    0    0  0.00000000000E+00  0.00000000000E+00  0.40088771593E+03  0.36314399644E+04  0.36092444160E+04 0.  0.
        1    1    3    3  502    0  0.52332333206E+03  0.90244663943E+03 -0.12811551523E+04  0.16521609398E+04  0.50400001928E-02 0.  1.
       -1    1    3    3    0  502 -0.52332333206E+03 -0.90244663943E+03  0.16820428682E+04  0.19792790246E+04  0.50400001928E-02 0. -1.
</event>
<event>
 5   0  0.7514289E-08  0.3599589E+04  0.7818609E-02  0.8090586E-01
        1   -1    0    0  501    0  0.00000000000E+00  0.00000000000E+00  0.22186470264E+04  0.22186470264E+04  0.50400001928E-02 0.  1.
       -1   -1    0    0    0  501  0.00000000000E+00  0.00000000000E+00 -0.14600157135E+04  0.14600157135E+04  0.50400001928E-02 0. -1.
    10030    2    1    2    0    0  0.00000000000E+00  0.00000000000E+00  0.75863131289E+03  0.36786627399E+04  0.35995885994E+04 0.  0.
        4    1    3    3  502    0 -0.16938902878E+04  0.39658058676E+03 -0.92029071771E+02  0.17421284201E+04  0.12699999809E+01 0. -1.
       -4    1    3    3    0  502  0.16938902878E+04 -0.39658058676E+03  0.85066038466E+03  0.19365343198E+04  0.12699999809E+01 0.  1.
</event>
<event>
 5   0  0.2238968E-07  0.3594040E+04  0.7818609E-02  0.8091858E-01
       -2   -1    0    0    0  501  0.00000000000E+00  0.00000000000E+00  0.17527060053E+04  0.17527060053E+04  0.25500000920E-02 0.  1.
        2   -1    0    0  501    0  0.00000000000E+00  0.00000000000E+00 -0.18424545647E+04  0.18424545647E+04  0.25500000920E-02 0. -1.
    10030    2    1    2    0    0  0.00000000000E+00  0.00000000000E+00 -0.89748559439E+02  0.35951605699E+04  0.35940401667E+04 0.  0.
        3    1    3    3  502    0 -0.11526333367E+04  0.48371586358E+03 -0.13362982459E+04  0.18298190232E+04  0.10100000352E+00 0. -1.
       -3    1    3    3    0  502  0.11526333367E+04 -0.48371586358E+03  0.12465496864E+04  0.17653415467E+04  0.10100000352E+00 0.  1.
</event>
<event>
 5   0  0.2309391E-07  0.3605711E+04  0.7818609E-02  0.8089185E-01
        2   -1    0    0  501    0  0.00000000000E+00  0.00000000000E+00  0.16200645676E+04  0.16200645676E+04  0.25500000920E-02 0.  1.
       -2   -1    0    0    0  501  0.00000000000E+00  0.00000000000E+00 -0.20062708591E+04  0.20062708591E+04  0.25500000920E-02 0. -1.
    10030    2    1    2    0    0  0.00000000000E+00  0.00000000000E+00 -0.38620629150E+03  0.36263354266E+04  0.36057112096E+04 0.  0.
        4    1    3    3  502    0  0.14182719210E+04 -0.72424435346E+03  0.65687093369E+03  0.17226451062E+04  0.12699999809E+01 0.  1.
       -4    1    3    3    0  502 -0.14182719210E+04  0.72424435346E+03 -0.10430772252E+04  0.19036903204E+04  0.12699999809E+01 0. -1.
</event>
<event>
 5   0  0.7236375E-08  0.3579136E+04  0.7818609E-02  0.8095288E-01
       -1   -1    0    0    0  501  0.00000000000E+00  0.00000000000E+00  0.19753187730E+04  0.19753187731E+04  0.50400001928E-02 0. -1.
        1   -1    0    0  501    0  0.00000000000E+00  0.00000000000E+00 -0.16212841695E+04  0.16212841695E+04  0.50400001928E-02 0.  1.
    10030    2    1    2    0    0  0.00000000000E+00  0.00000000000E+00  0.35403460352E+03  0.35966029426E+04  0.35791356814E+04 0.  0.
        1    1    3    3  502    0 -0.21751042385E+03  0.43687811086E+03  0.19071573325E+04  0.19686092449E+04  0.50400001928E-02 0. -1.
       -1    1    3    3    0  502  0.21751042385E+03 -0.43687811086E+03 -0.15531227290E+04  0.16279936976E+04  0.50400001928E-02 0.  1.
</event>
<event>
 5   0  0.2199902E-07  0.3613759E+04  0.7818609E-02  0.8087347E-01
       -2   -1    0    0    0  501  0.00000000000E+00  0.00000000000E+00  0.16839354485E+04  0.16839354485E+04  0.25500000920E-02 0.  1.
        2   -1    0    0  501    0  0.00000000000E+00  0.00000000000E+00 -0.19387999527E+04  0.19387999527E+04  0.25500000920E-02 0. -1.
    10030    2    1    2    0    0  0.00000000000E+00  0.00000000000E+00 -0.25486450414E+03  0.36227354012E+04  0.36137592437E+04 0.  0.
        1    1    3    3  502    0 -0.17201336390E+04 -0.36877122998E+03 -0.54072076147E+03  0.18404431255E+04  0.50400001928E-02 0. -1.
       -1    1    3    3    0  502  0.17201336390E+04  0.36877122998E+03  0.28585625733E+03  0.17822922757E+04  0.50400001928E-02 0.  1.
</event>
<event>
 5   0  0.7236375E-08  0.3595572E+04  0.7818609E-02  0.8091507E-01
        1   -1    0    0  501    0  0.00000000000E+00  0.00000000000E+00  0.28820390915E+04  0.28820390915E+04  0.50400001928E-02 0.  1.
       -1   -1    0    0    0  501  0.00000000000E+00  0.00000000000E+00 -0.11214404101E+04  0.11214404101E+04  0.50400001928E-02 0. -1.
    10030    2    1    2    0    0  0.00000000000E+00  0.00000000000E+00  0.17605986814E+04  0.40034795017E+04  0.35955723332E+04 0.  0.
        5    1    3    3  502    0  0.14527660773E+04  0.82673251069E+03  0.14340504892E+03  0.16776778647E+04  0.46999998093E+01 0. -1.
       -5    1    3    3    0  502 -0.14527660773E+04 -0.82673251069E+03  0.16171936325E+04  0.23258016370E+04  0.46999998093E+01 0.  1.
</event>
<event>
 5   0  0.7236375E-08  0.3602133E+04  0.7818609E-02  0.8090003E-01
        1   -1    0    0  501    0  0.00000000000E+00  0.00000000000E+00  0.19336940275E+04  0.19336940275E+04  0.50400001928E-02 0.  1.
       -1   -1    0    0    0  501  0.00000000000E+00  0.00000000000E+00 -0.16775351712E+04  0.16775351712E+04  0.50400001928E-02 0. -1.
    10030    2    1    2    0    0  0.00000000000E+00  0.00000000000E+00  0.25615885626E+03  0.36112291987E+04  0.36021325581E+04 0.  0.
        5    1    3    3  502    0  0.24309730828E+03  0.84857800465E+03 -0.14458013082E+04  0.16939729762E+04  0.46999998093E+01 0. -1.
       -5    1    3    3    0  502 -0.24309730828E+03 -0.84857800465E+03  0.17019601645E+04  0.19172562225E+04  0.46999998093E+01 0.  1.
</event>
<event>
 5   0  0.7236375E-08  0.3595393E+04  0.7818609E-02  0.8091548E-01
       -1   -1    0    0    0  501  0.00000000000E+00  0.00000000000E+00  0.15004883914E+04  0.15004883914E+04  0.50400001928E-02 0.  1.
        1   -1    0    0  501    0  0.00000000000E+00  0.00000000000E+00 -0.21537736639E+04  0.21537736639E+04  0.50400001928E-02 0. -1.
    10030    2    1    2    0    0  0.00000000000E+00  0.00000000000E+00 -0.65328527245E+03  0.36542620553E+04  0.35953928188E+04 0.  0.
        1    1    3    3  502    0  0.12066846733E+04 -0.19105221040E+03  0.10137084096E+04  0.15875117598E+04  0.50400001928E-02 0.  1.
       -1    1    3    3    0  502 -0.12066846733E+04  0.19105221040E+03 -0.16669936821E+04  0.20667502955E+04  0.50400001928E-02 0. -1.
</event>
<event>
 5   0  0.7261233E-08  0.3586810E+04  0.7818609E-02  0.8093520E-01
       -1   -1    0    0    0  501  0.00000000000E+00  0.00000000000E+00  0.16039341923E+04  0.16039341923E+04  0.50400001928E-02 0.  1.
        1   -1    0    0  501    0  0.00000000000E+00  0.00000000000E+00 -0.20052578134E+04  0.20052578134E+04  0.50400001928E-02 0. -1.
    10030    2    1    2    0    0  0.00000000000E+00  0.00000000000E+00 -0.40132362111E+03  0.36091920057E+04  0.35868100430E+04 0.  0.
        3    1    3    3  502    0  0.11009680313E+04  0.62314798832E+03 -0.14797578204E+04  0.19468249121E+04  0.10100000352E+00 0. -1.
       -3    1    3    3    0  502 -0.11009680313E+04 -0.62314798832E+03  0.10784341993E+04  0.16623670935E+04  0.10100000352E+00 0.  1.
</event>
<event>
 5   0  0.7261233E-08  0.3603640E+04  0.7818609E-02  0.8089659E-01
        1   -1    0    0  501    0  0.00000000000E+00  0.00000000000E+00  0.21583754688E+04  0.21583754688E+04  0.50400001928E-02 0. -1.
       -1   -1    0    0    0  501  0.00000000000E+00  0.00000000000E+00 -0.15041657303E+04  0.15041657303E+04  0.50400001928E-02 0.  1.
    10030    2    1    2    0    0  0.00000000000E+00  0.00000000000E+00  0.65420973844E+03  0.36625411991E+04  0.36036395010E+04 0.  0.
        3    1    3    3  502    0 -0.85025486860E+03  0.52397180366E+03  0.18513089196E+04  0.21035266859E+04  0.10100000352E+00 0. -1.
       -3    1    3    3    0  502  0.85025486860E+03 -0.52397180366E+03 -0.11970991811E+04  0.15590145132E+04  0.10100000352E+00 0.  1.
</event>
<event>
 5   0  0.7514289E-08  0.3633463E+04  0.7818609E-02  0.8082869E-01
        1   -1    0    0  501    0  0.00000000000E+00  0.00000000000E+00  0.13632914295E+04  0.13632914296E+04  0.50400001928E-02 0.  1.
       -1   -1    0    0    0  501  0.00000000000E+00  0.00000000000E+00 -0.24209887966E+04  0.24209887966E+04  0.50400001928E-02 0. -1.
    10030    2    1    2    0    0  0.00000000000E+00  0.00000000000E+00 -0.10576973670E+04  0.37842802261E+04  0.36334629638E+04 0.  0.
        4    1    3    3  502    0  0.17573002679E+04 -0.40548322816E+03 -0.75700971734E+03  0.19559105820E+04  0.12699999809E+01 0. -1.
       -4    1    3    3    0  502 -0.17573002679E+04  0.40548322816E+03 -0.30068764968E+03  0.18283696441E+04  0.12699999809E+01 0.  1.
</event>
<event>
 5   0  0.7261233E-08  0.3598727E+04  0.7818609E-02  0.8090783E-01
       -1   -1    0    0    0  501  0.00000000000E+00  0.00000000000E+00  0.19458341221E+04  0.19458341221E+04  0.50400001928E-02 0. -1.
        1   -1    0    0  501    0  0.00000000000E+00  0.00000000000E+00 -0.16639183878E+04  0.16639183878E+04  0.50400001928E-02 0.  1.
    10030    2    1    2    0    0  0.00000000000E+00  0.00000000000E+00  0.28191573428E+03  0.36097525099E+04  0.35987270947E+04 0.  0.
        3    1    3    3  502    0 -0.11696582980E+04 -0.77335502355E+03 -0.99011849940E+03  0.17165410510E+04  0.10100000352E+00 0.  1.
       -3    1    3    3    0  502  0.11696582980E+04  0.77335502355E+03  0.12720342337E+04  0.18932114590E+04  0.10100000352E+00 0. -1.
</event>
<event>
 5   0  0.7236375E-08  0.3601248E+04  0.7818609E-02  0.8090206E-01
       -1   -1    0    0    0  501  0.00000000000E+00  0.00000000000E+00  0.12845848921E+04  0.12845848921E+04  0.50400001928E-02 0. -1.
        1   -1    0    0  501    0  0.00000000000E+00  0.00000000000E+00 -0.25239640063E+04  0.25239640063E+04  0.50400001928E-02 0.  1.
    10030    2    1    2    0    0  0.00000000000E+00  0.00000000000E+00 -0.12393791143E+04  0.38085488984E+04  0.36012475787E+04 0.  0.
        1    1    3    3  502    0 -0.61994694740E+03 -0.15249425704E+04 -0.13913937395E+04  0.21554026536E+04  0.50400001928E-02 0. -1.
       -1    1    3    3    0  502  0.61994694740E+03  0.15249425704E+04  0.15201462524E+03  0.16531462449E+04  0.50400001928E-02 0.  1.
</event>
<event>
 5   0  0.7236375E-08  0.3589984E+04  0.7818609E-02  0.8092790E-01
       -1   -1    0    0    0  501  0.00000000000E+00  0.00000000000E+00  0.12582215241E+04  0.12582215241E+04  0.50400001928E-02 0.  1.
        1   -1    0    0  501    0  0.00000000000E+00  0.00000000000E+00 -0.25607547728E+04  0.25607547728E+04  0.50400001928E-02 0. -1.
    10030    2    1    2    0    0  0.00000000000E+00  0.00000000000E+00 -0.13025332487E+04  0.38189762969E+04  0.35899842747E+04 0.  0.
        5    1    3    3  502    0 -0.17703169022E+03  0.10817723326E+04 -0.21633419552E+04  0.24252097031E+04  0.46999998093E+01 0.  1.
       -5    1    3    3    0  502  0.17703169022E+03 -0.10817723326E+04  0.86080870650E+03  0.13937665938E+04  0.46999998093E+01 0. -1.
</event>
<event>
 5   0  0.2238968E-07  0.3599839E+04  0.7818609E-02  0.8090528E-01
       -2   -1    0    0    0  501  0.00000000000E+00  0.00000000000E+00  0.15654785654E+04  0.15654785654E+04  0.25500000920E-02 0.  1.
        2   -1    0    0  501    0  0.00000000000E+00  0.00000000000E+00 -0.20694700994E+04  0.20694700994E+04  0.25500000920E-02 0. -1.
    10030    2    1    2    0    0  0.00000000000E+00  0.00000000000E+00 -0.50399153406E+03  0.36349486648E+04  0.35998394866E+04 0.  0.
        3    1    3    3  502    0  0.13376130622E+03  0.17058301450E+04  0.31198766028E+03  0.17392771145E+04  0.10100000352E+00 0.  1.
       -3    1    3    3    0  502 -0.13376130622E+03 -0.17058301450E+04 -0.81597919434E+03  0.18956715503E+04  0.10100000352E+00 0. -1.
</event>
<event>
 5   0  0.2198900E-07  0.3605749E+04  0.7818609E-02  0.8089176E-01
        2   -1    0    0  501    0  0.00000000000E+00  0.00000000000E+00  0.24596093686E+04  0.24596093686E+04  0.25500000920E-02 0. -1.
       -2   -1    0    0    0  501  0.00000000000E+00  0.00000000000E+00 -0.13214932057E+04  0.13214932057E+04  0.25500000920E-02 0.  1.
    10030    2    1    2    0    0  0.00000000000E+00  0.00000000000E+00  0.11381161629E+04  0.37811025742E+04  0.36057493364E+04 0.  0.
        2    1    3    3  502    0 -0.60076062087E+03 -0.81713422959E+03 -0.99397832568E+03  0.14200755560E+04  0.25500000920E-02 0. -1.
       -2    1    3    3    0  502  0.60076062087E+03  0.81713422959E+03  0.21320944886E+04  0.23610270183E+04  0.25500000920E-02 0.  1.
</event>
<event>
 5   0  0.7236375E-08  0.3594049E+04  0.7818609E-02  0.8091856E-01
        1   -1    0    0  501    0  0.00000000000E+00  0.00000000000E+00  0.28633816052E+04  0.28633816052E+04  0.50400001928E-02 0. -1.
       -1   -1    0    0    0  501  0.00000000000E+00  0.00000000000E+00 -0.11277911491E+04  0.11277911491E+04  0.50400001928E-02 0.  1.
    10030    2    1    2    0    0  0.00000000000E+00  0.00000000000E+00  0.17355904561E+04  0.39911727542E+04  0.35940486534E+04 0.  0.
        5    1    3    3  502    0  0.93997735732E+03  0.13285885100E+04  0.21652405345E+02  0.16276350260E+04  0.46999998093E+01 0.  1.
       -5    1    3    3    0  502 -0.93997735732E+03 -0.13285885100E+04  0.17139380507E+04  0.23635377283E+04  0.46999998093E+01 0. -1.
</event>
<event>
 5   0  0.2238968E-07  0.3596012E+04  0.7818609E-02  0.8091406E-01
       -2   -1    0    0    0  501  0.00000000000E+00  0.00000000000E+00  0.16232526864E+04  0.16232526864E+04  0.25500000920E-02 0.  1.
        2   -1    0    0  501    0  0.00000000000E+00  0.00000000000E+00 -0.19915728493E+04  0.19915728493E+04  0.25500000920E-02 0. -1.
    10030    2    1    2    0    0  0.00000000000E+00  0.00000000000E+00 -0.36832016287E+03  0.36148255357E+04  0.35960122234E+04 0.  0.
        3    1    3    3  502    0  0.38131203409E+03 -0.12962790199E+04 -0.13765732991E+04  0.19289095942E+04  0.10100000352E+00 0. -1.
       -3    1    3    3    0  502 -0.38131203409E+03  0.12962790199E+04  0.10082531362E+04  0.16859159415E+04  0.10100000352E+00 0.  1.
</event>
<event>
 5   0  0.2199902E-07  0.3596206E+04  0.7818609E-02  0.8091361E-01
        2   -1    0    0  501    0  0.00000000000E+00  0.00000000000E+00  0.22945466366E+04  0.22945466366E+04  0.25500000920E-02 0.  1.
       -2   -1    0    0    0  501  0.00000000000E+00  0.00000000000E+00 -0.14090687124E+04  0.14090687124E+04  0.25500000920E-02 0. -1.
    10030    2    1    2    0    0  0.00000000000E+00  0.00000000000E+00  0.88547792419E+03  0.37036153489E+04  0.35962057086E+04 0.  0.
        1    1    3    3  502    0  0.93631273562E+03 -0.11494521397E+04 -0.60512381237E+03  0.16012796723E+04  0.50400001928E-02 0. -1.
       -1    1    3    3    0  502 -0.93631273562E+03  0.11494521397E+04  0.14906017366E+04  0.21023356767E+04  0.50400001928E-02 0.  1.
</event>
<event>
 5   0  0.2309391E-07  0.3635186E+04  0.7818609E-02  0.8082479E-01
        2   -1    0    0  501    0  0.00000000000E+00  0.00000000000E+00  0.21308258427E+04  0.21308258427E+04  0.25500000920E-02 0. -1.
       -2   -1    0    0    0  501  0.00000000000E+00  0.00000000000E+00 -0.15504053193E+04  0.15504053193E+04  0.25500000920E-02 0.  1.
    10030    2    1    2    0    0  0.00000000000E+00  0.00000000000E+00  0.58042052341E+03  0.36812311620E+04  0.36351856739E+04 0.  0.
        4    1    3    3  502    0 -0.16030455460E+03 -0.17313665821E+04  0.82636374396E+03  0.19251510179E+04  0.12699999809E+01 0. -1.
       -4    1    3    3    0  502  0.16030455460E+03  0.17313665821E+04 -0.24594322055E+03  0.17560801440E+04  0.12699999809E+01 0.  1.
</event>
<event>
 5   0  0.2198900E-07  0.3587550E+04  0.7818609E-02  0.8093350E-01
       -2   -1    0    0    0  501  0.00000000000E+00  0.00000000000E+00  0.13277414229E+04  0.13277414229E+04  0.25500000920E-02 0. -1.
        2   -1    0    0  501    0  0.00000000000E+00  0.00000000000E+00 -0.24233847845E+04  0.24233847845E+04  0.25500000920E-02 0.  1.
    10030    2    1    2    0    0  0.00000000000E+00  0.00000000000E+00 -0.10956433616E+04  0.37511262074E+04  0.35875497834E+04 0.  0.
        2    1    3    3  502    0 -0.11096288083E+04  0.10123081669E+04 -0.15731370200E+04  0.21750411492E+04  0.25500000920E-02 0.  1.
       -2    1    3    3    0  502  0.11096288083E+04 -0.10123081669E+04  0.47749365840E+03  0.15760850582E+04  0.25500000920E-02 0. -1.
</event>
<event>
 5   0  0.7236375E-08  0.3616162E+04  0.7818609E-02  0.8086800E-01
        1   -1    0    0  501    0  0.00000000000E+00  0.00000000000E+00  0.17540244812E+04  0.17540244812E+04  0.50400001928E-02 0.  1.
       -1   -1    0    0    0  501  0.00000000000E+00  0.00000000000E+00 -0.18638031650E+04  0.18638031650E+04  0.50400001928E-02 0. -1.
    10030    2    1    2    0    0  0.00000000000E+00  0.00000000000E+00 -0.10977868380E+03  0.36178276462E+04  0.36161617108E+04 0.  0.
        5    1    3    3  502    0 -0.14763160951E+04  0.36506370640E+03 -0.10332731819E+04  0.18386017189E+04  0.46999998093E+01 0. -1.
       -5    1    3    3    0  502  0.14763160951E+04 -0.36506370640E+03  0.92349449807E+03  0.17792259273E+04  0.46999998093E+01 0.  1.
</event>
<event>
 5   0  0.2198900E-07  0.3541261E+04  0.7818609E-02  0.8104081E-01
       -2   -1    0    0    0  501  0.00000000000E+00  0.00000000000E+00  0.14585004491E+04  0.14585004491E+04  0.25500000920E-02 0.  1.
        2   -1    0    0  501    0  0.00000000000E+00  0.00000000000E+00 -0.21495587768E+04  0.21495587768E+04  0.25500000920E-02 0. -1.
    10030    2    1    2    0    0  0.00000000000E+00  0.00000000000E+00 -0.69105832775E+03  0.36080592259E+04  0.35412610417E+04 0.  0.
        2    1    3    3  502    0  0.83884622617E+03  0.10549033650E+04  0.82445561689E+03  0.15799402409E+04  0.25500000920E-02 0.  1.
       -2    1    3    3    0  502 -0.83884622617E+03 -0.10549033650E+04 -0.15155139446E+04  0.20281189850E+04  0.25500000920E-02 0. -1.
</event>
<event>
 5   0  0.7236375E-08  0.3603620E+04  0.7818609E-02  0.8089663E-01
        1   -1    0    0  501    0  0.00000000000E+00  0.00000000000E+00  0.17462392266E+04  0.17462392266E+04  0.50400001928E-02 0.  1.
       -1   -1    0    0    0  501  0.00000000000E+00  0.00000000000E+00 -0.18591487222E+04  0.18591487222E+04  0.50400001928E-02 0. -1.
    10030    2    1    2    0    0  0.00000000000E+00  0.00000000000E+00 -0.11290949565E+03  0.36053879488E+04  0.36036195287E+04 0.  0.
        5    1    3    3  502    0  0.43301720226E+02 -0.66918480670E+03 -0.17296429174E+04  0.18550930047E+04  0.46999998093E+01 0. -1.
       -5    1    3    3    0  502 -0.43301720226E+02  0.66918480670E+03  0.16167334217E+04  0.17502949441E+04  0.46999998093E+01 0.  1.
</event>
<event>
 5   0  0.7514289E-08  0.3586945E+04  0.7818609E-02  0.8093489E-01
        1   -1    0    0  501    0  0.00000000000E+00  0.00000000000E+00  0.15224641502E+04  0.15224641502E+04  0.50400001928E-02 0. -1.
       -1   -1    0    0    0  501  0.00000000000E+00  0.00000000000E+00 -0.21127222278E+04  0.21127222278E+04  0.50400001928E-02 0.  1.
    10030    2    1    2    0    0  0.00000000000E+00  0.00000000000E+00 -0.59025807764E+03  0.36351863779E+04  0.35869451354E+04 0.  0.
        4    1    3    3  502    0  0.17720006903E+03  0.87484168834E+03 -0.18716188980E+04  0.20735734268E+04  0.12699999809E+01 0.  1.
       -4    1    3    3    0  502 -0.17720006903E+03 -0.87484168834E+03  0.12813608204E+04  0.15616129511E+04  0.12699999809E+01 0. -1.
</event>
<event>
 5   0  0.7347303E-08  0.3612324E+04  0.7818609E-02  0.8087675E-01
        1   -1    0    0  501    0  0.00000000000E+00  0.00000000000E+00  0.15805469160E+04  0.15805469160E+04  0.50400001928E-02 0.  1.
       -1   -1    0    0    0  501  0.00000000000E+00  0.00000000000E+00 -0.20639821119E+04  0.20639821119E+04  0.50400001928E-02 0. -1.
    10030    2    1    2    0    0  0.00000000000E+00  0.00000000000E+00 -0.48343519590E+03  0.36445290280E+04  0.36123236631E+04 0.  0.
        2    1    3    3  502    0  0.25480291111E+03  0.13407379512E+04 -0.14353620889E+04  0.19805976632E+04  0.25500000920E-02 0. -1.
       -2    1    3    3    0  502 -0.25480291111E+03 -0.13407379512E+04  0.95192689296E+03  0.16639313648E+04  0.25500000920E-02 0.  1.
</event>
<event>
 5   0  0.7514289E-08  0.3602335E+04  0.7818609E-02  0.8089957E-01
        1   -1    0    0  501    0  0.00000000000E+00  0.00000000000E+00  0.15069565016E+04  0.15069565016E+04  0.50400001928E-02 0. -1.
       -1   -1    0    0    0  501  0.00000000000E+00  0.00000000000E+00 -0.21528186588E+04  0.21528186588E+04  0.50400001928E-02 0.  1.
    10030    2    1    2    0    0  0.00000000000E+00  0.00000000000E+00 -0.64586215720E+03  0.36597751605E+04  0.36023348399E+04 0.  0.
        4    1    3    3  502    0  0.11634137083E+04 -0.23837020143E+02 -0.17196629387E+04  0.20763771083E+04  0.12699999809E+01 0.  1.
       -4    1    3    3    0  502 -0.11634137083E+04  0.23837020143E+02  0.10738007815E+04  0.15833980521E+04  0.12699999809E+01 0. -1.
</event>
<event>
 5   0  0.2199902E-07  0.3595988E+04  0.7818609E-02  0.8091411E-01
        2   -1    0    0  501    0  0.00000000000E+00  0.00000000000E+00  0.16661861889E+04  0.16661861889E+04  0.25500000920E-02 0. -1.
       -2   -1    0    0    0  501  0.00000000000E+00  0.00000000000E+00 -0.19402285092E+04  0.19402285092E+04  0.25500000920E-02 0.  1.
    10030    2    1    2    0    0  0.00000000000E+00  0.00000000000E+00 -0.27404232035E+03  0.36064146981E+04  0.35959877338E+04 0.  0.
        1    1    3    3  502    0  0.26544183451E+02 -0.11033986454E+04  0.12864565408E+04  0.16950408832E+04  0.50400001928E-02 0. -1.
       -1    1    3    3    0  502 -0.26544183451E+02  0.11033986454E+04 -0.15604988612E+04  0.19113738149E+04  0.50400001928E-02 0.  1.
</event>
<event>
 5   0  0.2309391E-07  0.3601363E+04  0.7818609E-02  0.8090180E-01
        2   -1    0    0  501    0  0.00000000000E+00  0.00000000000E+00  0.19590793359E+04  0.19590793359E+04  0.25500000920E-02 0. -1.
       -2   -1    0    0    0  501  0.00000000000E+00  0.00000000000E+00 -0.16550904751E+04  0.16550904751E+04  0.25500000920E-02 0.  1.
    10030    2    1    2    0    0  0.00000000000E+00  0.00000000000E+00  0.30398886074E+03  0.36141698110E+04  0.36013628247E+04 0.  0.
        4    1    3    3  502    0 -0.15321262863E+04  0.85753539937E+03 -0.24901889391E+03  0.17733555596E+04  0.12699999809E+01 0. -1.
       -4    1    3    3    0  502  0.15321262863E+04 -0.85753539937E+03  0.55300775465E+03  0.18408142514E+04  0.12699999809E+01 0.  1.
</event>
<event>
 5   0  0.7261233E-08  0.3630205E+04  0.7818609E-02  0.8083608E-01
        1   -1    0    0  501    0  0.00000000000E+00  0.00000000000E+00  0.17231078339E+04  0.17231078339E+04  0.50400001928E-02 0.  1.
       -1   -1    0    0    0  501  0.00000000000E+00  0.00000000000E+00 -0.19120090372E+04  0.19120090372E+04  0.50400001928E-02 0. -1.
    10030    2    1    2    0    0  0.00000000000E+00  0.00000000000E+00 -0.18890120322E+03  0.36351168711E+04  0.36302053664E+04 0.  0.
        3    1    3    3  502    0  0.59673434839E+03 -0.40750404445E+03 -0.17617698203E+04  0.19042017589E+04  0.10100000352E+00 0. -1.
       -3    1    3    3    0  502 -0.59673434839E+03  0.40750404445E+03  0.15728686171E+04  0.17309151122E+04  0.10100000352E+00 0.  1.
</event>
<event>
 5   0  0.2238968E-07  0.3634709E+04  0.7818609E-02  0.8082587E-01
        2   -1    0    0  501    0  0.00000000000E+00  0.00000000000E+00  0.25784450602E+04  0.25784450602E+04  0.25500000920E-02 0. -1.
       -2   -1    0    0    0  501  0.00000000000E+00  0.00000000000E+00 -0.12809180301E+04  0.12809180301E+04  0.25500000920E-02 0.  1.
    10030    2    1    2    0    0  0.00000000000E+00  0.00000000000E+00  0.12975270300E+04  0.38593630903E+04  0.36347086636E+04 0.  0.
        3    1    3    3  502    0 -0.44920138350E+03  0.10137331794E+04  0.21776712832E+04  0.24437039652E+04  0.10100000352E+00 0. -1.
       -3    1    3    3    0  502  0.44920138350E+03 -0.10137331794E+04 -0.88014425314E+03  0.14156591251E+04  0.10100000352E+00 0.  1.
</event>
<event>
 5   0  0.7261233E-08  0.3585417E+04  0.7818609E-02  0.8093840E-01
        1   -1    0    0  501    0  0.00000000000E+00  0.00000000000E+00  0.98713494200E+03  0.98713494201E+03  0.50400001928E-02 0.  1.
       -1   -1    0    0    0  501  0.00000000000E+00  0.00000000000E+00 -0.32556880019E+04  0.32556880019E+04  0.50400001928E-02 0. -1.
    10030    2    1    2    0    0  0.00000000000E+00  0.00000000000E+00 -0.22685530599E+04  0.42428229440E+04  0.35854167886E+04 0.  0.
        3    1    3    3  502    0 -0.15477367545E+04  0.62072345014E+03 -0.35558116244E+03  0.17050585433E+04  0.10100000352E+00 0.  1.
       -3    1    3    3    0  502  0.15477367545E+04 -0.62072345014E+03 -0.19129718975E+04  0.25377644007E+04  0.10100000352E+00 0. -1.
</event>
<event>
 5   0  0.7347303E-08  0.3599757E+04  0.7818609E-02  0.8090547E-01
        1   -1    0    0  501    0  0.00000000000E+00  0.00000000000E+00  0.18819437352E+04  0.18819437352E+04  0.50400001928E-02 0.  1.
       -1   -1    0    0    0  501  0.00000000000E+00  0.00000000000E+00 -0.17213919878E+04  0.17213919878E+04  0.50400001928E-02 0. -1.
    10030    2    1    2    0    0  0.00000000000E+00  0.00000000000E+00  0.16055174743E+03  0.36033357230E+04  0.35997571403E+04 0.  0.
        2    1    3    3  502    0 -0.62804516258E+03 -0.11521597142E+04  0.13134299922E+04  0.18566127969E+04  0.25500000920E-02 0.  1.
       -2    1    3    3    0  502  0.62804516258E+03  0.11521597142E+04 -0.11528782448E+04  0.17467229261E+04  0.25500000920E-02 0. -1.
</event>
<event>
 5   0  0.2198900E-07  0.3598740E+04  0.7818609E-02  0.8090780E-01
        2   -1    0    0  501    0  0.00000000000E+00  0.00000000000E+00  0.19063682109E+04  0.19063682109E+04  0.25500000920E-02 0. -1.
       -2   -1    0    0    0  501  0.00000000000E+00  0.00000000000E+00 -0.16983774740E+04  0.16983774740E+04  0.25500000920E-02 0.  1.
    10030    2    1    2    0    0  0.00000000000E+00  0.00000000000E+00  0.20799073692E+03  0.36047456849E+04  0.35987402388E+04 0.  0.
        2    1    3    3  502    0  0.12315040869E+04 -0.10514874508E+04  0.88984562696E+03  0.18477157289E+04  0.25500000920E-02 0. -1.
       -2    1    3    3    0  502 -0.12315040869E+04  0.10514874508E+04 -0.68185489003E+03  0.17570299560E+04  0.25500000920E-02 0.  1.
</event>
<event>
 5   0  0.7236375E-08  0.3602043E+04  0.7818609E-02  0.8090024E-01
       -3   -1    0    0    0  501  0.00000000000E+00  0.00000000000E+00  0.19678107231E+04  0.19678107257E+04  0.10100000352E+00 0.  1.
        3   -1    0    0  501    0  0.00000000000E+00  0.00000000000E+00 -0.16483687120E+04  0.16483687151E+04  0.10100000352E+00 0. -1.
    10030    2    1    2    0    0  0.00000000000E+00  0.00000000000E+00  0.31944201108E+03  0.36161794409E+04  0.36020425525E+04 0.  0.
        4    1    3    3  502    0 -0.47878923669E+03 -0.28917165683E+03 -0.15589607166E+04  0.16562667385E+04  0.12699999809E+01 0. -1.
       -4    1    3    3    0  502  0.47878923669E+03  0.28917165683E+03  0.18784027277E+04  0.19599127023E+04  0.12699999809E+01 0.  1.
</event>
<event>
 5   0  0.7236375E-08  0.3583328E+04  0.7818609E-02  0.8094321E-01
        1   -1    0    0  501    0  0.00000000000E+00  0.00000000000E+00  0.30793652823E+04  0.30793652823E+04  0.50400001928E-02 0. -1.
       -1   -1    0    0    0  501  0.00000000000E+00  0.00000000000E+00 -0.10424419902E+04  0.10424419902E+04  0.50400001928E-02 0.  1.
    10030    2    1    2    0    0  0.00000000000E+00  0.00000000000E+00  0.20369232921E+04  0.41218072726E+04  0.35833278798E+04 0.  0.
        1    1    3    3  502    0  0.16362417970E+04  0.70103210370E+03  0.78462360975E+03  0.19453450691E+04  0.50400001928E-02 0.  1.
       -1    1    3    3    0  502 -0.16362417970E+04 -0.70103210370E+03  0.12522996824E+04  0.21764622035E+04  0.50400001928E-02 0. -1.
</event>
<event>
 5   0  0.2309391E-07  0.3605954E+04  0.7818609E-02  0.8089129E-01
       -2   -1    0    0    0  501  0.00000000000E+00  0.00000000000E+00  0.15626718349E+04  0.15626718349E+04  0.25500000920E-02 0. -1.
        2   -1    0    0  501    0  0.00000000000E+00  0.00000000000E+00 -0.20802363470E+04  0.20802363470E+04  0.25500000920E-02 0.  1.
    10030    2    1    2    0    0  0.00000000000E+00  0.00000000000E+00 -0.51756451208E+03  0.36429081819E+04  0.36059543810E+04 0.  0.
        4    1    3    3  502    0  0.67761546190E+03  0.15679315114E+04 -0.84189158579E+03  0.19042990820E+04  0.12699999809E+01 0.  1.
       -4    1    3    3    0  502 -0.67761546190E+03 -0.15679315114E+04  0.32432707371E+03  0.17386090999E+04  0.12699999809E+01 0. -1.
</event>
<event>
 5   0  0.7236375E-08  0.3605801E+04  0.7818609E-02  0.8089164E-01
       -1   -1    0    0    0  501  0.00000000000E+00  0.00000000000E+00  0.15310393550E+04  0.15310393550E+04  0.50400001928E-02 0. -1.
        1   -1    0    0  501    0  0.00000000000E+00  0.00000000000E+00 -0.21230346342E+04  0.21230346342E+04  0.50400001928E-02 0.  1.
    10030    2    1    2    0    0  0.00000000000E+00  0.00000000000E+00 -0.59199527923E+03  0.36540739892E+04  0.36058006472E+04 0.  0.
        1    1    3    3  502    0 -0.36453960406E+03 -0.10101817983E+04 -0.17635191961E+04  0.20647896608E+04  0.50400001928E-02 0.  1.
       -1    1    3    3    0  502  0.36453960406E+03  0.10101817983E+04  0.11715239168E+04  0.15892843283E+04  0.50400001928E-02 0. -1.
</event>
<event>
 5   0  0.2309391E-07  0.3594191E+04  0.7818609E-02  0.8091824E-01
       -2   -1    0    0    0  501  0.00000000000E+00  0.00000000000E+00  0.18358426239E+04  0.18358426239E+04  0.25500000920E-02 0.  1.
        2   -1    0    0  501    0  0.00000000000E+00  0.00000000000E+00 -0.17591658810E+04  0.17591658810E+04  0.25500000920E-02 0. -1.
    10030    2    1    2    0    0  0.00000000000E+00  0.00000000000E+00  0.76676742985E+02  0.35950085049E+04  0.35941907055E+04 0.  0.
        4    1    3    3  502    0  0.21384656241E+03 -0.13775029917E+04  0.11727504093E+04  0.18216997502E+04  0.12699999809E+01 0.  1.
       -4    1    3    3    0  502 -0.21384656241E+03  0.13775029917E+04 -0.10960736663E+04  0.17733087547E+04  0.12699999809E+01 0. -1.
</event>
<event>
 5   0  0.2342606E-07  0.3626215E+04  0.7818609E-02  0.8084513E-01
       -2   -1    0    0    0  501  0.00000000000E+00  0.00000000000E+00  0.16584138889E+04  0.16584138889E+04  0.25500000920E-02 0.  1.
        2   -1    0    0  501    0  0.00000000000E+00  0.00000000000E+00 -0.19822303003E+04  0.19822303003E+04  0.25500000920E-02 0. -1.
    10030    2    1    2    0    0  0.00000000000E+00  0.00000000000E+00 -0.32381641138E+03  0.36406441892E+04  0.36262146991E+04 0.  0.
        5    1    3    3  502    0 -0.11917595537E+04 -0.11223219208E+04  0.62057676019E+03  0.17507241167E+04  0.46999998093E+01 0.  1.
       -5    1    3    3    0  502  0.11917595537E+04  0.11223219208E+04 -0.94439317157E+03  0.18899200724E+04  0.46999998093E+01 0. -1.
</event>
<event>
 5   0  0.7514289E-08  0.3584404E+04  0.7818609E-02  0.8094074E-01
        1   -1    0    0  501    0  0.00000000000E+00  0.00000000000E+00  0.20817208460E+04  0.20817208460E+04  0.50400001928E-02 0. -1.
       -1   -1    0    0    0  501  0.00000000000E+00  0.00000000000E+00 -0.15429480658E+04  0.15429480658E+04  0.50400001928E-02 0.  1.
    10030    2    1    2    0    0  0.00000000000E+00  0.00000000000E+00  0.53877278014E+03  0.36246689118E+04  0.35844035225E+04 0.  0.
        4    1    3    3  502    0  0.98568718173E+03  0.10932446224E+04  0.13032323280E+04  0.19660058846E+04  0.12699999809E+01 0. -1.
       -4    1    3    3    0  502 -0.98568718173E+03 -0.10932446224E+04 -0.76445954784E+03  0.16586630272E+04  0.12699999809E+01 0.  1.
</event>
<event>
 5   0  0.2342606E-07  0.3615372E+04  0.7818609E-02  0.8086980E-01
        2   -1    0    0  501    0  0.00000000000E+00  0.00000000000E+00  0.17275613767E+04  0.17275613767E+04  0.25500000920E-02 0.  1.
       -2   -1    0    0    0  501  0.00000000000E+00  0.00000000000E+00 -0.18915267309E+04  0.18915267309E+04  0.25500000920E-02 0. -1.
    10030    2    1    2    0    0  0.00000000000E+00  0.00000000000E+00 -0.16396535420E+03  0.36190881076E+04  0.36153719163E+04 0.  0.
        5    1    3    3  502    0  0.13058713046E+04  0.11362606130E+04 -0.60340040216E+03  0.18331672537E+04  0.46999998093E+01 0. -1.
       -5    1    3    3    0  502 -0.13058713046E+04 -0.11362606130E+04  0.43943504796E+03  0.17859208539E+04  0.46999998093E+01 0.  1.
</event>
<event>
 5   0  0.7347303E-08  0.3601239E+04  0.7818609E-02  0.8090208E-01
        1   -1    0    0  501    0  0.00000000000E+00  0.00000000000E+00  0.24765555983E+04  0.24765555983E+04  0.50400001928E-02 0. -1.
       -1   -1    0    0    0  501  0.00000000000E+00  0.00000000000E+00 -0.13091694826E+04  0.13091694826E+04  0.50400001928E-02 0.  1.
    10030    2    1    2    0    0  0.00000000000E+00  0.00000000000E+00  0.11673861158E+04  0.37857250809E+04  0.36012392374E+04 0.  0.
        2    1    3    3  502    0 -0.10890236569E+03  0.12298203976E+04 -0.79414346188E+03  0.14679856176E+04  0.25500000920E-02 0.  1.
       -2    1    3    3    0  502  0.10890236569E+03 -0.12298203976E+04  0.19615295777E+04  0.23177394633E+04  0.25500000920E-02 0. -1.
</event>
<event>
 5   0  0.2198900E-07  0.3600279E+04  0.7818609E-02  0.8090428E-01
       -2   -1    0    0    0  501  0.00000000000E+00  0.00000000000E+00  0.21672128926E+04  0.21672128926E+04  0.25500000920E-02 0. -1.
        2   -1    0    0  501    0  0.00000000000E+00  0.00000000000E+00 -0.14952391295E+04  0.14952391295E+04  0.25500000920E-02 0.  1.
    10030    2    1    2    0    0  0.00000000000E+00  0.00000000000E+00  0.67197376306E+03  0.36624520221E+04  0.36002786108E+04 0.  0.
        2    1    3    3  502    0  0.71891496761E+03 -0.41398608707E+03  0.19611608171E+04  0.21294071854E+04  0.25500000920E-02 0. -1.
       -2    1    3    3    0  502 -0.71891496761E+03  0.41398608707E+03 -0.12891870540E+04  0.15330448366E+04  0.25500000920E-02 0.  1.
</event>
<event>
 5   0  0.7236375E-08  0.3598354E+04  0.7818609E-02  0.8090869E-01
        1   -1    0    0  501    0  0.00000000000E+00  0.00000000000E+00  0.26432991785E+04  0.26432991785E+04  0.50400001928E-02 0. -1.
       -1   -1    0    0    0  501  0.00000000000E+00  0.00000000000E+00 -0.12246205135E+04  0.12246205135E+04  0.50400001928E-02 0.  1.
    10030    2    1    2    0    0  0.00000000000E+00  0.00000000000E+00  0.14186786650E+04  0.38679196919E+04  0.35983542889E+04 0.  0.
        5    1    3    3  502    0  0.85744468655E+03  0.39764520894E+03 -0.93625575100E+03  0.13303871707E+04  0.46999998093E+01 0.  1.
       -5    1    3    3    0  502 -0.85744468655E+03 -0.39764520894E+03  0.23549344160E+04  0.25375325212E+04  0.46999998093E+01 0. -1.
</event>
</LesHouchesEvents>
